/*--------------------------------*- C++ -*----------------------------------*\
  =========                 |
  \\      /  F ield         | OpenFOAM: The Open Source CFD Toolbox
   \\    /   O peration     | Website:  https://openfoam.org
    \\  /    A nd           | Version:  11
     \\/     M anipulation  |
\*---------------------------------------------------------------------------*/
FoamFile
{
    format      ascii;
    class       volScalarField;
    location    "0.1325";
    object      Ma;
}
// * * * * * * * * * * * * * * * * * * * * * * * * * * * * * * * * * * * * * //

dimensions      [0 0 0 0 0 0 0];

internalField   nonuniform List<scalar> 
880
(
1.11801663592382
1.118016635923017
1.118016403137263
1.117949435946253
1.11801663592382
1.118016635919265
1.118015781462922
1.117608133070937
1.11801663592382
1.11801663593637
1.118012371809163
1.116494424544469
1.118016635923821
1.118016635273646
1.11799199610218
1.109876952569131
1.118016635923616
1.118016635922803
1.118016635891045
1.118016632731936
1.118016637183844
1.118016634777658
1.11801663543464
1.118016133308072
1.117884421665916
1.117744282446128
1.117511150924814
1.118067231822902
1.08647463891339
1.062229792197872
1.052997987464292
1.050607459163342
1.118016576634543
1.11801607971522
1.118014117764014
1.118013930905697
1.118010777682792
1.117997572951615
1.117986901861465
1.117984527388331
1.116045715837556
1.114616995919433
1.113835092325914
1.113634081335428
1.049172417192381
1.04381706086605
1.046016336272255
1.047744968329614
1.092779267237171
1.115007971864181
1.124935194986339
1.135150541320711
1.108843344386096
1.109014423614553
1.113349238975901
1.117766240573361
1.117882044891465
1.117712955851689
1.117714823507513
1.117891593963725
1.118008607623301
1.117996703505954
1.117977122405301
1.117965093425668
1.117965595876734
1.117974940887356
1.117990926892013
1.118005973401986
1.118019213646217
1.118108228151451
1.118134507459222
1.118094518964019
1.12021881542946
1.121647038415714
1.121849711015863
1.12105882073421
1.141151509536066
1.142090821201903
1.140033790621687
1.136369790954552
1.131997387497268
1.119725997100927
1.118043571774847
1.118014006624231
1.126933237445801
1.118679358893938
1.118021276859494
1.118016311154818
1.115603888364013
1.118061954876707
1.118016791115344
1.118016618396255
1.033275751989687
1.116494556375481
1.118011347043682
1.118016482769521
1.118015990076756
1.117975507654278
1.10847418487027
0.8253399487606385
1.118012331644436
1.117905302855478
1.100140635644934
0.8104887705368309
1.118008321597965
1.117715982449803
1.087743709282405
0.7920847941309653
1.11798539668667
1.117511290050568
1.075930982099807
0.7973437752723868
0.8027879733544575
1.061754372756131
1.117077559751622
1.117970258316001
0.8124485293778596
1.051415855443338
1.116776554227976
1.117908556885715
0.8186101253721327
1.037332354278943
1.116053140508872
1.117883642817047
0.8267538880790581
1.024880007745565
1.115355651650024
1.117770892946768
1.117695491261348
1.113813508479093
1.00828200958886
0.8461315804049113
1.117466381561492
1.113273971761514
1.023634943187311
0.896341322422162
1.117685650330265
1.114869860524193
1.063335089736274
0.9862474031228182
1.117321938621424
1.116312263101685
1.101355048582297
1.088189928010441
1.117423715417326
1.117178063208655
1.138482333046733
1.261685552585947
1.117427624928702
1.123075558618178
1.153997464697538
1.324549984337112
1.117890625687515
1.12202297596319
1.144738131719293
1.232616276327212
1.118041748458861
1.119092411339376
1.121396302504996
1.004695438653602
0.8817501042585058
1.102788357096592
1.11787140616462
1.118035127664035
0.8093191750943515
1.086121488145848
1.1170748854678
1.118006235812331
0.7663376303533708
1.075406754421105
1.116783686998163
1.11801444256207
0.7160458304032332
1.06571402672578
1.116384628826216
1.118008046965564
0.7744607173258866
1.077854260182039
1.117029738193994
1.118013131539697
0.875186698227491
1.092747659077773
1.117586396546144
1.118015208063765
0.9690170665436629
1.104722562561941
1.117861799534324
1.11801624759382
1.035663390882044
1.112548711352097
1.117994744347352
1.118016585410017
0.9998752534269442
1.108602566182513
1.117705352711635
1.118013110379234
1.009154667667796
1.109191462747152
1.117722039334776
1.118013224086195
1.008523101866254
1.109011986301626
1.11773655167682
1.11801343166124
1.007422146579106
1.109614634335334
1.117776783734066
1.118013991289215
1.035663390882583
1.112548711354434
1.117994744350542
1.118016585413055
0.9690170665439257
1.10472256256444
1.117861799536476
1.118016247595135
0.8751866982278492
1.092747659079529
1.11758639654652
1.118015208064543
0.7744607173247542
1.077854260183709
1.117029738193112
1.118013131539547
1.118035127662622
1.117871406163432
1.102788357094535
0.8817501042573945
1.118006235811319
1.117074885467852
1.086121488144269
0.8093191750926744
1.118014442561376
1.116783686998652
1.075406754422749
0.7663376303518666
1.118008046965269
1.116384628824249
1.065714026726804
0.716045830402159
1.004695438651491
1.121396302504641
1.119092411340556
1.118041748459107
1.232616276325441
1.144738131719645
1.122022975962477
1.117890625687638
1.324549984337154
1.153997464697529
1.12307555861786
1.117427624927572
1.261685552585841
1.138482333048367
1.117178063210672
1.117423715415754
1.117695491262875
1.11381350847285
1.00828200958524
0.8461315804051285
1.117466381561456
1.11327397175929
1.023634943184835
0.8963413224217506
1.11768565032722
1.114869860522119
1.063335089736236
0.9862474031232937
1.117321938626071
1.116312263102492
1.101355048582443
1.088189928010413
0.826753888079763
1.024880007745731
1.115355651658392
1.117770892940615
0.8186101253714564
1.03733235427737
1.116053140498846
1.117883642818497
0.8124485293780906
1.051415855443743
1.116776554235946
1.117908556884461
0.8027879733544272
1.061754372754885
1.117077559748174
1.117970258315805
1.118015990076395
1.117975507653009
1.108474184869049
0.8253399487588632
1.118012331641486
1.117905302854906
1.100140635649986
0.8104887705387854
1.118008321594851
1.117715982447798
1.087743709279753
0.7920847941319825
1.117985396686459
1.11751129005317
1.075930982102065
0.7973437752727242
1.118016482769401
1.118016618396628
1.118016311153695
1.118014006624352
1.118011347046693
1.118016791116646
1.118021276860561
1.118043571775329
1.116494556376958
1.118061954875975
1.118679358894884
1.119725997101737
1.033275751990892
1.115603888363695
1.12693323744534
1.131997387497437
1.118005973401264
1.118094518962953
1.12105882073349
1.136369790954068
1.117990926892593
1.118134507457629
1.121849711015874
1.140033790621412
1.117974940887355
1.118108228150868
1.121647038416889
1.142090821203678
1.117965595877899
1.118019213646765
1.120218815429016
1.141151509536841
1.118008607623243
1.117882044893319
1.108843344385889
1.092779267235863
1.117996703507985
1.117712955851396
1.109014423613649
1.115007971864115
1.117977122403756
1.117714823508976
1.113349238976918
1.124935194987763
1.117965093426309
1.117891593964244
1.117766240573167
1.135150541321884
1.047744968330139
1.113634081335277
1.117984527390217
1.118013930904598
1.046016336273288
1.113835092324634
1.117986901864061
1.118014117764319
1.043817060866139
1.114616995918961
1.117997572954599
1.118016079715632
1.049172417192826
1.116045715837899
1.118010777684202
1.118016576632433
1.050607459164032
1.11806723182075
1.118016133308307
1.118016632730767
1.052997987464992
1.117511150926684
1.118016635436056
1.11801663589103
1.062229792198635
1.117744282447096
1.118016634779662
1.118016635922795
1.086474638914321
1.117884421666674
1.118016637182429
1.118016635923612
1.118016635923821
1.118016635922981
1.118016403136594
1.117949435945115
1.11801663592382
1.118016635919973
1.118015781462749
1.117608133071819
1.11801663592382
1.118016635936936
1.118012371809197
1.116494424544507
1.11801663592382
1.118016635275801
1.117991996102926
1.109876952569786
1.117787647525993
1.117036559184482
1.11326676036871
1.09107155530808
1.117036559183265
1.114446210443147
1.10083725825246
1.048336699129243
1.113266760368508
1.100837258252584
1.054187362571483
0.9533570712778395
1.091071555308333
1.048336699129611
0.9533570712766036
0.8313318973567443
0.7922972956195181
0.8368996709874668
0.9215223052236373
0.9988804467974134
0.8470767438527281
0.8594006029128882
0.8988149903106086
0.9543567180225904
0.8761393347034351
0.8907426270610044
0.9254702042311171
0.9607234936037492
0.9107122114322472
0.9187841699325737
0.94246929477118
0.9658311135315542
0.9794952898276994
0.989316573803896
0.9967668872624657
1.012332754587217
0.9658359401843485
0.9873322441875875
0.9968747509092443
1.035704205737328
0.9465677227863202
0.9779566265151202
0.9934814883953694
1.0981740096523
0.928752644103188
0.9349771602043717
0.9448579277891621
1.181154864771888
1.205239057464642
1.213224043581843
1.175865488200843
1.164708210845496
1.294570306881251
1.290108755699835
1.229642535393646
1.196779051589379
1.436136795779851
1.339199799681756
1.257765783107015
1.214107552607704
1.16408573321243
1.057566462280604
1.029143581848569
1.032999152648078
1.160629836991143
1.155011689269715
1.148656579446269
1.142098182165949
1.180355489797136
1.168216049780476
1.158034867201598
1.14967334711076
1.190319221101685
1.175162968200061
1.164116396301332
1.155365343537986
1.046460204978064
1.064933714495145
1.082147580518412
1.097849431669221
1.137942771482358
1.131944265980544
1.071635090418022
0.7969391109440914
1.144259716495132
1.136156830732995
1.026083661805634
0.6422423334147584
1.149114091558746
1.139424585914702
0.9462084678715058
0.4779587627836891
1.110391098628617
1.118641925956428
0.7932529399102369
0.2293427528885719
0.590016553888919
0.6498517253210501
0.6850770149583464
0.7259113756301017
0.5360432631160547
0.6293770118073443
0.6822339578753819
0.7268867999411734
0.4232831029353876
0.5626814322178603
0.652327273634539
0.7138413732450972
0.2074623723100775
0.350023780057215
0.496449056952439
0.6011419312881817
0.7487819142959111
0.7577495979424269
0.7593376236960157
0.7656130389245747
0.7477918089256373
0.7565008357378686
0.7603589717814706
0.7691701598637766
0.7441398012641611
0.7548172222669519
0.7604977490740701
0.7703600752169956
0.6769316387522603
0.7135422161640645
0.7311256701661487
0.7381348472355804
0.7833475929196847
0.8385363436126653
0.9324152717416637
1.04856667470818
0.7893686036730035
0.8381211686645279
0.9245627179251552
1.078026123257182
0.7917319094567502
0.8304432312757292
0.9415071805085611
1.369253425080072
0.7687855164135283
0.8071097394556388
0.9620522839176403
1.907463209911838
1.258180647931967
1.485681340353423
0.5434474093983507
0.2265789403001187
1.337818122423159
1.231033318624155
0.2430933317327167
0.159579721341415
1.420665981097099
0.8837464012443362
0.1872623836302412
0.1851404334053878
1.138324775350698
0.3732780009811477
0.2121115496115845
0.156230723368031
0.1341029443595651
0.09504781389205239
0.08055577976216551
0.05267840784467933
0.09058073458660018
0.04351797441889212
0.03522324402592795
0.06465098571301386
0.1286831710405225
0.09966933860881023
0.1023881590365936
0.1149103133500491
0.122067811445009
0.108305115698821
0.1269301339344769
0.1228832787556932
0.3243421004842583
0.6583297015817641
0.8827843192520006
1.089047191543566
0.1437662613754656
0.4783475826832612
0.7551575965251871
0.998233164864133
0.08299588415359138
0.2490319434995695
0.549727908681222
0.8910985164170648
0.07302366771424035
0.0618183544890982
0.4159606387766739
0.9489536076140287
1.286857187516157
1.450748007412844
1.317224446488073
0.8922341353605462
1.141078559511364
1.147403471769731
0.9972857835891747
0.6529562429601811
1.035295566090542
0.8275523032357276
0.5562893174632819
0.2785211434793811
0.8208049165223085
0.3894661234377366
0.1958538281106377
0.1328309965775441
0.141932167248235
0.1455213453409261
0.1260448299251762
0.09745706740213331
0.1151015079241937
0.09759112561955341
0.1467822517674517
0.1530330015555877
0.205413339202521
0.07672473248886398
0.1435015049349974
0.1540194784741366
0.4997443729763594
0.3069588150592222
0.2121384056835521
0.1829756195961604
0.09745706740196225
0.1530330015556334
0.1540194784744547
0.1829756195945649
0.1260448299247894
0.1467822517671952
0.143501504935065
0.2121384056838635
0.1455213453404309
0.09759112561910853
0.07672473248883666
0.306958815059934
0.1419321672478464
0.115101507924149
0.2054133392028833
0.4997443729769492
0.8922341353599441
1.317224446486827
1.450748007412192
1.286857187515513
0.652956242960232
0.9972857835891945
1.147403471770008
1.141078559511022
0.2785211434794654
0.556289317463379
0.8275523032358463
1.035295566090681
0.1328309965774621
0.1958538281105369
0.3894661234377222
0.8208049165227204
0.9489536076140453
0.4159606387767414
0.06181835448929485
0.07302366771411842
0.891098516417001
0.5497279086812683
0.2490319434998518
0.0829958841537773
0.9982331648635741
0.7551575965249112
0.4783475826831317
0.1437662613751942
1.08904719154277
0.882784319251538
0.6583297015814438
0.3243421004835237
0.05267840784552552
0.08055577976170836
0.09504781389054405
0.134102944360648
0.06465098571277632
0.03522324402643907
0.04351797442037233
0.09058073458761434
0.1149103133496477
0.1023881590366827
0.09966933860987147
0.1286831710411668
0.1228832787554465
0.1269301339348805
0.1083051156995576
0.1220678114451427
0.2265789402985003
0.5434474093921438
1.485681340350081
1.258180647931147
0.1595797213409763
0.2430933317303569
1.231033318621721
1.337818122423031
0.1851404334045806
0.1872623836305356
0.8837464012421805
1.420665981096685
0.1562307233672369
0.2121115496121362
0.3732780009796048
1.13832477535119
1.048566674708329
0.932415271742284
0.8385363436124252
0.7833475929197616
1.078026123257029
0.9245627179250495
0.838121168664492
0.7893686036733043
1.369253425079568
0.9415071805084698
0.8304432312757729
0.7917319094571793
1.907463209910943
0.9620522839176088
0.8071097394557488
0.7687855164137336
0.7656130389251056
0.7593376236957495
0.7577495979426614
0.7487819142960284
0.7691701598643602
0.7603589717811899
0.756500835737971
0.747791808925933
0.7703600752175751
0.760497749073794
0.7548172222671047
0.744139801264378
0.7381348472363561
0.7311256701660594
0.7135422161637099
0.6769316387500899
0.7259113756303084
0.6850770149585197
0.6498517253224979
0.5900165538878624
0.7268867999413114
0.6822339578755022
0.6293770118081535
0.5360432631156978
0.713841373244949
0.6523272736347246
0.5626814322179498
0.4232831029355164
0.6011419312871823
0.4964490569541335
0.3500237800566153
0.2074623723106345
0.7969391109445692
1.071635090418779
1.131944265979425
1.137942771482107
0.6422423334154027
1.026083661806787
1.136156830732203
1.144259716494599
0.4779587627857612
0.9462084678733722
1.139424585913771
1.149114091558113
0.2293427528902
0.7932529399121926
1.118641925954432
1.110391098627255
1.14209818216392
1.148656579447222
1.155011689270591
1.160629836991579
1.149673347108111
1.158034867203583
1.168216049780932
1.180355489797707
1.155365343535278
1.164116396303569
1.175162968201081
1.190319221101946
1.097849431666592
1.082147580521123
1.064933714494126
1.046460204978464
1.164708210846743
1.175865488202051
1.213224043581269
1.205239057463506
1.196779051590657
1.229642535395095
1.290108755698163
1.294570306880161
1.214107552609163
1.257765783108585
1.339199799679668
1.436136795778683
1.032999152647904
1.029143581851019
1.057566462280456
1.164085733213743
1.012332754587891
0.9967668872641027
0.9893165738035498
0.979495289827554
1.035704205738026
0.9968747509103225
0.9873322441867255
0.9658359401840437
1.098174009652336
0.993481488395792
0.9779566265136937
0.9465677227862358
1.181154864771217
0.9448579277895909
0.9349771602036787
0.9287526441044445
0.9658311135330878
0.9607234936040404
0.9543567180231751
0.998880446797667
0.9424692947724753
0.9254702042312952
0.8988149903110862
0.921522305223928
0.918784169934996
0.8907426270615662
0.8594006029131582
0.8368996709882481
0.9107122114354895
0.8761393347050164
0.8470767438530732
0.7922972956207768
1.047086707971554
1.111297394821557
1.117917065807579
1.118016143249439
1.043270092140425
1.111827369044814
1.117905011021725
1.11801587075759
1.030089383406948
1.111475315362711
1.117882455253059
1.118015541705244
1.000977533921716
1.110259439475654
1.11783137101575
1.118014851989242
1.118013110377919
1.117705352711311
1.108602566182374
0.9998752534228694
1.118013224086232
1.117722039333927
1.109191462746946
1.009154667670003
1.118013431660915
1.11773655167853
1.109011986301178
1.008523101868185
1.11801399128922
1.117776783735599
1.109614634334544
1.007422146580414
1.118014851990447
1.11801554170439
1.118015870756864
1.118016143251407
1.117831371017165
1.117882455253016
1.117905011021256
1.117917065806753
1.110259439475507
1.111475315362934
1.11182736904419
1.111297394822777
1.000977533921826
1.030089383406987
1.043270092139832
1.047086707971475
)
;

boundaryField
{
    back
    {
        type            empty;
    }
    inlet
    {
        type            calculated;
        value           nonuniform List<scalar> 
16
(
1.11801663592382
1.11801663592382
1.11801663592382
1.11801663592382
1.118016635923552
1.118016635924185
1.118016635911627
1.118016634357442
1.118016634357186
1.118016635911619
1.118016635924174
1.118016635923612
1.11801663592382
1.11801663592382
1.11801663592382
1.11801663592382
)
;
    }
    front
    {
        type            empty;
    }
    top
    {
        type            calculated;
        value           uniform 0;
    }
    outlet
    {
        type            calculated;
        value           nonuniform List<scalar> 
16
(
1.118012050164025
1.118012180674569
1.118012441479792
1.118013136706536
1.118015990629553
1.118015647088408
1.118015213649308
1.118014286037081
1.118012050162947
1.118012180674518
1.118012441479634
1.11801313670654
1.118014286038143
1.118015213648424
1.118015647087823
1.118015990631443
)
;
    }
    bottom
    {
        type            calculated;
        value           uniform 0;
    }
    wall
    {
        type            calculated;
        value           uniform 0;
    }
}


// ************************************************************************* //
