/*--------------------------------*- C++ -*----------------------------------*\
  =========                 |
  \\      /  F ield         | OpenFOAM: The Open Source CFD Toolbox
   \\    /   O peration     | Website:  https://openfoam.org
    \\  /    A nd           | Version:  11
     \\/     M anipulation  |
\*---------------------------------------------------------------------------*/
FoamFile
{
    format      ascii;
    class       volScalarField;
    location    "0.1325";
    object      T;
}
// * * * * * * * * * * * * * * * * * * * * * * * * * * * * * * * * * * * * * //

dimensions      [0 0 0 1 0 0 0];

internalField   nonuniform List<scalar> 
880
(
500
500.0000000003794
500.0000720609617
500.0238678692032
500.0000000000001
500.0000000021799
500.000215618457
500.1407656883076
500
500.0000000629663
500.0009709137441
500.5843873875512
500.0000000000001
499.9999998831291
500.0033917206384
501.5969905242234
500.0000000002403
499.9999999996742
500.0000000109062
500.000001401033
500.0000001262576
500.0000000792082
500.0000080275055
500.0000801369523
500.0219610528678
500.0457376231057
500.1568091088247
499.965338678143
505.3462066282033
510.4598691832883
514.3821037517699
516.007991147136
500.0000161492371
500.0001761062649
500.0006318417608
500.0005337888892
500.0010195520033
500.0028335408911
500.0084217962851
500.0094124259908
500.3326912470416
500.6395669484455
501.0325139423759
501.3519449381582
517.985412134852
520.5950083313155
522.9530088101296
524.3724259187888
519.7973012256725
516.8633570578745
515.254181207357
513.6289935110266
502.4913214137208
503.5714773201146
504.0545339366882
503.9206374257022
500.0305191649856
500.0763800247329
500.1201489250981
500.1443537808794
500.0017822103153
500.005174312628
500.008668020636
500.0093856253328
500.0079539563907
500.0052370198772
500.002409901287
500.0006649221571
500.1360392470557
500.1130278504034
500.0778866383011
500.0388987967441
503.3713564924671
502.7237541573583
502.0375438073186
501.3401782644821
511.5226111266572
509.2924927797228
507.320023013889
505.6154793556079
504.1210716642605
500.6911089574277
500.0117646563225
500.000090591447
502.3820426106907
500.2180311113352
500.0017751899689
500.0000054254415
502.3277873477361
500.0356664341409
500.000110825412
500.0000012368664
518.2258051890589
500.3118952606992
500.0013627173873
500.0000416317682
500.0001881923291
500.0066944302727
501.6538658459335
557.331999063319
500.0009062526341
500.0246671309776
503.4828846653984
570.0106154774816
500.0028058263411
500.0535089278279
506.2118301912069
582.081139213589
500.0071143438368
500.1324428393737
509.9965469394219
592.2957280005412
600.7474802819594
514.3928394945315
500.2228971140449
500.0127574277058
609.196472959177
519.7186272912797
500.4164294811679
500.0229460171217
617.7635502650088
525.3530537644419
500.5888247928484
500.0317867917411
623.8849604472077
532.042761085499
500.9560909490681
500.0524268468294
500.073020349786
501.3360055714988
538.395054150482
627.3936807176358
500.1187909633747
501.849201731669
538.1779683973631
615.5646617003343
500.1679478629791
501.5368246813162
528.9717585989074
591.8503025844948
500.0218854662196
500.8527858462153
516.202161228814
556.7263245973641
500.1443719935024
501.451891956774
512.429237706612
523.6324135168992
500.1018906089648
500.928749766802
506.7193788762165
510.198199512827
500.0171239971453
500.4986885071773
507.0199085554803
516.1748696668733
499.9838649329142
500.0441937108293
505.1614891669229
527.194111396081
519.2941466499714
500.7768801591553
499.5705574871089
499.9748617016169
508.578496081459
497.5712570756243
499.4325338605407
499.9874482109492
499.1938336659433
496.1706744075308
499.4984317910892
499.9948714920633
484.1492527564952
494.9838956686251
499.6433797680482
499.9968047830895
472.0225315551331
495.3698596628017
499.8180956552148
499.9984865199222
461.8659946039086
496.5439921076779
499.9284788547768
499.9995481055136
459.7470803344418
497.4463479441275
499.9641689028423
499.9998174519711
464.3748386650119
498.8746153149455
499.9901374768294
499.9999228383853
498.1132283082485
498.6870217200381
499.9197559886219
499.9990516974296
497.1120932240267
498.7726142060089
499.9253321383011
499.9990667273728
495.1876972434476
498.7883340789858
499.9312882534226
499.999114338897
495.0580295473756
498.8462815504008
499.9383245258667
499.999235624635
464.3748386649767
498.8746153149705
499.9901374771625
499.9999228381937
459.7470803345671
497.4463479440901
499.9641689027421
499.9998174518103
461.8659946038763
496.5439921074689
499.9284788544215
499.9995481053675
472.0225315551943
495.3698596624397
499.8180956552226
499.9984865198775
499.9748617017608
499.5705574874168
500.7768801593456
519.2941466497126
499.9874482107871
499.4325338606688
497.5712570760024
508.5784960811181
499.9948714922275
499.49843179088
496.1706744072369
499.1938336656053
499.9968047831145
499.6433797684722
494.9838956683911
484.1492527565103
527.1941113960983
505.1614891668848
500.0441937105892
499.9838649331378
516.1748696672108
507.0199085555833
500.4986885073682
500.0171239970649
510.1981995128129
506.7193788764206
500.9287497668283
500.1018906090249
523.6324135167828
512.4292377063623
501.4518919563677
500.1443719937641
500.0730203493826
501.3360055712978
538.395054151055
627.393680717984
500.1187909633714
501.8492017308486
538.1779683977151
615.5646617005764
500.1679478623695
501.536824681282
528.97175859877
591.8503025843687
500.0218854666946
500.8527858459786
516.2021612287
556.7263245972589
623.8849604473841
532.0427610860162
500.9560909513527
500.0524268475081
617.7635502654057
525.3530537638607
500.588824790196
500.0317867916981
609.1964729596136
519.7186272919641
500.4164294831527
500.0229460170711
600.747480282214
514.3928394949497
500.2228971135718
500.0127574276721
500.0001881923963
500.0066944301454
501.6538658454976
557.3319990633087
500.0009062530132
500.0246671319514
503.482884665834
570.010615477815
500.002805826645
500.0535089278326
506.2118301910986
582.0811392133256
500.0071143436278
500.1324428395152
509.9965469394321
592.2957280004296
500.0000416317513
500.0000012367527
500.0000054255316
500.0000905915132
500.0013627170271
500.0001108252723
500.0017751898234
500.0117646561347
500.3118952605249
500.0356664342792
500.2180311111606
500.691108957229
518.2258051888679
502.3277873477678
502.3820426107692
504.121071664288
500.0006649221838
500.0388987967848
501.3401782645957
505.6154793557704
500.0024099013153
500.0778866385548
502.0375438074627
507.320023014074
500.0052370198964
500.1130278505777
502.7237541571403
509.2924927793659
500.0079539562897
500.1360392470149
503.3713564925845
511.5226111266899
500.0017822102547
500.0305191649118
502.491321413828
519.7973012259388
500.0051743123385
500.0763800249445
503.5714773202692
516.8633570578268
500.0086680207918
500.1201489248857
504.0545339365484
515.2541812070054
500.0093856252681
500.1443537808115
503.9206374259076
513.6289935107947
524.3724259187604
501.3519449380546
500.0094124260263
500.0005337890425
522.9530088099739
501.0325139426306
500.0084217961281
500.0006318420231
520.5950083314779
500.6395669487473
500.0028335403633
500.0001761057688
517.9854121348254
500.3326912467954
500.0010195517104
500.0000161495526
516.0079911470531
499.9653386781337
500.0000801369608
500.0000014012621
514.3821037517736
500.156809108866
500.0000080274277
500.0000000109131
510.459869183268
500.045737623103
500.0000000791563
499.999999999684
505.3462066280912
500.0219610527355
500.0000001260501
500.0000000001862
500.0000000000001
500.0000000003869
500.0000720610012
500.0238678691072
500
500.0000000021182
500.0002156184557
500.1407656880513
500
500.0000000628509
500.000970913706
500.584387387602
500
499.9999998831169
500.0033917205973
501.5969905239722
500.0936896246895
500.3913442895816
501.347589799189
505.4736545293285
500.3913442897299
500.9219602966687
503.4918834655708
512.3219629076733
501.3475897990321
503.491883465222
510.5855840826043
525.1305485766293
505.4736545294352
512.321962907914
525.1305485772092
544.002072063824
564.7954920955677
549.0268473762019
539.8020389090564
525.8941079328829
560.6360374270618
556.4706703319108
554.3565994278376
546.7952195313193
560.7752392446504
558.7754081379032
557.7772458238313
554.5550867466761
560.2947246821764
559.4057935439101
559.4640611230529
557.4984221093225
557.6831148738139
557.7417916378384
557.7591253199818
556.5571917188661
558.452811244642
556.9246043913212
556.590131396217
555.7845238537346
558.3125380329805
556.3454041993659
555.6269599843989
554.6744109196385
558.5803114768219
556.1813465534714
555.3038429695988
549.957259518432
519.6654901892108
505.1108471323847
504.4474431558057
504.9100971207735
507.7643430743327
499.4375786238633
504.4851932500541
505.413375177686
494.2332503081832
498.0100102223578
505.3805518397827
506.724646936372
471.1087919749999
491.8572207074711
503.375865119846
505.4973152210196
504.8263014220976
504.3984304368424
504.0006264934867
503.6342708621685
505.2644668963008
504.5673028108117
503.7664583619374
503.4059183637864
506.2634833973594
505.2257823999378
504.0179335974398
503.7251767021793
505.5733978717188
504.9986003353872
503.6354293096744
503.1571251901368
503.5419883649408
503.0499129982154
519.0536454636693
578.556121342687
503.5998137867302
502.8584379373859
528.0038120776712
589.9102765274536
503.8364360997693
503.0159283660298
538.9258300294003
598.8433453773794
503.5581231081129
502.7398064634095
545.8283065789763
604.9835711620758
648.0363383249517
646.9559999599921
648.8950619169359
649.7710213331735
655.6841935765132
651.280823030797
649.4450304113386
648.5963688516787
657.2054934413356
653.7345259554785
650.0533005831865
648.0468293356975
659.1076097007101
656.4108235704477
651.3332666143225
647.8009895163218
648.5391371290559
649.1682260565688
651.5572349541868
653.2479480942079
646.5385656927813
646.4631887344195
648.1331400109573
649.6864537731827
644.2783939692613
643.1004067483475
644.1565860257726
645.5798487231058
643.3994821369541
641.5677054369472
642.1888134900286
643.527054321127
653.0838857580346
643.7495534639042
625.2331217412795
593.577840436802
649.7328330151074
641.9987635558605
625.1574026752224
623.1192502637865
645.6849102754627
640.8284710516168
631.0072437013766
650.3032620686118
643.4657705643157
641.8348910509739
643.2729518602778
636.1006883121518
554.6952265372955
474.2317554725734
361.9979849351148
378.3828598356222
543.1319364977447
433.3645587922556
334.4471009697494
332.4900700246376
492.2475588950178
365.3664934712976
313.9832829810886
311.8401704635071
394.5031189900223
315.7120514390123
315.3281296752397
305.8074469903041
396.1335143461688
412.318519776776
421.6142367591968
412.9650547556665
350.5699445276235
377.262185374251
397.3523990040553
401.3390830711274
323.9148719469267
349.2133180625407
378.2519861637726
399.9470081227175
316.8899909857892
341.5744561949465
373.7085336601471
404.1334843945252
439.281609658585
420.9689184133142
410.4127319305042
411.0370479362446
441.0388030657178
429.4324290624743
415.0945287400026
420.6417113670694
432.329277993934
436.2523817937532
428.4779476894435
441.3793014139625
419.6927673322728
435.1935853298896
433.328930017455
458.5193584625223
376.4868410830697
366.6670125714452
380.3500967388013
409.8648129628781
393.574982646779
403.4666118834294
398.3148134806766
375.0044070561776
407.9269728605304
411.9717465976286
393.9954361221783
369.7510366166998
389.8336838941108
405.598572466822
387.0424001813127
365.5423715882545
353.9549421736884
351.1979233672369
350.2557366336709
350.1448563811116
353.3162864639775
346.7122402774143
345.3452224896068
343.9079806073087
369.7628183998718
369.5247215359159
367.0648900349611
364.9687173768344
415.7823044528685
409.5968339110824
402.5172663409983
398.7058339105239
350.1448563811124
343.9079806073128
364.9687173768358
398.705833910488
350.2557366336668
345.3452224896
367.0648900349926
402.5172663410557
351.1979233672105
346.7122402774019
369.5247215359428
409.5968339112026
353.9549421736493
353.3162864639659
369.7628183998938
415.7823044529761
409.86481296301
380.3500967389034
366.667012571347
376.4868410829761
375.0044070562003
398.3148134806426
403.4666118833277
393.574982646692
369.7510366166936
393.9954361221274
411.9717465975299
407.9269728604398
365.542371588204
387.0424001812337
405.5985724667299
389.8336838940223
458.5193584624453
433.3289300174919
435.1935853301216
419.692767332634
441.3793014138753
428.4779476894417
436.2523817939339
432.3292779942404
420.6417113669877
415.0945287400013
429.4324290626715
441.0388030659892
411.0370479361771
410.4127319305467
420.9689184134965
439.2816096588071
412.9650547561307
421.6142367596757
412.3185197771771
396.1335143463681
401.3390830716788
397.3523990047638
377.2621853747484
350.5699445276827
399.9470081232335
378.2519861644973
349.2133180630091
323.9148719469272
404.133484395076
373.7085336608763
341.5744561954368
316.8899909858184
378.3828598358253
361.9979849345243
474.2317554723473
554.6952265373517
332.4900700247154
334.4471009694095
433.3645587919456
543.1319364975576
311.8401704635
313.9832829809742
365.3664934714258
492.2475588950866
305.807446990299
315.3281296750698
315.7120514389165
394.5031189902063
593.5778404367255
625.233121741201
643.7495534638359
653.0838857580461
623.1192502637656
625.1574026751164
641.9987635557284
649.7328330150131
650.303262068555
631.0072437012678
640.8284710514318
645.6849102752818
636.1006883121488
643.272951860133
641.8348910507776
643.4657705641112
653.2479480942122
651.5572349546298
649.1682260567618
648.5391371292931
649.6864537731452
648.1331400113202
646.4631887345765
646.5385656929382
645.5798487230908
644.1565860260578
643.1004067485209
644.2783939694199
643.5270543211293
642.1888134903043
641.5677054371297
643.3994821371012
649.7710213331173
648.8950619169485
646.9559999601652
648.0363383250204
648.5963688515764
649.4450304112629
651.2808230309786
655.6841935763767
648.0468293355256
650.0533005830919
653.7345259555509
657.2054934410994
647.8009895161513
651.3332666142859
656.4108235704457
659.1076097004133
578.5561213426588
519.0536454635446
503.049912998499
503.541988365087
589.9102765274069
528.0038120775293
502.8584379377291
503.5998137869087
598.8433453773736
538.9258300292614
503.0159283663789
503.8364360999919
604.9835711619796
545.8283065787582
502.7398064637956
503.5581231083174
503.63427086248
504.0006264933017
504.3984304369012
504.8263014219977
503.4059183641864
503.7664583615312
504.5673028107755
505.2644668962205
503.7251767026472
504.0179335969938
505.2257823998515
506.263483397298
503.1571251907003
503.6354293094782
504.9986003351157
505.5733978717684
504.910097120581
504.4474431553505
505.1108471326335
519.6654901894055
505.413375177432
504.4851932497338
499.4375786240729
507.764343074462
506.7246469360701
505.3805518395476
498.0100102225401
494.2332503081757
505.4973152206329
503.3758651195491
491.8572207077275
471.1087919750213
556.5571917189751
557.7591253199101
557.7417916381538
557.6831148738996
555.7845238537328
556.590131396118
556.9246043916501
558.4528112446682
554.6744109195346
555.6269599842458
556.3454041996745
558.3125380329797
549.9572595181036
555.3038429694635
556.1813465538047
558.5803114767795
557.4984221091131
554.5550867466758
546.7952195313457
525.8941079330124
559.4640611228264
557.7772458238717
554.3565994277789
539.8020389090268
559.4057935436891
558.7754081379031
556.4706703316965
549.0268473759696
560.2947246819871
560.7752392446569
560.6360374267842
564.7954920952736
467.4667910055676
498.5025343196366
499.9755250474631
499.9998634904538
471.513574560816
498.4742682726136
499.9721629905405
499.9997999409798
482.7392835569587
498.650386801104
499.9662405239771
499.999706573052
491.8147616648627
498.7802332613261
499.9524466105244
499.9994937884621
499.9990516976409
499.919755988429
498.6870217199886
498.1132283081048
499.9990667272938
499.9253321381763
498.7726142060128
497.1120932238827
499.9991143390459
499.9312882533745
498.7883340788724
495.1876972436322
499.9992356246339
499.938324526005
498.8462815503182
495.0580295475593
499.9994937883342
499.9997065730262
499.9997999411058
499.9998634903851
499.9524466104391
499.966240523855
499.9721629903726
499.9755250474238
498.7802332613945
498.6503868009976
498.474268272669
498.5025343197947
491.8147616646258
482.7392835565245
471.5135745606567
467.4667910055812
)
;

boundaryField
{
    back
    {
        type            empty;
    }
    inlet
    {
        type            zeroGradient;
    }
    front
    {
        type            empty;
    }
    top
    {
        type            zeroGradient;
    }
    outlet
    {
        type            fixedValue;
        value           uniform 500;
    }
    bottom
    {
        type            zeroGradient;
    }
    wall
    {
        type            zeroGradient;
    }
}


// ************************************************************************* //
