/*--------------------------------*- C++ -*----------------------------------*\
  =========                 |
  \\      /  F ield         | OpenFOAM: The Open Source CFD Toolbox
   \\    /   O peration     | Website:  https://openfoam.org
    \\  /    A nd           | Version:  11
     \\/     M anipulation  |
\*---------------------------------------------------------------------------*/
FoamFile
{
    format      ascii;
    class       volScalarField;
    location    "19.2";
    object      p;
}
// * * * * * * * * * * * * * * * * * * * * * * * * * * * * * * * * * * * * * //

dimensions      [0 2 -2 0 0 0 0];

internalField   nonuniform List<scalar> 
5472
(
101.60823
99.571262
97.539707
95.525064
93.543823
91.609394
89.7269
87.929658
86.233446
84.639378
83.149973
81.806938
80.54291
79.46798
78.492878
77.73482
77.173454
76.758963
76.47831
102.22348
100.3559
98.454844
96.5705
94.691286
92.845948
91.044925
89.290115
87.623758
86.061693
84.590739
83.230287
81.988655
80.902642
79.92616
79.145576
78.51631
78.024083
77.726402
102.7777
101.07089
99.322928
97.567422
95.807087
94.047152
92.295823
90.611435
88.983438
87.445061
85.992326
84.639411
83.418679
82.30586
81.337921
80.527613
79.872692
79.376978
79.075588
103.27139
101.69267
100.12289
98.513035
96.854938
95.181865
93.508366
91.883837
90.306864
88.786009
87.364367
86.043868
84.792802
83.668851
82.711109
81.878619
81.216256
80.716395
80.389576
103.67697
102.27111
100.83305
99.337783
97.791948
96.217607
94.644462
93.088426
91.5475
90.081347
88.700041
87.371749
86.138768
85.019401
84.042996
83.205041
82.544399
82.020771
81.660321
104.0429
102.78621
101.46798
100.08928
98.65502
97.182199
95.692056
94.199679
92.740739
91.321933
89.939498
88.653534
87.446011
86.324888
85.358265
84.516761
83.847259
83.319134
82.964253
104.34234
103.2092
102.00835
100.75602
99.431718
98.060894
96.656597
95.246324
93.850514
92.475603
91.1455
89.881663
88.676602
87.583833
86.621368
85.783022
85.102853
84.563367
84.200265
104.60572
103.56521
102.46903
101.33839
100.1358
98.865668
97.542507
96.211701
94.892189
93.580813
92.292023
91.051896
89.877922
88.801598
87.83742
87.01475
86.336579
85.806976
85.415947
104.8211
103.8624
102.87449
101.84104
100.72621
99.557083
98.343594
97.10421
95.850549
94.600936
93.366053
92.166121
91.021576
89.966519
89.015797
88.198732
87.515639
86.98606
86.592627
104.97949
104.1163
103.23965
102.30401
101.29159
100.202
99.063645
97.907325
96.7303
95.548758
94.362838
93.198092
92.097885
91.073729
90.148925
89.344603
88.6679
88.142026
87.735399
105.07723
104.32555
103.53469
102.6729
101.76265
100.77367
99.731172
98.652789
97.554754
96.440295
95.304083
94.183883
93.112773
92.114277
91.212522
90.420241
89.761067
89.235565
88.836196
105.18423
104.52408
103.80819
103.02264
102.16834
101.2504
100.2988
99.310018
98.296015
97.236831
96.172109
95.106592
94.076848
93.120503
92.243518
91.462513
90.808268
90.285265
89.896917
105.24001
104.65241
104.01232
103.33344
102.57106
101.72735
100.83514
99.907311
98.962217
97.968088
96.955978
95.938442
94.962687
94.044571
93.200697
92.443849
91.807211
91.286224
90.887527
105.32039
104.76969
104.17913
103.54761
102.8552
102.11387
101.31029
100.45752
99.574493
98.652836
97.698149
96.730945
95.790613
94.905148
94.095893
93.362742
92.741458
92.230078
91.84024
105.35086
104.88649
104.37747
103.79677
103.14934
102.4565
101.70762
100.92784
100.11274
99.256964
98.361141
97.456541
96.563521
95.720731
94.940952
94.23041
93.625601
93.125593
92.748217
105.35536
104.91956
104.47318
103.97496
103.40321
102.7699
102.08987
101.37023
100.60867
99.803526
98.958481
98.109077
97.260132
96.459562
95.711832
95.028388
94.441086
93.954858
93.581344
105.39845
105.02018
104.60618
104.12636
103.59734
103.01818
102.40559
101.75303
101.05356
100.2973
99.510116
98.709602
97.910374
97.151512
96.433613
95.778878
95.209141
94.743649
94.383114
105.38942
105.07312
104.71068
104.28899
103.80648
103.26846
102.69682
102.09211
101.44158
100.73552
99.998048
99.241229
98.492968
97.766873
97.0849
96.455295
95.904435
95.455555
95.109091
105.42064
105.12374
104.79017
104.40794
103.9705
103.48225
102.95871
102.40168
101.79768
101.14414
100.45107
99.740843
99.031993
98.340274
97.686159
97.077713
96.549471
96.108841
95.776182
105.45651
105.1975
104.89788
104.54212
104.12806
103.67529
103.18925
102.66651
102.10238
101.48967
100.84165
100.17717
99.507451
98.856662
98.229487
97.64713
97.138577
96.707389
96.375088
105.47251
105.2411
104.97506
104.65619
104.28327
103.87131
103.42157
102.93258
102.4026
101.82107
101.20468
100.57191
99.930905
99.309121
98.711967
98.162866
97.684879
97.282622
96.963256
105.5383
105.32053
105.0671
104.76775
104.41633
104.02779
103.61029
103.15958
102.66605
102.1227
101.54409
100.93595
100.31548
99.697946
99.095862
98.546148
98.067084
97.67278
97.381618
105.56999
105.39315
105.17471
104.90408
104.58108
104.21655
103.81423
103.37644
102.90185
102.38958
101.84912
101.28634
100.71874
100.15798
99.600245
99.076929
98.605809
98.198837
97.877957
105.60853
105.45303
105.26017
105.02088
104.73327
104.40121
104.02658
103.60667
103.14024
102.62034
102.06156
101.47443
100.87818
100.29229
99.731961
99.223523
98.780384
98.423662
98.150582
105.67356
105.53803
105.36695
105.15425
104.89303
104.58816
104.24714
103.87204
103.45714
102.99999
102.50265
101.96806
101.41314
100.83962
100.26016
99.717317
99.225013
98.818647
98.496585
105.70499
105.60894
105.47125
105.2848
105.04202
104.74348
104.39028
103.98952
103.53957
103.0477
102.51761
101.95748
101.38051
100.81813
100.28727
99.77459
99.322319
98.943124
98.645398
105.74273
105.70423
105.62359
105.50027
105.3313
105.10853
104.82856
104.48752
104.08718
103.63076
103.11907
102.56125
101.95284
101.30297
100.66517
100.07274
99.558855
99.129819
98.797079
76.281584
76.338219
76.482554
76.848863
77.298048
77.870783
78.53549
79.290352
80.009319
80.825019
81.618219
82.438981
83.263493
84.019875
84.794384
85.47861
86.059936
86.559953
86.878209
77.573974
77.641171
77.815835
78.20601
78.704249
79.327974
80.0414
80.843965
81.641503
82.547382
83.393183
84.293211
85.12397
85.933528
86.701111
87.380526
87.970021
88.455129
88.778878
78.900685
78.914696
79.148586
79.521254
80.09254
80.75039
81.534837
82.373944
83.284652
84.223093
85.147556
86.075754
86.963025
87.804496
88.606412
89.310795
89.940765
90.479395
90.876107
80.181723
80.210367
80.428319
80.839183
81.453302
82.157532
82.996975
83.899979
84.876834
85.841818
86.81492
87.764192
88.689993
89.559305
90.402084
91.144762
91.852601
92.47126
93.022114
81.461449
81.461802
81.710555
82.166025
82.777761
83.555616
84.433868
85.392224
86.379521
87.388703
88.38881
89.36973
90.322918
91.24146
92.113939
92.934819
93.717171
94.441001
95.131802
82.71158
82.70812
82.988796
83.43735
84.087589
84.916962
85.831069
86.833326
87.845627
88.902596
89.921661
90.932184
91.928193
92.87715
93.809718
94.702412
95.569122
96.426868
97.230327
83.929298
83.953989
84.192468
84.680892
85.38366
86.243225
87.199118
88.222715
89.269535
90.352319
91.391142
92.451139
93.475132
94.473731
95.470677
96.42693
97.385825
98.320424
99.209728
85.140942
85.15016
85.39881
85.932458
86.638403
87.536841
88.518296
89.56696
90.653856
91.752847
92.830671
93.925359
94.97133
96.031083
97.05899
98.075976
99.078852
100.04899
100.95184
86.312501
86.296073
86.562829
87.110023
87.85323
88.778831
89.781957
90.866741
91.973472
93.097081
94.207676
95.31725
96.399865
97.487179
98.535255
99.5781
100.55776
101.51942
102.37483
87.453646
87.423161
87.725753
88.264423
89.047807
89.984148
91.014144
92.122226
93.251434
94.392261
95.519728
96.6471
97.746027
98.834913
99.877143
100.87723
101.82371
102.71089
103.45963
88.536119
88.515033
88.824991
89.359979
90.191056
91.118613
92.19122
93.31115
94.458152
95.607887
96.746659
97.873159
98.964563
100.02225
101.01744
101.95898
102.8092
103.55339
104.16367
89.585469
89.579347
89.875793
90.458036
91.281778
92.225533
93.321871
94.436221
95.60372
96.750812
97.880552
98.982882
100.0363
101.04125
101.96836
102.79594
103.50726
104.09202
104.52022
90.58482
90.584301
90.879073
91.486149
92.298933
93.273168
94.368622
95.494412
96.663659
97.779317
98.894249
99.956888
100.95604
101.87349
102.68509
103.39037
103.95941
104.40344
104.71731
91.535043
91.537116
91.840146
92.459881
93.266252
94.266664
95.352788
96.480272
97.617834
98.714154
99.797533
100.78508
101.70912
102.51865
103.20959
103.7806
104.2288
104.58503
104.83644
92.457369
92.446167
92.746707
93.363803
94.179767
95.196201
96.263804
97.385308
98.488651
99.549856
100.55702
101.47123
102.30904
103.00119
103.58606
104.03086
104.39209
104.67212
104.87327
93.292864
93.283509
93.595612
94.214576
95.047255
96.05255
97.095779
98.193232
99.24713
100.25312
101.18987
102.02752
102.74989
103.32974
103.81215
104.14855
104.42445
104.60792
104.70616
94.094387
94.070063
94.390907
95.009723
95.849153
96.825407
97.858293
98.920292
99.911842
100.86207
101.71921
102.46056
103.06189
103.54513
103.90806
104.14217
104.30673
104.31208
104.24947
94.825636
94.801837
95.134494
95.744886
96.573981
97.519076
98.530029
99.530159
100.46629
101.35162
102.11241
102.74728
103.24034
103.61971
103.84924
103.9634
103.97563
103.87001
103.69223
95.496702
95.483725
95.808712
96.406232
97.230586
98.1624
99.1426
100.07324
100.95913
101.76125
102.41928
102.94577
103.32832
103.58809
103.69397
103.70578
103.62455
103.49496
103.33682
96.098421
96.094961
96.408752
97.007332
97.807907
98.700034
99.630795
100.5207
101.34771
102.04729
102.60834
103.02816
103.31374
103.47
103.4992
103.46512
103.38584
103.31255
103.2646
96.670927
96.647195
96.959949
97.556841
98.345879
99.232254
100.10098
100.9353
101.67502
102.27594
102.75496
103.07513
103.2732
103.35759
103.3613
103.33053
103.29971
103.29198
103.28559
97.128902
97.122471
97.435667
98.010614
98.766461
99.597871
100.40909
101.2404
101.9051
102.43258
102.831
103.07761
103.21918
103.27484
103.28933
103.29599
103.30091
103.31376
103.31015
97.575779
97.557993
97.867697
98.461798
99.246583
100.07937
100.91033
101.5598
102.1289
102.58609
102.89914
103.0919
103.19259
103.22878
103.25095
103.27096
103.26951
103.24603
103.17441
97.892858
97.889659
98.193651
98.766092
99.496982
100.2951
101.05475
101.73014
102.27862
102.68196
102.9521
103.11121
103.20034
103.25824
103.28489
103.25208
103.19075
103.06769
102.8404
98.198645
98.191926
98.535712
99.172619
99.959498
100.74559
101.45198
102.03397
102.50012
102.82928
103.02717
103.12258
103.15518
103.14749
103.0749
102.95847
102.79196
102.52516
102.1824
98.368866
98.360253
98.694162
99.301937
100.04732
100.81749
101.52427
102.13364
102.59373
102.89722
103.08587
103.1966
103.23019
103.17537
103.03137
102.79893
102.45532
102.02647
101.58233
98.491734
98.513442
98.976581
99.72186
100.55873
101.36045
102.03757
102.54282
102.87799
103.05892
103.11853
103.07562
102.92038
102.68404
102.37415
101.99185
101.57277
101.15871
100.78058
87.017947
86.997574
86.75805
86.258055
85.55534
84.539042
83.136089
81.454521
79.414967
76.947231
74.072398
70.924868
67.342395
63.828627
60.575986
57.928601
56.610343
57.002307
59.692076
88.94638
88.987149
88.843888
88.499559
88.021516
87.320418
86.316227
85.108126
83.782008
81.997855
79.991049
77.861605
75.619405
73.367274
71.170665
69.611017
68.749122
69.291462
71.433573
91.16271
91.29891
91.260298
91.050444
90.726388
90.196291
89.440465
88.699715
87.669888
86.360995
85.090527
83.513846
81.866101
80.23223
78.723171
77.59875
76.999071
77.386514
78.891294
93.453075
93.721617
93.812104
93.719872
93.539255
93.188028
92.718704
92.247591
91.541265
90.698769
89.57891
88.374369
87.218891
85.678104
84.175995
82.933154
81.971186
81.729068
82.321851
95.733349
96.150767
96.313734
96.342988
96.325064
96.115621
95.946052
95.675709
95.145622
94.394524
93.473028
92.382718
90.848044
89.102467
87.458408
85.629836
83.7214
82.128324
81.079414
97.959138
98.464515
98.704447
98.811395
98.843845
98.797243
98.768175
98.529128
98.069818
97.345034
96.341953
94.953117
93.317995
91.430275
88.889482
85.898079
83.029515
80.448239
78.163685
100.00453
100.53776
100.78597
100.92733
101.02432
101.09981
101.11825
100.97027
100.50406
99.739254
98.67004
97.215904
95.315514
92.531702
88.798491
84.681348
80.445978
76.004616
71.54186
101.73995
102.27035
102.51587
102.71991
102.89812
103.09909
103.17301
103.02173
102.60551
101.91828
100.71701
98.98108
96.28733
92.152934
86.82477
80.680663
73.601314
65.72305
57.384714
103.12589
103.60551
103.87143
104.12393
104.38644
104.64486
104.74093
104.65381
104.30008
103.4415
101.96935
99.827704
96.258333
91.164405
85.362741
78.630201
70.188703
60.04833
48.372128
104.12363
104.52027
104.78742
105.03288
105.31022
105.51896
105.59985
105.50678
105.06012
104.15461
102.69685
100.55545
97.181362
92.714473
87.463389
81.269787
73.840705
65.131102
55.139688
104.66712
104.98028
105.20715
105.3946
105.59357
105.69231
105.69313
105.52968
105.05636
104.36115
103.15989
101.50629
98.971913
95.560225
91.356216
86.331879
80.505909
74.034791
67.066361
104.89446
105.15331
105.3263
105.45317
105.57628
105.6093
105.53283
105.34619
105.10227
104.6439
103.75084
102.42907
100.48482
97.830997
94.605137
90.828634
86.622844
82.318704
78.154865
105.02802
105.26261
105.40804
105.54156
105.66055
105.69275
105.69291
105.56661
105.25342
104.65904
104.00541
102.50543
100.51209
98.073795
95.391816
92.658686
89.912236
87.333217
85.401431
105.12411
105.31921
105.42761
105.56243
105.61166
105.54074
105.28671
104.86344
104.95397
104.16894
102.59159
100.43023
97.884607
95.217416
92.717466
90.655243
88.992311
87.68472
86.734748
105.09596
105.21946
105.34696
105.44811
105.42088
105.23403
104.71538
104.12988
102.4062
100.28909
97.823812
94.942032
91.915181
88.913314
86.795484
85.531895
84.8292
85.080036
86.021866
104.7502
104.83602
104.98761
105.06288
104.9636
104.6705
103.85221
103.37238
100.22707
95.843617
91.126862
86.311357
81.834759
77.925236
75.048701
73.908471
75.064055
77.691949
80.762649
104.09882
104.13009
104.23517
104.22582
104.09176
103.83188
103.3008
102.44107
100.26812
96.24966
90.090337
81.944651
73.688269
65.719969
58.5504
53.929474
53.355311
56.95615
63.795292
103.3715
103.32887
103.28842
103.10773
102.72932
102.13866
101.19825
99.745773
97.280304
93.08556
87.16512
79.91317
71.989817
64.515622
58.644874
55.636634
56.384948
60.766176
67.81807
103.12237
103.06927
102.97595
102.77801
102.41456
101.92007
101.22366
100.23176
98.738535
96.531138
93.451036
89.599898
85.297783
80.992687
77.175741
74.461417
73.532913
74.664998
77.578473
103.22985
103.23353
103.23191
103.14754
102.9961
102.76932
102.49675
102.04713
101.38423
100.48505
99.173171
97.456931
95.35039
92.892182
90.431182
88.335185
86.725458
85.968483
86.2194
103.39405
103.50025
103.54859
103.55114
103.59287
103.62482
103.63819
103.54766
103.32736
102.95087
102.37628
101.47389
100.18321
98.757119
97.433138
95.989676
94.317726
92.731663
91.288283
103.44601
103.55497
103.62101
103.74568
103.88311
104.0243
104.13762
104.17127
104.24646
104.13164
103.43197
102.28855
101.21817
100.01597
98.218375
95.749689
93.039123
90.147956
87.165476
103.2156
103.28936
103.39505
103.54921
103.69527
103.82845
103.99702
104.07901
104.08585
103.90204
103.56724
103.3546
103.03265
100.10949
98.615268
96.258974
93.234692
89.863694
86.605888
102.64956
102.70291
102.87694
102.98981
103.10361
103.20933
103.30951
103.29324
103.17241
103.12935
101.95672
101.13392
100.50478
99.27729
97.895809
96.359099
94.716765
93.07276
91.63987
101.8549
101.91793
102.04107
102.11128
102.17269
102.18647
102.20048
102.18475
101.91301
101.90235
101.22817
99.167895
96.916372
95.371496
94.49021
94.100663
94.097007
94.532219
95.396789
101.17572
101.10389
101.10783
101.10535
101.06528
100.99824
100.93693
100.8189
100.69193
100.21422
99.429441
99.067095
98.5392
97.655124
96.546652
95.814462
95.594303
95.788618
96.365599
100.44234
100.40877
100.36707
100.29495
100.19724
100.08559
99.951533
99.745628
99.516832
99.173642
98.440032
97.852759
97.369507
96.865945
96.444157
96.263193
96.433529
96.961687
97.77576
65.01121
72.538799
81.139546
90.119712
99.029072
106.66581
113.06196
118.22544
121.13025
121.3795
119.23363
116.51435
113.4077
110.09771
107.02245
103.93627
101.09226
98.508313
95.933441
75.34604
80.688629
87.12853
94.311757
101.64081
108.22566
113.92794
118.31504
120.61616
121.11735
120.39171
118.34017
115.83172
112.93512
110.09976
107.35373
104.66802
102.25029
99.806832
81.528908
85.314111
90.127937
95.740145
101.78294
107.71097
113.04615
117.0833
119.18244
119.58003
119.30067
117.92047
116.42785
114.42407
112.14893
109.91471
107.60295
105.45456
103.2491
83.625772
85.876184
89.281935
93.75111
98.869032
104.10758
109.03568
113.1731
115.75978
117.0158
117.54064
116.74728
115.79181
114.51169
112.93425
111.20347
109.34938
107.53741
105.65466
81.013624
82.285731
84.975107
88.374664
92.292601
97.023202
102.13806
106.86807
110.53165
113.26423
114.57953
114.85563
114.58094
113.80695
112.68439
111.38993
109.93889
108.48218
106.93491
76.478113
75.724317
75.936007
77.529585
80.866212
85.583926
91.28457
97.284946
102.58961
106.82241
109.66458
111.24132
111.59429
112.30077
111.73326
110.85799
109.75912
108.64116
107.44863
67.378585
63.926353
61.738924
61.791353
64.258755
68.84176
75.549372
83.663997
91.30138
97.712197
102.72291
106.35657
108.71769
109.83662
110.08452
109.7098
108.98719
108.15051
107.34627
48.915956
41.235563
35.953075
34.999979
38.777656
46.244077
55.571432
66.530666
77.65368
87.401747
95.01637
100.52222
104.97588
107.16646
107.82654
107.92746
107.57505
107.03627
106.54059
35.326725
22.020286
11.558752
7.7592239
11.724755
22.216376
36.080229
51.308578
68.392306
81.079283
91.370384
97.229878
100.62955
103.20613
104.63436
105.36684
105.50087
105.37202
105.19337
44.048289
32.729859
23.617514
19.509279
20.930219
27.588836
38.267231
51.06457
64.091404
75.435925
84.604737
91.26876
96.030127
99.297819
101.38998
102.6827
103.30662
103.54217
103.72547
60.043738
53.68807
49.27726
47.997137
49.874024
54.186274
60.661488
68.230635
75.714075
82.461566
88.098667
92.519231
95.885727
98.360815
100.12971
101.35058
102.07586
102.4135
102.7167
74.305209
71.349886
69.888636
70.300285
72.590545
75.791809
79.293163
83.293047
87.177953
90.711548
93.694985
96.083165
97.916569
99.394426
100.52347
101.36607
101.91758
102.20652
102.44602
84.185806
83.354582
82.757225
82.743916
83.842684
86.183785
88.736109
91.28325
93.632555
95.643159
97.365764
98.75905
99.813533
100.69805
101.39026
101.94599
102.30849
102.49798
102.61267
86.640596
87.463626
88.572497
89.802094
91.284126
92.964136
94.528095
95.944842
97.424477
98.671693
99.752139
100.65043
101.28884
101.83312
102.25302
102.60122
102.86788
102.99322
102.99221
87.193308
88.76113
90.537102
92.246703
93.927727
95.755839
97.333793
98.460247
99.553759
100.50524
101.25666
101.89837
102.36423
102.7172
103.01803
103.21139
103.38383
103.49541
103.45505
83.902498
86.983043
89.786798
92.275638
94.464578
96.584269
98.394628
99.655825
100.63633
101.5421
102.26994
102.80626
103.18763
103.4298
103.6258
103.7673
103.8516
103.88899
103.79876
71.675542
79.216
85.64172
90.401989
93.680359
96.420936
99.198105
100.97531
101.8523
102.61736
103.25804
103.73285
104.04199
104.21415
104.29749
104.32701
104.35129
104.31219
104.17324
75.277269
82.167249
88.474883
93.255451
96.855096
99.370038
100.64605
101.46995
102.61201
103.76416
104.5631
104.8382
104.91334
104.9422
104.91664
104.82117
104.76491
104.69009
104.50938
81.517401
85.827743
90.089625
93.870002
96.977027
99.582965
101.82102
103.33387
103.72327
103.74753
104.24143
104.83193
105.12796
105.21703
105.15072
105.04293
104.90177
104.81052
104.66209
87.242352
88.805341
90.747819
92.865272
94.901965
96.889149
98.684679
100.10645
101.40112
102.89302
104.4385
104.80018
105.06201
105.17441
105.12988
105.01041
104.8274
104.66738
104.54546
90.212035
89.860251
90.208848
91.053201
92.071928
93.269839
94.476671
95.832799
98.448228
101.45302
103.45599
103.9734
104.40748
104.50022
104.50425
104.43202
104.29158
104.12482
104.02074
84.402084
82.257338
81.370093
82.323019
85.133299
88.855062
92.648104
96.446245
99.487977
101.52525
102.77331
103.26599
103.44111
103.52369
103.57144
103.57155
103.5213
103.43432
103.39051
83.835543
82.005348
81.607073
82.006995
83.243719
85.878372
89.429658
93.261695
96.706161
99.29103
100.83578
101.69212
102.18826
102.51624
102.702
102.81705
102.84786
102.85508
102.89179
90.646105
90.425792
91.250318
92.975874
94.920521
96.748879
98.498111
100.05046
101.14913
101.80442
102.19531
102.39005
102.48382
102.57033
102.59219
102.63908
102.62569
102.5801
102.60242
96.533267
97.798094
99.187138
100.6563
101.99015
102.79764
103.1873
103.25674
103.08972
102.86259
102.68727
102.60871
102.54907
102.51957
102.49183
102.46208
102.42924
102.39006
102.37488
97.248323
98.244149
99.043583
99.554132
100.06184
100.62971
101.02169
101.58927
102.33385
102.62966
102.67957
102.63533
102.50381
102.3505
102.24424
102.15912
102.06078
101.89444
101.78265
98.799821
99.860151
100.78721
101.50666
102.02962
102.38957
102.73758
103.09005
103.09622
102.74321
102.45533
102.20956
101.96574
101.77886
101.62074
101.51755
101.43474
101.30542
101.18641
93.676678
91.435443
89.32517
87.412322
85.561438
83.917418
82.34294
80.932558
79.701311
78.571967
77.619762
76.753769
76.025297
75.423005
74.950103
74.59877
74.385999
74.333784
74.43267
97.458611
95.139198
92.902071
90.855437
88.870314
87.045929
85.294773
83.673864
82.216137
80.877385
79.701271
78.643721
77.737087
76.991549
76.402334
75.978033
75.710613
75.633667
75.72569
100.92563
98.603802
96.293231
94.130307
92.02148
90.029269
88.127818
86.33519
84.68002
83.152968
81.791807
80.559685
79.483071
78.593363
77.890547
77.379251
77.055108
76.943639
77.039305
103.53289
101.36199
99.127418
96.943875
94.811875
92.723853
90.730403
88.818897
87.031731
85.36069
83.832341
82.458807
81.242847
80.215398
79.400334
78.79405
78.401679
78.247444
78.341324
105.15794
103.27523
101.27246
99.207769
97.147996
95.079011
93.06168
91.101131
89.213788
87.450941
85.79926
84.302394
82.975295
81.827843
80.893399
80.206993
79.756501
79.547516
79.627096
106.04407
104.48229
102.77877
100.95458
99.055068
97.106665
95.126146
93.178787
91.259093
89.430897
87.699873
86.094383
84.659536
83.417543
82.382881
81.603668
81.098779
80.856524
80.90988
106.3375
105.16082
103.78522
102.23712
100.55042
98.778777
96.920316
95.022393
93.12826
91.267805
89.495116
87.81709
86.293564
84.961261
83.852037
82.988345
82.412715
82.138872
82.178465
106.04796
105.30957
104.30604
103.08111
101.66659
100.09398
98.418904
96.636384
94.809793
92.961809
91.176751
89.460076
87.871323
86.462012
85.276143
84.357215
83.7331
83.396145
83.435126
105.19408
104.91112
104.35719
103.47402
102.39231
101.06826
99.592514
97.985911
96.27923
94.495185
92.721703
91.002257
89.370936
87.903027
86.653306
85.664158
85.018151
84.638769
84.651624
104.07034
104.158
104.00596
103.49591
102.75943
101.72661
100.48056
99.068038
97.515306
95.850251
94.127316
92.422813
90.786206
89.280942
87.993771
86.944745
86.26029
85.869498
85.83092
103.15047
103.3796
103.44487
103.25734
102.81679
102.08889
101.11816
99.916767
98.530354
97.008654
95.383049
93.722915
92.104383
90.57971
89.256408
88.173491
87.425889
87.0465
86.985589
102.73269
102.86409
102.96014
102.93908
102.69538
102.22165
101.51524
100.54527
99.35722
97.986994
96.477586
94.893196
93.316177
91.80736
90.451541
89.358578
88.562123
88.176799
88.109505
102.71388
102.70725
102.72317
102.71048
102.54992
102.23902
101.7208
100.97386
100.00014
98.805359
97.423126
95.92494
94.409566
92.951214
91.585314
90.475884
89.64802
89.232091
89.181668
102.93468
102.83395
102.74302
102.6605
102.49751
102.25083
101.83891
101.2585
100.46578
99.46727
98.232124
96.837715
95.388825
93.980765
92.64428
91.533673
90.700037
90.240452
90.206864
103.2778
103.09084
102.92519
102.76981
102.5645
102.32436
101.95622
101.46963
100.81085
99.980855
98.900423
97.637243
96.266202
94.921399
93.620683
92.513781
91.706106
91.211079
91.157591
103.61238
103.42232
103.20144
102.9809
102.72613
102.46709
102.1132
101.67958
101.11355
100.39388
99.446805
98.317461
97.037661
95.759668
94.520166
93.412412
92.623513
92.145619
92.059228
103.90847
103.72763
103.50523
103.25657
102.96466
102.67009
102.31378
101.90481
101.39896
100.74937
99.920578
98.892292
97.739563
96.512001
95.342605
94.267188
93.456312
93.012547
92.91006
104.18038
103.99646
103.76711
103.52135
103.22868
102.9138
102.54914
102.1433
101.67382
101.05793
100.32615
99.374309
98.348143
97.189417
96.061103
95.05052
94.23127
93.796196
93.705702
104.39772
104.23099
103.99971
103.75583
103.48397
103.17663
102.81865
102.40297
101.95787
101.36612
100.69393
99.83917
98.876269
97.825368
96.722238
95.751003
94.969894
94.516916
94.441565
104.4176
104.33436
104.15802
103.9304
103.68823
103.39485
103.06908
102.66354
102.20897
101.65557
101.00585
100.251
99.319831
98.346078
97.307148
96.358895
95.618926
95.171437
95.105696
104.13187
104.185
104.14684
104.01748
103.84112
103.58414
103.28719
102.92496
102.48106
101.97284
101.34918
100.63848
99.76817
98.828881
97.868504
96.943797
96.228668
95.788787
95.717284
103.63471
103.82127
103.95759
103.96305
103.87957
103.70906
103.44945
103.12865
102.71702
102.22917
101.62582
100.9267
100.12547
99.222905
98.301185
97.420556
96.71522
96.298552
96.227449
103.12081
103.32919
103.55562
103.70927
103.74283
103.69432
103.5428
103.29723
102.95389
102.52208
101.99753
101.33949
100.57327
99.687063
98.759608
97.912627
97.21987
96.795241
96.725096
102.77818
103.00292
103.22709
103.45644
103.60987
103.65687
103.59636
103.41174
103.11841
102.69983
102.17201
101.53428
100.78711
99.951241
99.064859
98.224816
97.55903
97.147748
97.067878
102.45065
102.67745
102.88013
103.06563
103.24941
103.39075
103.45551
103.40853
103.23885
102.93664
102.51046
101.95433
101.25522
100.42243
99.524573
98.657707
97.95887
97.520672
97.427609
102.05312
102.40406
102.71098
102.99595
103.2169
103.37955
103.48022
103.49069
103.37654
103.10674
102.65881
102.06242
101.37083
100.56348
99.660889
98.797046
98.125338
97.707002
97.595772
101.51808
101.75164
102.03958
102.34924
102.65784
102.92926
103.15732
103.31334
103.35314
103.29953
103.06496
102.59541
101.94214
101.14404
100.22004
99.248008
98.445423
97.911824
97.780638
74.768443
75.227004
75.780569
76.508931
77.396199
78.481003
79.664503
81.011092
82.502785
84.100184
85.787309
87.581559
89.449005
91.387027
93.388526
95.438014
97.504174
99.590756
101.67561
76.024814
76.460123
77.076388
77.866048
78.773389
79.853932
81.043668
82.378837
83.860836
85.436011
87.099405
88.854337
90.666512
92.535575
94.458115
96.384775
98.298179
100.25136
102.19099
77.33439
77.794364
78.393351
79.190654
80.123478
81.200344
82.404294
83.727322
85.187485
86.749784
88.391574
90.099436
91.849113
93.645214
95.455921
97.258596
99.062793
100.8935
102.66805
78.635474
79.101274
79.71315
80.500932
81.452458
82.527177
83.732754
85.059883
86.496546
88.029663
89.638815
91.301907
92.981952
94.691462
96.399917
98.107391
99.805321
101.46512
103.0853
79.934764
80.382644
81.027407
81.812249
82.753607
83.834977
85.025102
86.340194
87.756941
89.261227
90.828855
92.443726
94.058772
95.672369
97.270315
98.858042
100.4517
101.98174
103.44516
81.228428
81.688908
82.314207
83.105109
84.030804
85.103619
86.287147
87.586201
88.969833
90.448746
91.969083
93.522333
95.072451
96.581886
98.082245
99.555919
101.00607
102.40278
103.75162
82.482413
82.952355
83.568593
84.3591
85.288917
86.350704
87.510778
88.78413
90.142652
91.569735
93.044834
94.527599
96.000096
97.424418
98.816924
100.15207
101.48031
102.79503
104.0223
83.731921
84.193708
84.821788
85.5916
86.508356
87.553101
88.688674
89.9293
91.26779
92.635952
94.050184
95.454652
96.83694
98.167706
99.458507
100.72037
101.94159
103.10158
104.20083
84.952145
85.39938
86.020739
86.782051
87.682673
88.703785
89.830558
91.030678
92.31691
93.639056
94.992452
96.322365
97.627086
98.872005
100.06086
101.20552
102.30486
103.37244
104.37229
86.139196
86.576746
87.189044
87.924549
88.820412
89.816597
90.914809
92.078493
93.309916
94.57413
95.858273
97.127485
98.334918
99.476303
100.56487
101.63532
102.6451
103.6059
104.51035
87.298284
87.715572
88.307098
89.043129
89.916648
90.885627
91.942552
93.065834
94.245926
95.456799
96.65488
97.844153
98.973774
100.04813
101.05092
102.0017
102.91727
103.79773
104.60541
88.408033
88.820449
89.39683
90.123564
90.952539
91.890399
92.912117
94.001318
95.119895
96.270244
97.39802
98.510088
99.562333
100.54046
101.45775
102.3303
103.16094
103.94959
104.68684
89.47149
89.875462
90.42002
91.094288
91.915176
92.843526
93.82686
94.874536
95.934177
97.015852
98.075898
99.100862
100.07221
100.97666
101.82966
102.62552
103.3754
104.07826
104.72988
90.48882
90.881279
91.405169
92.0862
92.872951
93.756665
94.697766
95.679314
96.677261
97.681606
98.67288
99.629923
100.54031
101.3793
102.16248
102.8858
103.55752
104.1802
104.75816
91.440749
91.823763
92.331277
92.976982
93.730131
94.572352
95.482052
96.413438
97.366369
98.312257
99.247291
100.1409
100.97326
101.72752
102.43031
103.08432
103.69564
104.26659
104.7956
92.342282
92.714587
93.21223
93.826451
94.556585
95.359426
96.231147
97.115958
98.007332
98.886488
99.739586
100.55471
101.32176
102.02701
102.68176
103.28317
103.82673
104.34021
104.81261
93.192259
93.544919
94.024776
94.615724
95.309384
96.073853
96.897622
97.7349
98.567713
99.383506
100.17875
100.94826
101.66789
102.32627
102.91881
103.45249
103.93556
104.39191
104.80856
93.977712
94.320427
94.779715
95.348307
96.011378
96.739163
97.515882
98.30799
99.095191
99.862458
100.59844
101.31125
101.97313
102.56714
103.09603
103.57798
104.02411
104.44581
104.82557
94.704273
95.035575
95.475019
96.018717
96.648853
97.33665
98.073511
98.825753
99.561907
100.27852
100.95613
101.60891
102.22199
102.77649
103.2755
103.72682
104.13547
104.51014
104.8501
95.359856
95.679797
96.103834
96.623364
97.225059
97.883502
98.586964
99.296255
99.983172
100.65113
101.28979
101.90154
102.47436
102.98856
103.44733
103.85997
104.22925
104.5628
104.87078
95.962732
96.269374
96.678869
97.180736
97.761227
98.39907
99.048467
99.713429
100.36418
100.99083
101.59335
102.16611
102.6966
103.17358
103.59491
103.96922
104.31511
104.63483
104.91671
96.474027
96.769909
97.167849