/*--------------------------------*- C++ -*----------------------------------*\
  =========                 |
  \\      /  F ield         | OpenFOAM: The Open Source CFD Toolbox
   \\    /   O peration     | Website:  https://openfoam.org
    \\  /    A nd           | Version:  11
     \\/     M anipulation  |
\*---------------------------------------------------------------------------*/
FoamFile
{
    format      ascii;
    class       surfaceScalarField;
    location    "19.2";
    object      phi;
}
// * * * * * * * * * * * * * * * * * * * * * * * * * * * * * * * * * * * * * //

dimensions      [0 3 -1 0 0 0 0];

internalField   nonuniform List<scalar> 
10792
(
0.071539919
-0.043350068
-0.072158788
0.043968937
0.070826509
-0.041270638
0.041984048
0.070109782
-0.039195142
0.039911869
0.069315537
-0.03706429
0.037858536
0.06850926
-0.03484827
0.035654546
0.067588234
-0.032531791
0.033452817
0.066789627
-0.030256634
0.031055241
0.065892958
-0.027951121
0.028847791
0.065077323
-0.025442611
0.026258245
0.064230724
-0.023046563
0.023893162
0.063522081
-0.020541128
0.021249771
0.06282249
-0.018078049
0.01877764
0.0621716
-0.015439841
0.016090731
0.061744106
-0.012974842
0.013402336
0.061191072
-0.01030986
0.010862893
0.060941346
-0.0076542381
0.0079039643
0.060481221
-0.0050258165
0.0054859405
0.06047269
-0.0023657138
0.0023742446
0.00026881491
0.060570567
-0.0003666914
0.075553817
-0.042715986
-0.076187899
0.074843716
-0.040560538
0.07416688
-0.038518306
0.073408046
-0.036305456
0.072548827
-0.033989051
0.071720185
-0.031703149
0.070928624
-0.029465073
0.069996474
-0.027018972
0.069187287
-0.024633424
0.068407032
-0.022266308
0.067694351
-0.019828448
0.066968022
-0.01735172
0.066461733
-0.014933552
0.065916687
-0.012429796
0.065444753
-0.0098379259
0.065183538
-0.0073930233
0.064859587
-0.0047018657
0.064950314
-0.0024564419
0.00046829974
0.064750829
0.080324491
-0.042094278
-0.080946199
0.079774068
-0.040010115
0.079050247
-0.037794484
0.078207975
-0.035463184
0.077408873
-0.033189948
0.076572271
-0.030866548
0.075634057
-0.028526858
0.07473102
-0.026115935
0.07395957
-0.023861974
0.073130146
-0.021436884
0.072359136
-0.019057438
0.071724601
-0.016717186
0.071132385
-0.014341337
0.070553602
-0.011851013
0.070157797
-0.0094421216
0.069749417
-0.0069846435
0.069554831
-0.0045072791
0.069316917
-0.0022185279
0.00043588705
0.069349329
0.085050809
-0.041512847
-0.085632241
0.084312812
-0.039272117
0.083458575
-0.036940248
0.082663066
-0.034667675
0.081833526
-0.032360408
0.080958859
-0.029991881
0.080100625
-0.027668625
0.07935186
-0.025367169
0.078545737
-0.023055851
0.077765361
-0.020656507
0.077119316
-0.018411393
0.076447754
-0.016045623
0.075822155
-0.013715738
0.075311936
-0.011340794
0.074849533
-0.0089797189
0.074520007
-0.0066551179
0.07428891
-0.0042761824
0.074133023
-0.0020626405
0.00036007596
0.074208834
0.090290595
-0.040714571
-0.091088871
0.089552737
-0.038534259
0.088806799
-0.03619431
0.088066552
-0.033927429
0.087259767
-0.031553623
0.086443526
-0.02917564
0.08567324
-0.026898339
0.084879833
-0.024573762
0.084031722
-0.02220774
0.083291118
-0.019915903
0.082509717
-0.017629993
0.08176235
-0.015298257
0.081124052
-0.01307744
0.080553182
-0.010769924
0.080121658
-0.008548195
0.079748865
-0.0062823252
0.079543234
-0.0040705515
0.079433459
-0.0019528651
0.00034174796
0.079451787
0.095667097
-0.039982084
-0.096399584
0.094965248
-0.037832411
0.094124676
-0.035353738
0.093316676
-0.033119428
0.092476204
-0.030713151
0.091725457
-0.028424893
0.090874275
-0.026047157
0.090028427
-0.023727914
0.089206613
-0.021385926
0.088409627
-0.019118917
0.087594047
-0.016814412
0.086937456
-0.014641665
0.086330322
-0.012470307
0.085830964
-0.010270566
0.085410551
-0.0081277825
0.085068893
-0.0059406678
0.084885864
-0.0038875225
0.084721821
-0.0017888216
0.00021132654
0.084852242
0.10200821
-0.039322635
-0.10266766
0.10116512
-0.036989318
0.100392
-0.034580615
0.099637366
-0.032364799
0.09881056
-0.029886345
0.09796282
-0.027577153
0.097055898
-0.025140235
0.096207892
-0.022879908
0.095351957
-0.020529991
0.094547221
-0.018314182
0.093781237
-0.016048427
0.093139599
-0.014000028
0.092509539
-0.011840247
0.092029611
-0.0097906381
0.09153561
-0.0076337818
0.091192389
-0.0055974467
0.09095506
-0.0036501939
0.090873109
-0.0017068708
0.0001619234
0.090922512
0.10818405
-0.038492475
-0.10901421
0.10728258
-0.036087843
0.10650056
-0.033798595
0.10561679
-0.031481031
0.10473662
-0.029006173
0.10385099
-0.026691532
0.10293133
-0.024220568
0.10210193
-0.022050512
0.1012958
-0.019723856
0.10056176
-0.017580146
0.099846329
-0.015332997
0.099129262
-0.013282961
0.0984709
-0.011181885
0.097945469
-0.0092652069
0.097480339
-0.0071686523
0.097190491
-0.0053075985
0.096929969
-0.0033896719
0.096872566
-0.0016494687
9.2589933e-05
0.0969419
0.11548117
-0.037707309
-0.11626633
0.11453651
-0.035143187
0.1136856
-0.032947681
0.11271633
-0.030511766
0.11180801
-0.028097853
0.11084737
-0.025730887
0.1099754
-0.023348596
0.10912735
-0.021202469
0.10829311
-0.018889613
0.10749605
-0.016783089
0.10670896
-0.014545906
0.10600743
-0.012581431
0.10538629
-0.010560744
0.10490802
-0.0087869308
0.10450927
-0.0067699104
0.10424923
-0.0050475556
0.10399719
-0.0031376341
0.10395011
-0.0016023907
0.00013481738
0.10390789
0.12261547
-0.036567684
-0.12375509
0.12156108
-0.034088803
0.12056137
-0.031947963
0.11955235
-0.029502754
0.11869985
-0.027245346
0.11778948
-0.024820519
0.11697269
-0.022531808
0.11605804
-0.020287823
0.11522176
-0.018053325
0.11441607
-0.015977406
0.11368026
-0.013810097
0.112985
-0.011886164
0.1123652
-0.0099409483
0.11180323
-0.0082249569
0.11140043
-0.0063671106
0.11113096
-0.0047780951
0.11097049
-0.0029771566
0.11094528
-0.0015771864
6.4555549e-05
0.11101554
0.1308545
-0.035313551
-0.13210863
0.12990097
-0.033135278
0.12880056
-0.030847545
0.1277708
-0.028472995
0.12680457
-0.026279122
0.12578996
-0.023805902
0.12490815
-0.02165
0.12396924
-0.01934892
0.1231989
-0.017282976
0.12241466
-0.015193172
0.12173116
-0.013126597
0.1210349
-0.011189901
0.12040802
-0.0093140657
0.11981993
-0.0076368671
0.11938776
-0.0059349433
0.11905265
-0.0044429891
0.11889026
-0.0028147626
0.11882045
-0.0015073834
-3.1277613e-05
0.11891629
0.13935042
-0.034071621
-0.14059235
0.1383144
-0.032099252
0.13714248
-0.029675632
0.13619696
-0.027527473
0.13509338
-0.025175541
0.13407444
-0.022786958
0.1330263
-0.020601861
0.13200645
-0.018329075
0.1311172
-0.016393721
0.13026062
-0.014336598
0.12955732
-0.012423293
0.12889055
-0.010523129
0.12835417
-0.0087776881
0.12779541
-0.0070781066
0.12740881
-0.005548344
0.12708366
-0.0041178364
0.12696565
-0.00269676
0.1269239
-0.0014656317
-0.00012251309
0.12701514
0.14897051
-0.032753458
-0.15028867
0.14760582
-0.030734562
0.14625758
-0.028327393
0.14520524
-0.026475137
0.14406631
-0.024036605
0.14319587
-0.021916521
0.14220148
-0.019607474
0.14130678
-0.017434378
0.14035526
-0.015442193
0.13949819
-0.013479528
0.13871315
-0.011638263
0.1380143
-0.0098242725
0.13738246
-0.0081458548
0.13679271
-0.0064883508
0.13639763
-0.0051532656
0.13601898
-0.003739183
0.13587267
-0.0025504567
0.13580144
-0.0013943938
-0.00020474484
0.13588367
0.15900128
-0.031587955
-0.16016678
0.15771141
-0.029444694
0.15649365
-0.027109638
0.1551794
-0.025160883
0.15392635
-0.022783559
0.15287796
-0.020868123
0.15181049
-0.018540007
0.15090397
-0.016527861
0.14989268
-0.014430906
0.1490177
-0.012604545
0.14813534
-0.0107559
0.14742652
-0.0091154583
0.14678007
-0.0074994034
0.14624816
-0.0059564429
0.14582576
-0.0047308663
0.14551203
-0.0034254521
0.14533823
-0.0023766575
0.14528754
-0.0013436978
-0.0002650202
0.14534781
0.16974497
-0.029962026
-0.1713709
0.16813625
-0.027835966
0.16696142
-0.025934816
0.16558973
-0.023789192
0.16442148
-0.021615304
0.16317404
-0.01962068
0.16203402
-0.017399993
0.16099778
-0.015491623
0.1599968
-0.013429924
0.15913435
-0.011742097
0.15825595
-0.0098775008
0.15749981
-0.0083593105
0.1567904
-0.0067899956
0.15625277
-0.0054188193
0.15579527
-0.0042733598
0.1555142
-0.0031443872
0.1553369
-0.0021993542
0.15530088
-0.0013076809
-0.00031525739
0.15535112
0.18182133
-0.02829733
-0.18348603
0.18007772
-0.026092357
0.17855858
-0.024415666
0.17697789
-0.022208505
0.17576469
-0.020402102
0.17439007
-0.018246066
0.17330746
-0.016317385
0.17220187
-0.014386026
0.17129609
-0.012524152
0.17035687
-0.010802876
0.16954213
-0.0090627617
0.16882146
-0.0076386339
0.1681592
-0.0061277393
0.16762579
-0.0048854046
0.16713082
-0.0037783971
0.16680862
-0.0028221842
0.16657668
-0.00196741
0.16651679
-0.0012477975
-0.00036759175
0.16656913
0.1941459
-0.026517028
-0.1959262
0.19250764
-0.024454105
0.19081356
-0.022721581
0.18923431
-0.020629258
0.18778386
-0.018951651
0.18635337
-0.016815578
0.18515504
-0.015119052
0.18387993
-0.01311092
0.18285965
-0.011503865
0.18176479
-0.0097080159
0.18097716
-0.0082751398
0.18013865
-0.0068001208
0.17952181
-0.0055108949
0.17895449
-0.0043180929
0.17849568
-0.0033195826
0.17816126
-0.0024877611
0.1779299
-0.0017360562
0.17785683
-0.0011747276
-0.00045621174
0.17794545
0.20761227
-0.024579306
-0.20954999
0.2059134
-0.02275524
0.20413693
-0.020945109
0.20260642
-0.019098747
0.20101061
-0.017355838
0.19960703
-0.015412
0.19828091
-0.013792934
0.19709288
-0.011922894
0.19602055
-0.010431529
0.19500345
-0.0086909139
0.19415669
-0.007428386
0.19330169
-0.0059451214
0.19271428
-0.0049234787
0.19210079
-0.0037046106
0.19168777
-0.0029065541
0.19131591
-0.0021159016
0.19114417
-0.0015643154
0.19103543
-0.0010659946
-0.00055775247
0.19113697
0.22166818
-0.022729786
-0.2235177
0.21989583
-0.020982887
0.21815996
-0.01920924
0.21654068
-0.017479469
0.21489602
-0.015711174
0.21344264
-0.013958625
0.21201713
-0.012367423
0.21076663
-0.010672391
0.20952378
-0.0091886878
0.20848523
-0.0076523557
0.20743837
-0.0063815305
0.20661291
-0.0051196639
0.20589255
-0.0042031197
0.20530587
-0.0031179298
0.20486134
-0.0024620215
0.20446353
-0.0017180932
0.20423963
-0.0013404155
0.20407428
-0.00090063986
-0.00065871177
0.20417524
0.23719875
-0.020575905
-0.23935263
0.23520055
-0.018984686
0.23336388
-0.01737257
0.23162406
-0.015739644
0.23000743
-0.014094543
0.22852797
-0.012479166
0.22713535
-0.010974801
0.22587142
-0.0094084644
0.22468783
-0.0080050974
0.22365981
-0.0066243398
0.22264976
-0.0053714825
0.22184254
-0.0043124413
0.22105831
-0.0034188906
0.22052733
-0.0025869475
0.22004767
-0.001982364
0.21972166
-0.0013920831
0.21944208
-0.001060833
0.21925989
-0.00071844672
-0.0005906297
0.2191918
0.25369155
-0.018525297
-0.25574216
0.25164095
-0.016934088
0.2496705
-0.015402119
0.24779539
-0.013864532
0.24602228
-0.012321432
0.24436924
-0.010826127
0.24286254
-0.0094681023
0.241504
-0.0080499288
0.24027267
-0.0067737661
0.23915546
-0.0055071238
0.23817933
-0.0043953571
0.23731363
-0.0034467409
0.23653089
-0.0026361544
0.23598561
-0.0020416667
0.23553603
-0.0015327756
0.23525772
-0.0011137794
0.23503078
-0.00083389289
0.23494924
-0.00063690929
-0.00049996397
0.23485858
0.27094385
-0.016336858
-0.27313228
0.26892466
-0.014914903
0.26697961
-0.013457072
0.26515396
-0.012038874
0.26339848
-0.010565958
0.2617982
-0.009225849
0.26030011
-0.0079700121
0.25895792
-0.0067077319
0.25776335
-0.0055792049
0.25666313
-0.0044068995
0.25572985
-0.0034620787
0.25486272
-0.0025796094
0.25409224
-0.001865679
0.25343655
-0.0013859762
0.25294599
-0.0010422124
0.25258471
-0.00075250071
0.25237443
-0.00062360634
0.25226067
-0.00052315763
-0.00047610995
0.25223682
0.28976342
-0.013858285
-0.29224199
0.28749663
-0.012648115
0.28537534
-0.011335787
0.28341797
-0.010081502
0.28163423
-0.0087822214
0.27997686
-0.0075684759
0.27845476
-0.0064479158
0.27709629
-0.0053492566
0.27592767
-0.0044105904
0.27495111
-0.0034303331
0.27405079
-0.0025617589
0.27331463
-0.001843448
0.27265693
-0.0012079839
0.27210349
-0.00083253556
0.27162763
-0.00056635359
0.27127787
-0.00040273488
0.27105392
-0.00039965867
0.27086662
-0.00033586025
-0.00043776539
0.27082828
0.31019091
-0.011348422
-0.31270078
0.3077975
-0.010254697
0.30556315
-0.0091014369
0.30349446
-0.0080128148
0.30159339
-0.0068811494
0.2999015
-0.0058765934
0.29834049
-0.0048868976
0.2969642
-0.003972976
0.29574829
-0.0031946746
0.2946946
-0.0023766423
0.293869
-0.0017361634
0.29314204
-0.0011164855
0.29258418
-0.00065012641
0.29207781
-0.00032616784
0.29163358
-0.00012212085
0.29130553
-7.4683936e-05
0.29103017
-0.00012430238
0.29092732
-0.00023300888
-0.00038130192
0.29087086
0.33222349
-0.0081925336
-0.33537938
0.32937585
-0.0074070636
0.32682624
-0.0065518275
0.32456166
-0.0057482346
0.32255381
-0.0048732997
0.32080049
-0.0041232689
0.31926897
-0.003355383
0.31797919
-0.0026831949
0.31687972
-0.0020951971
0.31597208
-0.0014690051
0.31527881
-0.0010428932
0.31473392
-0.00057159502
0.31436748
-0.00028368846
0.31409187
-5.055742e-05
0.31386579
0.00010395575
0.31365973
0.00013137543
0.31342344
0.00011199423
0.31325031
-5.9879243e-05
-0.00020123077
0.31307024
0.35672862
-0.004376899
-0.36054425
0.35332085
-0.0039993004
0.35035695
-0.0035879186
0.34772156
-0.0031128445
0.34548491
-0.0026366531
0.34354948
-0.0021878408
0.34194261
-0.0017485151
0.34062813
-0.0013687153
0.33954464
-0.0010117004
0.33876359
-0.00068795662
0.33816051
-0.00043981678
0.3377937
-0.00020478743
0.33754504
-3.5024754e-05
0.33740068
9.380024e-05
0.33733025
0.00017438506
0.33722475
0.0002368745
0.33716862
0.00016813224
0.33701549
9.3241515e-05
-7.2319609e-05
0.33688658
0.38416491
-0.38854181
0.38016561
0.37657769
0.37346485
0.37082819
0.36864035
0.36689184
0.36552312
0.36451142
0.36382347
0.36338365
0.36317886
0.36314384
0.36323764
0.36341202
0.3636489
0.36381703
0.36391027
0.36383795
0.060754171
0.0028842333
-0.003067838
0.061157485
0.0056877937
-0.006091108
0.061692705
0.0081763046
-0.0087115247
0.06266569
0.010845881
-0.011818866
0.063667757
0.013632791
-0.014634858
0.065058398
0.016160722
-0.017551363
0.066499462
0.018872639
-0.020313704
0.068363509
0.021445359
-0.023309406
0.070259876
0.024135068
-0.026031436
0.072625719
0.02682053
-0.029186373
0.074977262
0.029454402
-0.031805944
0.077759376
0.032098022
-0.034880137
0.080656511
0.034525723
-0.037422858
0.08383859
0.037004393
-0.040186473
0.087378321
0.039358978
-0.042898709
0.091215305
0.041619369
-0.045456353
0.095590927
0.043811559
-0.048187181
0.10033053
0.046156623
-0.050896226
0.047906162
0.10557537
-0.053151006
0.064989628
0.0026454347
0.065326758
0.0053506639
0.066082619
0.007420443
0.066987698
0.0099408014
0.068336039
0.012284451
0.06978627
0.014710491
0.071553703
0.017105207
0.0734978
0.019501262
0.075704589
0.021928279
0.078142624
0.024382494
0.080799109
0.026797917
0.083762728
0.029134403
0.086858243
0.031430209
0.090227295
0.03363534
0.093789015
0.035797258
0.097757201
0.037651184
0.10206461
0.039504149
0.10670553
0.041515705
0.042628616
0.11198307
0.069470256
0.002524508
0.069876023
0.0049448964
0.070639512
0.0066569541
0.071577325
0.0090029887
0.073006879
0.010854896
0.07441862
0.01329875
0.076398968
0.015124859
0.078307402
0.017592828
0.080772355
0.019463326
0.083161737
0.021993112
0.086162556
0.023797098
0.089074311
0.026222647
0.09255179
0.02795273
0.095894816
0.030292314
0.099862032
0.031830043
0.1037801
0.033733115
0.10825763
0.035026622
0.11293753
0.0368358
0.037538063
0.11802808
0.074352896
0.0023804458
0.074913103
0.0043846892
0.075688125
0.0058819318
0.076831528
0.0078595857
0.078218723
0.0094677008
0.07989359
0.011623882
0.081832936
0.013185513
0.083929411
0.015496353
0.086338264
0.017054472
0.088908513
0.019422863
0.091836117
0.020869494
0.094854547
0.023204217
0.098228523
0.024578754
0.1017553
0.02676554
0.10560445
0.027980886
0.10952936
0.029808211
0.11385502
0.030700955
0.1183131
0.032377727
0.032597736
0.12325342
0.079635074
0.0021971586
0.080110437
0.003909326
0.080917375
0.005074994
0.082015744
0.0067612165
0.083385722
0.008097723
0.085142887
0.0098667168
0.087030885
0.011297515
0.08934354
0.013183698
0.091729075
0.014668937
0.094515759
0.016636178
0.097372238
0.018013015
0.10044865
0.020127805
0.10370471
0.021322692
0.10722999
0.023240258
0.11075426
0.024456617
0.11461928
0.025943195
0.11839052
0.026929712
0.12257772
0.028190531
0.028716578
0.12645888
0.085021303
0.0020280973
0.085672842
0.0032577873
0.08652789
0.0042199459
0.087763661
0.0055254448
0.08930241
0.006558974
0.091137726
0.0080314005
0.09316226
0.0092729816
0.095506336
0.010839622
0.097875672
0.0122996
0.10067872
0.013833129
0.10333569
0.015356042
0.10642282
0.017040677
0.10945784
0.018287669
0.11269377
0.020004331
0.11601212
0.021138267
0.11938537
0.022569948
0.12268395
0.023631123
0.12602604
0.024848442
0.02577601
0.12896661
0.091098683
0.0018519265
0.09182377
0.0025327008
0.092636969
0.0034067468
0.093998761
0.0041636523
0.095416357
0.0051413787
0.097318078
0.0061296789
0.099303118
0.0072879418
0.10164936
0.008493383
0.1040502
0.0098987606
0.10677834
0.011104985
0.10933962
0.012794765
0.1123318
0.014048489
0.11495909
0.015660383
0.117984
0.016979416
0.12063419
0.018488084
0.12337396
0.019830178
0.12568475
0.021320327
0.1277538
0.022779395
0.023881004
0.12964881
0.097305008
0.0014888184
0.097914889
0.0019228191
0.098825195
0.0024964411
0.10020016
0.0027886842
0.10170474
0.0036368017
0.10372285
0.0041115716
0.1056947
0.0053160837
0.10807939
0.0061086927
0.1103499
0.007628252
0.1129379
0.0085169898
0.1153616
0.010371056
0.11806059
0.011349507
0.12035825
0.013362719
0.1228732
0.014464469
0.12475568
0.016605597
0.12678948
0.017796385
0.12773243
0.020377371
0.12874198
0.021769851
0.024160922
0.12846206
0.10423381
0.0011628991
0.10477043
0.0013861957
0.10588831
0.0013785601
0.1071864
0.0014905961
0.10886076
0.0019624367
0.11076223
0.0022101001
0.1127589
0.0033194174
0.11497688
0.0038907087
0.11712923
0.0054759006
0.11942316
0.0062230667
0.12151419
0.0082800201
0.12370956
0.0091541379
0.12540644
0.011665844
0.12705596
0.01281495
0.12792685
0.015734704
0.12870222
0.017021017
0.12837469
0.020704902
0.12798776
0.02215678
0.026518479
0.1256302
0.11144994
0.0007285061
0.11199189
0.00084423784
0.11319089
0.00017956845
0.11433584
0.00034564165
0.11615415
0.00014412834
0.11781995
0.00054429952
0.11989729
0.0012420716
0.12186196
0.0019260462
0.12398456
0.0033532978
0.12593908
0.0042685418
0.12780605
0.0064130499
0.12930716
0.0076530293
0.13040561
0.010567398
0.13113697
0.01208359
0.13104428
0.015827386
0.1303397
0.017725605
0.12850026
0.022544341
0.1260128
0.024644237
0.030711501
0.12181978
0.1191569
0.00048789546
0.11986049
0.00014064404
0.12093851
-0.00089845171
0.12213153
-0.00084737244
0.12389783
-0.001622181
0.12534796
-0.00090582714
0.12735629
-0.0007662606
0.12884602
0.00043631593
0.13082779
0.0013715252
0.13218771
0.0029086249
0.13356292
0.0050378444
0.13412199
0.0070939528
0.13452928
0.010160111
0.13403984
0.012573033
0.13302662
0.0168406
0.13090574
0.019846483
0.12796721
0.025482877
0.12389023
0.028721215
0.035960128
0.1186416
0.12729096
0.0002120772
0.12814206
-0.00071045875
0.12906085
-0.0018172402
0.1304479
-0.0022344303
0.13193107
-0.003105351
0.13349434
-0.0024690987
0.13527396
-0.0025458734
0.13659011
-0.00087984221
0.13826541
-0.0003037697
0.13900315
0.0021708873
0.13987164
0.0041693479
0.13966327
0.0073023214
0.13913242
0.010690963
0.13729998
0.014405473
0.13506859
0.019071995
0.13160217
0.023312903
0.12775441
0.029330634
0.1227384
0.033737229
0.041393887
0.11730464
0.13615499
-5.9249211e-05
0.13699516
-0.0015506267
0.13789603
-0.0027181072
0.13927928
-0.0036176865
0.14041962
-0.0042456842
0.14195267
-0.0040021511
0.14321088
-0.0038040863
0.14435359
-0.0020225477
0.14521274
-0.0011629274
0.14541405
0.0019695841
0.14558352
0.0039998751
0.14444584
0.0084400027
0.14317843
0.011958368
0.14054374
0.017040168
0.13758466
0.022031073
0.13323653
0.027661037
0.12875511
0.033812048
0.12327421
0.03921813
0.047202236
0.11746586
0.14565156
-0.00036299591
0.14647346
-0.002372524
0.14733171
-0.0035763581
0.14854756
-0.0048335408
0.14955052
-0.0052486422
0.15096493
-0.0054165616
0.1518465
-0.004685653
0.15287287
-0.0030489248
0.15303083
-0.0013208858
0.15273864
0.0022617774
0.1516687
0.005069812
0.14976152
0.01034718
0.14776622
0.013953671
0.14430365
0.020502734
0.14083116
0.02550356
0.1359132
0.032579006
0.13136653
0.038358718
0.12536543
0.04521923
0.052908127
0.11965954
0.15571685
-0.00072873253
0.15636627
-0.0030219378
0.15720239
-0.0044124809
0.15827158
-0.0059027343
0.159158
-0.0061350543
0.16024052
-0.0064990826
0.16073783
-0.0051829637
0.16135743
-0.0036685265
0.16085146
-0.00081491354
0.1601639
0.0029493355
0.15835419
0.0068795235
0.15634766
0.012353707
0.15330071
0.017000621
0.14931859
0.024484857
0.14528645
0.0295357
0.14020599
0.037659464
0.13594353
0.042621175
0.13045272
0.050710045
0.056753516
0.12660733
0.16697579
-0.0011353973
0.16750204
-0.0035481902
0.16834009
-0.0052505302
0.1691666
-0.0067292466
0.16991631
-0.0068847576
0.17049654
-0.0070793185
0.17052117
-0.0052075917
0.17038362
-0.0035309779
0.16918288
0.00038582769
0.16803284
0.0040993742
0.16570007
0.0092122981
0.16330787
0.014745906
0.15948655
0.020821944
0.15595325
0.028018155
0.15200805
0.033480899
0.14827954
0.041387968
0.14541872
0.045481994
0.14294261
0.053186157
0.055223306
0.14447282
0.17833082
-0.0015207676
0.17876935
-0.0039867135
0.17946522
-0.0059464078
0.18010017
-0.0073641908
0.18080916
-0.0075937546
0.18101927
-0.0072894199
0.18080882
-0.0049971412
0.18013429
-0.0028564546
0.17873548
0.0017846444
0.17711899
0.0057158578
0.17428468
0.012046607
0.1714412
0.017589394
0.16769087
0.024572267
0.16509736
0.030611669
0.1621443
0.036433964
0.16115973
0.04237253
0.16135879
0.045282934
0.16485168
0.049693274
0.046841933
0.17323305
0.19144932
-0.0018331116
0.19177013
-0.004307531
0.19208505
-0.006261324
0.19231425
-0.0075933863
0.19259989
-0.0078793959
0.1923025
-0.0069920287
0.19180236
-0.0044970075
0.19059215
-0.0016462436
0.18904179
0.0033350068
0.18692924
0.0078284038
0.18419378
0.014782072
0.18171862
0.020064554
0.17923511
0.027055771
0.17828641
0.031560374
0.177953
0.036767379
0.18096172
0.039363804
0.18575025
0.040494408
0.19513939
0.040304132
0.035038951
0.20694237
0.20441786
-0.0020757395
0.20479443
-0.0046841007
0.20518723
-0.0066541155
0.20538339
-0.0077895521
0.20524503
-0.0077410297
0.20457674
-0.0063237395
0.20387046
-0.0037907267
0.20236101
-0.00013679995
0.20069131
0.0050047141
0.19822457
0.010295141
0.19604751
0.016959133
0.19443981
0.021672248
0.19388561
0.027609977
0.19506808
0.030377904
0.19812813
0.033707332
0.20457379
0.03291814
0.21261038
0.032457816
0.22391497
0.028999541
0.025023368
0.23393056
0.21932113
-0.0022050655
0.21955162
-0.0049145925
0.21965498
-0.0067574737
0.21958742
-0.0077219894
0.21919477
-0.0073483857
0.2184558
-0.0055847675
0.21734061
-0.0026755339
0.21560232
0.0016014876
0.21398236
0.0066246801
0.21193426
0.012343241
0.21125055
0.017642838
0.21113547
0.021787328
0.21307944
0.025666014
0.21669917
0.026758168
0.22275717
0.027649331
0.23072029
0.02495502
0.23933681
0.023841301
0.24861399
0.019722357
0.019415862
0.2542215
0.23501334
-0.0023598317
0.23499423
-0.0048954741
0.23487899
-0.0066422353
0.234512
-0.007355006
0.23374458
-0.0065809611
0.23269862
-0.0045388113
0.23132831
-0.0013052154
0.22979338
0.0031364155
0.22825677
0.0081612867
0.22734577
0.013254246
0.22802167
0.016966932
0.22953607
0.020272936
0.23369956
0.021502518
0.23889042
0.02156731
0.24598842
0.020551332
0.25319677
0.017746668
0.26005344
0.016984635
0.26495893
0.014816865
0.018532462
0.26584233
0.25221925
-0.0023422663
0.25196742
-0.0046436448
0.25176367
-0.0064384759
0.25119346
-0.006784802
0.25052592
-0.0059134159
0.24958774
-0.003600633
0.24828232
2.0675754e-07
0.24707885
0.0043398797
0.24633816
0.0089019768
0.24706129
0.012531124
0.24894106
0.015087162
0.25242486
0.016789129
0.25740653
0.01652085
0.26272859
0.016245253
0.26914701
0.014132913
0.27394828
0.01294539
0.27714686
0.01378606
0.2770112
0.014952522
0.021897667
0.273646
0.27056948
-0.0020834695
0.27022814
-0.0043023083
0.26956831
-0.0057786471
0.2684782
-0.0056946879
0.26720648
-0.0046416921
0.26585716
-0.0022513171
0.264961
0.00089636649
0.26441205
0.0048888301
0.26490372
0.0084103139
0.26670384
0.010731001
0.26961028
0.012180717
0.27405403
0.012345385
0.27867518
0.011899702
0.28381849
0.011101938
0.28801495
0.0099364579
0.28937202
0.011588318
0.28926368
0.013894401
0.28612932
0.018086885
0.025566047
0.28246093
0.29074275
-0.0019553617
0.29042638
-0.0039859322
0.28974537
-0.0050976382
0.28904722
-0.0049965441
0.2881059
-0.0037003645
0.28716681
-0.0013122268
0.2866083
0.0014548748
0.28689318
0.0046039441
0.28835755
0.006945945
0.29083776
0.0082507978
0.29419436
0.0088241139
0.29786025
0.0086794991
0.30159282
0.0081671296
0.30494072
0.0077540373
0.30564516
0.0092320208
0.30498181
0.012251669
0.30361366
0.015262545
0.30155391
0.02014664
0.024129583
0.30299037
0.31256433
-0.001449452
0.31162688
-0.0030484913
0.31021179
-0.0036825384
0.30848871
-0.0032734669
0.30700834
-0.0022199926
0.3063324
-0.00063629053
0.30629016
0.0014971189
0.30736822
0.003525881
0.30948936
0.0048248079
0.31234568
0.0053944741
0.31573496
0.0054348355
0.31926024
0.0051542201
0.32232064
0.0051067333
0.32394117
0.0061335009
0.3244936
0.0086795949
0.32581223
0.010933042
0.32720894
0.013865829
0.33139801
0.015957574
0.016407385
0.33912021
0.3365138
-0.0010766715
0.33559326
-0.0021279475
0.33446212
-0.0025514
0.33347679
-0.0022881378
0.33287136
-0.0016145571
0.33284468
-0.00060961148
0.33371719
0.00062461213
0.33554346
0.0016996124
0.33783153
0.0025367371
0.34039014
0.0028358654
0.34274481
0.0030801655
0.34454506
0.0033539703
0.34543286
0.0042189296
0.34646157
0.0051047849
0.34862968
0.0065114893
0.35222914
0.00733358
0.35749225
0.0086027224
0.36580365
0.007646174
0.0070626329
0.3751484
0.36276128
0.36063333
0.35808193
0.35579379
0.35417924
0.35356963
0.35419424
0.35589385
0.35843059
0.36126645
0.36434662
0.36770059
0.37191952
0.3770243
0.38353579
0.39086937
0.3994721
0.40711827
0.4141809
0.10435123
0.057125457
-0.055901309
0.10329932
0.059334386
-0.058282478
0.10274062
0.061216458
-0.06065776
0.10248194
0.063278503
-0.06301982
0.10251627
0.065531806
-0.065566136
0.10307341
0.066439409
-0.066996551
0.10411488
0.068804698
-0.069846168
0.10562594
0.070157647
-0.07166871
0.10800468
0.071235873
-0.073614607
0.1104478
0.072185275
-0.0746284
0.11413775
0.073484346
-0.077174288
0.11772123
0.073668287
-0.077251774
0.12167267
0.073579108
-0.077530547
0.12529649
0.072835826
-0.076459649
0.12778462
0.071195063
-0.073683193
0.12941123
0.068092349
-0.069718958
0.12831262
0.064201002
-0.063102392
0.12472414
0.059143834
-0.055555353
0.053625816
0.11786749
-0.046769167
0.11043952
0.058669007
0.10927766
0.060496247
0.10863973
0.061854389
0.1082868
0.063631434
0.1084169
0.065401705
0.10911989
0.065736421
0.11040516
0.067519423
0.11185091
0.068711898
0.11402822
0.069058568
0.11684997
0.06936352
0.12034012
0.069994197
0.12326792
0.070740488
0.12670875
0.070138284
0.13122811
0.068316464
0.1342976
0.068125567
0.13670082
0.065689137
0.13643557
0.064466244
0.13401568
0.061563729
0.058003538
0.12963796
0.11623919
0.060457904
0.11476102
0.061974419
0.11381781
0.062797592
0.11311758
0.064331669
0.11325922
0.065260061
0.11379112
0.065204524
0.11465279
0.06665775
0.11612242
0.067242264
0.11840206
0.066778933
0.12076146
0.067004121
0.12330076
0.067454896
0.12647666
0.067564583
0.13004138
0.066573569
0.13346106
0.064896784
0.13622182
0.065364806
0.13770737
0.064203583
0.13872757
0.063446044
0.13842128
0.061870023
0.060422344
0.13600247
0.12124036
0.06247097
0.11979026
0.063424518
0.11828332
0.064304531
0.11727126
0.065343728
0.11709025
0.065441065
0.11681748
0.065477296
0.11740227
0.06607296
0.11872003
0.06592451
0.12030278
0.065196176
0.12217816
0.065128745
0.12471238
0.064920677
0.12767458
0.064602385
0.13078303
0.063465113
0.1337146
0.061965213
0.13696883
0.062110583
0.139686
0.06148641
0.14165761
0.061474429
0.14199354
0.061534094
0.062252809
0.14016308
0.12438267
0.064547176
0.1224806
0.065326591
0.12077307
0.066012061
0.11963774
0.066479058
0.1186639
0.066414903
0.1180509
0.066090297
0.11813062
0.06599324
0.11863571
0.065419418
0.12005498
0.063776908
0.12180294
0.063380787
0.12408133
0.062642284
0.12733471
0.061349009
0.13119931
0.05960051
0.13481985
0.058344675
0.13850016
0.058430275
0.14174156
0.058245002
0.14459516
0.058620835
0.14702854
0.059100707
0.060845642
0.14843571
0.1261682
0.067345587
0.1233937
0.068101093
0.12115771
0.068248045
0.11914336
0.068493417
0.11784562
0.067712636
0.11661419
0.067321728
0.11621157
0.066395864
0.11682773
0.06480326
0.1172998
0.06330484
0.11865198
0.062028599
0.12173944
0.059554826
0.1254268
0.05766165
0.12908304
0.055944274
0.13339009
0.054037626
0.13943073
0.052389633
0.1469969
0.05067883
0.1551481
0.050469629
0.16226806
0.051980755
0.055456375
0.16765732
0.1259242
0.071070189
0.12273639
0.071288904
0.11951493
0.071469506
0.1170642
0.070944154
0.11448063
0.070296196
0.11261351
0.069188855
0.11173535
0.06727402
0.11092306
0.065615546
0.11120887
0.063019031
0.11354292
0.059694554
0.11596929
0.057128457
0.11934309
0.054287844
0.12608855
0.049198816
0.13564272
0.044483461
0.14646217
0.041570182
0.15702172
0.040119276
0.16661877
0.040872583
0.17520565
0.043393874
0.047996996
0.18266503
0.12368389
0.075848358
0.11942204
0.07555075
0.11528813
0.075603419
0.11160724
0.074625045
0.10780629
0.074097145
0.10519833
0.071796814
0.10226517
0.070207178
0.10109305
0.066787672
0.10100951
0.063102565
0.10070429
0.059999777
0.10192951
0.055903239
0.10823156
0.047985798
0.11743031
0.040000065
0.12546074
0.036453027
0.13171761
0.035313316
0.13711454
0.034722341
0.14257637
0.035410759
0.14899231
0.036977927
0.039697197
0.15729211
0.11990091
0.08157765
0.11410041
0.081351248
0.10860257
0.081101258
0.10281836
0.080409258
0.097633687
0.079281815
0.092096016
0.077334485
0.087038011
0.075265183
0.082655087
0.071170596
0.077327995
0.068429656
0.074648079
0.062679693
0.074822207
0.055729112
0.076006082
0.046801922
0.07458223
0.041423917
0.069976135
0.041059123
0.063491927
0.041797524
0.057678643
0.040535626
0.0536648
0.039424602
0.050723675
0.039919051
0.041535387
0.048885485
0.11475309
0.088644339
0.10738708
0.088717256