/*--------------------------------*- C++ -*----------------------------------*\
  =========                 |
  \\      /  F ield         | OpenFOAM: The Open Source CFD Toolbox
   \\    /   O peration     | Website:  https://openfoam.org
    \\  /    A nd           | Version:  11
     \\/     M anipulation  |
\*---------------------------------------------------------------------------*/
FoamFile
{
    format      ascii;
    class       surfaceScalarField;
    location    "3.9";
    object      phi;
}
// * * * * * * * * * * * * * * * * * * * * * * * * * * * * * * * * * * * * * //

dimensions      [0 3 -1 0 0 0 0];

internalField   nonuniform List<scalar> 
10792
(
0.071681682
-0.043557705
-0.072320069
0.044196092
0.071007918
-0.041507396
0.04218116
0.070278043
-0.039463317
0.040193192
0.069475724
-0.037338069
0.038140388
0.068634314
-0.035064139
0.035905549
0.067770308
-0.032866033
0.033730039
0.066954813
-0.030572749
0.031388244
0.066037619
-0.028199835
0.029117029
0.065223936
-0.025710063
0.026523746
0.064396889
-0.023423495
0.024250542
0.063679922
-0.020810327
0.021527294
0.062907093
-0.018394641
0.019167471
0.062383961
-0.015776396
0.016299528
0.061843741
-0.013362871
0.01390309
0.061374261
-0.01062431
0.01109379
0.061087465
-0.0081519917
0.0084387874
0.06070295
-0.0054798445
0.0058643589
0.060687108
-0.0028433175
0.0028591597
-0.00036374443
0.060726292
0.00032456028
0.075706841
-0.042911973
-0.076352573
0.075052869
-0.040853423
0.074363186
-0.038773635
0.073502089
-0.036476971
0.072713048
-0.034275099
0.071909191
-0.032062175
0.071024897
-0.029688456
0.070123667
-0.027298604
0.069384902
-0.024971298
0.068548693
-0.022587286
0.067837785
-0.020099419
0.067187953
-0.01774481
0.066648942
-0.015237385
0.066030233
-0.012744161
0.065662379
-0.010256456
0.065302752
-0.0077923655
0.065067711
-0.0052448039
0.065078136
-0.0028537425
-0.00018950596
0.064903897
0.080549118
-0.042380643
-0.081080448
0.079946957
-0.040251262
0.079133004
-0.037959683
0.078352935
-0.035696901
0.077559258
-0.033481422
0.07664371
-0.031146627
0.075737811
-0.028782558
0.074913562
-0.026474355
0.074109632
-0.024167368
0.073245109
-0.021722763
0.072599543
-0.019453853
0.071895171
-0.017040439
0.071256259
-0.014598473
0.070707113
-0.012195016
0.070245488
-0.0097948315
0.069859946
-0.0074068237
0.069675308
-0.0050601662
0.069485574
-0.0026640081
-0.00022798839
0.069524056
0.085186878
-0.041709953
-0.085857568
0.084400509
-0.039464892
0.083594632
-0.037153806
0.082808164
-0.034910433
0.081929045
-0.032602303
0.081062795
-0.030280377
0.080283342
-0.028003104
0.079489317
-0.02568033
0.078672612
-0.023350663
0.077976307
-0.021026458
0.077272859
-0.018750406
0.076538252
-0.016305831
0.075956512
-0.014016734
0.075396271
-0.011634775
0.074962716
-0.0093612775
0.074643352
-0.0070874597
0.074422795
-0.0048396096
0.074328362
-0.0025695754
-0.00025133638
0.07435171
0.090374498
-0.040915858
-0.091168593
0.089728328
-0.038818723
0.088996925
-0.036422404
0.088218969
-0.034132476
0.087395815
-0.031779149
0.086623797
-0.029508359
0.08584167
-0.027220977
0.084994201
-0.02483286
0.084190853
-0.022547315
0.083404891
-0.020240496
0.082588759
-0.017934274
0.081895597
-0.015612669
0.081259716
-0.013380853
0.080702426
-0.011077485
0.080279752
-0.0089386038
0.079916557
-0.0067242647
0.079709331
-0.0046323844
0.079581327
-0.0024415708
-0.00026385527
0.079593845
0.095732062
-0.040242306
-0.096405614
0.094974508
-0.038061169
0.094149509
-0.035597405
0.093427708
-0.033410675
0.09263658
-0.030988021
0.091850815
-0.028722594
0.090967232
-0.026337394
0.090123386
-0.023989014
0.089260236
-0.021684165
0.088444314
-0.019424573
0.087700186
-0.017190147
0.087079394
-0.014991877
0.086464102
-0.01276556
0.085958558
-0.010571941
0.085521373
-0.0085014193
0.085188551
-0.0063914428
0.084981539
-0.0044253733
0.084864222
-0.0023242534
-0.00035828986
0.084958656
0.10208374
-0.039559284
-0.10276676
0.10124025
-0.037217679
0.10051449
-0.034871646
0.099718657
-0.032614842
0.098854067
-0.030123431
0.097993542
-0.027862069
0.097077631
-0.025421483
0.096237937
-0.02314932
0.095384789
-0.020831017
0.094618016
-0.018657801
0.093911201
-0.016483332
0.093279107
-0.014359783
0.092636884
-0.012123338
0.092107484
-0.010042542
0.091604736
-0.0079986715
0.091302533
-0.0060892396
0.09105531
-0.0041781513
0.091003731
-0.0022726743
-0.00039441878
0.09103986
0.10823651
-0.038797289
-0.1089985
0.10735224
-0.036333415
0.10655643
-0.034075836
0.10563819
-0.031696596
0.10476793
-0.029253178
0.10387352
-0.026967656
0.10301567
-0.024563629
0.10224363
-0.022377286
0.10142441
-0.02001179
0.10065552
-0.017888915
0.099861065
-0.015688878
0.099155954
-0.013654672
0.09853857
-0.011505954
0.098015379
-0.0095193505
0.097553992
-0.0075372849
0.097253362
-0.0057886104
0.097036279
-0.003961068
0.096999956
-0.0022363518
-0.00041956399
0.097025102
0.11552582
-0.037896056
-0.11642705
0.11455017
-0.035357768
0.11368546
-0.03321112
0.11266893
-0.03068007
0.11176667
-0.028350913
0.11083665
-0.026037636
0.10999925
-0.023726237
0.1091437
-0.021521736
0.10829904
-0.019167126
0.10749808
-0.017087959
0.10673847
-0.014929265
0.10609904
-0.013015245
0.10554199
-0.010948904
0.10507846
-0.0090558157
0.10462637
-0.0070851934
0.10427575
-0.0054379939
0.10397862
-0.0036639427
0.10392383
-0.0021815527
-0.00038388047
0.10388814
0.12257055
-0.036740321
-0.12372628
0.12155614
-0.034343355
0.12060126
-0.032256247
0.11964747
-0.029726272
0.11880135
-0.027504798
0.1178509
-0.025087181
0.11697304
-0.022848384
0.11603444
-0.020583131
0.11522912
-0.018361813
0.11442581
-0.016284642
0.11367998
-0.014183438
0.11299033
-0.0123256
0.11239751
-0.010356082
0.11191321
-0.0085715138
0.11155803
-0.0067300087
0.11126982
-0.0051497913
0.11109471
-0.0034888314
0.11101826
-0.002105098
-0.00041775725
0.11105213
0.1308284
-0.035493035
-0.13207568
0.12986761
-0.033382574
0.12870027
-0.031088903
0.12772665
-0.028752646
0.12675571
-0.026533858
0.12577936
-0.024110833
0.1249332
-0.022002223
0.12404108
-0.019691011
0.12330802
-0.017628756
0.12247924
-0.01545586
0.12173912
-0.013443324
0.12097801
-0.011564486
0.12034727
-0.0097253472
0.11980964
-0.0080338759
0.11941455
-0.0063349214
0.11909149
-0.0048267311
0.1188935
-0.0032908432
0.11878463
-0.0019962309
-0.00047660063
0.11884348
0.13942382
-0.034306839
-0.14061002
0.13839526
-0.032354014
0.13717932
-0.029872964
0.13617837
-0.027751696
0.13499028
-0.025345766
0.13393705
-0.023057609
0.13287371
-0.020938882
0.13193854
-0.018755837
0.13112882
-0.016819033
0.13033178
-0.014658823
0.12966324
-0.01277478
0.12896559
-0.010866839
0.12837523
-0.0091349861
0.12781725
-0.007475895
0.12745652
-0.0059741904
0.12714981
-0.0045200234
0.12701772
-0.0031587561
0.12690484
-0.0018833501
-0.00052586698
0.12695411
0.14879159
-0.032919112
-0.15017931
0.14744445
-0.031006875
0.14624748
-0.028675994
0.14525607
-0.026760293
0.14412896
-0.024218656
0.14323456
-0.0221632
0.14214749
-0.019851814
0.14121775
-0.017826098
0.14025683
-0.015858111
0.13945588
-0.013857876
0.13868927
-0.012008167
0.13795784
-0.010135413
0.1372972
-0.0084743502
0.13673966
-0.0069183519
0.13632732
-0.0055618514
0.13596686
-0.0041595605
0.13582354
-0.0030154331
0.13569527
-0.001755087
-0.00059233379
0.13576174
0.15915943
-0.031727357
-0.16035119
0.15770995
-0.029557397
0.1563953
-0.027361337
0.1550765
-0.025441502
0.15392382
-0.023065972
0.15290051
-0.021139892
0.15180203
-0.018753329
0.15082605
-0.016850123
0.14977725
-0.014809313
0.14893397
-0.013014593
0.14808407
-0.011158267
0.14742606
-0.0094774078
0.14677471
-0.0078229972
0.14624358
-0.0063872173
0.14580454
-0.0051228142
0.14547772
-0.0038327455
0.14528845
-0.0028261642
0.14519907
-0.0016656987
-0.00062616747
0.1452329
0.16970974
-0.030271934
-0.17116516
0.16821231
-0.028059968
0.16700121
-0.026150241
0.16554008
-0.023980369
0.1643603
-0.021886195
0.16307458
-0.019854175
0.16195872
-0.017637471
0.16090089
-0.015792293
0.15989597
-0.013804387
0.15900558
-0.012124203
0.15809942
-0.010252113
0.15736412
-0.0087421025
0.156676
-0.0071348779
0.15616974
-0.0058809626
0.15573519
-0.0046882656
0.15545445
-0.003551997
0.15524274
-0.0026144589
0.15515774
-0.0015806991
-0.00064534724
0.15517692
0.18167807
-0.028454291
-0.18349571
0.17998592
-0.02636782
0.1785036
-0.024667921
0.17696554
-0.022442302
0.17573453
-0.020655191
0.17434014
-0.018459785
0.17331361
-0.016610941
0.1722055
-0.014684183
0.17127779
-0.012876679
0.17030326
-0.01114967
0.16950417
-0.0094530229
0.16874914
-0.0079870685
0.1680793
-0.006465038
0.1675212
-0.0053228643
0.16701607
-0.0041831352
0.16669736
-0.0032332932
0.16644859
-0.0023656853
0.16638934
-0.0015214496
-0.00068504815
0.16642904
0.19415947
-0.026581115
-0.19603264
0.19244029
-0.024648646
0.19070488
-0.022932511
0.18915887
-0.020896292
0.18770132
-0.01919764
0.18627359
-0.017032056
0.18503274
-0.01537009
0.18374269
-0.01339414
0.18272542
-0.011859408
0.18165802
-0.010082266
0.18087754
-0.0086725448
0.18002098
-0.0071305116
0.17942661
-0.0058706654
0.17881513
-0.0047113797
0.17836513
-0.0037331395
0.17800485
-0.0028730077
0.17776512
-0.0021259647
0.17772861
-0.0014849394
-0.00074852953
0.1777921
0.20770064
-0.02464203
-0.20963973
0.20593576
-0.022883764
0.2041335
-0.021130248
0.20257105
-0.019333846
0.20094824
-0.017574826
0.19958169
-0.01566551
0.19824734
-0.014035742
0.19705279
-0.012199588
0.19594686
-0.010753475
0.19492521
-0.0090606128
0.19405127
-0.0077986128
0.19320813
-0.0062873733
0.19260264
-0.0052651696
0.19195684
-0.0040655853
0.19156228
-0.003338576
0.19117143
-0.0024821575
0.1909871
-0.0019416382
0.19087433
-0.0013721627
-0.00082723565
0.19095303
0.221861
-0.022745377
-0.22375765
0.22001859
-0.021041357
0.21821289
-0.019324542
0.21651321
-0.017634166
0.21483056
-0.015892183
0.21336501
-0.014199955
0.21192612
-0.012596851
0.21064786
-0.010921331
0.20937054
-0.0094761524
0.2083049
-0.0079949706
0.20727363
-0.0067673466
0.20648142
-0.0054951609
0.20573857
-0.0045223248
0.20514202
-0.0034690315
0.20464573
-0.0028422833
0.20425281
-0.0020892364
0.2040366
-0.0017254356
0.20387003
-0.0012055878
-0.00090651577
0.20394931
0.23733735
-0.020594338
-0.23948839
0.23533899
-0.019042992
0.23348067
-0.017466222
0.23171173
-0.015865222
0.23008781
-0.014268266
0.22856957
-0.012681715
0.22714349
-0.011170774
0.22585034
-0.009628183
0.22462859
-0.0082544044
0.22354876
-0.0069151416
0.2225184
-0.0057369863
0.22170972
-0.004686476
0.22093295
-0.0037455574
0.22037863
-0.0029147129
0.21982132
-0.0022849666
0.21947353
-0.0017414538
0.21916912
-0.0014210219
0.21898176
-0.001018233
-0.00082911529
0.21890436
0.2539136
-0.018368608
-0.25613933
0.25177141
-0.016900803
0.2497534
-0.015448215
0.24780981
-0.013921632
0.24598273
-0.01244119
0.24431563
-0.011014612
0.24280674
-0.0096618801
0.24143774
-0.008259181
0.24017972
-0.0069963899
0.23903586
-0.0057712798
0.23803719
-0.0047383164
0.23714602
-0.0037953118
0.23637698
-0.002976514
0.23582118
-0.0023589102
0.23533777
-0.001801563
0.23502601
-0.0014296868
0.23475759
-0.0011526097
0.23462357
-0.00088421311
-0.00070872387
0.23450318
0.2713621
-0.01618802
-0.27354269
0.26928874
-0.014827447
0.26726454
-0.01342401
0.26536897
-0.012026066
0.26354369
-0.01061591
0.26188284
-0.0093537638
0.26034845
-0.0081274909
0.25898976
-0.0069004889
0.25773794
-0.0057445669
0.25658515
-0.0046184899
0.25559231
-0.00374548
0.25466059
-0.0028635929
0.25388009
-0.0021960137
0.2532257
-0.0017045157
0.25273177
-0.0013076396
0.25235288
-0.0010507943
0.25211015
-0.00090988098
0.2519624
-0.0007364611
-0.00064074446
0.25189442
0.29002552
-0.013718039
-0.2924955
0.28774826
-0.01255019
0.28558695
-0.0112627
0.28360889
-0.010047998
0.28177777
-0.008784797
0.2800723
-0.0076482883
0.27852951
-0.0065847007
0.27715335
-0.0055243356
0.27596292
-0.0045541279
0.27493716
-0.0035927372
0.27398479
-0.0027931086
0.27319321
-0.0020720125
0.27248593
-0.0014887325
0.27188767
-0.0011062527
0.2713746
-0.00079457549
0.27099094
-0.00066713533
0.27070548
-0.00062441897
0.27049716
-0.00052814588
-0.00058405081
0.27044047
0.31064492
-0.011181654
-0.31318131
0.30820282
-0.010108091
0.30593201
-0.0089918918
0.30380774
-0.0079237224
0.30184663
-0.0068236919
0.30007743
-0.0058790815
0.29843422
-0.0049414904
0.29699639
-0.004086513
0.29575443
-0.0033121689
0.2946836
-0.002521906
0.29380239
-0.0019118912
0.29302269
-0.0012923196
0.29240473
-0.00087076669
0.29183303
-0.00053455443
0.29137499
-0.00033653751
0.29100866
-0.00030081003
0.29070547
-0.00032122533
0.2905869
-0.00040957929
-0.00049544354
0.2904983
0.33242754
-0.0081237166
-0.33548548
0.32963563
-0.0073161768
0.3271102
-0.0064664643
0.32484956
-0.0056630837
0.32285344
-0.004827568
0.32108459
-0.0041102327
0.31950389
-0.0033607878
0.31815718
-0.0027398035
0.31700005
-0.0021550396
0.31604417
-0.0015660254
0.31529859
-0.0011663137
0.3147017
-0.00069543375
0.31426414
-0.00043319985
0.31390805
-0.00017847321
0.31364391
-7.2392791e-05
0.31336861
-2.550666e-05
0.31306804
-2.0661032e-05
0.31283107
-0.00017261223
-0.00027821461
0.31261385
0.35690366
-0.0043251812
-0.36070219
0.35353771
-0.0039502263
0.3506025
-0.0035312576
0.34799723
-0.0030578178
0.34576477
-0.0025951073
0.34381079
-0.0021562446
0.34218313
-0.0017331311
0.34082155
-0.0013782253
0.33969164
-0.0010251302
0.3388488
-0.00072318114
0.33817018
-0.00048769282
0.33773895
-0.00026420399
0.33742852
-0.0001227789
0.33722126
2.8786012e-05
0.33706388
8.4987307e-05
0.33689176
0.00014662162
0.33679214
7.8953207e-05
0.33659736
2.2170401e-05
-0.00013559748
0.33645474
0.38420297
-0.38852815
0.38025274
0.37672148
0.37366366
0.37106856
0.36891231
0.36717918
0.36580095
0.36477582
0.36405264
0.36356495
0.36330075
0.36317797
0.36320675
0.36329174
0.36343836
0.36351732
0.36353949
0.36340389
0.061066699
0.0024393551
-0.0027797625
0.061299295
0.0049429721
-0.0051755687
0.062069811
0.0074672509
-0.0082377669
0.062941976
0.010114305
-0.01098647
0.064063187
0.012769737
-0.013890948
0.065467943
0.015120148
-0.016524904
0.067057083
0.017846207
-0.019435348
0.068988525
0.020327268
-0.02225871
0.071032737
0.023090203
-0.025134416
0.073442232
0.025464225
-0.02787372
0.075917516
0.028103024
-0.030578309
0.078809191
0.030379968
-0.033271643
0.081703954
0.032893531
-0.035788294
0.085131146
0.03505195
-0.038479142
0.08865643
0.03729205
-0.040817334
0.092648146
0.03944587
-0.043437586
0.097015959
0.041606674
-0.045974487
0.10167845
0.043619274
-0.04828177
0.04542771
0.10699503
-0.050744286
0.0652027
0.0021405528
0.065500692
0.0046449794
0.066384476
0.0065834668
0.067286008
0.0092127729
0.06877404
0.011281706
0.070183899
0.013710289
0.072132449
0.015897656
0.07406107
0.018398647
0.076509626
0.020641647
0.07893165
0.023042201
0.08182002
0.025214654
0.084639972
0.027560016
0.087862386
0.029671116
0.091132234
0.031782102
0.094795689
0.033628595
0.098669436
0.035572123
0.10288358
0.037392532
0.1074822
0.039020647
0.040401241
0.11250867
0.069651865
0.0020127434
0.070147777
0.0041490678
0.070902008
0.0058292355
0.071973889
0.0081408918
0.073371361
0.0098842329
0.074897467
0.012184183
0.076856222
0.013938902
0.078850927
0.016403942
0.081380494
0.01811208
0.083845839
0.020576855
0.086843316
0.022217176
0.089704263
0.024699069
0.093155517
0.026219861
0.096446627
0.028490992
0.10035176
0.029723465
0.10408881
0.031835072
0.10852897
0.032952374
0.1128009
0.034748716
0.035414222
0.11778791
0.074586654
0.001777799
0.075129741
0.003605981
0.075936702
0.0050222741
0.077145878
0.0069317156
0.07853902
0.0084910907
0.080265464
0.010457739
0.082144994
0.012059371
0.084373718
0.014175218
0.086762986
0.015722812
0.089417488
0.017922352
0.09221842
0.019416243
0.095272944
0.021644544
0.098525005
0.0229678
0.10194812
0.025067873
0.10547951
0.026192079
0.10930509
0.028009494
0.11328671
0.028970755
0.11753037
0.030505051
0.030912055
0.12203254
0.079731168
0.0016404758
0.080221085
0.0031160643
0.081089026
0.0041543334
0.082201438
0.0058193025
0.083698822
0.0069937074
0.085454633
0.0087019272
0.087436798
0.010077206
0.089766753
0.011845263
0.092134475
0.013355089
0.094863077
0.015193749
0.097538761
0.016740559
0.10058713
0.01859618
0.10367157
0.01988335
0.10690504
0.021834407
0.1102027
0.02289442
0.11368738
0.02452481
0.11708685
0.025571293
0.12077536
0.02681654
0.02754347
0.12414394
0.085166861
0.0014322705
0.08588178
0.0024011454
0.086723783
0.0033123302
0.088052709
0.0044903767
0.08960148
0.0054449353
0.091407103
0.006896304
0.09343818
0.0080461292
0.095661152
0.0096222911
0.098025842
0.010990399
0.10065379
0.012565799
0.10322869
0.014165659
0.10619418
0.015630686
0.10893193
0.017145609
0.11199213
0.018774207
0.11490862
0.019977928
0.11781263
0.021620796
0.12059059
0.022793328
0.12319373
0.024213401
0.025194644
0.12554256
0.091274888
0.0011972425
0.091950945
0.0017250882
0.092776355
0.0024869204
0.094144039
0.0031226926
0.095538411
0.0040505623
0.097489564
0.0049451517
0.099406994
0.0061286983
0.10171367
0.0073156133
0.10401063
0.0086934367
0.1065316
0.01004483
0.10896913
0.01172813
0.11164258
0.012957237
0.11399827
0.014789915
0.11667693
0.016095544
0.11873386
0.017921002
0.12094445
0.019410205
0.12249837
0.021239407
0.12400783
0.022703944
0.024301573
0.1249009
0.097383223
0.00083912053
0.097964178
0.0011441334
0.098939515
0.001511583
0.10030323
0.0017589796
0.10184308
0.0025107102
0.10378701
0.0030012232
0.10566579
0.0042499139
0.10794573
0.0050356772
0.11005602
0.0065831442
0.11248407
0.00761678
0.11468459
0.0095276111
0.1170182
0.010623626
0.11894033
0.012867777
0.12092451
0.014111372
0.1222526
0.016592906
0.12352315
0.018139659
0.12368692
0.021075633
0.12378935
0.022601519
0.025803961
0.12228696
0.10427929
0.0004479687
0.10487778
0.00054565147
0.10601816
0.00037120014
0.10728232
0.00049481303
0.10891247
0.00088056773
0.11067114
0.0012425499
0.11257057
0.0023504797
0.1145981
0.0030081485
0.11655303
0.0046282121
0.11859461
0.0055752051
0.12040891
0.0077133124
0.12214772
0.0088848102
0.12336359
0.011651911
0.12442272
0.013052237
0.1247166
0.01629903
0.12477411
0.018082145
0.1237054
0.022144339
0.12220261
0.024104316
0.029193081
0.11881349
0.11145816
4.1944817e-05
0.11201739
-1.3583948e-05
0.11317934
-0.00079074637
0.11431258
-0.00063843167
0.11607159
-0.00087843557
0.11759814
-0.00028400448
0.11958916
0.00035945625
0.12134407
0.0012532415
0.12324754
0.0027247351
0.12486467
0.0039580764
0.12631933
0.0062586574
0.12732
0.0078841318
0.12796524
0.011006677
0.12800573
0.01301174
0.12719183
0.017112932
0.12569396
0.019580016
0.12310003
0.024738274
0.11974453
0.027459809
0.03399615
0.11494146
0.11908634
-0.0002009172
0.11983639
-0.00076363147
0.12082032
-0.0017746778
0.12201578
-0.0018338921
0.12360998
-0.0024726377
0.12493691
-0.0016109341
0.12675112
-0.0014547576
0.12804611
-4.1747276e-05
0.12979065
0.00098019338
0.13071974
0.0030289833
0.13167141
0.0053069861
0.13176095
0.0077945945
0.13168322
0.011084407
0.13054048
0.014154476
0.12889291
0.018760508
0.12607207
0.022400851
0.12254795
0.028262397
0.11792565
0.032082104
0.039504206
0.1124176
0.1272769
-0.00052370929
0.12805238
-0.001539115
0.12892237
-0.0026446723
0.13027401
-0.003185524
0.1316062
-0.0038048369
0.13303861
-0.0030433433
0.13451661
-0.0029327554
0.13565867
-0.0011838103
0.13697102
-0.00033215742
0.13731372
0.0026862858
0.1377485
0.0048722037
0.13692774
0.0086153523
0.13581842
0.012193731
0.13342867
0.016544225
0.13077777
0.021411407
0.1268791
0.02629952
0.12269132
0.032450173
0.11741674
0.037356685
0.045027823
0.11189313
0.13606583
-0.00082779766
0.13685606
-0.0023293435
0.13768359
-0.0034722028
0.13888632
-0.0043882559
0.13989654
-0.0048150604
0.14128618
-0.0044329811
0.14224719
-0.0038937693
0.1431291
-0.0020657165
0.14357324
-0.00077630627
0.14352741
0.0027321183
0.14318709
0.0052125203
0.14161476
0.01018769
0.1399282
0.013880283
0.13682984
0.019642592
0.13350876
0.024732485
0.12883024
0.030978039
0.12428004
0.037000372
0.11869147
0.042945253
0.050781491
0.1129378
0.14557065
-0.0011655515
0.14630205
-0.0030607441
0.14703498
-0.0042051275
0.14809307
-0.0054463483
0.14899989
-0.0057218836
0.15023051
-0.0056636041
0.15085396
-0.0045172195
0.15150149
-0.0027132462
0.1511773
-0.0004521152
0.15053464
0.0033747829
0.14904011
0.0067070497
0.14700841
0.012219381
0.14457956
0.016309133
0.14083399
0.023388169
0.13714989
0.028416587
0.13217169
0.035956238
0.12776036
0.041411703
0.12191667
0.048788939
0.055903444
0.11679472
0.15552216
-0.001510792
0.15608747
-0.0036260543
0.15683618
-0.0049538415
0.15774886
-0.0063590201
0.15848221
-0.0064552348
0.15933527
-0.0065166719
0.15962339
-0.0048053342
0.15989601
-0.0029858644
0.15901164
0.00043225158
0.15802273
0.0043636958
0.1559311
0.0087986775
0.15367992
0.014470558
0.15020789
0.019781159
0.14630983
0.02728623
0.14229829
0.032428128
0.13768003
0.040574498
0.13397703
0.045114706
0.12945942
0.053306544
0.057926096
0.12743677
0.16676189
-0.0018436413
0.16721998
-0.0040841409
0.16794477
-0.0056786357
0.16855592
-0.0069701701
0.16907669
-0.0069760087
0.16937403
-0.006814013
0.16918582
-0.0046171178
0.16874868
-0.0025487314
0.16735869
0.001822245
0.16598943
0.0057329528
0.16342886
0.01135925
0.16081246
0.017086955
0.15701371
0.023579907
0.15391271
0.030387232
0.15040539
0.035935449
0.14774063
0.043239257
0.14599893
0.046856406
0.14577172
0.05353376
0.053521414
0.1501764
0.17804409
-0.002095638
0.17839354
-0.0044335933
0.17899466
-0.006279755
0.17950367
-0.0074791792
0.17999533
-0.0074676633
0.17992857
-0.0067472595
0.17949936
-0.0041879024
0.17858507
-0.0016344478
0.17705819
0.0033491325
0.17520514
0.0075859976
0.17227997
0.014284415
0.16952057
0.019846363
0.16627298
0.026827496
0.16435541
0.032304801
0.16239044
0.037900413
0.16295711
0.042672593
0.16500881
0.044804699
0.1711087
0.047433875
0.043200207
0.1814299
0.19109074
-0.0022333455
0.19124469
-0.0045875483
0.19144271
-0.0064777761
0.19159244
-0.007628901
0.19169228
-0.0075675061
0.19120206
-0.0062570384
0.1905357
-0.0035215429
0.18914734
-0.000246089
0.18751855
0.0049779236
0.18529752
0.0098070242
0.18277764
0.016804299
0.18074177
0.021882232
0.17907515
0.028494118
0.17907258
0.032307371
0.18018576
0.036787228
0.18482656
0.038031795
0.19125346
0.038377793
0.2019007
0.036786645
0.031411579
0.21368932
0.20408359
-0.0023676307
0.2043856
-0.0048895592
0.20461761
-0.0067097806
0.20460937
-0.0076206609
0.20429981
-0.007257952
0.20357543
-0.0055326554
0.20276981
-0.0027159213
0.20112832
0.0013954013
0.19943241
0.0066738308
0.19709775
0.012141683
0.1954623
0.018439752
0.19453286
0.022811669
0.19494703
0.028079948
0.19720591
0.030048495
0.20161211
0.032381026
0.20902422
0.030619686
0.21763679
0.029765223
0.22864434
0.025779093
0.022762424
0.2372935
0.21899421
-0.0024574805
0.2191109
-0.0050062509
0.21904805
-0.0066469254
0.21884006
-0.0074126763
0.21832726
-0.0067451457
0.2174923
-0.004697692
0.2162626
-0.0014862239
0.21460666
0.0030513422
0.21311358
0.0081669115
0.21153556
0.013719695
0.21152485
0.018450462
0.21217537
0.022161154
0.21508174
0.025173575
0.21958838
0.025541852
0.22635406
0.025615351
0.2343824
0.022591348
0.24260042
0.021547195
0.25058451
0.017795009
0.018725281
0.25462165
0.23463544
-0.0025897331
0.23450453
-0.0048753474
0.23429936
-0.006441754
0.23382506
-0.0069383795
0.2329792
-0.0058992854
0.23189994
-0.003618424
0.23057353
-0.00015981576
0.22914715
0.0044777242
0.22794227
0.0093717858
0.22770599
0.01395598
0.22899775
0.017158704
0.23129053
0.019868372
0.23609243
0.020371672
0.24158642
0.020047861
0.2486101
0.018591675
0.25522762
0.015973828
0.26105643
0.01571838
0.26440098
0.014450467
0.019292965
0.26383329
0.25177945
-0.0024747694
0.25146798
-0.0045638676
0.25118721
-0.0061609922
0.25054576
-0.0062969253
0.24988994
-0.0052434699
0.24893969
-0.0026681643
0.24772187
0.0010580045
0.24679094
0.0054086451
0.2466034
0.0095593366
0.24791136
0.012648014
0.25030114
0.014768922
0.25425944
0.015910073
0.25930544
0.01532567
0.26448479
0.014868514
0.27038321
0.012693258
0.27406307
0.012293963
0.27595203
0.013829428
0.27445659
0.015945907
0.023578643
0.27017091
0.2701495
-0.002183802
0.26980479
-0.0042191572
0.26906218
-0.0054183743
0.26791172
-0.0051464728
0.26668091
-0.0040126547
0.26551572
-0.001502976
0.26482264
0.0017510854
0.26465208
0.0055792075
0.26560068
0.008610734
0.26777174
0.01047696
0.27098149
0.011559171
0.27548124
0.011410319
0.279919
0.010887905
0.28468796
0.010099562
0.28786748
0.0095137373
0.28811147
0.012049973
0.28715382
0.014787076
0.28340144
0.019698284
0.026944933
0.28003515
0.29033768
-0.002023183
0.29000654
-0.0038880222
0.2893408
-0.0047526304
0.28867841
-0.0044840851
0.28775993
-0.0030941727
0.28695228
-0.0006953252
0.28671451
0.0019888545
0.28737533
0.0049183893
0.28915362
0.0068324494
0.29178052
0.0078500536
0.29512703
0.0082126684
0.29866095
0.0078763975
0.30205447
0.00749438
0.3046288
0.0075252338
0.30439048
0.0097520592
0.30342678
0.013013667
0.3019453
0.016268564
0.30052853
0.021115053
0.024169643
0.30330382
0.31210751
-0.001516846
0.3111636
-0.0029441096
0.30976431
-0.0033533467
0.30815636
-0.0028761276
0.3068974
-0.0018352124
0.30650964
-0.00030757102
0.3067075
0.0017910012
0.30805283
0.0035730557
0.31026007
0.0046252152
0.31306202
0.0050481056
0.31626321
0.005011474
0.31940571
0.0047338994
0.32190871
0.0049913742
0.3229729
0.0064610468
0.32351373
0.0092112311
0.32510231
0.011425082
0.32710089
0.014269992
0.33240069
0.015815252
0.015756024
0.34081431
0.33610642
-0.0011685233
0.33526261
-0.0021003047
0.33424994
-0.0023406679
0.33341443
-0.0020406174
0.33300518
-0.0014259621
0.33311473
-0.00041712793
0.33415782
0.0007479159
0.33602322
0.001707662
0.3382429
0.0024055287
0.34066712
0.0026238878
0.34278098
0.0028976179
0.34425145
0.0032634245
0.34498139
0.0042614393
0.34620065
0.0052417875
0.34874295
0.0066689247
0.35270491
0.0074631241
0.35849899
0.0084759109
0.36704946
0.0072647866
0.0067408205
0.37606466
0.36223536
0.36013506
0.35779439
0.35575378
0.35432781
0.35391069
0.3546586
0.35636626
0.35877179
0.36139568
0.3642933
0.36755672
0.37181816
0.37705995
0.38372887
0.391192
0.39966791
0.4069327
0.41367352
0.10565551
0.054365811
-0.05302629
0.10461921
0.056027413
-0.054991119
0.10404749
0.057845113
-0.057273393
0.10368278
0.059672239
-0.05930752
0.1039084
0.060658693
-0.060884318
0.10448266
0.06212915
-0.062703414
0.10552796
0.063957121
-0.06500242
0.10694429
0.064130002
-0.06554633
0.10906673
0.065191913
-0.067314354
0.11169518
0.066218827
-0.068847276
0.11486174
0.066534354
-0.06970091
0.11824117
0.066392312
-0.069771749
0.12250125
0.065400493
-0.069660568
0.1259701
0.065177591
-0.068646442
0.12902586
0.063782056
-0.066837817
0.13115324
0.061419328
-0.063546705
0.13075054
0.059363247
-0.058960556
0.12839241
0.055260868
-0.052902736
0.052436992
0.12341522
-0.047459797
0.11093268
0.055941806
0.10981644
0.057143651
0.10897103
0.058690525
0.10863309
0.060010179
0.10876607
0.060525712
0.1092283
0.061666918
0.11018652
0.062998908
0.11164519
0.062671323
0.11381911
0.063017995
0.11611122
0.063926718
0.11869761
0.06394796
0.12213842
0.062951505
0.12601268
0.061526229
0.12944238
0.061747894
0.13172605
0.06149839
0.13402538
0.05912
0.13544015
0.057948468
0.13473015
0.055970875
0.055325183
0.13184196
0.11587511
0.057854608
0.11435893
0.058659834
0.11318771
0.059861747
0.11254565
0.060652235
0.11239944
0.060671921
0.11242886
0.061637501
0.11332872
0.062099048
0.11473192
0.061268123
0.11617558
0.061574332
0.11807804
0.062024262
0.1210037
0.061022297
0.12415757
0.059797634
0.12674159
0.058942211
0.12954807
0.058941409
0.13275578
0.058290679
0.13548188
0.056393906
0.13744799
0.055982354
0.1376386
0.055780269
0.05687202
0.13609176
0.11999239
0.059894759
0.11808192
0.060570298
0.11636138
0.061582289
0.11535914
0.061654475
0.11438151
0.061649551
0.11404589
0.061973126
0.11468521
0.061459724
0.11515777
0.060795558
0.11638177
0.060350338
0.11856116
0.059844875
0.12104164
0.05854181
0.12351044
0.057328841
0.12664032
0.055812328
0.13072309
0.054858643
0.13501963
0.053994138
0.13815087
0.053262664
0.14012001
0.054013215
0.14121739
0.054682882
0.056103909
0.14198551
0.12192142
0.062117275
0.11937429
0.063117435
0.11760758
0.063348995
0.11583706
0.063424995
0.11441751
0.063069106
0.11369604
0.062694595
0.11325526
0.061900503
0.11358706
0.060463752
0.11478669
0.059150709
0.11626391
0.058367659
0.11887163
0.05593409
0.12232695
0.053873518
0.12610382
0.052035456
0.13023823
0.050724234
0.13478021
0.049452164
0.13984592
0.04819695
0.14589906
0.047960071
0.15191082
0.048671131
0.051204701
0.15681002
0.12205836
0.06560147
0.11903413
0.066141673
0.11628294
0.066100176
0.11390331
0.065804625
0.11199073
0.064981692
0.1103839
0.064301421
0.10983239
0.062452014
0.10947287
0.060823276
0.10952587
0.059097704
0.11168931
0.056204222
0.11450343
0.05311997
0.11754444
0.050832506
0.12245444
0.047125458
0.13008495
0.043093718
0.13968639
0.039850731
0.14985053
0.038032804
0.15963098
0.038179621
0.16834064
0.039961477
0.043916464
0.17562887
0.120605
0.069897371
0.11699362
0.069753052
0.1131917
0.069902094
0.11000722
0.068989104
0.1065993
0.068389616
0.1045118
0.066388919
0.10236056
0.06460325
0.10100995
0.062173895
0.10160697
0.058500678
0.1027205
0.055090691
0.10403101
0.051809457
0.10950206
0.045361463
0.11858257
0.038044942
0.12794939
0.033726905
0.13635215
0.031447968
0.14383681
0.030548142
0.15064461
0.031371818
0.15757515
0.033030937
0.036343773
0.16514784
0.11714934
0.075034995
0.11215415
0.074748242
0.107332
0.07472424
0.10252229
0.073798817
0.098048098
0.072863805
0.093946472
0.070490545
0.089821748
0.068727973
0.087567691
0.064427952
0.084686956
0.061381412
0.082487358
0.05729029
0.083706771
0.050590043
0.088311022
0.040757213
0.091385938
0.034970026
0.090557005
0.034555838
0.086979956
0.035025017
0.082925415
0.034602683
0.079696999
0.034600233
0.077677827
0.035050109
0.036248082
0.077773518
0.11247514
0.081373337
0.10581042
0.081412963
0.099327189
0.081207474
0.092429158
0.080696847
0.08588288
0.079410083
0.078346819
0.078026607
0.071349516
0.075725275
0.063333606
0.072443862
0.055620003
0.069095015
0.052156856
0.060753438
0.048365905
0.054380994
0.041290885
0.047832234
0.030723313
0.045537598
0.018610925
0.046668226
0.0054854694
0.048150472
-0.0076334128
0.047721565
-0.020304766
0.047271586
-0.033615945
0.048361289
0.050747402
-0.048115265