/*--------------------------------*- C++ -*----------------------------------*\
  =========                 |
  \\      /  F ield         | OpenFOAM: The Open Source CFD Toolbox
   \\    /   O peration     | Website:  https://openfoam.org
    \\  /    A nd           | Version:  11
     \\/     M anipulation  |
\*---------------------------------------------------------------------------*/
FoamFile
{
    format      ascii;
    class       surfaceScalarField;
    location    "0.092";
    object      phi;
}
// * * * * * * * * * * * * * * * * * * * * * * * * * * * * * * * * * * * * * //

dimensions      [0 3 -1 0 0 0 0];

internalField   nonuniform List<scalar> 
1652
(
2.843686947071611
0.8895636090847481
0
1.954123337988149
0.8895636090834615
0
1.064559728903309
0.8895636090843129
6.661338147750939e-15
0.8895590044859683
-1.198616761399762e-10
0.174996401511379
2.843686947076741
1.779127218162428
1.954123337998014
1.779127218162188
1.064559728910308
1.779127218159108
1.779102063334233
0.174999927444417
2.843686947090741
2.668690827246526
1.954123338008367
2.668690827244562
1.064559728934474
2.668690827108468
2.668547936466994
0.1750084620301286
2.843686947092868
3.558254436328659
1.954123338013008
3.558254436324421
1.064559729564877
3.558254433587801
3.557718447731195
0.1750428569853219
4.418652025448567
2.872852967045247
5.279049614570537
2.872852967043177
6.139447203694951
2.872852967042502
2.872852967039867
6.999844792751218
4.418652025437511
2.012455377932159
5.279049614550978
2.012455377929711
6.139447203664236
2.012455377929244
2.012455377926213
6.999844792778034
4.418651999344526
1.152057837609175
5.279050298812026
1.152057467162758
6.137820888917495
1.152167470237583
1.151910611719704
7.000644248666827
4.437044365298831
0.2537069440509813
5.404304011254323
0.1226921696069293
6.409705662276401
0.05357197218719978
7.422026398059574
0.03508176733319979
6.941512748511769
0.05833168667779376
6.883180393127285
0.05833095179765957
6.824848586568277
0.05833014305433593
0.05833108624737238
6.766516553364072
6.941522353688904
0.1166498417376924
6.883202893283112
0.1166357395135832
6.824873504733609
0.1166191577497047
0.1166277408736418
6.766548532945726
6.946553848243472
0.169708887388836
6.891221853753888
0.16780865948824
6.833882536608067
0.165741375451925
0.1644681547103639
6.777236955417079
7.476860870946501
0.02240898478560449
7.520474817393516
0.01291167004117577
7.539743093158743
0.01012656025952718
7.510689079247101
-0.009342188852749733
7.508400926977568
0.01939125231173916
-0.1867966210702181
7.40682169348845
0.03840723363572995
-0.06906533287936562
7.268745376489546
0.04121862061991827
-0.01587497437768703
0.02987660707455403
7.129303502194114
-0.004579525410229213
6.783674021398719
0.0001046674997857711
6.794628301038592
0.0002770488251100378
6.800912535984048
0.000510806347213788
0.0004759338823875359
6.796925026794369
6.766579147181484
3.828643651115904e-06
6.766647824631763
8.898802076773293e-06
6.766696363264652
1.57266675089307e-05
1.46932914294462e-05
6.76669034872135
6.766516481439764
6.766516134128562
6.766515993359656
6.766515831812226
6.766516119898287
-8.17954412712929e-06
6.766516509254633
-2.108098980491135e-06
6.766516625940699
-2.297638305170935e-07
-8.437964438279266e-09
6.766516632971622
6.766592629008882
-0.0002677918792585166
6.766528973205823
-6.749627386348767e-05
6.766517258206543
-8.413667786033585e-06
-4.306846317359003e-07
6.766516640241409
6.781517405485737
-0.01778277405556883
6.770129060801093
-0.006017601445581888
6.766877887213348
-0.001274058295610336
-0.000128192572991459
6.766525933828878
6.996679836942406
-0.003571470466082138
6.874108249669781
-0.001814483533362721
6.793390603776965
-0.002629112793821664
6.768806069386648
-0.001112843010525499
3.816287960978215e-06
6.766589092191832
-0.0001678570897079013
6.232184213139647e-09
6.766517017625494
6.227418580806443e-11
6.766516632178117
6.766516633026661
6.988434345656103e-07
6.766447665689222
-5.714581795879248e-06
1.680913519486182e-09
6.766515900590206
-1.837570096085983e-10
6.766516632177829
6.766516632959615
-2.234674514667301e-05
6.766587584656728
-2.37404810392583e-05
-3.583397933937249e-08
6.766509817269287
2.26703668060324e-08
6.766516681806603
6.766516645778891
0.0007836953542130209
6.817598193923892
-0.1000747380262412
-1.677738775240911e-06
6.766656974380151
-3.7086273712017e-06
6.766505303604642
6.766515331126065
0.155554369143735
6.61096332915109
0.3111000756563281
6.610956689394303
0.4619192827108886
6.613126738306296
6.86748773091081
0.1532878601847738
0.1555517339085466
6.455412207569299
0.3110553838653245
6.45542356808429
0.4512259696165588
6.460326515161629
6.745652744331665
0.1424510001472754
0.1555461046493621
6.299861294869797
0.3109668190417161
6.299921609622546
0.4388474582974053
6.311815836510029
6.633516388731926
0.08541970964644496
0.1555386097646887
6.144309638203014
0.310828117706531
6.144383172095304
0.4240145323429774
6.161544074503922
6.56112149780559
0.04345429049719507
-0.4094461829742283
6.47861252157758
0.005765653813085803
-0.310715985915673
6.013065758487774
-0.1555339200703111
5.988889770311991
5.988758336150341
-0.3965815376734604
6.299604875413691
0.001040595874428729
-0.3105398912575361
5.856722555749152
-0.1555237407387182
5.83333542643501
5.833206640940758
-0.3849307584684608
6.067096978533578
-0.009612031316969305
-0.3104336232262777
5.704483694143135
-0.1555214767196458
5.677839636332494
5.67765593886491
-0.3694916490591758
5.780189366385339
-0.002439391032322047
-0.3101227327404835
5.550029708146535
-0.1554984211042119
5.522279469315543
5.522106039952581
0.1992463597576444
5.322805844238172
0.397484403070721
5.322993956819082
0.473364111835111
5.350329151243264
5.468610030097367
0.01448863342156881
0.199220393268829
5.123508699056174
0.396985384616119
5.123755897824804
0.4470425564810637
5.151776184835192
5.157610646973501
0.05046470184535878
0.1991900146819184
4.92419397723261
0.3965897359410159
4.924413546526156
0.4552111514853817
4.946188736161135
4.91854906127172
0.1606875924078476
0.1992981856679015
4.724914189205731
0.3974154036190732
4.72554753411866
0.5092610308462002
4.748853772834635
4.72054340367824
0.3693805937937665
-0.3356752954172445
5.060326819100264
-0.6768612718000567
5.061455682929399
-1.125300931141629
5.102983234669124
4.894912981275792
-1.449296924023989
-0.3357616093952241
5.395713313665564
-0.6788653424074683
5.398377113368818
-1.003531703267958
5.40718900917623
4.528249995691316
-0.4801557949235042
-0.3353991029398454
5.731123557759129
-0.6697231550677826
5.730608101862828
-0.9238887687832908
5.679124093205601
3.995928119011308
-0.06254369587390776
-0.3353796140310916
6.066527344754031
-0.6662467668781977
6.064490924212046
-0.817275699960346
5.90633906569508
3.519328816476123
-0.01686141036729033
0.3835574004085999
3.341215248189709
0.0009324583627134536
0.345970070096538
6.040488184292474
0.1749717438397357
6.239516804650952
6.241523644716477
0.3774371173484227
3.206270638625053
0.0009420357521006742
0.3460388929623238
6.196059564220967
0.1749751073211916
6.414996627230707
6.416522453280366
0.3909332512996855
3.229249045135929
-0.0001950130825935231
0.3473531909639869
6.387330629910955
0.1749859216812265
6.590281477945936
6.591518643813673
0.3827506485070301
3.321334501666541
0.01214488031021733
0.3472792089989144
6.589988112464881
0.1749858458218571
6.765634410039998
6.766515162933367
-0.08824693147064133
4.333851008015902
0.1414159006364345
-0.001688309043554659
6.708743331834486
-7.704514707551624e-06
6.766341079011058
6.766516344934512
-0.04248454888749909
5.26933405863511
0.1496422367210213
-0.0004678952852521512
6.75072769331204
-1.70583620096032e-06
6.766486445537565
6.766516597483541
-0.02006041238291223
6.025765658857785
0.1614376781209578
-0.0001516320843553132
6.765017305212924
-4.748308684021652e-07
6.766522993453187
6.766516641117186
-0.01148949257384291
0.1364802750980791
6.561129541054757
-7.633863640799099e-05
6.764160339122949
-2.687918800869937e-07
6.766497498274503
6.766516633700686
1.063641997091304
-0.8106104289911515
-0.04143684740707621
4.211297977008144e-12
1.982015958790727
-0.871531623811403
-3.976374784997461e-12
2.858258379533346
-0.8749336740023979
2.140421173635332e-11
-0.8749803515640271
-1.27915456005212e-11
1.065130214035642
-1.646338701642348
-0.0366007014197349
1.982039874204895
-1.743040482841604
2.858258461808096
-1.749866061622856
-1.749960697792727
1.066024312595394
-2.510083980890013
-0.03860109891330518
1.982051357421206
-2.615214365420883
2.858258493150187
-2.624803412971193
-2.624941057872268
1.069275605773724
-0.05644703742437644
-3.402554412852049
1.982112111702756
-3.491052331776053
2.858258930193751
-3.499792425327033
-3.49992169982897
-0.01148949257483345
-6.0257656588646
0.136480275096858
6.561129541049974
-7.633864105582866e-05
-6.765017305218764
6.764160339132685
-2.688100393388737e-07
-6.7665229934662
6.766497498282761
-6.766516641143298
6.766516633738284
-0.02006041238361145
-5.269334058651914
0.1614376781225228
-0.0001516320892571699
-6.750727693318703
-4.748290229894536e-07
-6.766486445554512
-6.766516597481187
-0.04248454889933928
-4.333851008022338
0.149642236722061
-0.0004678952965890826
-6.708743331847543
-1.705835352749929e-06
-6.766341079018832
-6.766516344933613
-0.08824693146822826
-3.321334501653999
0.1414159006331158
-0.001688309039059588
-6.589988112461953
-7.704512957618093e-06
-6.765634410030252
-6.766515162932452
-0.1749717438380783
6.241523644688358
-6.066527344739916
-0.3459700700669587
6.239516804710286
-6.064490924278238
-0.383557400402521
6.040488184260174
-5.906339065654627
3.341215248153517
-3.51932881643429
0.000932458362346851
-0.1749751072991886
6.416522453305577
-0.3460388929409308
6.414996627248904
-0.3774371173411475
6.196059564178739
3.206270638589378
0.0009420357524908274
-0.1749859216684246
6.591518643826589
-0.3473531909433357
6.590281477951209
-0.3909332512902884
6.387330629882033
3.229249045118653
-0.0001950130818688389
-0.174985845811758
-0.3472792089728658
-0.3827506484960007
0.0121448803090998
0.8172756999670135
-3.99592811897537
-0.01686141036817607
0.6662467669189935
-5.679124093174999
0.3353796140534986
-5.730608101879443
-5.731123557754914
0.923888768789641
-4.528249995667574
-0.06254369587304354
0.669723155087949
-5.407189009156868
0.3353991029557819
-5.398377113400247
-5.395713313653933
1.003531703278962
-4.894912981266856
-0.4801557949219393
0.678865342428309
-5.102983234661979
0.3357616093955101
-5.061455682953759
-5.060326819096849
1.125300931155022
-4.720543403675442
-1.449296924028677
0.6768612718164173
-4.748853772836874
0.33567529542592
-4.725547534125941
-4.724914189194471
0.1992463597610314
5.322805844255607
-5.522106039974556
0.3974844030828327
5.322993956813885
-5.522279469343915
0.4733641118468002
5.35032915121741
-5.550029708135509
5.468610030078099
-5.780189366365383
0.01448863342445494
0.1992203932725956
5.123508699071553
0.3969853846265357
5.123755897837266
0.4470425564882209
5.151776184815786
5.15761064695712
0.05046470184520357
0.1991900146889226
4.92419397725107
0.396589735956713
4.924413546535277
0.4552111514909004
4.946188736153037
4.918549061262632
0.1606875924099037
0.1992981856734806
0.3974154036344599
0.5092610308522393
0.3693805937952906
-0.3694916490446259
-6.067096978522071
-0.002439391024404824
-0.3101227327259483
-5.704483694067707
-0.1554984210967773
-5.677839636352526
-5.677655938886265
-0.3849307584534512
-6.299604875384566
-0.009612031317634662
-0.3104336232092941
-5.856722555711043
-0.1555214767114328
-5.833335426442599
-5.833206640954439
-0.3965815376829828
-6.478612521539464
0.001040595863659899
-0.3105398912425155
-6.013065758553226
-0.1555237407322432
-5.988889770336582
-5.988758336153793
-0.409446182965941
-6.561121497842928
0.005765653815374527
-0.3107159859066808
-6.161544074483659
-0.1555339200647271
-6.144383172172383
-6.14430963820388
0.1555543691449616
6.61096332916176
-6.76651533113694
0.3111000756576189
6.61095668939391
-6.766505303593161
0.461919282714808
6.613126738279843
-6.766656974381214
6.867487730925992
-6.817598193924357
0.153287860177748
0.1555517339082343
6.455412207559698
0.3110553838651595
6.455423568098438
0.4512259696080765
6.460326515186875
6.74565274431766
0.142451000157426
0.1555461046499806
6.299861294869024
0.3109668190431936
6.299921609592729
0.4388474583082539
6.311815836512476
6.633516388748377
0.08541970962971424
0.1555386097619177
0.3108281177006341
0.4240145323274489
0.04345429051960914
-6.766516645781621
3.708630650578471e-06
-6.766516632959884
-2.266850829268918e-08
-6.766516633030122
1.799184135009568e-10
-6.176537059587872e-11
-6.766516632973402
-6.766516681803669
1.677738348360158e-06
-6.766516632186724
3.583265661966095e-08
-6.766516632186503
-1.679922867481309e-09
-6.231863913797042e-09
-6.766516640236207
-6.766509817279729
-0.0007836953547605274
-6.766515900587721
2.2346746732127e-05
-6.766517017623126
-6.988435847787855e-07
-3.816289126101768e-06
-6.766525933826527
-6.766587584674486
-0.1000747380267878
-6.766447665699777
-2.374049460057703e-05
-6.766589092185787
-5.714580114668522e-06
-6.768806069382107
-0.0001678570892403863
-8.438607146388222e-09
-6.766516625929671
-4.306854474167565e-07
-6.766517258208324
-0.0001281925756838054
-6.766877887212935
-6.793390603779455
-0.001112843009571818
-2.297636145787152e-07
-6.766516509257051
-8.413667894835442e-06
-6.766528973203846
-0.001274058293234126
-6.770129060799437
-6.874108249676742
-0.002629112796832367
-2.108099291797672e-06
-6.766516119897831
-6.749627331847918e-05
-6.766592629009216
-0.006017601444731735
-6.781517405479653
-6.996679836945018
-0.001814483530908406
-8.179545166631108e-06
-6.766515831811422
-0.0002677918832229009
-6.76669034873079
-0.01778277404835277
-6.79692502679764
-7.129303502193903
-0.003571470456731396
-3.828651451431853e-06
6.766516481428444
-6.766516553347778
-0.0001046675120073282
6.766579147159173
-6.766548532920408
-0.01939125232593436
6.783674021430548
-6.777236955419544
7.508400926985994
-7.510689079267691
-0.1867966210713222
-8.898805111789976e-06
6.766516134119375
-0.0002770488311722996
6.766647824629013
-0.03840723363352228
6.794628301077765
7.406821693494043
-0.06906533287779515
-1.572667120086635e-05
6.766515993355153
-0.0005108063546633845
6.766696363271738
-0.04121862062829118
6.800912536001438
7.268745376491389
-0.01587497437857882
-1.469329778269746e-05
-0.0004759338942346147
-0.02987660707934447
-0.004579525412714114
-0.164468154713259
-7.539743093181866
-0.00934218885225091
-0.116627740890952
-6.833882536545639
-0.05833108624875849
-6.82487350473447
-6.824848586556807
-0.1657413754622867
-7.52047481742088
0.01012656025552772
-0.1166191577690996
-6.891221853628628
-0.05833014306044404
-6.883202893309228
-6.883180393094119
-0.1678086595142505
-7.476860870957497
0.01291167004478788
-0.1166357395307797
-6.946553848267145
-0.05833095179879855
-6.941522353706324
-6.941512748506859
-0.1697088874110343
-7.422026398041334
0.02240898478858017
-0.1166498417619189
-7.000644248836664
-0.05833168668468625
-6.999844792821192
-6.999844792747979
-1.151910611689164
-6.409705662261981
0.035081767327931
-2.012455377910967
-6.137820888857934
-2.872852967039791
-6.139447203692224
-6.139447203692075
-1.152167470234198
-5.404304011259928
0.05357197218421372
-2.01245537791648
-5.279050298804076
-2.872852967042259
-5.279049614566445
-5.279049614567436
-1.152057467162558
-4.437044365312618
0.1226921696087214
-2.012455377921992
-4.418651999342648
-2.872852967044603
-4.418652025443835
-4.418652025446893
-1.152057837606676
-3.557718447680625
0.253706944037372
-2.012455377927508
-3.558254433587845
-2.872852967046921
-3.558254436324423
-3.558254436328661
2.843686947076677
0.8895636090796828
1.954123337995112
0.8895636090815642
1.064559728908995
0.8895636090855159
0.8895590043242403
0.1749964015619276
2.843686947077599
1.7791272181565
1.954123337999196
1.77912721815997
1.064559728911294
1.779127218160206
1.779102063310538
0.1749999273874712
2.843686947089469
2.668690827241873
1.95412333800662
2.668690827242819
1.06455972893286
2.668690827112969
2.668547936368666
0.1750084620340977
2.843686947088214
1.954123338006611
1.064559729558884
0.1750428569728049
0.1749961448837195
0.1749961449169583
0.174995739912428
0.1749985212439911
0.174996039500103
0.1749996745215469
0.1749464569189228
0.175009427413933
0.1749985213215992
0.1749957399190079
0.1749975585109231
0.174997558473209
0.174999455725382
0.1749897621243854
0.1743574027750494
0.1753314509899656
0.1749996744949416
0.1749960394861976
0.1749897620287992
0.1749994556779698
0.1749331910661673
0.1749331913539704
0.1721008626385448
0.1762896950607655
0.1749464569687299
0.1750094273972464
0.1743574027897949
0.1753314509644079
0.1721008626955628
0.1762896952824304
0.1714709474539848
0.1714709475632996
-0.07548873101103576
0.2446713516200788
-0.1411227660200162
0.2385161188261215
-0.2083539458285714
0.2390358693408765
0.2176128951434879
-0.01622834677420171
0.260265651380353
-0.03840157703730196
0.2591739582265466
-0.07072527916132187
0.2686537621629832
0.2657281802995364
-0.006409496414697569
0.2685450524092172
-0.01980188462368404
0.2727715852571366
-0.03379100894067921
0.2806865972519875
0.2829617835657458
-0.003269651615799951
0.2705589421134915
-0.01702564638329007
0.285304613970119
-0.02724087174200607
0.2900106020132669
0.2907128105359603
0.2936386923185586
0.02007000549316745
0.2970889344915727
0.01123710988113613
0.3000035680571778
0.008091081295232116
-0.009889318203108122
0.3011649642724005
0.2960095332251791
0.01453169806283083
0.3005292538060216
0.008525141227485988
0.3042494370178396
0.005768062152429032
-0.01445880498759217
0.3112566891469389
0.2945132705287712
0.005075570882217051
0.2999927140768701
0.004838633484176347
0.3045778062464719
0.003270494981317651
-0.03739097466972624
0.3306967340012245
0.2746330082431418
0.2803071909437008
0.2858337509383709
0.2525970822512254
0.2791269793868136
-0.163538769942813
0.2582746829670153
-0.04165311080063605
0.2470828358799618
-0.002577902297198342
0.0001964897385218212
0.243491939776343
0.2724184046427792
-0.1236854577659631
0.2565927670044994
-0.01912758056940195
0.2509466371747761
0.00669438839370301
0.006741396162372071
0.2472985387798009
0.2780258221278859
-0.07001922265668875
0.2622757143386026
0.002975940607060024
0.2559213901493306
0.01567701544549488
0.01351554318733672
0.2510583793072536
0.1853765556380408
0.1897642204992721
0.2049611786311724
0.2198068321614063
0.2427186260905075
0.0001014575041100585
0.2406084549129943
-0.0007697297256545332
0.2361429744779047
-0.001623662711230767
-0.0008161032263186985
0.233820539611251
0.2450473642644048
0.004190069331445945
0.2417980303695813
0.001160878623935879
0.2370232127312576
0.0003175929548678291
0.0001553468860400198
0.2341402023695854
0.2476746873027462
0.008716766415470978
0.2436583499731163
0.003792755375872314
0.238321959338105
0.002873957064346233
0.001737090716909806
0.2345925415713702
0.2303270014200966
0.2329651807431962
0.2330010473905846
0.2331214999316009
0.2333573471516212
-0.0001475574699677518
0.2333252409449165
-4.850824441182677e-06
0.2333244269821349
-1.208511444472649e-05
-0.1218469457883196
0.2459384627714625
0.2333889576864694
4.1316932185953e-05
0.2333270728892281
5.436513928924747e-06
0.2333260080307231
-1.745717045698036e-06
-0.1177036713623247
0.2174537072680208
0.233435561986762
0.0004489660110808535
0.2333302413661003
3.633021688387306e-05
0.2333261823474231
1.653229254106048e-06
-0.07970698714483115
0.1838585339163055
0.2332877093558581
0.2333274880764698
0.2333290522929621
0.1405207157429339
0.2740034226531851
0.1170496358845247
0.2801930223065184
0.1228805181346672
0.2843176329809946
0.07053580653883595
0.03377534954891659
0.2898248878303515
0.2545112106186528
0.07584983499516329
0.2764200075463191
0.09252669933338242
0.2868848736707049
0.05380639628629147
0.0257293608172382
0.2941619224412281
0.2096657533292917
0.04867099537528463
0.2530956719283783
0.04287898813923319
0.2824441399462065
0.02070169909452335
0.01456728350616965
0.2950054036036738
0.1901199647939857
0.2266346343376461
0.2441604756734459
0.2641737877910068
0.2971335535994742
3.486202697167151e-05
0.3029358407662326
-0.004657217836986471
0.3040631379237164
-0.01504998225557697
-0.009749914611227983
0.3044881448007389
0.3014254517782801
-3.741834030901448e-05
0.3091939149169424
-0.00544886926495447
0.311460286103838
-0.01408735297335251
-0.01037454107428515
0.3123257307552652
0.3041824307364598
0.001106750679497392
0.3127355054038872
-0.00271584603050723
0.3159473936385223
-0.009376043772016063
-0.006293836643845752
0.3165005837808338
0.279272686714124
0.2911881262986648
0.2942124515633739
0.2965910499830861
0.3077766061664484
0.004620690221810442
0.3207664342507923
0.03690561394054126
0.3509500776533099
0.1326967861476805
0.2907574092308219
0.4297042328589014
0.3175937801596819
0.0004188106581939355
0.3327276556308144
0.02661515507639967
0.3606349409071155
0.1140490404878308
0.1911787439039861
0.4702804272300407
0.3225535101918524
-0.0004231455678535001
0.3372603043711729
0.01905085276554497
0.374140602521746
0.08701648102645498
0.04801547718409904
0.5320694774520123
0.304760393040133
0.3321255905630301
0.4279493996112503
0.4917446270449862
0.230550689003092
-1.24570925546883
0.02892982081193133
-0.2672926367293327
0.005083506170971903
-0.03081053072555637
-0.01385555378734876
0.0006883396897920824
0.1572199268856079
-0.9239224765469729
0.01657254045519201
-0.1194728836182418
0.005804527046101944
-0.0157130523926684
-0.01145733994972823
8.91384327547113e-05
0.08290347870597667
-0.467192255597996
0.008235421001908565
-0.03740432489009458
0.003935578007041514
-0.00479698927521674
-0.007735325187953619
0.0005908697404166594
0.02964662767277609
-0.001931521090101983
0.003031700343722705
0.001343929381096638
0.0002343681728952628
-0.001748636183833745
0.0004470740660500114
-0.002193397513075498
0.001998867540609997
-0.003358036365367974
-0.001268587441913244
0.01347357804495727
-0.002626692874410011
-0.004237971415898344
-0.003053140372548131
-0.005659820695513684
-0.0004945641601187736
-0.008141453667095476
-0.005599224239690562
0.0001135163365914953
-0.002163439287652809
-0.005189348103651521
-0.002795793823917791
-0.006269794043465768
-0.003221944227062587
-0.007301188112544058
-0.002255702107233255
-0.008787074410633573
-0.002055770079631047
-0.003139809951338203
-0.006926080541999223
-0.01138247189735497
0.09228165021923919
0.07194806149713945
0.1536416030776598
0.1122741547293791
0.1951523178726886
0.1453218668393688
0.1254403476301498
0.2249687196693678
0.05430909110547328
0.01838249966277174
0.1219914441094068
0.0564674596816096
0.1735689951264459
0.1101380920594963
0.1008429542326315
0.2166298069113699
0.01426660030291767
-0.000744780825493549
0.07316827946238298
0.00998293371719855
0.1393862113076775
0.05985075705088991
0.06283639074572941
0.1958950005392027
-0.009416909875930819
0.01077210584338443
0.0872928955139925
0.1657118439667768
0.1819582992084557
-0.2254753125769847
0.2826058277661729
0.1316486793505544
-0.1564426162518457
0.2070574345925127
0.1058424756768905
-0.08898742413678924
0.1254631000554404
-0.06517288073890638
0.09771260702548533
0.11613496177451
0.1641082826537125
-0.165705297488382
0.1150691930876291
-0.1007932431045428
0.07667326877952624
-0.05111926019783894
-0.02804449523424456
0.03997107271599802
0.1363454113602348
-0.09855897640423117
0.07866856655881489
-0.03720578912636388
0.04495029802204994
-0.01503150382815661
-0.008432819589426363
0.01946903296170673
0.06852246730468588
0.03776495422262224
0.02742430472283755
0.006987701046196473
-0.02746479801577876
0.00343007478401937
-0.03542252364461041
-0.003355325524209293
-0.02746595614182176
-0.008344865488978184
-0.01193673131944726
6.369904603786836e-15
-0.0156340717365031
0.01460319376009934
-0.02776520297375668
-0.0005928515852817035
-0.02126209030066031
-0.008452005186723534
-0.01215130987387671
9.107992138268628e-14
0.01547248119268583
0.02865976978372176
-0.002560276162384585
0.0102761965960379
-0.004037953331575521
0.005864387098100249
0.009383922708945277
1.112512859613446e-13
0.08266525897360735
0.03987545442085103
0.01311999407930584
2.164934898019055e-13
-0.01193673131943308
0.02746595614179016
-0.01215130987386474
0.02126209030080958
0.009383922708929023
0.004037953331800404
-0.01311999407865289
0.04143684740689847
-0.008344865488919429
0.03542252364461305
-0.008452005186719323
0.02776520297385671
0.005864387098113176
0.002560276162741543
-0.03987545441997418
0.03660070141977013
-0.00335532552419281
0.0274647980157992
-0.0005928515852911612
0.01563407173667478
0.01027619659610328
-0.01547248119244849
-0.08266525897314073
0.03860109891357985
0.003430074783999544
-0.006987701046209122
0.01460319376005515
-0.01946903296155545
0.02865976978383971
-0.0399710727160776
-0.09771260702495838
0.05644703742428111
-0.1058424756764296
-0.0651728807387649
0.1161349617739712
-0.1316486793503
-0.0889874241366056
0.1254631000554769
-0.1819582992081955
-0.1564426162520594
0.2070574345928137
-0.2254753125772726
-0.2249687196693182
0.2826058277662815
-0.07667326877942954
-0.02804449523437885
-0.1150691930872462
-0.05111926019787229
-0.1641082826534413
-0.1007932431045041
-0.1657052974886231
-0.2166298069112723
-0.04495029802210428
-0.008432819589443879
-0.07866856655879441
-0.0150315038281676
-0.1363454113600944
-0.03720578912636302
-0.09855897640429226
-0.195895000539195
-0.02742430472283237
-0.03776495422260796
-0.06852246730465408
-0.1657118439667564
-0.08729289551410649
-0.06283639074528799
-0.01077210584317262
-0.05985075705086518
0.009416909876281177
-0.009982933716889686
0.0007447808259704453
0.01138247189729458
-0.1393862113079065
-0.1008429542318428
-0.07316827946210452
-0.1101380920597934
-0.01426660030227933
-0.05646745968123693
-0.01838249966148593
0.008787074410747628
-0.1735689951266384
-0.1254403476290489
-0.121991444109287
-0.1453218668405633
-0.0543090911044788
-0.1122741547297377
-0.07194806149418558
-0.0001135163366359701
-0.1951523178727357
-0.1536416030776173
-0.09228165021859425
-0.01347357804453818
-0.001998867540944646
-0.001268587442282771
-0.0004470740659582948
-0.003358036364974386
-0.0002343681726901248
-0.002193397512864369
-0.001748636184144517
-0.0006883396897061442
0.0004945641599991592
-0.005599224239942295
0.003053140372574797
-0.008141453666774441
0.002626692874568822
-0.0056598206952784
-0.004237971416129749
-8.913843264716365e-05
0.003221944226968393
-0.002255702107238342
0.002795793823943408
-0.007301188112418887
0.002163439287746064
-0.006269794042775771
-0.005189348103801908
-0.0005908697402786101
0.006926080541907203
0.003139809951281776
0.00205577007974447
-0.001343929380832012
-0.005083506170832595
-0.01385555378834669
-0.0289298208111557
-0.03081053072566484
-0.2305506890015118
-0.2672926367281361
-1.245709255471023
-0.4297042328591822
-0.005804527046125026
-0.01145733995043112
-0.0165725404549419
-0.01571305239305632
-0.1572199268844674
-0.1194728836178158
-0.9239224765480968
-0.4702804272300958
-0.003935578007078163
-0.007735325188392934
-0.008235421001906411
-0.004796989275516472
-0.08290347870540092
-0.03740432489001321
-0.467192255599044
-0.5320694774517708
-0.003031700343710747
0.001931521089985936
-0.02964662767269367
-0.4917446270460255
-0.3509500776531619
0.2907574092319936
-0.3207664342498293
0.1326967861498843
-0.3077766061656734
0.03690561393976699
0.004620690224116819
-0.3044881448003103
-0.3606349409068931
0.1911787439038901
-0.3327276556300477
0.1140490404879182
-0.3175937801596905
0.02661515507573464
0.0004188106608129516
-0.3123257307561347
-0.3741406025209582
0.04801547718256371
-0.3372603043711678
0.08701648102571202
-0.3225535101925436
0.01905085276541629
-0.0004231455663413763
-0.3165005837816882
-0.4279493996135217
-0.3321255905654034
-0.3047603930432923
-0.2965910499861907
-0.3040631379236422
-0.00974991460410557
-0.3029358407652519
-0.01504998225518761
-0.2971335535978814
-0.004657217846606554
3.486203010105715e-05
-0.2898248878336594
-0.3114602861041938
-0.01037454106894775
-0.309193914915485
-0.0140873529724499
-0.3014254517775724
-0.00544886927094812
-3.74183358722302e-05
-0.2941619224457413
-0.3159473936389066
-0.00629383664071248
-0.3127355054025112
-0.009376043770946696
-0.3041824307375599
-0.002715846032997016
0.001106750684716329
-0.2950054036086327
-0.2942124515652591
-0.2911881262969929
-0.2792726867161719
-0.2641737877936493
-0.284317632980423
0.0337753495672457
-0.2801930223064921
0.07053580652502367
-0.2740034226549062
0.1228805181458682
0.1170496358759036
-0.2459384627707385
-0.2868848736699983
0.02572936083166677
-0.2764200075459727
0.05380639627528339
-0.2545112106174445
0.09252669934194246
0.0758498349885427
-0.2174537072675854
-0.2824441399455194
0.01456728351422454
-0.2530956719289968
0.02070169908750152
-0.2096657533269055
0.04287898814399194
0.04867099537057273
-0.1838585339142299
-0.2441604756699104
-0.2266346343380538
-0.1901199647918677
-0.1405207157426418
-0.2333244269745264
-0.1218469457939858
-0.2333252409388097
-1.208513596989702e-05
-0.2333573471530384
-4.850819477764112e-06
-0.0001475574703727056
-0.2338205396107837
-0.2333260080253547
-0.1177036713690388
-0.2333270728848224
-1.7457265724663e-06
-0.2333889576882245
5.436519246337923e-06
4.131693097458866e-05
-0.2341402023687551
-0.2333261823439967
-0.07970698714851221
-0.2333302413640531
1.653225242703726e-06
-0.2334355619879375
3.633022055749002e-05
0.0004489660096899661
-0.2345925415704384
-0.233329052291624
-0.2333274880756687
-0.2332877093578081
-0.2331214999318014
-0.2361429744784911
-0.0008161032248918954
-0.2406084549130605
-0.001623662714449081
-0.2427186260925749
-0.0007697297216752164
0.0001014575065090839
-0.2434919397775158
-0.2370232127313042
0.0001553468877822928
-0.2417980303697945
0.0003175929521510024
-0.2450473642646701
0.001160878627535444
0.004190069331611312
-0.2472985387797671
-0.238321959338034
0.001737090718819445
-0.2436583499730977
0.002873957062478338
-0.2476746873021948
0.003792755378559332
0.008716766415393595
-0.2510583793070736