/*--------------------------------*- C++ -*----------------------------------*\
  =========                 |
  \\      /  F ield         | OpenFOAM: The Open Source CFD Toolbox
   \\    /   O peration     | Website:  https://openfoam.org
    \\  /    A nd           | Version:  11
     \\/     M anipulation  |
\*---------------------------------------------------------------------------*/
FoamFile
{
    format      ascii;
    class       volVectorField;
    location    "0.092";
    object      U;
}
// * * * * * * * * * * * * * * * * * * * * * * * * * * * * * * * * * * * * * //

dimensions      [0 1 -1 0 0 0 0];

internalField   nonuniform List<vector> 
880
(
(25 -7.768126373978579e-16 0)
(25 -1.559859057549075e-16 0)
(25 -1.037564987520498e-12 0)
(24.99999987268722 -4.812997679805898e-06 0)
(25 1.210301178234613e-15 0)
(25 -2.233624132115167e-15 0)
(25.00000000000004 -5.900804557554516e-12 0)
(24.9999540949338 -0.0001317433143571514 0)
(25 0 0)
(25.00000000000001 2.210105620148969e-15 0)
(25.00000000022714 -2.255616304007719e-10 0)
(24.99993102341728 -0.0002642416464511256 0)
(25 0 0)
(25 -1.34572717112116e-15 0)
(25.00000000922612 -7.36697845839286e-09 0)
(24.99929545332254 -0.003100754147210607 0)
(25 -5.776932073510712e-16 0)
(25 -9.501546990684515e-16 0)
(25.00000000000001 -6.895509439609434e-13 0)
(25.00000000009416 2.996975148202469e-10 0)
(25 -4.082894974958318e-15 0)
(25 7.140145216326831e-15 0)
(25.00000000000003 1.744221851975872e-14 0)
(25 3.120483059036021e-14 0)
(25.00000067196483 -5.334535105902495e-07 0)
(24.99999617926616 3.38199764234309e-06 0)
(25.00088360057201 0.002579636511930957 0)
(24.99912312730555 -0.006649156620523709 0)
(24.91343731349907 0.05355677010278533 0)
(24.67557639738082 0.3006845063296767 0)
(24.54345342937811 0.6050179359191121 0)
(24.52007187823835 0.8145134624295202 0)
(24.99999973552786 -3.657541731827412e-07 0)
(24.99999922248545 -7.100910548334608e-07 0)
(24.99999839343697 -1.490523885462435e-06 0)
(24.99999924804553 -5.121968794843348e-07 0)
(24.99999212278501 8.415416432536229e-06 0)
(24.99999072551632 2.584892469044187e-05 0)
(24.99999520125139 4.552913744884732e-05 0)
(24.99999156734572 2.260805764491942e-05 0)
(24.99492383465583 0.006749813857753631 0)
(24.99509775658322 0.0120215767536016 0)
(24.99613627468739 0.01732971925874614 0)
(24.99456505695461 0.01453578665632493 0)
(24.53002259986615 0.9891782737798399 0)
(24.52339805971216 1.204974070587642 0)
(24.63452900899771 1.332934053237504 0)
(24.49708897534791 1.484751194622359 0)
(24.82244565236279 1.549968221570152 0)
(25.16626023292453 1.377943215612417 0)
(25.40615171534694 0.9697521852976695 0)
(25.42519952850457 0.5651506279426941 0)
(24.99240392939763 0.02808861904962645 0)
(24.97965259066816 0.04967600335620947 0)
(24.99364749006907 0.06654891757909584 0)
(25.00812242099577 0.05828163995913334 0)
(24.99997621979155 9.072619631729492e-05 0)
(24.99993069047454 0.0002093872688749012 0)
(24.99992157742857 0.0003674940812251459 0)
(24.99998984135188 0.0003429349254460891 0)
(24.99999717285718 -2.55486826422777e-06 0)
(24.999993762185 -5.210669668672104e-06 0)
(24.99999000965584 -7.619398437268157e-06 0)
(24.9999907615631 -6.498479098172039e-06 0)
(24.99999459993415 -3.088641686123876e-06 0)
(24.99999850574305 -7.107465570806161e-07 0)
(24.99999983694138 -7.030454366154254e-08 0)
(24.99999999475138 -2.085315077174892e-09 0)
(25.00004578473968 0.0001904274479050143 0)
(25.00002644976379 4.896127895357912e-05 0)
(25.00000398406977 5.330064779846728e-06 0)
(25.00000016382927 1.954612341102118e-07 0)
(25.01114688125206 0.0333910374010515 0)
(25.00669007468804 0.01049693901374454 0)
(25.00157970846879 0.001725822005480252 0)
(25.00012221874893 0.0001136957189497398 0)
(25.32689477872708 0.3194860386558728 0)
(25.19190463090313 0.1574771424283912 0)
(25.07356987238893 0.05203965624451989 0)
(25.01345237805689 0.008455485387632806 0)
(25.00078700801171 0.00046700666813301 0)
(25.00000220691624 1.930304500725375e-06 0)
(25.00000000154961 1.458173456149121e-09 0)
(24.9999999999247 -2.899790085939898e-11 0)
(25.00003350738604 9.676963703410584e-05 0)
(25.00000030667855 6.273705688945601e-07 0)
(25.00000000100122 -2.103175352907389e-09 0)
(25.00000000010743 -2.23306984489141e-10 0)
(25.00007361281444 -0.0005765693125731848 0)
(24.99999821305418 -1.730681059598185e-05 0)
(24.99999979215005 1.901590359867371e-07 0)
(24.99999996206661 6.630097235116663e-09 0)
(24.87223840051048 0.1630949519430923 0)
(25.00017806429772 0.0004784669889471337 0)
(25.0000400670152 -4.059004223564935e-05 0)
(25.00000088725482 -2.162132355600103e-06 0)
(24.9999998283605 -2.753711399541897e-06 0)
(25.00000069779631 -4.167291589971015e-05 0)
(24.99587319099497 0.0007831810407299368 0)
(23.38520393491371 0.650383613045093 0)
(24.99999950848728 -5.566010667801168e-07 0)
(24.99993933512478 7.690968128048992e-06 0)
(24.97236459595826 0.01429732178264958 0)
(22.12825164616597 1.752398706276216 0)
(24.9999962673101 -4.530584129432408e-06 0)
(24.99988249029277 0.000133230270723735 0)
(24.94887840622373 0.04629552956368704 0)
(21.48778896367093 3.099607636331597 0)
(24.99998935856942 -9.829089442428318e-06 0)
(24.99988575736463 0.0003116044656235117 0)
(24.94012215279492 0.08565697625295589 0)
(21.4470813601663 4.169794702226502 0)
(21.44848844358511 4.955978720018076 0)
(24.92472505184961 0.119879785502767 0)
(24.99980885700631 0.0004167690960911679 0)
(24.99998722196862 -1.364778128523731e-05 0)
(21.57873319251311 5.318013595106896 0)
(24.92375862386482 0.1535226437460011 0)
(24.9998387127447 0.0006585292212810442 0)
(24.99997702386302 -2.03449713584213e-05 0)
(21.38147598290309 5.658203156009903 0)
(24.89427820097506 0.1771210576321714 0)
(24.99967179768164 0.0007005326346060372 0)
(24.99997724955077 -2.396704550655724e-05 0)
(21.25691198093653 5.893698093666441 0)
(24.87867119733684 0.230856773537487 0)
(24.99966295659124 0.001231905204000351 0)
(24.99995582990922 -3.965349991560085e-05 0)
(24.99995439475148 -4.467602463474972e-05 0)
(24.99957761215284 0.001229283597095569 0)
(24.84719647924354 0.2654747358660812 0)
(20.83350208059673 6.404031642025061 0)
(24.9999382060263 -6.120553131091576e-05 0)
(24.99931740954127 0.001788708319103062 0)
(24.8103640539943 0.3467307366584256 0)
(20.96293082396935 6.736862907926151 0)
(24.9999109374572 -0.000100825243282043 0)
(24.99930523744439 0.002480988612936462 0)
(24.81846346590637 0.3813233421926613 0)
(21.50234611486556 6.38365365147231 0)
(24.99998257599351 -3.08659507844938e-06 0)
(24.99850990605947 0.001168637015299851 0)
(24.83126392786993 0.2614029397162279 0)
(23.0599335393897 5.057598411548971 0)
(24.99975611201156 -0.000125796978593721 0)
(25.00215954054509 0.007050717077839229 0)
(25.11946302767745 0.3489384341397957 0)
(25.7865075494557 3.056375620085997 0)
(24.99968535863225 1.816370342489055e-05 0)
(25.0095451681205 0.002861467816683186 0)
(25.19531947952936 0.08115756913852197 0)
(26.70761724187245 0.4064135066707993 0)
(24.99998411968834 -4.915223166812358e-05 0)
(25.00115985558446 -0.002620680190748576 0)
(25.0376452921671 -0.1405804246170443 0)
(24.87895503429893 -1.961711047121359 0)
(24.99997418161909 -3.894782568382251e-05 0)
(24.99469832520539 -0.006609575460160164 0)
(24.74045966883561 -0.2544052014203441 0)
(21.94344042078469 -2.57319661220706 0)
(20.24440987732331 -2.179208715003745 0)
(24.64230135008706 -0.2442720802397859 0)
(24.9953251695627 -0.005072795089050438 0)
(24.99999079933594 -1.9063161438286e-05 0)
(19.57509980632275 -1.379009034229974 0)
(24.58084815338125 -0.1982200680442459 0)
(24.99486986225626 -0.003856144368233821 0)
(24.99998805810215 -1.426424545122199e-05 0)
(19.62837410949187 -0.4641332672516457 0)
(24.65806631658798 -0.1350766884816082 0)
(24.99748877778988 -0.002182434855758148 0)
(24.99999670656404 -6.342422440760707e-06 0)
(19.13958013973381 0.07980219058202921 0)
(24.62516322883025 -0.1181292681998978 0)
(24.99713081177912 -0.002183031660680383 0)
(24.99999545688151 -6.66055042510321e-06 0)
(20.84503608005094 0.5535970675405268 0)
(24.80696284380184 -0.05097669253866635 0)
(24.99894314897216 -0.000671709953789079 0)
(24.99999826216202 -2.01651481077139e-06 0)
(22.63703046198412 0.6694731978688381 0)
(24.9292819587312 -0.02248646492569398 0)
(24.99976287903728 -0.0001650694990017467 0)
(24.99999966264805 -3.927580152088692e-07 0)
(23.87503111695736 0.404432556104279 0)
(24.97950241834628 -0.01043634294751029 0)
(24.99995564810627 -4.883678097139587e-05 0)
(24.99999995593257 -1.030116011535998e-07 0)
(24.68543181953162 -0.03137419375054985 0)
(24.99996024070248 -0.008961480788118906 0)
(25.00001370113491 -3.940346373565876e-05 0)
(24.9999999962254 -9.497434318658544e-08 0)
(23.99020167781369 -0.04257563084370749 0)
(24.95704864624759 -0.0007060854659023889 0)
(24.99943583234419 -3.05932559586113e-06 0)
(24.99999710070052 -5.194276976109539e-09 0)
(24.01271946262983 -0.1393650100739764 0)
(24.95752111500562 -0.001968085725998259 0)
(24.99943987962416 -7.807239290177098e-06 0)
(24.99999710903645 -1.174464070177845e-08 0)
(23.99481082454456 -0.2988321098562118 0)
(24.95719101014035 -0.004092865154456878 0)
(24.99944056828333 -1.65102557253132e-05 0)
(24.9999971078602 -2.467953521270263e-08 0)
(23.96898114813851 -0.3511128923269607 0)
(24.95773970178415 -0.005981019602201789 0)
(24.99945348536128 -3.285227401820171e-05 0)
(24.9999971829745 -8.952886998396556e-08 0)
(24.68543181961848 0.03137419371249642 0)
(24.99996024076062 0.008961480812306232 0)
(25.00001370122368 3.940349878888562e-05 0)
(24.99999999611798 9.507503691826038e-08 0)
(23.87503111702311 -0.4044325560309595 0)
(24.97950241842116 0.010436342938509 0)
(24.99995564828557 4.883682266455941e-05 0)
(24.99999995591159 1.029961335338339e-07 0)
(22.63703046195417 -0.6694731977212137 0)
(24.92928195868697 0.02248646503506051 0)
(24.99976287902534 0.0001650695836300885 0)
(24.99999966263885 3.927500342120994e-07 0)
(20.84503607995152 -0.553597067626077 0)
(24.80696284364069 0.05097669250427412 0)
(24.99894314894642 0.0006717099272314567 0)
(24.99999826220728 2.016506376255333e-06 0)
(24.99999079915933 1.906301887392107e-05 0)
(24.99532516922023 0.005072795289044685 0)
(24.64230135004748 0.2442720801613233 0)
(20.24440987729921 2.179208714934658 0)
(24.99998805798095 1.426440122765505e-05 0)
(24.99486986220628 0.003856144361284355 0)
(24.58084815330391 0.1982200680105957 0)
(19.57509980624403 1.379009034121261 0)
(24.99999670666955 6.342443615469781e-06 0)
(24.99748877768748 0.002182434795918436 0)
(24.65806631653818 0.1350766884932302 0)
(19.6283741093713 0.4641332671785206 0)
(24.99999545687867 6.660516057722851e-06 0)
(24.99713081173039 0.002183031690436653 0)
(24.62516322870018 0.1181292681081224 0)
(19.13958013975012 -0.07980219044274549 0)
(21.94344042088705 2.573196612222852 0)
(24.7404596689669 0.2544052014121 0)
(24.99469832546846 0.006609575154867734 0)
(24.9999741817417 3.894771973124797e-05 0)
(24.87895503439574 1.961711047274457 0)
(25.03764529227934 0.1405804246198064 0)
(25.00115985576247 0.002620680254900321 0)
(24.99998411986908 4.915215090090034e-05 0)
(26.70761724187693 -0.4064135066884939 0)
(25.19531947966384 -0.08115756908722396 0)
(25.0095451681312 -0.002861467827085456 0)
(24.99968535878743 -1.816335400005187e-05 0)
(25.7865075494315 -3.056375620092145 0)
(25.11946302773401 -0.3489384341590959 0)
(25.0021595405953 -0.0070507169667525 0)
(24.99975611177178 0.0001257969112213977 0)
(24.99995439482772 4.467600723563202e-05 0)
(24.99957761202311 -0.001229283649597254 0)
(24.84719647920456 -0.265474735845094 0)
(20.83350208048933 -6.404031641984407 0)
(24.99993820601242 6.120550676563675e-05 0)
(24.9993174094354 -0.001788708343032742 0)
(24.81036405393162 -0.3467307366267316 0)
(20.96293082396226 -6.736862907907658 0)
(24.99991093732 0.0001008252183320682 0)
(24.99930523743729 -0.00248098856938269 0)
(24.81846346600253 -0.3813233421502371 0)
(21.50234611486897 -6.383653651476433 0)
(24.99998257578896 3.086587907857029e-06 0)
(24.99850990606177 -0.001168636955610069 0)
(24.83126392793305 -0.2614029396821846 0)
(23.05993353940346 -5.057598411552966 0)
(21.25691198079159 -5.893698093675824 0)
(24.87867119740497 -0.2308567734457953 0)
(24.99966295638709 -0.001231905266291295 0)
(24.99995582990836 3.965353775180133e-05 0)
(21.38147598275576 -5.65820315596633 0)
(24.89427820063258 -0.1771210576891601 0)
(24.99967179761437 -0.0007005326857487886 0)
(24.99997724950502 2.396704438237693e-05 0)
(21.57873319241895 -5.318013595122792 0)
(24.92375862379033 -0.1535226437905952 0)
(24.99983871256684 -0.0006585292234183141 0)
(24.99997702392122 2.034496804682191e-05 0)
(21.44848844348211 -4.955978720161355 0)
(24.92472505212024 -0.1198797854262262 0)
(24.99980885712355 -0.000416769100400134 0)
(24.99998722200506 1.364778092066351e-05 0)
(24.99999982826132 2.753719508832266e-06 0)
(25.00000069767843 4.167292726073765e-05 0)
(24.99587319105657 -0.0007831810323770427 0)
(23.38520393499293 -0.6503836130433579 0)
(24.9999995085768 5.56596505944413e-07 0)
(24.99993933526957 -7.690968384568844e-06 0)
(24.97236459579018 -0.01429732185320568 0)
(22.12825164633248 -1.752398706249792 0)
(24.99999626739173 4.530582997971156e-06 0)
(24.99988249031539 -0.0001332302593399752 0)
(24.94887840622324 -0.04629552944751454 0)
(21.48778896341667 -3.099607636483521 0)
(24.99998935866277 9.829089641595338e-06 0)
(24.99988575724248 -0.000311604504295589 0)
(24.94012215277602 -0.08565697637444064 0)
(21.44708136037175 -4.16979470198595 0)
(25.0000008872576 2.162130036630895e-06 0)
(24.99999996201618 -6.625055209182955e-09 0)
(25.00000000010584 2.187867573479869e-10 0)
(24.99999999993928 3.510555580633042e-11 0)
(25.0000400671407 4.059003884056637e-05 0)
(24.99999979215747 -1.901630598367036e-07 0)
(25.00000000088678 2.113708744151598e-09 0)
(25.00000000159067 -1.452724562009833e-09 0)
(25.00017806425369 -0.0004784670015231937 0)
(24.99999821302898 1.73068282528852e-05 0)
(25.00000030675845 -6.273682374210517e-07 0)
(25.00000220696465 -1.930325173253539e-06 0)
(24.87223840050713 -0.1630949519360501 0)
(25.00007361281398 0.0005765693526518158 0)
(25.00003350737365 -9.676964496483109e-05 0)
(25.00078700800643 -0.0004670066769885457 0)
(24.9999999947913 2.083557988674093e-09 0)
(25.00000016383334 -1.954721410777428e-07 0)
(25.00012221868498 -0.0001136957769901404 0)
(25.01345237800638 -0.008455485366169531 0)
(24.99999983698938 7.029940963084302e-08 0)
(25.00000398410594 -5.330056164109974e-06 0)
(25.00157970820597 -0.001725822013232058 0)
(25.07356987239726 -0.05203965617989366 0)
(24.99999850567026 7.107380698206351e-07 0)
(25.0000264497684 -4.896128049616196e-05 0)
(25.00669007482651 -0.01049693892892591 0)
(25.19190463090067 -0.1574771424492489 0)
(24.99999459989865 3.088667644957105e-06 0)
(25.00004578476538 -0.0001904274978883476 0)
(25.01114688111186 -0.0333910374504694 0)
(25.32689477880118 -0.3194860385795895 0)
(24.99999717301661 2.554826008200713e-06 0)
(24.99997621990896 -9.072622448126196e-05 0)
(24.99240392936755 -0.02808861923928524 0)
(24.82244565236152 -1.549968221600417 0)
(24.9999937623211 5.210657806285941e-06 0)
(24.99993069048069 -0.0002093872069135479 0)
(24.97965259072001 -0.04967600335470737 0)
(25.16626023300151 -1.377943215649173 0)
(24.99999000970768 7.619415123384842e-06 0)
(24.9999215772733 -0.0003674940570688141 0)
(24.9936474901199 -0.06654891756643097 0)
(25.40615171539856 -0.9697521852766056 0)
(24.99999076160694 6.498496366140609e-06 0)
(24.99998984123306 -0.0003429349671927199 0)
(25.00812242103006 -0.05828163989723334 0)
(25.42519952856744 -0.5651506279911507 0)
(24.49708897531283 -1.484751194546371 0)
(24.99456505665335 -0.01453578673295705 0)
(24.99999156743523 -2.260808518004905e-05 0)
(24.99999924811701 5.121522514858142e-07 0)
(24.63452900899928 -1.332934053301153 0)
(24.99613627434108 -0.01732971917321676 0)
(24.99999520129143 -4.552914522259133e-05 0)
(24.99999839339363 1.490583481663755e-06 0)
(24.52339805957574 -1.204974070589315 0)
(24.99509775653953 -0.01202157634232103 0)
(24.99999072550228 -2.584898352464267e-05 0)
(24.99999922253041 7.1007150917957e-07 0)
(24.53002259989652 -0.9891782737993232 0)
(24.99492383544739 -0.006749813686359702 0)
(24.99999212279817 -8.415357682115505e-06 0)
(24.99999973548736 3.657503911207636e-07 0)
(24.52007187820112 -0.8145134624318435 0)
(24.99912312706567 0.006649155960563008 0)
(25 -2.10485573032627e-14 0)
(25.00000000007964 -2.976954517717973e-10 0)
(24.54345342938401 -0.6050179359297455 0)
(25.0008836007429 -0.002579636114305023 0)
(25 3.359382285535918e-16 0)
(25.00000000000001 7.092969641138965e-13 0)
(24.67557639731531 -0.3006845063190011 0)
(24.9999961793129 -3.381995764290739e-06 0)
(25 -3.868625424021162e-16 0)
(25.00000000000001 1.527892234066552e-15 0)
(24.91343731343613 -0.05355677017614306 0)
(25.00000067197639 5.334497000747596e-07 0)
(25 -1.986043000611352e-15 0)
(25.00000000000002 -6.624612507024537e-15 0)
(25 1.420908939734042e-15 0)
(25 2.15896581034495e-15 0)
(25 9.670244072439946e-13 0)
(24.99999987351032 4.814322254434093e-06 0)
(24.99999999999999 -2.843418720158383e-19 0)
(25 2.686057484339667e-15 0)
(25.00000000000001 7.014652470586327e-12 0)
(24.99995409519796 0.000131742100861203 0)
(25 -1.366459512028481e-15 0)
(25 -2.4525108048355e-15 0)
(25.00000000021916 2.238709835801334e-10 0)
(24.99993102341296 0.0002642412921688806 0)
(25 -2.080570853014885e-15 0)
(25 -8.906566548353945e-16 0)
(25.00000000927876 7.355235998402805e-09 0)
(24.99929545344495 0.003100754316926621 0)
(24.99999638287376 9.445901504773457e-10 0)
(24.99997175592803 9.71874000294394e-05 0)
(24.99977423299574 0.0002240944224842184 0)
(24.98977965151342 0.0006975503809310096 0)
(24.999971755722 -9.718901793887378e-05 0)
(24.99999851568588 -1.515099716035959e-09 0)
(25.00004881158477 -0.001589561171559421 0)
(24.90380531540361 -0.05702527121456989 0)
(24.99977423172079 -0.0002240934943856381 0)
(25.00004881040577 0.001589561972813683 0)
(24.9634417987175 1.113335198237243e-08 0)
(24.34521240667857 -0.1510594337160839 0)
(24.98977965039695 -0.0006975504908752063 0)
(24.90380531651612 0.05702526333536782 0)
(24.34521241335924 0.1510594484832824 0)
(21.952449165561 -5.723728607243794e-09 0)
(19.57572675087452 2.463702777820817 0)
(20.61703415601385 3.107059206676992 0)
(23.08873839141132 2.184346679842795 0)
(24.25981909944727 0.9691083859201797 0)
(20.06684674218862 4.502825456814064 0)
(20.35404736766684 4.655634354607469 0)
(21.44992659957966 4.387261173547349 0)
(22.64616253983499 3.511762482210145 0)
(20.854136093754 5.621594483063025 0)
(21.26722581645032 5.033148382424236 0)
(21.9597476460637 5.110871351009257 0)
(22.7902785878163 4.753443719096341 0)
(21.22072635455023 5.762823178430978 0)
(22.15314910672717 5.304084316881773 0)
(22.67226728261027 5.353831725605239 0)
(23.16029079225266 5.087203178731262 0)
(23.30482653732451 5.198619848217847 0)
(23.39736701024473 5.435320105177515 0)
(23.56534433999142 5.557511772591558 0)
(23.38793277874223 5.848980198073741 0)
(23.1246112333109 5.456983347292871 0)
(23.35389200842815 5.629744272980237 0)
(23.49482932158476 5.728901833716002 0)
(23.75006181755108 6.230922948319075 0)
(22.8538456808787 5.581489940044054 0)
(23.25532209432584 5.736392327955651 0)
(23.3759425945499 5.800027274536143 0)
(25.20803356927971 6.550431629047155 0)
(21.45397849709261 5.544750936290022 0)
(21.78409058561665 5.559461446931636 0)
(21.94855739996276 5.588383751497858 0)
(26.97225002429288 7.691434968108003 0)
(25.38993787887199 4.264643116311436 0)
(27.18866315320506 1.863837375327918 0)
(26.7832437904621 0.3494037543948799 0)
(25.97689306001802 0.0571452488139022 0)
(26.86085356811742 3.476179027779124 0)
(28.35775157388942 0.8764882334023444 0)
(27.42904352542607 -0.08794155512106194 0)
(26.54970755284183 -0.1052438309060698 0)
(29.71005874929218 2.739499782576057 0)
(29.78059438316496 0.2048052308019031 0)
(27.91453874413088 -0.2820857351075788 0)
(26.79573278618576 -0.2969383263997377 0)
(21.58576090928447 1.87262302109828 0)
(21.74365061316258 0.4910338637260514 0)
(21.78129985696836 0.3537552819092277 0)
(22.70587589539068 -0.07672199563353729 0)
(25.66997584909694 0.01786037863958703 0)
(25.44117159708678 0.0411040829180326 0)
(25.20714572111294 0.05320912514385395 0)
(25.05966466217054 0.02232043942853379 0)
(25.99570839783821 -0.05930308296015216 0)
(25.65771107874578 -0.001973680599917081 0)
(25.34226202217675 0.02669086220554009 0)
(25.1129606660005 0.01931192259585997 0)
(26.22158401694632 -0.1762073028344615 0)
(25.83141453355214 -0.07267495369863398 0)
(25.47412528914395 -0.0454222869998869 0)
(25.17621096802116 -0.02396792499448961 0)
(23.85671992974719 -0.3817259778293123 0)
(24.54082467182999 -0.3008591767219196 0)
(24.73800522159119 -0.2114003052727873 0)
(24.90667223665229 -0.09184524658522496 0)
(25.00769573955934 0.003255493357538928 0)
(25.00032774278553 5.523262876404072e-05 0)
(25.00006243125511 0.0003308533560279587 0)
(23.13265455790379 2.230076003343709 0)
(25.01717815260992 0.004003750003836149 0)
(25.00083673463928 0.0001518383892027829 0)
(25.0000358772 0.0001541347952066014 0)
(21.17441033669908 2.680215681945632 0)
(25.03050983548155 -0.005456017976845078 0)
(25.00167942783052 -0.0003961864688706398 0)
(25.00005510167894 -7.242560937491638e-05 0)
(19.22028595133872 1.907718719963318 0)
(24.98239152844267 -0.01779208222490707 0)
(24.99873535597017 -0.001176696049077818 0)
(25.00007240463369 -1.671792530929e-05 0)
(15.21796258247375 0.6635749287747922 0)
(15.78407596238095 7.436898499127265 0)
(16.27759635457026 8.29941934535378 0)
(16.56949400155877 9.384937458211123 0)
(16.85655805770139 10.36351470873975 0)
(13.12108758409552 7.671982789319665 0)
(15.05113341500244 8.683088406412155 0)
(16.05407026443944 9.858375683273406 0)
(16.56991506194802 10.59251994418855 0)
(10.85287300352625 6.74575001645762 0)
(13.46091251713509 8.456654954795441 0)
(15.26051661159994 9.839581780485942 0)
(16.19874026612196 10.54278140827859 0)
(9.099467192517526 3.317428995304126 0)
(12.31950739681006 5.874422119105652 0)
(13.03843616895314 8.399239760816906 0)
(14.15231740012759 9.993574594478087 0)
(16.99967845888546 11.0880855673666 0)
(17.20728875375545 11.3524929321416 0)
(17.15848893162478 11.53744679778592 0)
(17.14669343713636 11.51840865254417 0)
(16.78532790536352 11.21344202475218 0)
(17.04197932669164 11.45917498985744 0)
(17.10900233673833 11.64237891569436 0)
(17.16304715011989 11.59387174424139 0)
(16.61652415251885 11.03457536013043 0)
(16.89847858294135 11.28441582879186 0)
(17.01000648577855 11.45339923577133 0)
(17.06834356838273 11.44917237576824 0)
(15.00520196836433 10.59444849843841 0)
(15.52709223042668 10.77469062541514 0)
(15.82665599011983 10.80708264575151 0)
(15.79973838053109 10.77357830652957 0)
(17.03588375409066 11.60147817474805 0)
(17.40506888462095 11.51726884436222 0)
(18.480080508676 10.91892305168101 0)
(20.742791612557 9.57447833173544 0)
(17.17493894995328 11.58616785979536 0)
(17.55880913365184 11.43001544253791 0)
(18.7336308267818 11.0559541975595 0)
(21.56124046992361 11.37293697828389 0)
(17.09850931844468 11.47266640118114 0)
(17.40717259107445 11.40833439161727 0)
(19.10551289040527 11.46136703925198 0)
(26.43501970607973 16.36712490452978 0)
(16.0348379014113 10.83727856387217 0)
(16.47928540619999 10.75904429490243 0)
(19.11528559781796 11.67475229776783 0)
(35.98048360128606 21.39610923320964 0)
(25.49760955754794 4.897406619442403 0)
(27.41791237866073 -2.53660807433569 0)
(7.569437477250968 -5.374500201771102 0)
(3.959747025876858 -1.503691176772034 0)
(26.48771222488476 4.866932964450378 0)
(22.45316944970082 -1.85579535711545 0)
(3.260547751079957 -6.528751846514362 0)
(1.083969249669703 -1.620731897634933 0)
(26.36416228757054 3.079243573129362 0)
(14.70164102857256 -5.232752652222876 0)
(1.293131426627482 -3.997028053364827 0)
(0.9772432500103655 -1.348075171371967 0)
(16.74470020299488 -6.742325629581159 0)
(4.937130084508221 -3.53731586500742 0)
(-0.9547627881130006 -2.256162858153679 0)
(0.1754229388035345 -1.383626525851065 0)
(2.141735325016518 -0.374152605432971 0)
(1.666178489452325 0.3719732433547092 0)
(1.709764211922433 0.6434124026504916 0)
(0.5727248585211505 1.534349358687911 0)
(-0.2241747886296741 0.5130995360163766 0)
(-0.03159195239831825 1.764396002339682 0)
(0.3723509438882531 2.209933161177692 0)
(1.118708197102964 3.235176706625404 0)
(0.5050688668414655 0.3679790062500226 0)
(0.7088778191504284 1.774369121548559 0)
(1.215154650441749 2.824605321969794 0)
(0.8525166637825766 5.311861992494544 0)
(0.03557217734799085 0.2297905360381663 0)
(0.485547943778479 1.681926786942207 0)
(0.9982641943043927 3.239337376432109 0)
(-0.5979246357602226 5.637948212231572 0)
(13.56822746437709 -5.907924094226773 0)
(19.75480821559829 -5.042695970636617 0)
(22.83669745379525 -4.731646104979782 0)
(24.07003217179746 -3.633684060989367 0)
(8.349206322859855 -2.83113120955092 0)
(16.05617819772626 -4.012236503897611 0)
(20.59073479475305 -5.380072500191245 0)
(22.95429364960554 -4.200599899471027 0)
(1.233627021532474 -0.9910203288310369 0)
(8.186884022471075 -2.464594598560111 0)
(15.15518030968433 -4.345979408191194 0)
(23.04919792383023 -3.181339609552072 0)
(-1.243779844523456 1.866401362096485 0)
(2.952404922147075 2.035543059081494 0)
(11.03677395221051 1.476425492416047 0)
(26.26672412386975 -1.611090898289649 0)
(25.21218352626209 -7.836526846122478 0)
(26.10116067019031 -13.41419325862942 0)
(28.4177104782154 -21.02819296987569 0)
(23.52406891075501 -22.2325972329737 0)
(24.76752822336042 -9.079792374373319 0)
(25.72981483020402 -14.28688316194361 0)
(26.03799210103852 -24.4969263550914 0)
(20.5347006667584 -20.94944607761049 0)
(24.96592837328649 -10.70966022557498 0)
(23.49223292223529 -17.13551254824971 0)
(21.97416157174181 -20.93265226638893 0)
(10.18273982262075 -14.94806924885763 0)
(17.18319919867703 -11.0678969575932 0)
(9.422218581853329 -15.48028075856908 0)
(3.373060134239532 -17.64091564523398 0)
(0.974088578780465 -7.465681561001072 0)
(0.4619376398511388 2.012829139504042 0)
(-1.33398198216397 5.14556807365517 0)
(-2.417730019409052 4.24076337576486 0)
(-3.182934594125995 1.110001246836771 0)
(5.333850981309541 -0.7314174465676813 0)
(-0.7635769493689515 4.021720399369986 0)
(-2.942825847009425 3.746047256729337 0)
(-3.654646336034785 0.9412237983423237 0)
(10.32769585433048 -6.818895492512316 0)
(1.208586574879326 -1.557193153917956 0)
(-0.5789625802198056 0.6630339533561179 0)
(-0.3553483630351084 -0.07677066356204719 0)
(14.51625287336915 -13.11614181102608 0)
(7.844417334368519 -7.629565187470818 0)
(5.995824266200861 -2.537756731571218 0)
(6.689700009112138 -0.8720331855833391 0)
(-3.182934594121671 -1.110001246839133 0)
(-3.65464633602998 -0.9412237983648563 0)
(-0.3553483630325704 0.0767706635338722 0)
(6.689700009100058 0.8720331855312532 0)
(-2.417730019402151 -4.240763375765873 0)
(-2.942825847003466 -3.746047256748868 0)
(-0.5789625802130658 -0.6630339533974128 0)
(5.995824266205851 2.537756731488654 0)
(-1.333981982159393 -5.145568073662615 0)
(-0.7635769493795727 -4.021720399386476 0)
(1.20858657490325 1.557193153855177 0)
(7.844417334396796 7.629565187383046 0)
(0.4619376398480576 -2.012829139499675 0)
(5.333850981285947 0.731417446523566 0)
(10.32769585436744 6.818895492515556 0)
(14.51625287342988 13.11614181105377 0)
(23.52406891079139 22.23259723301593 0)
(28.41771047833601 21.02819296981293 0)
(26.10116067030267 13.41419325863392 0)
(25.21218352637918 7.83652684612627 0)
(20.53470066673004 20.94944607760749 0)
(26.03799210105641 24.49692635509424 0)
(25.72981483027027 14.28688316185156 0)
(24.76752822345127 9.079792374368942 0)
(10.18273982265863 14.94806924879374 0)
(21.974161571735 20.93265226642425 0)
(23.49223292226046 17.13551254828413 0)
(24.96592837333896 10.70966022555466 0)
(0.9740885787782132 7.465681561000671 0)
(3.373060134232278 17.64091564522237 0)
(9.422218581860733 15.48028075855442 0)
(17.18319919868923 11.06789695759676 0)
(26.26672412391361 1.611090898277611 0)
(11.03677395219945 -1.476425492415199 0)
(2.952404922131512 -2.035543059104763 0)
(-1.243779844564909 -1.86640136217715 0)
(23.04919792388831 3.181339609533359 0)
(15.15518030972242 4.345979408171423 0)
(8.186884022424433 2.464594598536545 0)
(1.233627021451762 0.9910203287939372 0)
(22.95429364967841 4.200599899437755 0)
(20.59073479480763 5.380072500217671 0)
(16.05617819767221 4.012236503884971 0)
(8.349206322766968 2.831131209372095 0)
(24.07003217187237 3.63368406096266 0)
(22.83669745382032 4.731646105050603 0)
(19.75480821555436 5.042695970693446 0)
(13.56822746433204 5.907924094055277 0)
(0.5727248585638476 -1.534349358617141 0)
(1.709764211830556 -0.6434124026191426 0)
(1.666178489404685 -0.3719732434340421 0)
(2.141735325017089 0.3741526053444541 0)
(1.118708197187539 -3.235176706650854 0)
(0.3723509438236948 -2.209933161131698 0)
(-0.03159195242904252 -1.76439600236457 0)
(-0.2241747885629678 -0.5130995360866811 0)
(0.8525166638075551 -5.311861992528722 0)
(1.215154650408959 -2.824605321939758 0)
(0.7088778191136405 -1.774369121559892 0)
(0.5050688668656018 -0.3679790063110716 0)
(-0.5979246357473391 -5.63794821225579 0)
(0.9982641942979633 -3.239337376412483 0)
(0.4855479437653288 -1.681926786958104 0)
(0.03557217735688729 -0.2297905360867774 0)
(3.959747025938844 1.50369117671642 0)
(7.569437477222105 5.374500201849738 0)
(27.41791237863058 2.536608074359479 0)
(25.49760955755592 -4.897406619453996 0)
(1.083969249816256 1.620731897552256 0)
(3.260547751153922 6.528751846519648 0)
(22.45316944971713 1.855795357080861 0)
(26.48771222496322 -4.866932964456218 0)
(0.9772432501032061 1.348075171300464 0)
(1.293131426700858 3.997028053358729 0)
(14.70164102856257 5.232752652268394 0)
(26.36416228762535 -3.079243573192578 0)
(0.1754229388635664 1.383626525770127 0)
(-0.954762788077516 2.256162858131791 0)
(4.937130084540469 3.537315865041467 0)
(16.74470020307919 6.742325629565386 0)
(20.74279161257655 -9.574478331714703 0)