/*--------------------------------*- C++ -*----------------------------------*\
  =========                 |
  \\      /  F ield         | OpenFOAM: The Open Source CFD Toolbox
   \\    /   O peration     | Website:  https://openfoam.org
    \\  /    A nd           | Version:  11
     \\/     M anipulation  |
\*---------------------------------------------------------------------------*/
FoamFile
{
    format      ascii;
    class       volVectorField;
    location    "3.4";
    object      U;
}
// * * * * * * * * * * * * * * * * * * * * * * * * * * * * * * * * * * * * * //

dimensions      [0 1 -1 0 0 0 0];

internalField   nonuniform List<vector> 
4455
(
(9.9985011 0.0031418473 0)
(9.9891798 0.0036911576 -1.4020173e-19)
(9.9697569 0.010456834 4.8126237e-19)
(9.9431536 0.0076289475 9.9982673e-22)
(9.8956038 0.019939223 4.5157869e-19)
(9.8469328 0.014560564 -1.6975172e-18)
(9.7554651 0.040207112 7.5409165e-19)
(9.6646476 0.017244348 0)
(9.517697 0.072686454 -4.5329524e-18)
(10.000721 0.00665127 -9.1640541e-19)
(9.9907626 0.013369481 8.9281801e-19)
(9.9686636 0.024089042 -1.0974957e-18)
(9.9412949 0.023836477 1.826726e-18)
(9.8915195 0.035428783 -3.4979021e-18)
(9.8392378 0.027485818 3.8083262e-18)
(9.7376348 0.040476772 -3.6130603e-19)
(9.6500821 0.014575344 5.2729409e-19)
(9.4741804 -0.0024028114 1.9667801e-17)
(10.001401 0.010494029 -9.592647e-19)
(9.9922509 0.022384548 1.2115766e-18)
(9.968831 0.038717711 1.0740635e-18)
(9.9408664 0.041564357 -1.0678253e-18)
(9.8898784 0.058795383 4.6669908e-18)
(9.8360585 0.053070678 -2.6242286e-18)
(9.7360721 0.074311649 3.3901254e-19)
(9.62916 0.01955692 -7.4230759e-18)
(9.4590414 0.060936359 -1.3903022e-17)
(10.002123 0.013984002 2.3811155e-21)
(9.9939477 0.030206911 -1.3440968e-19)
(9.9701028 0.053631063 2.5497598e-18)
(9.9409076 0.058222874 3.4790016e-19)
(9.8924405 0.083729966 4.2179531e-23)
(9.8318914 0.07631387 -5.0487264e-19)
(9.7283662 0.11824758 5.5702629e-18)
(9.6110889 0.046352096 1.4840394e-17)
(9.4158868 0.11104441 1.1535501e-17)
(10.004039 0.017999664 1.85543e-18)
(9.9947565 0.035953106 -2.0745736e-18)
(9.9728907 0.067778386 2.6397337e-18)
(9.9420025 0.074350209 1.1112329e-21)
(9.896432 0.10863531 -3.2008515e-18)
(9.8314699 0.098921712 -9.7810023e-19)
(9.7206944 0.14296063 -4.3900769e-18)
(9.5938895 0.065946454 -6.9823101e-18)
(9.3745813 0.14569732 -3.4030544e-17)
(10.005447 0.020318283 0)
(9.996419 0.042329451 0)
(9.9756781 0.07921818 -4.6014758e-18)
(9.944785 0.090473441 -5.286754e-18)
(9.9022379 0.13172509 0)
(9.8350493 0.13011202 -7.0830319e-18)
(9.7149502 0.18441742 -5.9882269e-19)
(9.568885 0.100427 -4.1536826e-19)
(9.3226302 0.19789258 4.2008937e-17)
(10.008637 0.022733071 0)
(9.9963331 0.046191296 -1.248386e-19)
(9.9802269 0.090476445 1.4051118e-19)
(9.948818 0.10412025 5.167304e-18)
(9.9069845 0.1499317 -3.795077e-19)
(9.8383836 0.14973388 1.5085146e-17)
(9.718497 0.21250872 0)
(9.5543894 0.12877198 0)
(9.2735676 0.25558692 1.9255266e-17)
(10.010236 0.023685553 3.5133616e-18)
(9.9991032 0.050230577 0)
(9.9825152 0.098257588 0)
(9.9564932 0.12055469 0)
(9.9163116 0.17392128 0)
(9.843816 0.18157956 -7.531393e-18)
(9.7145012 0.2538585 -8.0381649e-18)
(9.5365321 0.16946326 1.1523434e-17)
(9.217418 0.31869452 1.1584378e-19)
(10.012098 0.023988414 -3.4596068e-18)
(10.001014 0.052309032 -1.202113e-19)
(9.9869053 0.10353325 -1.3556113e-19)
(9.9601133 0.12771406 3.0740292e-19)
(9.9264124 0.18668677 1.1820624e-17)
(9.854413 0.19908747 1.3290937e-17)
(9.7256094 0.28439447 2.5613409e-17)
(9.5209685 0.20708374 -1.1318316e-17)
(9.1655449 0.38873493 -3.317671e-17)
(10.01286 0.023584372 0)
(10.013776 0.022693778 6.4349092e-18)
(10.013961 0.021068228 -6.3825209e-18)
(10.013013 0.018870878 6.1188044e-18)
(10.01314 0.016269124 -5.9809365e-18)
(10.011046 0.012931561 1.1949426e-17)
(10.00982 0.010158167 -1.1600531e-17)
(10.007595 0.0057583649 0)
(10.003539 0.0022340694 0)
(10.003906 0.054367648 0)
(10.005362 0.054077775 1.1131403e-19)
(10.008421 0.053018411 0)
(10.010128 0.050956713 3.1668702e-19)
(10.011656 0.048238655 6.4694166e-18)
(10.014733 0.044126182 -1.9328253e-17)
(10.014667 0.039485949 1.2514532e-17)
(10.018602 0.034480107 -1.9081257e-19)
(10.015293 0.0230196 1.2094198e-17)
(9.9922851 0.11082983 8.0718056e-18)
(9.9977052 0.11508214 -1.5909228e-17)
(10.00287 0.11736506 1.5196787e-17)
(10.009941 0.1164538 -4.7463166e-19)
(10.013546 0.11406592 -7.1748963e-18)
(10.02189 0.11087624 -2.181351e-19)
(10.023712 0.10347506 0)
(10.033426 0.098406206 4.1268597e-19)
(10.032852 0.080627761 -2.0087768e-19)
(9.9691252 0.14115755 8.4117596e-18)
(9.9778939 0.15124865 -1.7090633e-17)
(9.9862956 0.15854626 1.6267678e-17)
(9.9983088 0.1639458 -7.8839512e-18)
(10.005662 0.16436105 -4.9339553e-19)
(10.019714 0.16717002 2.3842034e-19)
(10.026126 0.16231543 0)
(10.042498 0.16113246 -2.2464717e-19)
(10.044687 0.14500253 1.3538915e-17)
(9.9338474 0.20787595 -9.492873e-18)
(9.9508742 0.22762868 0)
(9.9584701 0.2414402 -8.7911617e-18)
(9.9782395 0.2563292 9.0651997e-18)
(9.9869129 0.26327662 -8.1917616e-18)
(10.00842 0.27306353 8.4652677e-18)
(10.01817 0.27371567 0)
(10.041514 0.28014313 0)
(10.048778 0.265695 4.7893675e-19)
(9.8605783 0.22708537 -1.1594924e-17)
(9.8780927 0.26026219 -1.109281e-17)
(9.887404 0.28261812 1.0663392e-17)
(9.9083436 0.31287949 1.0225371e-17)
(9.9227281 0.32776861 -9.8579823e-18)
(9.9467965 0.35515762 0)
(9.9658632 0.36026793 1.8260899e-17)
(9.9921625 0.38618707 -4.4282839e-20)
(10.010136 0.37564517 -3.4092718e-17)
(9.7242665 0.32071638 -1.357007e-17)
(9.7434744 0.37948618 0)
(9.7537752 0.40532447 0)
(9.7799187 0.45856257 3.7196515e-19)
(9.8023919 0.47713241 0)
(9.834246 0.5303636 0)
(9.864362 0.54095292 0)
(9.8997804 0.59055015 0)
(9.9277204 0.58780114 0)
(9.5094872 0.25441841 5.1996293e-19)
(9.4918851 0.35131759 0)
(9.4997886 0.411751 4.6637215e-19)
(9.5015009 0.51563 -8.7434755e-19)
(9.5382367 0.56438655 -1.3247464e-17)
(9.5635632 0.65680335 -1.256929e-17)
(9.6148694 0.68884257 2.4134639e-17)
(9.65407 0.76795477 2.3329297e-17)
(9.7113691 0.78349561 -2.2068069e-17)
(9.0893983 0.47074876 6.2186213e-17)
(9.0229149 0.68356602 -3.8546148e-17)
(9.0180497 0.81596135 3.5799118e-17)
(9.0638696 1.0341941 -3.381473e-17)
(9.1362022 1.131376 -4.8085867e-17)
(9.2283272 1.3040381 9.0485683e-17)
(9.3182901 1.3597476 -5.7161719e-17)
(9.4235144 1.4955262 -2.7240624e-17)
(9.5067547 1.5105228 2.5609947e-17)
(10.004997 0.0027078229 -1.5944379e-20)
(10.008043 0.0038731072 1.6373934e-17)
(10.012856 0.0057402137 -6.015787e-21)
(10.019095 0.0078326645 -1.6494285e-17)
(10.02663 0.010011862 1.6142343e-20)
(10.035647 0.012272785 1.6593898e-17)
(10.0462 0.014676832 -1.6674883e-17)
(10.058465 0.017146003 -1.6284552e-20)
(10.073676 0.020601977 -8.3869215e-18)
(10.022766 0.026119742 -1.73536e-17)
(10.027387 0.036291625 1.7462627e-17)
(10.039453 0.037526564 -1.7467441e-17)
(10.046885 0.050810331 0)
(10.06246 0.05093781 1.7618217e-17)
(10.07291 0.06644852 1.4496834e-20)
(10.091908 0.064968247 2.9457224e-20)
(10.1058 0.082630887 -1.7725465e-17)
(10.129235 0.079222409 8.9168923e-18)
(10.045134 0.087330723 1.8508622e-17)
(10.048994 0.10326427 -1.8564397e-17)
(10.065038 0.10794209 -1.8689711e-17)
(10.069859 0.12548718 1.8734958e-17)
(10.087948 0.13026676 -1.8890293e-17)
(10.094938 0.1511336 1.8825822e-17)
(10.116985 0.15542014 -1.9011864e-17)
(10.126928 0.1795642 -1.0326774e-20)
(10.153592 0.18274447 1.9043058e-17)
(10.063689 0.15696708 -1.9779216e-17)
(10.066718 0.18114107 -7.7809789e-20)
(10.087374 0.19061823 7.826732e-20)
(10.090472 0.21536156 0)
(10.113526 0.22469762 -1.5736016e-22)
(10.119053 0.25294945 -2.0126436e-17)
(10.146382 0.26197177 2.0460211e-17)
(10.155003 0.29420299 7.9634982e-20)
(10.187421 0.30195886 7.9884536e-20)
(10.071279 0.28287032 -8.351845e-20)
(10.072585 0.31266853 -2.1503174e-17)
(10.094053 0.32673399 -6.5061534e-20)
(10.093654 0.35517396 2.1698136e-17)
(10.117839 0.36888646 2.184657e-17)
(10.120298 0.40135037 -2.195784e-17)
(10.149542 0.41481451 -8.5565751e-20)
(10.155216 0.4518517 -8.586952e-20)
(10.189824 0.46384388 -8.6172512e-20)
(10.041517 0.40192708 2.3309284e-17)
(10.040738 0.44271059 0)
(10.068125 0.4634168 0)
(10.064909 0.50167036 2.3491886e-17)
(10.095619 0.5213194 -2.3806377e-17)
(10.096348 0.56391719 -2.38686e-17)
(10.132644 0.58276825 4.7773324e-17)
(10.137177 0.62936416 -4.5133293e-20)
(10.178618 0.64564743 -4.813063e-17)
(9.9615666 0.63050408 -1.0072007e-19)
(9.9662816 0.67531189 0)
(9.9918513 0.70305993 1.0144981e-19)
(9.9941809 0.74266174 2.6056133e-17)
(10.023335 0.76952864 -2.6213623e-17)
(10.034751 0.8054215 2.627605e-17)
(10.070599 0.82967983 -2.6333044e-17)
(10.08511 0.86405088 -1.0308432e-19)
(10.123231 0.88538706 2.648752e-17)
(9.7568131 0.84160436 -2.8342425e-17)
(9.8000284 0.90229652 2.8736377e-17)
(9.8403018 0.94352236 -2.8838933e-17)
(9.8873774 0.99323009 2.8691024e-17)
(9.932401 1.0256228 -2.8553058e-17)
(9.9833203 1.0687496 1.8342499e-21)
(10.033703 1.0920902 2.8934953e-17)
(10.085438 1.125535 2.2666006e-19)
(10.129962 1.1416137 1.4442774e-17)
(9.6087933 1.6129667 0)
(9.6602047 1.6462809 -3.179403e-17)
(9.758768 1.720633 1.9083014e-19)
(9.8105328 1.730074 3.1075154e-19)
(9.912841 1.7740694 6.3785808e-17)
(9.9620451 1.7445538 -3.1904279e-17)
(10.080769 1.7405361 -3.1914514e-17)
(10.120328 1.6452933 3.2045373e-17)
(10.264679 1.5593523 1.6077646e-17)
(10.284905 1.4140582 -1.879158e-17)
(10.352518 1.2939678 0)
(10.342095 1.2068171 1.8697135e-17)
(10.346023 1.1346946 -1.8698131e-17)
(10.27775 1.0501501 0)
(10.227564 0.99731243 0)
(10.131818 0.92323069 0)
(10.0745 0.87421028 -1.9193745e-17)
(9.9611634 0.83358057 1.9193789e-17)
(10.171829 1.160835 -1.6451502e-17)
(10.207132 1.1747513 0)
(10.238062 1.177766 0)
(10.25752 1.1809534 0)
(10.271286 1.1797733 0)
(10.276688 1.1824703 0)
(10.273048 1.1831936 0)
(10.264856 1.1907202 1.6270256e-17)
(10.243286 1.1905138 -3.2622042e-17)
(10.138428 0.91313184 -5.8186848e-20)
(10.173196 0.94006617 -2.9075485e-17)
(10.18563 0.96141407 0)
(10.218506 0.9850464 -1.4458081e-17)
(10.227233 1.0071361 1.4458075e-17)
(10.255184 1.0292114 0)
(10.258477 1.0490068 0)
(10.282304 1.070296 0)
(10.278015 1.0919083 0)
(10.182629 0.69188326 2.5877088e-17)
(10.225646 0.71533447 0)
(10.230109 0.75980743 1.2861981e-17)
(10.273306 0.78252761 -2.5698129e-17)
(10.277896 0.82683162 1.2835753e-17)
(10.321345 0.84868339 0)
(10.324854 0.89336505 0)
(10.368725 0.91767678 0)
(10.369885 0.96372198 1.2708312e-17)
(10.196113 0.5040857 0)
(10.233932 0.51877344 2.3251524e-17)
(10.241386 0.56103032 -3.4855285e-17)
(10.281889 0.57543058 1.1603525e-17)
(10.290594 0.61934147 1.1555519e-17)
(10.333899 0.63411659 -2.5406654e-20)
(10.343304 0.68014042 -2.303356e-17)
(10.389733 0.69614702 2.2979616e-17)
(10.399125 0.74507883 -1.1476101e-17)
(10.197605 0.3378646 0)
(10.234303 0.34723009 1.0577351e-17)
(10.246395 0.38625133 -1.0577446e-17)
(10.287145 0.39540999 0)
(10.301456 0.43790848 -2.1013255e-17)
(10.346143 0.44681392 2.1013695e-17)
(10.362622 0.492291 1.0452348e-17)
(10.411399 0.5009358 -2.0875268e-17)
(10.42988 0.54963246 1.0422862e-17)
(10.165257 0.21007312 0)
(10.195644 0.21396881 0)
(10.20979 0.24489118 0)
(10.245219 0.24831738 -9.6965458e-18)
(10.262485 0.28331715 1.9371709e-17)
(10.302613 0.286042 -1.9326229e-17)
(10.322697 0.32459676 9.6510952e-18)
(10.368019 0.32671049 -9.5987732e-18)
(10.391435 0.36963862 1.9168751e-17)
(10.145842 0.09959103 -1.8072014e-17)
(10.173939 0.095773747 1.6978754e-20)
(10.193919 0.11993157 9.0113288e-18)
(10.22615 0.11456839 -8.9730851e-18)
(10.250082 0.14174944 8.9730918e-18)
(10.287148 0.13443334 0)
(10.314983 0.16458512 8.9038634e-18)
(10.356795 0.15539512 -1.778073e-17)
(10.389696 0.18925555 8.8775986e-18)
(10.083148 0.025561004 1.2242711e-20)
(10.103756 0.025657444 8.4416544e-18)
(10.124384 0.039086496 8.4149109e-18)
(10.147742 0.035060887 -8.4149117e-18)
(10.170554 0.05041065 0)
(10.198688 0.045543143 0)
(10.224281 0.061672694 -8.3449224e-18)
(10.263904 0.055667662 1.6667866e-17)
(10.288855 0.072846487 -8.3223694e-18)
(10.33869 0.070268288 0)
(10.368678 0.087747489 -8.2430044e-18)
(10.425929 0.082681222 3.1335936e-20)
(10.463768 0.10089985 3.39116e-20)
(10.522973 0.1043877 3.6793651e-20)
(10.577694 0.11227141 8.1411725e-18)
(10.63744 0.12489914 8.0584463e-18)
(10.701643 0.13238215 -8.0584469e-18)
(10.777576 0.14405291 0)
(10.435334 0.17873437 0)
(10.476011 0.21559306 0)
(10.52637 0.20366806 -8.7496525e-18)
(10.574486 0.24467007 3.784614e-20)
(10.625389 0.23488511 4.0911211e-20)
(10.686728 0.27555088 8.6714654e-18)
(10.745329 0.26485907 8.5817061e-18)
(10.805835 0.31642942 -8.5817046e-18)
(10.876262 0.30247811 0)
(10.442667 0.37135172 -9.5698815e-18)
(10.469245 0.41916444 0)
(10.526786 0.42056301 0)
(10.556976 0.47382348 -9.4329644e-18)
(10.621797 0.4752601 1.8825686e-17)
(10.655477 0.53508678 -4.2611297e-20)
(10.728147 0.53645999 -4.5715614e-20)
(10.766456 0.60350796 -9.3045466e-18)
(10.848394 0.60524496 0)
(10.483304 0.55868077 -1.0359321e-17)
(10.503531 0.61153028 1.0359195e-17)
(10.562347 0.62164528 0)
(10.58415 0.67965502 0)
(10.648732 0.6914161 1.0210927e-17)
(10.671981 0.75536606 -1.0210778e-17)
(10.743281 0.76924572 1.0124003e-17)
(10.768412 0.84088077 -5.0856669e-18)
(10.8479 0.8573702 -5.0382997e-18)
(10.448934 0.76356437 -1.141847e-17)
(10.457606 0.81642904 1.1418386e-17)
(10.510917 0.83804311 0)
(10.518658 0.89578048 0)
(10.576628 0.92167486 0)
(10.582992 0.98590979 0)
(10.64617 1.0167893 0)
(10.651319 1.0894333 0)
(10.721702 1.125947 0)
(10.413553 0.99031512 -1.2708308e-17)
(10.41119 1.0382677 1.2660456e-17)
(10.455423 1.0707667 -1.2660003e-17)
(10.448028 1.1229297 1.2614848e-17)
(10.492951 1.1622231 -1.2614466e-17)
(10.480593 1.220647 0)
(10.528483 1.2678131 0)
(10.510911 1.3355594 0)
(10.564184 1.3913149 0)
(10.296423 1.1182055 0)
(10.282577 1.1432149 -1.4366136e-17)
(10.297566 1.177419 1.436398e-17)
(10.274201 1.2077968 0)
(10.288495 1.2530004 1.4370168e-17)
(10.253646 1.2923116 -1.4370622e-17)
(10.270161 1.350763 0)
(10.223403 1.4028516 7.196075e-18)
(10.245649 1.4764647 -1.4395842e-17)
(10.226716 1.2102222 1.6334312e-17)
(10.182746 1.2198556 1.6412645e-17)
(10.159545 1.2497002 -1.6415643e-17)
(10.095909 1.2737952 1.6519726e-17)
(10.067989 1.3140596 -3.3101316e-17)
(9.9880778 1.3544115 3.3225732e-17)
(9.9567169 1.4060699 -3.3358217e-17)
(9.861716 1.4651041 1.6713034e-17)
(9.8290497 1.5316898 0)
(9.8980484 0.80056736 -1.9454393e-17)
(9.7811086 0.77147844 1.9454436e-17)
(9.7034743 0.76769394 0)
(9.5805505 0.75317158 0)
(9.4952614 0.76707632 0)
(9.3598917 0.77234836 0)
(9.2686171 0.79892732 0)
(9.1199562 0.83054699 -1.0241377e-17)
(9.0169352 0.88214289 1.0241313e-17)
(8.8592795 0.93378163 1.0405894e-17)
(9.7198027 1.6146725 0)
(10.18783 1.5451176 7.2008387e-18)
(10.54228 1.4718015 0)
(10.726305 1.2096993 0)
(10.875667 0.93844343 0)
(10.891278 0.68100538 4.5737204e-18)
(10.947266 0.35718367 4.2114137e-18)
(10.844979 0.15433066 3.9534164e-18)
(8.7432469 1.0208421 -1.0405804e-17)
(9.6880635 1.6977502 0)
(10.21814 1.6313111 0)
(10.604391 1.5367265 6.2191782e-18)
(10.806048 1.2520356 0)
(10.96468 0.95718853 -4.9570684e-18)
(10.983434 0.68240307 -9.1172589e-18)
(11.025028 0.34341812 -8.3924521e-18)
(10.937348 0.15598811 -7.8772925e-18)
(8.5711144 1.1096646 0)
(9.5676168 1.8099375 0)
(10.154085 1.7268599 7.2040467e-18)
(10.579462 1.632942 -6.2192529e-18)
(10.811504 1.3496748 0)
(10.996679 1.0496311 4.9574486e-18)
(11.033198 0.7681991 4.5437163e-18)
(11.105251 0.40663906 4.181038e-18)
(11.010471 0.18546415 3.9238752e-18)
(8.4462636 1.2315156 1.0660267e-17)
(9.5408259 1.9115969 0)
(10.192353 1.8234856 -1.4404903e-17)
(10.653498 1.7066844 0)
(10.900699 1.3957194 0)
(11.09494 1.0696771 -4.8925105e-18)
(11.137537 0.76898253 -4.4766511e-18)
(11.194043 0.39323713 0)
(11.113291 0.19101091 -3.8574923e-18)
(8.2606529 1.3756321 -1.0660269e-17)
(9.4129617 2.0571129 -8.5925289e-18)
(10.12638 1.9495162 7.2007861e-18)
(10.627987 1.8220369 0)
(10.914571 1.5117879 0)
(11.137367 1.1758122 4.8925647e-18)
(11.194879 0.86579858 4.4766893e-18)
(11.280935 0.45773334 0)
(11.208746 0.20086909 3.8574918e-18)
(8.1274497 1.5541832 0)
(9.3977456 2.179815 8.5924718e-18)
(10.175927 2.0571616 -7.1827685e-18)
(10.716338 1.9018943 0)
(11.008435 1.5598775 0)
(11.243191 1.1961089 -4.8164514e-18)
(11.311212 0.86471518 -4.3990646e-18)
(11.384228 0.46066253 0)
(11.319291 0.22369188 -3.7799736e-18)
(7.9419205 1.7636505 0)
(9.2691731 2.3660081 0)
(10.113496 2.2185202 7.1827645e-18)
(10.697153 2.0421791 -3.0490467e-18)
(11.036823 1.6945024 -2.6812871e-18)
(11.301552 1.3158917 7.2032971e-18)
(11.378637 0.97251449 6.577279e-18)
(11.480716 0.51931847 0)
(11.430854 0.229297 5.6483101e-18)
(7.8196444 2.0212336 0)
(9.2743656 2.5090417 -4.3148729e-18)
(10.179419 2.3356854 0)
(10.799635 2.1253071 3.0485765e-18)
(11.140087 1.7448312 2.6808067e-18)
(11.411561 1.3369265 -2.3267569e-20)
(11.506421 0.9678233 -4.332173e-18)
(11.597106 0.51922425 0)
(11.558004 0.23289457 -1.8683367e-18)
(7.661728 2.3451381 -5.4705872e-18)
(9.15535 2.752472 4.3144545e-18)
(10.127414 2.5462801 0)
(10.795815 2.3051279 0)
(11.186701 1.9079526 0)
(11.493464 1.4750261 -4.7010291e-18)
(11.595349 1.0927516 2.5475818e-20)
(11.714547 0.58904012 0)
(11.675013 0.26363697 0)
(11.835078 0.28669977 0)
(11.836515 0.59196427 0)
(11.727121 1.0734302 -1.0410761e-19)
(11.607019 1.4838558 2.4531741e-18)
(11.301485 1.939609 0)
(10.917403 2.3689154 -3.7521549e-19)
(10.229385 2.6471285 -2.7066816e-20)
(9.2176604 2.9013205 -3.5784789e-18)
(7.6001692 2.6849403 1.019225e-17)
(11.987084 0.29527795 -8.9487397e-19)
(11.963397 0.64302848 -1.2127278e-19)
(11.849376 1.1907858 1.0708924e-18)
(11.718175 1.6107964 -3.0781207e-21)
(11.388651 2.0949243 -1.1217753e-18)
(10.956317 2.5522814 1.4555564e-18)
(10.240459 2.8779757 -4.4564436e-19)
(9.2014318 3.2013725 4.6538185e-18)
(7.6947902 3.1448727 -5.1859865e-18)
(12.143256 0.29835265 1.7928007e-18)
(12.10644 0.6419954 0)
(11.990361 1.1649233 2.092194e-18)
(11.846409 1.6138449 -1.1389012e-18)
(11.533925 2.1145136 1.1353123e-18)
(11.125419 2.6000201 -2.7572671e-18)
(10.430066 2.9592295 -2.1628372e-18)
(9.4237554 3.3207241 1.0464585e-18)
(8.0128325 3.333767 6.6301112e-20)
(12.309243 0.3008171 -8.9842699e-19)
(12.247893 0.69697319 -1.2014528e-19)
(12.143055 1.2814294 -9.2124785e-19)
(11.986291 1.7479526 1.2999319e-18)
(11.655547 2.2826631 4.8018244e-19)
(11.198114 2.7983152 1.4826954e-18)
(10.483526 3.2009428 1.7468407e-18)
(9.4604319 3.6084238 5.4609522e-19)
(8.0330222 3.7438833 -6.2521774e-19)
(12.485223 0.30539898 2.1791085e-19)
(12.411749 0.70234121 -2.3488316e-19)
(12.296604 1.2583003 -1.3047883e-19)
(12.132579 1.738313 4.2414595e-19)
(11.822532 2.28676 -4.8480765e-19)
(11.396084 2.8280894 -5.4523611e-19)
(10.704628 3.2641126 -4.5031762e-19)
(9.7025389 3.7059597 5.0847941e-19)
(8.3162818 3.875072 -6.8970395e-19)
(12.670329 0.31294096 -2.2039067e-19)
(12.567641 0.75643517 2.3770723e-19)
(12.461265 1.3636255 -1.2961376e-19)
(12.292822 1.8774574 -1.6082026e-21)
(11.967924 2.45947 -1.5776879e-19)
(11.493462 3.0336482 3.7081165e-19)
(10.782771 3.5111693 -4.5103168e-19)
(9.7638812 3.990829 5.1052919e-19)
(8.3786112 4.2326555 0)
(12.863332 0.32277453 -2.122671e-19)
(12.755227 0.73876502 -1.1722586e-19)
(12.636709 1.3411106 -1.2518213e-19)
(12.454941 1.852286 -1.4319986e-19)
(12.150409 2.4467379 -1.5811279e-19)
(11.70664 3.0452629 3.7779068e-19)
(11.015952 3.5541583 -8.7390521e-19)
(10.017957 4.0627982 1.0646363e-18)
(8.6803322 4.3220102 -6.3876505e-19)
(13.062947 0.33238486 6.3259721e-19)
(12.921444 0.78679713 4.5514057e-19)
(12.821194 1.4275414 6.2595292e-19)
(12.636991 1.9935548 6.9113066e-19)
(12.321146 2.6197773 4.8161282e-19)
(11.833572 3.2555403 -1.7898577e-19)
(11.125257 3.8031021 -4.5084169e-19)
(10.11157 4.3440437 -4.10528e-20)
(8.768431 4.647358 -6.8002153e-19)
(13.26838 0.33820058 -1.2438141e-18)
(13.11443 0.76749942 -4.6081578e-19)
(13.011705 1.3976099 -1.6136793e-18)
(12.813121 1.9502067 -4.2353358e-19)
(12.514462 2.5882197 1.0784145e-18)
(12.061056 3.243883 5.5216316e-19)
(11.374911 3.8217746 -2.5804697e-18)
(10.382475 4.3916821 5.1326338e-19)
(9.064934 4.7106472 1.3581751e-18)
(9.1701384 5.0153176 -1.3563377e-18)
(10.505212 4.670262 5.5594034e-19)
(11.517379 4.0701771 3.8640451e-18)
(12.225262 3.4540305 -5.4800963e-19)
(12.716925 2.7556934 2.7712409e-19)
(13.018879 2.0894448 8.0491676e-19)
(13.210692 1.4763014 1.1207092e-18)
(13.297338 0.82697644 -5.5649246e-20)
(13.480103 0.33869192 1.6871093e-18)
(9.4643817 5.0557228 5.386021e-18)
(10.791009 4.6952163 5.1168182e-19)
(11.782353 4.0623642 -5.5568004e-18)
(12.462165 3.4173716 -1.7463958e-19)
(12.918022 2.7029573 -1.0882041e-18)
(13.202994 2.0276021 -9.6218783e-19)
(13.419041 1.4342636 -2.0264542e-18)
(13.499452 0.81126381 0)
(13.698564 0.33449685 -8.1443649e-19)
(9.5888201 5.3469493 -6.9133795e-18)
(10.941761 4.9720209 5.2410026e-18)
(11.95911 4.3077752 3.0047836e-18)
(12.665517 3.6207917 -1.7252321e-19)
(13.153216 2.8586877 2.38363e-18)
(13.433141 2.1582516 3.4852093e-21)
(13.621581 1.4998544 3.0109406e-19)
(13.691712 0.86814132 1.595643e-18)
(13.922736 0.32647976 1.5363319e-18)
(9.8823893 5.3656363 -1.3769016e-18)
(11.241289 4.9742454 9.3317681e-19)
(12.235478 4.2705242 -4.3874168e-19)
(12.907713 3.5583471 0)
(13.357908 2.7823497 -2.419253e-18)
(13.62064 2.0758088 0)
(13.847687 1.4496537 1.7790088e-18)
(13.906087 0.83997394 -3.288905e-18)
(14.149983 0.31552188 -5.8932853e-20)
(10.029436 5.6487542 -6.5908526e-19)
(11.422671 5.249943 -4.208915e-18)
(12.449286 4.5079748 4.3392632e-19)
(13.149525 3.7488258 0)
(13.624467 2.9183998 -2.4322406e-18)
(13.869234 2.1898067 2.0147104e-18)
(14.045617 1.4884821 1.1534274e-19)
(14.098488 0.86017498 3.3211987e-18)
(14.376481 0.30230863 -1.5140628e-18)
(10.327589 5.6441268 -6.2159501e-18)
(11.736173 5.2265549 -3.5816676e-18)
(12.733701 4.4368477 -3.2397439e-20)
(13.393654 3.657305 -3.4695944e-19)
(13.827935 2.8169548 -4.8331455e-20)
(14.063182 2.0896527 -4.0061109e-18)
(14.291939 1.4292358 1.1264647e-19)
(14.324606 0.83172373 -1.6523041e-18)
(14.599632 0.28695668 0)
(10.505076 5.9252824 4.2786999e-18)
(11.95265 5.4993994 5.2323054e-18)
(12.987006 4.6600662 -3.2793104e-20)
(13.67343 3.8267245 -3.3963281e-19)
(14.120162 2.9279884 2.1398212e-18)
(14.320992 2.1771369 2.1215672e-18)
(14.483352 1.449528 1.0808741e-19)
(14.514404 0.83432691 -9.9041526e-20)
(14.819054 0.27048 0)
(10.81268 5.8938329 0)
(12.282092 5.4447909 -4.8469571e-19)
(13.276416 4.5503663 4.1325369e-19)
(13.914794 3.7027803 -4.8340411e-18)
(14.318586 2.797107 -1.3874152e-19)
(14.520216 2.0548836 3.6104457e-18)
(14.733888 1.3699756 -3.1943698e-18)
(14.740694 0.79536176 3.0091092e-18)
(15.033595 0.25364011 2.6450249e-18)
(11.034635 6.1781575 1.0347808e-17)
(12.533342 5.7102821 8.7969378e-18)
(13.573735 4.7566126 -4.0400022e-19)
(14.230315 3.8431389 5.0966998e-18)
(14.628997 2.8758613 -1.3055752e-19)
(14.780663 2.1198046 -3.6741639e-18)
(14.920721 1.3657716 3.4540388e-18)
(14.923981 0.79554383 -3.1447883e-18)
(15.243637 0.23419029 -1.1988894e-19)
(15.445412 0.20872555 -2.5426432e-18)
(15.144772 0.75040797 2.7514764e-18)
(15.162168 1.2622083 0)
(14.982002 1.971784 -2.1816386e-19)
(14.824311 2.7136047 4.0042009e-18)
(14.470791 3.6753473 4.328667e-18)
(13.866553 4.5885548 0)
(12.899536 5.6131573 -4.1542678e-19)
(11.38302 6.1034169 -1.0111019e-17)
(15.629603 0.1774724 0)
(15.309215 0.71360204 -2.8465698e-18)
(15.342209 1.2310569 0)
(15.246547 1.9910597 -2.1122431e-19)
(15.160241 2.7348859 -7.2614322e-18)
(14.840644 3.7578634 -4.7239298e-18)
(14.264824 4.7604585 5.3365229e-18)
(13.253664 5.8682634 -6.8199872e-18)
(11.748368 6.4382875 8.2865214e-18)
(15.798929 0.14021143 0)
(15.511455 0.64427652 0)
(15.572597 1.0938698 -2.859408e-18)
(15.44178 1.8159024 0)
(15.350849 2.5329057 3.7288095e-18)
(15.095932 3.5405768 -3.9967457e-18)
(14.561721 4.5160216 -4.8502072e-18)
(13.682314 5.7179514 -3.7900233e-19)
(12.173097 6.2815559 -1.2041519e-18)
(15.948879 0.096770523 0)
(15.658911 0.6237967 0)
(15.738777 1.0492124 2.9187604e-18)
(15.691518 1.8045101 2.8732598e-18)
(15.67136 2.5097179 3.3862881e-18)
(15.463966 3.5644829 4.3559002e-18)
(14.992901 4.6282945 0)
(14.071857 5.9035725 5.8351041e-18)
(12.646179 6.5889696 -9.6641781e-18)
(16.077749 0.047560848 3.5772818e-20)
(15.848136 0.56529582 -3.8970529e-20)
(15.937786 0.89389214 0)
(15.864504 1.6021647 -1.6696094e-19)
(15.837708 2.2729256 -6.9537262e-18)
(15.704079 3.3000708 2.3670612e-19)
(15.281815 4.3278314 4.3501394e-18)
(14.493318 5.6990359 -6.4621044e-18)
(13.118834 6.3833469 9.0288845e-18)
(16.185647 -0.00764746 -3.4877019e-20)
(15.980925 0.56710049 3.8054321e-20)
(16.073467 0.8417874 0)
(16.089783 1.5605116 -3.2297368e-18)
(16.130478 2.2141815 3.761038e-18)
(16.050642 3.2695692 -2.2754658e-19)
(15.709322 4.3662039 -4.499357e-18)
(14.885265 5.7991044 0)
(13.725396 6.5901025 -8.9260913e-18)
(16.27134 -0.066408177 3.4100123e-20)
(16.151078 0.49913057 2.3446508e-18)
(16.229236 0.69277014 -8.1797068e-20)
(16.224266 1.3389573 2.7198575e-18)
(16.260973 1.9492071 3.2548489e-18)
(16.255601 2.9609076 0)
(15.992152 4.0125078 0)
(15.265913 5.5314363 -5.0455072e-18)
(14.29958 6.3275205 0)
(16.332266 -0.11963172 0)
(16.243783 0.45305923 -2.4310707e-18)
(16.324627 0.63472408 0)
(16.417401 1.2790381 -3.0498821e-18)
(16.512344 1.8626404 -2.9463344e-18)
(16.558515 2.8799263 3.1876554e-18)
(16.401652 3.9836358 0)
(15.594909 5.535444 5.5738224e-18)
(15.042362 6.4054283 -5.889032e-18)
(16.364247 -0.16601224 0)
(16.367487 0.34159298 0)
(16.442319 0.47000191 -7.8124218e-20)
(16.511751 1.0315419 -8.1730478e-20)
(16.610965 1.5260418 1.8902871e-19)
(16.749106 2.4289779 -3.2915978e-18)
(16.754119 3.4655228 0)
(15.956632 5.077573 0)
(15.663086 6.0332036 5.8089262e-18)
(16.360022 -0.21815652 -6.3778867e-20)
(16.416668 0.28265906 3.5989036e-22)
(16.495224 0.41583873 2.3891873e-18)
(16.673149 0.99161368 0)
(16.795413 1.540671 0)
(16.923032 2.5081799 -1.5549101e-19)
(17.070286 3.6402342 -2.2700632e-18)
(16.017935 5.2344534 1.0831599e-19)
(16.182847 6.0518054 0)
(16.327701 -0.25271605 -6.0404066e-20)
(16.515042 0.19977831 1.0069876e-21)
(16.598986 0.33179875 -2.1617761e-18)
(16.778796 0.92201926 0)
(16.90408 1.4892041 0)
(17.129697 2.4905997 1.2749087e-19)
(17.299008 3.7444198 5.6963647e-18)
(16.067246 5.4639931 -9.0432399e-20)
(15.434393 5.962567 5.0656377e-18)
(16.270343 -0.28542039 0)
(16.546541 0.11743759 3.8829529e-18)
(16.624208 0.27328415 0)
(16.940114 0.84595482 1.2349879e-19)
(17.117572 1.4631297 -1.3483563e-19)
(17.314677 2.5195843 -1.0272991e-19)
(17.657023 3.9431872 -5.8829518e-18)
(15.824955 5.6184591 7.4143288e-20)
(13.700207 6.0439841 -4.7593824e-18)
(16.193103 -0.31015983 3.5916686e-18)
(16.61676 0.018461353 -3.7014989e-18)
(16.705418 0.17355684 3.8480796e-18)
(17.057865 0.73751513 3.5997426e-18)
(17.243189 1.3824416 -3.6055339e-18)
(17.555379 2.4778891 3.1121348e-18)
(17.76351 3.9991796 2.5958285e-18)
(15.526585 5.7838237 4.6913813e-18)
(11.130664 7.1186303 0)
(16.099254 -0.32618068 -7.1248236e-18)
(16.635486 -0.076115048 3.5043127e-18)
(16.71077 0.10233332 -3.7225154e-18)
(17.205956 0.62457559 -2.0946719e-19)
(17.465008 1.3223332 3.4561968e-18)
(17.733959 2.4718929 -5.8120435e-19)
(17.959284 4.2301126 0)
(14.927003 6.2409749 -4.5025612e-18)
(7.8818137 7.3168847 0)
(15.993229 -0.33458013 6.9725604e-18)
(16.683943 -0.17173615 -3.3451088e-18)
(16.773619 -0.0083550951 3.5904081e-18)
(17.309521 0.48323145 -3.2592941e-18)
(17.572201 1.219291 -7.3855822e-20)
(17.976257 2.4254012 -2.287084e-18)
(17.906922 4.3035204 1.0399314e-19)
(13.731903 5.9759831 3.1305965e-18)
(2.0088512 2.1987968 -4.7836551e-18)
(15.87744 -0.33604717 -3.4974832e-18)
(16.675962 -0.26314443 1.0440522e-19)
(16.754397 -0.087822833 -3.4377209e-18)
(17.420225 0.34873021 7.8199338e-20)
(17.78936 1.1390436 -8.4359631e-20)
(18.109515 2.3714555 -1.3165401e-18)
(17.692094 4.3079072 3.8549643e-19)
(11.292168 5.4923614 -2.9597963e-18)
(-0.089807976 2.0795251 4.5359758e-18)
(15.755305 -0.33186568 -5.0140305e-20)
(16.690391 -0.34031323 5.3561063e-20)
(16.784972 -0.21414624 3.2404322e-18)
(17.501557 0.19614264 2.5017531e-18)
(17.87051 1.0106644 -1.9144045e-18)
(18.257711 2.2686983 2.0561454e-18)
(17.280924 4.3668486 -1.4539359e-18)
(9.0124631 5.1106117 1.9215303e-18)
(-0.36275732 2.9771838 -3.9255314e-18)
(15.62979 -0.32438865 3.5390059e-18)
(16.65019 -0.41521443 -4.7125778e-20)
(16.735898 -0.29886856 5.3097014e-20)
(17.567506 0.04177827 -2.4251929e-18)
(18.059436 0.90308044 1.8173848e-18)
(18.293351 2.1935579 -7.1521064e-19)
(16.47452 4.3363847 9.1574113e-19)
(6.5031669 3.9783681 -1.8376001e-18)
(-1.2485654 3.1802438 3.7402696e-18)
(-1.7182968 3.1848821 5.9090768e-18)
(4.1478643 2.9276749 2.5314703e-20)
(15.857287 4.399632 1.2540758e-20)
(18.278718 2.0684198 -1.0710181e-20)
(18.083829 0.76750232 0)
(17.61918 -0.10669086 -4.8696843e-20)
(16.736886 -0.42014616 -6.607472e-18)
(16.61968 -0.48111666 -3.2949527e-18)
(15.496646 -0.31499427 -7.1271743e-18)
(-1.9982607 3.1120399 -5.7110248e-18)
(2.4477813 1.8506941 0)
(15.249681 4.2961905 0)
(18.372086 1.8376769 1.0485932e-18)
(18.208675 0.54643145 0)
(17.635509 -0.31432376 4.7684131e-18)
(16.656638 -0.52325076 1.0103135e-17)
(16.551702 -0.54434428 3.1237255e-18)
(15.360976 -0.30237366 -3.8267541e-18)
(-2.2118836 3.0415726 -2.6678132e-20)
(1.2323996 1.5309715 2.1489727e-20)
(14.303075 4.167205 0)
(18.287445 1.7312781 -1.0253188e-18)
(18.182658 0.42149377 0)
(17.650188 -0.45755535 -4.7332949e-18)
(16.625286 -0.62934295 -6.5403247e-18)
(16.48067 -0.59912088 -7.7328572e-20)
(15.222518 -0.28682093 7.342342e-18)
(-2.3728565 2.9805789 -1.0262535e-17)
(1.2759994 2.3212608 1.1979751e-18)
(13.600383 3.9394647 1.257827e-20)
(18.282265 1.4732772 0)
(18.258242 0.19264275 2.3609864e-18)
(17.62036 -0.66079112 0)
(16.514759 -0.71674786 5.4086316e-20)
(16.373448 -0.6521093 -7.8299772e-20)
(15.081865 -0.27005959 2.6490062e-20)
(-2.5312409 3.016707 9.8789994e-18)
(1.5561586 3.4073672 -6.7392396e-19)
(12.763349 3.8754692 5.6935515e-18)
(18.111232 1.3771417 -2.8893171e-20)
(18.195799 0.065286757 -1.7550805e-19)
(17.60681 -0.79592923 0)
(16.453149 -0.81652259 6.8113868e-18)
(16.276794 -0.69850876 0)