/*--------------------------------*- C++ -*----------------------------------*\
  =========                 |
  \\      /  F ield         | OpenFOAM: The Open Source CFD Toolbox
   \\    /   O peration     | Website:  https://openfoam.org
    \\  /    A nd           | Version:  11
     \\/     M anipulation  |
\*---------------------------------------------------------------------------*/
FoamFile
{
    format      ascii;
    class       volVectorField;
    location    "3.4";
    object      U;
}
// * * * * * * * * * * * * * * * * * * * * * * * * * * * * * * * * * * * * * //

dimensions      [0 1 -1 0 0 0 0];

internalField   nonuniform List<vector> 
4455
(
(99.957824 -0.45605554 0)
(99.921032 -1.2055461 -1.8817516e-18)
(99.658756 -2.0663679 6.4623168e-18)
(99.456193 -2.6789355 2.3136121e-20)
(98.894398 -3.1389405 6.1284049e-18)
(98.40425 -3.643255 -2.3010661e-17)
(97.508938 -3.8617556 1.0212613e-17)
(96.754541 -4.5912828 0)
(95.068859 -4.9985321 -6.237648e-17)
(99.944263 -0.40639876 -1.2435492e-17)
(99.854058 -1.1436195 1.2127024e-17)
(99.668865 -1.9577451 -1.4894471e-17)
(99.364145 -2.5290617 2.4782107e-17)
(98.787552 -3.0128943 -4.7456709e-17)
(98.246947 -3.5543816 5.1823806e-17)
(97.286663 -3.9432008 -4.939909e-18)
(96.386408 -4.8146057 7.2105951e-18)
(94.442815 -5.9964124 2.7158117e-16)
(99.920366 -0.36688977 -1.3226283e-17)
(99.850532 -1.0525914 1.6664322e-17)
(99.622765 -1.8264708 1.4560927e-17)
(99.323694 -2.3080116 -1.4473423e-17)
(98.697361 -2.8369288 6.3717433e-17)
(98.15319 -3.3150802 -3.5824744e-17)
(97.123989 -3.6355638 4.6278834e-18)
(96.158455 -4.819976 -1.0255011e-16)
(94.340175 -5.2584031 -1.9224944e-16)
(99.903987 -0.33103771 -1.6151314e-19)
(99.846537 -0.93826947 -1.6439081e-18)
(99.594982 -1.6721881 3.5029366e-17)
(99.30063 -2.1376842 4.7688898e-18)
(98.631651 -2.5802783 2.6846805e-19)
(98.043293 -3.1155669 -6.9356674e-18)
(96.940944 -3.2429481 7.7030765e-17)
(95.814002 -4.6408386 2.0546197e-16)
(93.659105 -4.7168811 1.6106402e-16)
(99.894283 -0.29333044 2.5568473e-17)
(99.837346 -0.81972401 -2.855544e-17)
(99.596607 -1.5340243 3.666123e-17)
(99.272539 -1.9142402 1.7233538e-20)
(98.572673 -2.3746046 -4.4017536e-17)
(97.929238 -2.8190104 -1.3528151e-17)
(96.802688 -3.0095928 -6.0701488e-17)
(95.558999 -4.4982333 -9.6905787e-17)
(93.248437 -4.4038748 -4.7668371e-16)
(99.89125 -0.2514494 0)
(99.832169 -0.71477641 0)
(99.605475 -1.3798461 -6.3596071e-17)
(99.247864 -1.7130933 -7.3407314e-17)
(98.573091 -2.105595 0)
(97.869022 -2.5763779 -9.8699787e-17)
(96.581904 -2.5990692 -8.3340921e-18)
(95.133941 -4.1810479 -5.8275718e-18)
(92.429617 -3.8880447 5.9086008e-16)
(99.893451 -0.21096759 0)
(99.838047 -0.62398872 -1.7417049e-18)
(99.607229 -1.2058399 1.9603701e-18)
(99.260634 -1.5132864 7.1748336e-17)
(98.516652 -1.9104446 -5.2945561e-18)
(97.832349 -2.2752985 2.1068194e-16)
(96.547148 -2.3376377 0)
(94.892781 -3.9512445 0)
(91.951208 -3.3923675 2.7496359e-16)
(99.900339 -0.17615483 4.9562595e-17)
(99.84559 -0.52865184 0)
(99.615979 -1.0675271 0)
(99.248681 -1.3019582 0)
(98.565033 -1.6614859 0)
(97.781035 -1.9879512 -1.0545363e-16)
(96.33793 -1.8713309 -1.1341137e-16)
(94.478274 -3.5457075 1.6379165e-16)
(90.95682 -2.6729631 5.2274959e-18)
(99.908283 -0.14296945 -4.8804936e-17)
(99.859087 -0.44193289 -1.6929887e-18)
(99.631725 -0.91969784 -1.9012471e-18)
(99.274381 -1.1196275 4.3202601e-18)
(98.561703 -1.4361424 1.6647678e-16)
(97.820802 -1.7201371 1.8762902e-16)
(96.378029 -1.6184373 3.6236287e-16)
(94.274422 -3.1470327 -1.6084582e-16)
(90.33358 -2.043512 -4.7373166e-16)
(99.918858 -0.11748449 0)
(99.929937 -0.094763201 9.1814047e-17)
(99.941158 -0.076113064 -9.1066624e-17)
(99.95134 -0.060406446 8.77475e-17)
(99.961253 -0.04739903 -8.5767287e-17)
(99.969236 -0.037961315 1.7193285e-16)
(99.976861 -0.030379943 -1.6691864e-16)
(99.980534 -0.029017952 0)
(99.98885 -0.023869304 0)
(99.868374 -0.36858769 0)
(99.882895 -0.30431694 1.5848654e-18)
(99.894767 -0.25141082 0)
(99.906317 -0.20803108 4.5271487e-18)
(99.918088 -0.16915282 9.2845147e-17)
(99.929736 -0.13616228 -2.7773335e-16)
(99.942539 -0.10166581 1.7991507e-16)
(99.953635 -0.076831752 -2.7483278e-18)
(99.968921 -0.037436408 1.743969e-16)
(99.654779 -0.78243395 1.1418879e-16)
(99.674484 -0.66072276 -2.2545698e-16)
(99.700882 -0.54483787 2.1610278e-16)
(99.724005 -0.43951313 -6.4667495e-18)
(99.75258 -0.34722283 -1.0249998e-16)
(99.774942 -0.2618914 -3.1271886e-18)
(99.80535 -0.19665147 0)
(99.816831 -0.14332896 5.9417854e-18)
(99.835614 -0.10590128 -2.8980966e-18)
(99.2936 -0.92487448 1.1887853e-16)
(99.324023 -0.74043554 -2.4194687e-16)
(99.360844 -0.58838541 2.31116e-16)
(99.410668 -0.4464379 -1.1218593e-16)
(99.452228 -0.33538891 -7.0578462e-18)
(99.515915 -0.21673079 3.4175813e-18)
(99.565001 -0.13867725 0)
(99.64177 -0.027172908 -3.2347434e-18)
(99.705387 0.031211506 1.953095e-16)
(98.618264 -1.2131375 -1.336808e-16)
(98.654855 -0.98429812 0)
(98.730343 -0.78471305 -1.2525937e-16)
(98.808277 -0.58753549 1.2913774e-16)
(98.862534 -0.43236713 -1.1742233e-16)
(98.94357 -0.23442387 1.2129304e-16)
(98.993363 -0.14084799 0)
(99.074541 0.036307045 0)
(99.112268 0.066160958 6.9098666e-18)
(97.773084 -1.3845767 -1.6367898e-16)
(97.854572 -0.99841137 -1.5792139e-16)
(97.829343 -0.66774033 1.5181532e-16)
(97.945761 -0.2580141 1.4661902e-16)
(98.001034 -0.0068707604 -1.4134235e-16)
(98.214309 0.37443494 0)
(98.324982 0.54169955 2.6390569e-16)
(98.565729 0.8920866 -9.9878279e-20)
(98.687088 0.97052969 -4.936596e-16)
(96.224449 -1.1673836 -1.922958e-16)
(96.287093 -0.69795345 0)
(96.241649 -0.34202864 0)
(96.36421 0.10659264 5.4071973e-18)
(96.397755 0.37088561 0)
(96.553683 0.86113088 0)
(96.674632 1.1142756 0)
(96.888627 1.6349229 0)
(96.9916 1.7730524 0)
(93.869326 -2.6477297 7.5033947e-18)
(93.609571 -1.5115032 0)
(93.382034 -0.70530483 6.8860874e-18)
(93.372298 0.62956424 -1.2851577e-17)
(93.544936 1.327235 -1.9503432e-16)
(93.886104 2.583296 -1.8625481e-16)
(94.316294 3.1229946 3.5643295e-16)
(94.832549 4.285952 3.4631664e-16)
(95.368523 4.4764135 -3.2777421e-16)
(88.711548 -0.96039705 9.0987733e-16)
(87.29502 1.5176131 -5.5935743e-16)
(86.528297 3.0608013 5.4035698e-16)
(86.802731 5.7015519 -5.0621811e-16)
(87.308854 7.1867774 -7.2760897e-16)
(88.267953 9.3119755 1.3726181e-15)
(89.084125 10.235298 -8.6752176e-16)
(90.211991 12.003625 -4.1408324e-16)
(91.162866 12.379887 3.8970758e-16)
(99.981511 -0.04182876 -2.306629e-19)
(99.981259 -0.056237534 2.3738563e-16)
(99.981151 -0.066542921 1.1474135e-20)
(99.980203 -0.079518045 -2.3923528e-16)
(99.979572 -0.093661816 2.3345297e-19)
(99.980265 -0.10349074 2.3894967e-16)
(99.983677 -0.11424993 -2.4011728e-16)
(99.991844 -0.12432306 -2.3521422e-19)
(100.00725 -0.13245929 -1.2116221e-16)
(99.986892 -0.02030489 -2.5011199e-16)
(99.980519 -0.0016445306 2.5222943e-16)
(99.991981 0.015746187 -2.5225855e-16)
(99.981444 0.041637702 0)
(99.998656 0.061412168 2.5511308e-16)
(99.992591 0.10175337 5.4919829e-19)
(100.02801 0.12775537 7.907693e-19)
(100.02905 0.19353706 -2.5725989e-16)
(100.09487 0.22902136 1.298264e-16)
(99.828826 -0.072642162 2.6785718e-16)
(99.795425 -0.056958918 -2.6823561e-16)
(99.794501 -0.033682673 -2.7057643e-16)
(99.768652 0.012092965 2.7103998e-16)
(99.799637 0.053678764 -2.7401849e-16)
(99.778149 0.13196679 2.7313339e-16)
(99.841309 0.18965485 -2.7668229e-16)
(99.825962 0.3096308 -5.9870715e-19)
(99.923782 0.37407652 2.7771961e-16)
(99.758417 0.14617431 -2.8562205e-16)
(99.818464 0.24806669 -1.1243974e-18)
(99.751895 0.36293419 1.1350292e-18)
(99.819434 0.45982598 0)
(99.772685 0.57742391 -5.990295e-21)
(99.852068 0.73242083 -2.9327768e-16)
(99.825251 0.86755923 2.9809929e-16)
(99.907203 1.1168637 1.1672061e-18)
(99.93145 1.274354 1.173753e-18)
(99.191628 0.24197511 -1.2067408e-18)
(99.086361 0.40264755 -3.1238996e-16)
(99.147328 0.56583435 -1.5933892e-18)
(99.02263 0.77206184 3.1592381e-16)
(99.140806 0.95779558 3.1943946e-16)
(99.042751 1.2427551 -3.2106628e-16)
(99.224958 1.4387462 -1.2516582e-18)
(99.159868 1.7779855 -1.2587397e-18)
(99.404689 1.9570169 -1.2659776e-18)
(98.930987 1.270172 3.3801164e-16)
(98.833385 1.6482783 0)
(99.017414 1.9119257 0)
(98.88513 2.2766591 3.4416642e-16)
(99.085653 2.53744 -3.4879276e-16)
(98.992606 2.9758668 -3.5159147e-16)
(99.227558 3.246088 7.0452214e-16)
(99.192118 3.7847651 1.6722883e-19)
(99.464829 4.0481714 -7.1341815e-16)
(97.211512 2.2282558 -1.4907227e-18)
(97.160757 2.8390657 0)
(97.26567 3.1570025 1.5086434e-18)
(97.15354 3.7334028 3.8640907e-16)
(97.339782 4.0797705 -3.8878377e-16)
(97.351303 4.6647972 3.913103e-16)
(97.658186 4.9883737 -3.92168e-16)
(97.760529 5.442184 -1.5482666e-18)
(98.135454 5.7073185 3.9712058e-16)
(95.89695 5.3503194 -4.2287982e-16)
(96.312023 6.0777978 4.2850127e-16)
(96.714934 6.7178396 -4.3202652e-16)
(97.159988 7.3271037 4.2979901e-16)
(97.608631 7.8177935 -4.2960293e-16)
(98.135625 8.3177948 -6.9805057e-19)
(98.647546 8.7634638 4.3604208e-16)
(99.195155 9.3995888 3.4143058e-18)
(99.651131 9.7291446 2.1860202e-16)
(92.395826 13.583016 0)
(92.995139 14.207631 -4.8327953e-16)
(94.132949 14.998787 3.4471254e-18)
(94.871867 15.215084 5.387595e-18)
(95.866997 15.705736 9.6662002e-16)
(96.305498 15.810541 -4.8328378e-16)
(97.240897 15.752489 -4.8272841e-16)
(97.88829 15.442887 4.8457442e-16)
(99.025737 14.845878 2.437314e-16)
(99.39701 13.796399 -2.8478935e-16)
(100.1849 12.55965 0)
(100.54092 11.562153 2.8543456e-16)
(100.84889 10.659653 -2.8549641e-16)
(100.55687 9.4318789 0)
(100.4393 7.9895254 0)
(99.885538 6.6586435 0)
(99.482098 5.9180582 -3.0071097e-16)
(98.645174 5.6422547 3.007068e-16)
(99.993393 10.448021 -2.4899786e-16)
(100.33059 10.953433 0)
(100.58371 11.28258 0)
(100.82545 11.612623 0)
(101.08601 11.788332 0)
(101.18545 11.958912 0)
(101.14234 12.016802 0)
(101.05675 12.149193 2.5041584e-16)
(100.81038 12.155894 -5.0245691e-16)
(98.241098 6.025282 1.110711e-19)
(98.67616 6.3530919 -4.3670364e-16)
(98.808997 6.7284152 0)
(99.218902 7.0789214 -2.1877412e-16)
(99.319322 7.3884689 2.1874285e-16)
(99.753967 7.697307 0)
(99.829734 8.0069505 0)
(100.21461 8.3259591 0)
(100.19302 8.6502435 0)
(99.465994 4.6378549 3.8395633e-16)
(99.752114 4.960246 0)
(99.741295 5.5346647 1.9213444e-16)
(100.03563 5.8606987 -3.8433161e-16)
(100.05082 6.4410329 1.9219326e-16)
(100.37594 6.7538551 0)
(100.38915 7.3488339 0)
(100.77719 7.6848302 0)
(100.73901 8.2676087 1.9240737e-16)
(99.36751 2.3205484 0)
(99.657111 2.5196561 3.4441037e-16)
(99.638336 2.9137016 -5.1661699e-16)
(99.978676 3.1240819 1.7224105e-16)
(99.979097 3.5739383 1.7227444e-16)
(100.38547 3.8045518 -1.5831626e-20)
(100.3968 4.3084839 -3.4459539e-16)
(100.84245 4.5518229 3.4457003e-16)
(100.88254 5.11568 -1.7227221e-16)
(100.05319 1.5788131 0)
(100.07969 1.7742286 1.5569634e-16)
(100.25096 2.1185994 -1.5569633e-16)
(100.30673 2.3164055 0)
(100.4962 2.6738968 -3.1141389e-16)
(100.57151 2.9038025 3.1137172e-16)
(100.84613 3.2937773 1.5557461e-16)
(100.93545 3.5625528 -3.1104936e-16)
(101.26479 4.0097939 1.5547509e-16)
(99.923409 0.53253321 0)
(100.06835 0.61304418 0)
(100.08809 0.77754597 0)
(100.27148 0.95877136 -1.4280199e-16)
(100.38521 1.0637942 2.8544557e-16)
(100.51863 1.3419321 -2.8530319e-16)
(100.79111 1.4386446 1.4259126e-16)
(100.86524 1.768445 -1.4230283e-16)
(101.22303 1.870451 2.8449663e-16)
(100.10632 0.33310934 -2.6340705e-16)
(100.20899 0.37624779 2.1710578e-20)
(100.23814 0.51691561 1.3172236e-16)
(100.37865 0.55775609 -1.3164473e-16)
(100.43715 0.73708821 1.3165926e-16)
(100.62479 0.77138971 0)
(100.72188 0.98929494 1.3141041e-16)
(100.97155 1.0106418 -2.6274513e-16)
(101.1078 1.2645796 1.3132747e-16)
(100.02068 -0.13068986 -2.997248e-22)
(100.05542 -0.14232624 1.2262867e-16)
(100.09304 -0.11781932 1.2269344e-16)
(100.17653 -0.12516927 -1.2269356e-16)
(100.23451 -0.070859571 0)
(100.35724 -0.072838542 0)
(100.43071 -0.012117492 -1.2255545e-16)
(100.59625 0.0060762715 2.4503218e-16)
(100.70337 0.064538177 -1.2245308e-16)
(100.94433 0.079646421 0)
(101.09765 0.17680822 -1.2205173e-16)
(101.4345 0.21683614 2.1970075e-19)
(101.64087 0.31812587 2.5855528e-19)
(102.07511 0.38148038 2.9722261e-19)
(102.35135 0.50538013 1.2129548e-16)
(102.86484 0.58083461 1.2055583e-16)
(103.25899 0.70226646 -1.2055584e-16)
(103.85425 0.80493129 0)
(101.43706 1.2935769 0)
(101.63398 1.5910117 0)
(102.00457 1.568863 -1.3043396e-16)
(102.32372 1.944093 3.239042e-19)
(102.68638 1.9529057 3.687203e-19)
(103.18928 2.2756006 1.298272e-16)
(103.54516 2.368461 1.2894275e-16)
(104.22493 2.6570556 -1.2894272e-16)
(104.5959 2.8567254 0)
(101.33868 2.2740778 -1.4226103e-16)
(101.75188 2.3757624 0)
(101.89682 2.8338592 0)
(102.42411 2.9586821 -1.4137745e-16)
(102.59002 3.4771975 2.8251659e-16)
(103.1967 3.6518938 -3.6261503e-19)
(103.40346 4.2180917 -4.1844817e-19)
(104.12443 4.4597236 -1.4034362e-16)
(104.37166 5.017814 0)
(101.40082 4.3022606 -1.5520593e-16)
(101.8315 4.6949807 1.5520589e-16)
(101.91393 5.1639644 0)
(102.46711 5.4826771 0)
(102.57307 6.0047093 1.5426161e-16)
(103.17249 6.4559564 -1.5426159e-16)
(103.37544 6.8613888 1.5349528e-16)
(104.00172 7.4804278 -7.698249e-17)
(104.3201 7.8308039 -7.6516653e-17)
(101.29483 5.3483409 -1.7218181e-16)
(101.43401 5.9798278 1.721785e-16)
(101.79781 6.2443989 0)
(101.95793 6.9222676 0)
(102.43295 7.2401092 0)
(102.47237 7.9555564 0)
(103.10633 8.34972 0)
(103.08435 9.1330318 0)
(103.77548 9.5444396 0)
(101.21158 8.6524872 -1.9240629e-16)
(101.11255 9.2369105 1.9249187e-16)
(101.59089 9.6431893 -1.9246679e-16)
(101.47727 10.276253 1.9267015e-16)
(101.94431 10.705428 -1.9268631e-16)
(101.83561 11.410179 0)
(102.32956 11.904469 0)
(102.17173 12.683013 0)
(102.75042 13.248986 0)
(100.50198 9.0092212 0)
(100.37664 9.3627702 -2.2149535e-16)
(100.63074 9.7616728 2.2146111e-16)
(100.40726 10.157729 0)
(100.65236 10.657378 2.2339272e-16)
(100.32572 11.136091 -2.2341133e-16)
(100.58523 11.765019 0)
(100.13947 12.357565 1.1280489e-16)
(100.44207 13.132264 -2.2590136e-16)
(100.65399 12.339248 2.5227459e-16)
(100.24133 12.43443 2.5500297e-16)
(100.11566 12.820951 -2.5502155e-16)
(99.560593 13.103653 2.5821589e-16)
(99.415452 13.656466 -5.1851724e-16)
(98.743015 14.023414 5.219824e-16)
(98.621385 14.6292 -5.2523826e-16)
(97.846383 15.162743 2.6351055e-16)
(97.670614 15.903749 0)
(98.130751 5.7327877 -3.0781523e-16)
(97.224253 6.0584797 3.0781341e-16)
(96.675156 6.7662073 0)
(95.716657 6.9733859 0)
(95.114681 7.5515163 0)
(94.256 7.3363532 0)
(93.761516 7.8677224 0)
(92.731423 7.7759634 -1.6709122e-16)
(92.123507 8.6547325 1.6728571e-16)
(90.459573 9.1828453 1.7158647e-16)
(96.705198 16.828482 0)
(99.860998 13.916428 1.1317291e-16)
(102.57488 14.148661 0)
(103.81984 10.476287 0)
(104.95803 8.5511458 0)
(105.19346 5.3067603 6.9365441e-17)
(105.42309 3.1089142 6.3578366e-17)
(104.37948 0.9413553 5.9486557e-17)
(89.611004 11.019944 -1.7161842e-16)
(96.552304 17.789411 0)
(100.25528 14.801416 0)
(103.23766 14.795241 9.6257907e-17)
(104.48023 10.894638 0)
(105.37834 8.9001669 -7.5606416e-17)
(105.50538 5.9526951 -1.3841079e-16)
(105.86631 3.3720878 -1.2680051e-16)
(105.09629 1.0648958 -1.1863127e-16)
(87.77687 11.774484 0)
(95.586435 19.013029 0)
(99.659928 15.847221 1.1411037e-16)
(103.04007 15.852997 -9.6260123e-17)
(104.69954 11.983939 0)
(106.11457 9.7149431 7.5606399e-17)
(106.44185 6.2287062 6.9034809e-17)
(106.84272 3.5763783 6.32146e-17)
(105.74477 1.2163444 5.9144705e-17)
(86.942284 13.332034 1.7738579e-16)
(95.55811 20.074879 0)
(100.124 16.769732 -2.2847583e-16)
(103.80316 16.564094 0)
(105.33617 12.462034 0)
(106.6049 10.09738 -7.4765442e-17)
(106.81185 6.9625884 -6.8226053e-17)
(107.35154 3.9950703 0)
(106.59423 1.3554008 -5.8323101e-17)
(85.085364 13.566547 -1.7738458e-16)
(94.54306 21.470352 -1.3798538e-16)
(99.591963 18.030512 1.1433401e-16)
(103.64688 17.825132 0)
(105.6239 13.693665 0)
(107.4165 11.044192 7.4765413e-17)
(107.88808 7.2307342 6.8226027e-17)
(108.4933 4.1389747 0)
(107.40034 1.5211427 5.8323094e-17)
(84.444806 14.87211 0)
(94.540353 22.577916 1.3797846e-16)
(100.12383 19.046965 -1.1449225e-16)
(104.49437 18.573322 0)
(106.4194 14.211045 0)
(108.12027 11.384604 -7.3682275e-17)
(108.32856 8.0267104 -6.7212602e-17)
(109.08143 4.6285786 0)
(108.38637 1.6733686 -5.7294003e-17)
(82.581415 15.223161 0)
(93.510195 24.138305 0)
(99.574484 20.548144 1.1449213e-16)
(104.44308 20.056758 -4.7414361e-17)
(106.74382 15.589833 -4.1615067e-17)
(108.89216 12.548019 1.1020217e-16)
(109.56809 8.3734376 1.0052087e-16)
(110.39361 4.7825923 0)
(109.34851 1.8485684 8.5642331e-17)
(82.044696 17.125376 0)
(93.565938 25.339326 -6.9572233e-17)
(100.19983 21.635404 0)
(105.39866 20.846322 4.7399855e-17)
(107.6692 16.132743 4.1598336e-17)
(109.8992 12.832942 -3.5302254e-19)
(110.09509 9.1353093 -6.628249e-17)
(111.06227 5.3014048 0)
(110.47536 2.0018911 -2.8348331e-17)
(79.969966 17.397047 -9.2167664e-17)
(92.560743 27.191007 6.9555311e-17)
(99.706166 23.556526 0)
(105.43466 22.588574 0)
(108.16186 17.782165 0)
(110.65171 14.229873 -7.191294e-17)
(111.50548 9.5847426 3.7681322e-19)
(112.54654 5.5449079 0)
(111.58538 2.1823789 0)
(113.08421 2.3552788 0)
(113.32713 6.0114415 0)
(112.18302 10.300013 -1.5950059e-18)
(111.86315 14.35817 3.7530863e-17)
(109.15787 18.147571 0)
(106.60287 23.275487 -5.9224148e-18)
(100.62271 24.517386 -5.6074742e-19)
(92.785164 28.707454 -5.7859363e-17)
(79.820293 19.878217 1.7286921e-16)
(114.49218 2.4788605 -1.3559872e-17)
(114.95189 6.1488471 -1.8500411e-18)
(113.83473 10.707995 1.6393976e-17)
(112.76889 15.702667 -6.4516043e-20)
(110.0766 19.664916 -1.7440384e-17)
(106.85922 25.028712 2.2578209e-17)
(100.56623 26.663633 -7.1729896e-18)
(91.984985 31.499245 7.5173491e-17)
(78.455142 25.292652 -8.8493225e-17)
(115.94269 2.5799216 2.7142964e-17)
(115.8992 6.5819029 0)
(114.68091 11.231844 3.2007252e-17)
(114.09001 15.740691 -1.7386641e-17)
(111.2955 19.956773 1.7636153e-17)
(108.39821 25.574085 -4.2724438e-17)
(102.2171 27.478606 -3.4587056e-17)
(93.688679 32.959356 1.7149548e-17)
(81.043247 28.12674 1.8812309e-18)
(117.50502 2.6825304 -1.3602858e-17)
(117.69924 6.6905349 -1.830306e-18)
(116.56255 11.80127 -1.4096309e-17)
(115.39656 17.118692 1.9861433e-17)
(112.559 21.563442 7.4458797e-18)
(108.99995 27.471064 2.2954665e-17)
(102.68498 29.839677 2.7897336e-17)
(93.851744 35.905479 9.0631336e-18)
(81.100231 32.814179 -1.0378829e-17)
(119.18879 2.7897109 3.2880239e-18)
(118.82942 7.1252824 -3.5559725e-18)
(117.57787 12.176458 -1.9889802e-18)
(116.66294 17.159612 6.456173e-18)
(114.07593 21.663481 -7.5095439e-18)
(110.82296 27.830542 -8.3939816e-18)
(104.7472 30.413676 -7.1850652e-18)
(96.013602 37.04979 8.1141318e-18)
(83.770179 34.507506 -1.2096056e-17)
(120.97134 2.897899 -3.3268958e-18)
(120.82938 7.2256668 3.5987283e-18)
(119.68549 12.749584 -1.9711829e-18)
(118.39953 18.397793 -1.123239e-20)
(115.48571 23.330954 -2.414503e-18)
(111.69191 29.775438 5.7019892e-18)
(105.57585 32.823603 -7.1566006e-18)
(96.49404 39.82936 8.1015965e-18)
(84.211677 38.547021 0)
(122.83817 2.9981941 -3.1856758e-18)
(122.11461 7.6540308 -1.7744778e-18)
(120.81823 13.080318 -1.9018764e-18)
(119.67171 18.460924 -2.1843346e-18)
(117.20384 23.226384 -2.433615e-18)
(113.64655 29.912823 5.8556703e-18)
(107.78712 33.164448 -1.3664317e-17)
(98.857473 40.603062 1.7072297e-17)
(86.95292 39.81623 -1.0407201e-17)
(124.7853 3.0836297 9.4695756e-18)
(124.30413 7.7849559 6.8269111e-18)
(123.13833 13.623014 9.472331e-18)
(121.69857 19.550544 1.0418847e-17)
(118.83566 24.874627 7.3664805e-18)
(114.78747 31.832528 -2.7275609e-18)
(108.92507 35.548734 -7.0541192e-18)
(99.732685 43.28393 -9.2663274e-19)
(87.839079 43.550932 -1.1445643e-17)
(126.81783 3.151584 -1.8531261e-17)
(125.70205 8.0986703 -6.9120387e-18)
(124.38773 13.810121 -2.4319308e-17)
(123.08793 19.510326 -6.3806295e-18)
(120.60311 24.618162 1.6387759e-17)
(116.86768 31.731443 8.4255078e-18)
(111.23556 35.615464 -3.9796709e-17)
(102.30151 43.750935 7.9612735e-18)
(90.655515 44.304507 2.2420069e-17)
(91.827364 47.531911 -2.2030005e-17)
(103.54657 46.403296 8.8115496e-18)
(112.71209 37.901582 5.9290443e-17)
(118.27999 33.606609 -8.3063084e-18)
(122.46285 26.183406 4.0856196e-18)
(125.19829 20.683331 1.1988251e-17)
(126.86479 14.395213 1.6860487e-17)
(128.07201 8.2799205 -8.2830302e-19)
(128.93363 3.1999008 2.5013749e-17)
(94.664281 47.85203 8.6220044e-17)
(106.24182 46.569876 7.7797028e-18)
(115.0993 37.661964 -8.4493976e-17)
(120.46532 33.260499 -2.618064e-18)
(124.29672 25.753698 -1.6474273e-17)
(126.87312 20.278175 -1.4364728e-17)
(128.27039 14.28137 -3.0187219e-17)
(129.55746 8.4800813 0)
(131.12959 3.2259034 -1.2035378e-17)
(96.064493 50.75718 -1.1046606e-16)
(107.8285 49.118089 7.8310985e-17)
(116.89123 39.797564 4.5601717e-17)
(122.14003 35.077809 -2.5696895e-18)
(126.34179 27.233976 3.5662021e-17)
(128.98714 21.568073 6.2416408e-20)
(130.88427 14.953046 4.6460381e-18)
(132.07902 8.7154026 2.3364931e-17)
(133.39449 3.2313112 2.2306487e-17)
(98.917757 50.775137 -2.1568783e-17)
(110.61326 48.942441 1.3082182e-17)
(119.34027 39.258082 -6.5064827e-18)
(124.39062 34.482786 0)
(128.29223 26.56876 -3.6195414e-17)
(130.8332 20.892694 0)
(132.38085 14.676596 2.6343139e-17)
(133.62475 8.7726146 -4.7976478e-17)
(135.72035 3.2150455 -1.1105659e-18)
(100.57612 53.559568 -9.9012898e-18)
(112.47662 51.283982 -6.1319136e-17)
(121.4258 41.249215 6.3440647e-18)
(126.30214 36.200522 0)
(130.48778 27.992342 -3.5933401e-17)
(133.09026 22.15884 2.9312565e-17)
(135.1297 15.192758 1.6850231e-18)
(136.29782 9.0051806 4.8006637e-17)
(138.08946 3.1730567 -2.1725314e-17)
(103.5362 53.356954 -9.4070674e-17)
(115.42395 50.84882 -5.0253272e-17)
(123.88333 40.432309 -4.1345196e-19)
(128.55708 35.363259 -5.0409165e-18)
(132.51081 27.077201 -4.5852249e-19)
(134.97063 21.296532 -5.7997704e-17)
(136.75072 14.754093 1.6307146e-18)
(137.88594 8.9625091 -2.3761257e-17)
(140.49161 3.1033909 0)
(105.64711 56.22946 6.4682679e-17)
(117.42544 52.837819 7.3904764e-17)
(126.24577 42.244034 -3.7375774e-19)
(130.66886 36.938843 -4.8862114e-18)
(134.88803 28.390831 3.1425601e-17)
(137.34017 22.409308 3.0594578e-17)
(139.51955 15.199205 1.5357388e-18)
(140.61588 9.1677431 -1.4072085e-18)
(142.90899 3.003584 0)
(108.71411 55.73218 0)
(120.68027 52.294973 -6.7416946e-18)
(128.64917 41.137144 5.7473254e-18)
(132.90133 35.856643 -6.8607003e-17)
(136.8874 27.293979 -1.9938235e-18)
(139.33717 21.405931 5.0949617e-17)
(141.18986 14.50562 -4.465804e-17)
(142.29896 9.044293 4.1414294e-17)
(145.32525 2.8684375 3.5031372e-17)
(111.46023 58.563155 1.4472172e-16)
(122.79728 53.871547 1.1556601e-16)
(131.18406 42.708308 -5.5118076e-18)
(135.20351 37.299356 7.2345155e-17)
(139.46797 28.461573 -1.8543646e-18)
(141.76425 22.375417 -5.1836977e-17)
(144.02824 14.967095 4.8280322e-17)
(145.00418 9.1508731 -4.3279294e-17)
(147.71036 2.7245112 -2.5434178e-18)
(150.258 2.4936349 -3.2621988e-17)
(146.78202 8.9380393 3.6132051e-17)
(145.66122 13.980674 0)
(143.7183 21.166218 -3.0618516e-18)
(141.46416 27.073804 5.664246e-17)
(137.40023 35.875818 6.079441e-17)
(133.65331 41.227973 0)
(126.56025 53.11732 -8.181755e-18)
(114.8745 57.519183 -1.4161743e-16)
(152.42028 2.2077966 0)
(149.47608 8.8083492 -3.7377106e-17)
(148.61029 14.246639 0)
(146.51841 21.917072 -2.9209116e-18)
(144.32083 28.041336 -1.0218681e-16)
(140.10391 37.114584 -6.6341683e-17)
(136.46835 42.311175 7.4523927e-17)
(129.21715 54.06689 -8.6252296e-17)
(119.50993 60.35144 1.0321921e-16)
(154.5715 1.8499717 0)
(151.28931 8.4307693 0)
(150.21458 13.11653 -3.6197414e-17)
(148.29148 20.355212 0)
(146.38274 26.32337 5.2101535e-17)
(142.33598 35.373365 -5.565378e-17)
(139.04315 40.478738 -6.8052475e-17)
(133.2446 52.65632 -4.9065247e-18)
(123.34359 58.770609 -2.5190833e-17)
(156.63845 1.4664723 0)
(153.912 8.141512 0)
(153.05534 13.149525 3.6948807e-17)
(151.2464 20.897946 3.6363933e-17)
(149.18458 27.009593 4.5371444e-17)
(145.1276 36.433091 6.0607417e-17)
(141.57499 41.119591 0)
(135.80663 52.740066 6.8848977e-17)
(129.84463 60.15166 -1.120107e-16)
(158.54577 1.080955 3.8585184e-19)
(155.59149 7.6502495 -4.2401723e-19)
(154.664 11.870946 0)
(152.90313 19.14933 -3.5713196e-18)
(151.48869 25.184608 -9.2163364e-17)
(147.32243 34.505114 3.202113e-18)
(144.14959 39.279909 6.338788e-17)
(138.92808 50.505412 -7.5646778e-17)
(134.04019 58.602842 7.6091858e-17)
(160.27928 0.69013324 -3.50621e-19)
(158.08002 7.3139033 3.859572e-19)
(157.25672 11.768329 0)
(155.79762 19.472017 -3.9467949e-17)
(154.02337 25.552683 4.8974716e-17)
(150.08369 35.435184 -3.0078861e-18)
(146.12659 39.677792 -6.5539491e-17)
(140.84578 49.677742 0)
(141.67007 58.362839 -7.3725224e-17)
(161.82663 0.29778993 3.1583318e-19)
(159.54898 6.6531922 2.2406122e-17)
(158.96398 10.346523 -8.9521801e-19)
(157.44163 17.451303 2.9698907e-17)
(156.35731 23.527233 3.8862781e-17)
(152.51242 33.430122 0)
(148.69081 38.192434 0)
(142.81322 46.523139 -7.0616565e-17)
(145.63436 56.430723 0)
(163.26505 -0.15080013 0)
(161.75677 6.1684257 -2.3223795e-17)
(161.01895 10.003751 0)
(160.02054 17.573504 -3.3460994e-17)
(158.82712 23.55361 -3.533483e-17)
(155.15842 34.067849 3.9279455e-17)
(150.39656 38.81358 0)
(143.13917 45.333631 7.5773894e-17)
(152.88922 54.541339 6.7073736e-18)
(164.0215 -0.38734583 0)
(162.97382 5.4214898 0)
(162.78659 8.6041733 -7.3638767e-19)
(161.65382 15.051395 -9.256222e-19)
(161.37754 20.800724 1.9550603e-18)
(158.14727 31.71312 -4.0546836e-17)
(154.32094 37.820748 0)
(143.76088 42.433416 0)
(152.61024 49.15293 -1.0000635e-17)
(165.22046 -0.94281817 -4.2062697e-19)
(164.82031 4.9243469 -7.7395688e-20)
(164.32027 8.1506082 1.8188773e-17)
(163.61083 15.693932 0)
(162.8068 21.294511 0)
(160.23377 32.220401 -2.1079425e-18)
(154.38718 39.630126 -3.8698659e-17)
(142.08747 44.499555 2.0114315e-18)
(159.10573 48.919825 0)
(166.15786 -1.0144425 -3.457318e-19)
(165.72754 4.644082 -6.740599e-20)
(165.92489 7.7552119 -1.6504362e-17)
(165.28327 14.709248 0)
(165.19082 21.442045 0)
(162.80428 33.125249 1.6336682e-18)
(156.87886 41.006813 9.6481867e-17)
(142.54398 46.425522 -1.8388606e-18)
(155.45716 45.591851 -1.0565105e-16)
(166.87744 -0.96203235 0)
(167.21421 4.0713104 2.0519271e-17)
(167.44878 7.3366529 0)
(167.10196 15.059008 9.5191271e-19)
(166.49297 21.90376 -1.0392754e-18)
(164.32248 33.800999 -1.2341365e-18)
(156.47371 43.092834 -1.0064551e-16)
(140.53183 46.500492 1.6367969e-18)
(141.34473 41.688812 1.0008243e-16)
(167.09264 -1.421379 1.1781613e-17)
(167.77761 3.6054683 -1.9623946e-17)
(168.5674 6.5740332 1.803148e-17)
(168.74802 13.990166 2.0619042e-17)
(168.69489 22.0167 -2.3500088e-17)
(165.85868 35.096782 2.1715705e-17)
(158.55581 44.43349 4.4412111e-17)
(134.66408 45.144167 1.3200387e-16)
(122.36474 45.673728 0)
(167.06729 -1.7279122 -2.1549704e-17)
(168.90892 2.6947226 1.3002504e-17)
(170.07405 6.109525 -1.7443145e-17)
(170.55702 14.14498 -5.3758363e-18)
(170.08771 22.335396 2.2399501e-17)
(167.26227 35.646873 -7.9901445e-18)
(158.92315 46.133523 0)
(128.69412 45.957666 -1.2682411e-16)
(91.788619 59.837656 0)
(166.91376 -2.029155 1.7724246e-17)
(169.25939 2.0767911 -1.2453691e-17)
(170.59479 5.0352772 1.0063479e-17)
(172.21454 12.867235 -1.4394111e-17)
(172.49399 22.139061 -3.0334925e-19)
(169.12105 36.970097 -1.2609604e-17)
(157.61424 49.482801 2.399816e-17)
(118.89191 46.020766 9.06659e-17)
(57.935614 42.533725 7.1084117e-17)
(166.54943 -2.3185823 -8.1465705e-18)
(170.10348 0.88085492 2.4938142e-19)
(172.26486 4.5427772 -9.5519836e-18)
(174.05388 12.477054 1.4365996e-19)
(174.11925 22.138542 -1.5497499e-19)
(170.34916 37.706456 4.0359851e-18)
(154.40351 49.953499 -4.5398538e-17)
(98.496155 36.145964 -8.5465575e-17)
(-2.3828491 -10.573702 -6.7408446e-17)
(165.93208 -2.5729618 -9.2267888e-20)
(170.23012 0.14240111 9.947866e-20)
(172.35918 3.1792362 3.38206e-18)
(175.58073 10.878154 -1.4086284e-18)
(176.56062 21.838864 6.3788978e-18)
(172.20056 38.48617 -1.7245378e-17)
(148.72456 51.861247 4.0811595e-17)
(70.754203 28.318154 6.3433508e-17)
(-16.174973 -13.56762 8.1288038e-17)
(165.07574 -2.8085265 5.8475292e-18)
(170.73527 -1.3405846 -4.3697777e-20)
(173.55557 2.4983789 -2.342273e-18)
(177.17768 10.368495 1.3660035e-18)
(177.97642 21.4718 -5.7684529e-18)
(172.45076 39.019119 1.2446381e-17)
(138.21668 51.320116 -1.9892164e-17)
(33.237234 7.3065743 -6.0178603e-17)
(-19.507251 -9.4001218 -7.7474899e-17)
(-21.357492 -10.301347 -1.4132512e-16)
(10.976793 -4.9282585 -1.9061093e-19)
(127.70136 52.607315 4.9529974e-20)
(173.02613 39.019795 -4.1979371e-20)
(179.85027 21.039876 0)
(178.48839 8.5893126 6.7216997e-20)
(173.6537 1.1221654 1.8715338e-19)
(170.5369 -2.0812636 -1.7908277e-18)
(163.98873 -3.0249504 -1.1723972e-17)
(-21.750138 -9.4347241 1.358279e-16)
(-2.751271 -9.9947116 0)
(117.55105 51.674508 0)
(173.07365 38.520284 9.1181729e-17)
(181.1184 19.341056 0)
(179.49299 7.2988142 -2.6977639e-17)
(174.16585 -0.1265476 -7.3142479e-18)
(170.41875 -3.5892992 1.7220917e-18)
(162.69662 -3.2123775 -6.6677825e-18)
(-21.355708 -9.5278392 2.8908076e-19)
(-6.308504 -4.7798152 -2.3325405e-19)
(105.86349 51.09709 0)
(172.68957 38.051305 -8.9227485e-17)
(182.64204 18.687311 0)
(180.44042 5.286476 2.6624807e-17)
(174.18799 -1.5220832 5.9247911e-18)
(169.72842 -4.3051422 -6.9391359e-21)
(161.21439 -3.3751318 1.2396046e-17)
(-21.086942 -8.3211267 2.6836455e-16)
(-2.3806247 7.3350306 7.8762599e-17)
(97.287719 49.595739 -4.5068054e-19)
(172.00795 37.313918 0)
(183.60614 16.667985 -7.1196478e-17)
(181.04996 3.8425525 0)
(174.12813 -2.9658875 -3.7737692e-20)
(169.25324 -5.7298539 2.8919257e-21)
(159.56193 -3.5164163 2.8511607e-20)
(-19.477664 -6.4672494 -2.5855915e-16)
(0.55732317 17.309891 -2.0396821e-17)
(87.805215 49.458006 -1.6766004e-17)
(170.87239 36.806037 -4.1685633e-19)
(184.65107 15.683389 -9.7927172e-18)
(181.93511 1.7145763 0)
(174.02621 -4.3410751 -1.2880451e-17)
(168.02365 -6.5546151 0)
(157.75547 -3.6189352 0)
(-17.816386 -3.728146 4.2824882e-19)
(2.0692058 24.668176 -5.4319675e-17)
(81.240003 48.320516 1.634816e-17)
(169.57886 35.616904 1.5292668e-16)
(185.10376 13.355667 7.8214961e-17)
(182.15081 0.16157946 4.7105754e-17)