/*--------------------------------*- C++ -*----------------------------------*\
  =========                 |
  \\      /  F ield         | OpenFOAM: The Open Source CFD Toolbox
   \\    /   O peration     | Website:  https://openfoam.org
    \\  /    A nd           | Version:  11
     \\/     M anipulation  |
\*---------------------------------------------------------------------------*/
FoamFile
{
    format      ascii;
    class       volScalarField;
    location    "18";
    object      p;
}
// * * * * * * * * * * * * * * * * * * * * * * * * * * * * * * * * * * * * * //

dimensions      [0 2 -2 0 0 0 0];

internalField   nonuniform List<scalar> 
4455
(
149.69246
149.81782
150.02511
150.33647
150.75091
151.34126
152.04575
153.30154
153.80945
149.40524
149.56162
149.8089
150.15364
150.61161
151.23998
152.07167
153.36073
154.38867
149.06909
149.27102
149.56079
149.94022
150.42734
151.09675
151.97336
153.37135
154.55477
148.69211
148.95142
149.28318
149.69534
150.20442
150.92235
151.86046
153.36582
154.80102
148.28793
148.60712
148.9794
149.41923
149.95245
150.71358
151.73231
153.34837
155.13793
147.86743
148.24414
148.65379
149.11511
149.67753
150.48158
151.57377
153.31489
155.43204
147.43855
147.86952
148.31071
148.78958
149.37561
150.21919
151.38325
153.25479
155.74012
147.01631
147.48597
147.95551
148.44865
149.0554
149.93388
151.15577
153.1574
155.99441
146.60865
147.10147
147.5916
148.09786
148.72058
149.63166
150.90825
153.02858
156.2115
146.22077
145.86086
145.53442
145.24589
144.99752
144.78985
144.6246
144.50351
144.43168
146.724
146.35557
146.00543
145.67619
145.37236
145.09809
144.8561
144.64776
144.47101
147.22146
146.84761
146.48067
146.12539
145.78439
145.46124
145.15799
144.87763
144.61902
147.73153
147.35056
146.97013
146.59354
146.22271
145.8602
145.50665
145.16464
144.829
148.36368
147.9805
147.59283
147.20168
146.8075
146.41523
146.02891
145.65555
145.2844
149.30088
148.9278
148.53773
148.13283
147.70697
147.26892
146.82224
146.37873
145.92695
150.63081
150.30058
149.93713
149.53741
149.08892
148.61193
148.11905
147.63022
147.14101
152.86363
152.56643
152.16207
151.67348
151.10296
150.48678
149.84231
149.17784
148.48723
156.3934
156.17134
155.49852
154.59297
153.55915
152.4495
151.29778
150.15159
148.99734
144.42432
144.39808
144.34066
144.26647
144.17166
144.06352
143.93001
143.7811
143.6032
144.36259
144.26157
144.13926
143.99547
143.82906
143.64136
143.43113
143.19898
142.94287
144.44996
144.31436
144.16838
144.00819
143.83074
143.63474
143.41891
143.18296
142.92594
144.58608
144.40642
144.22772
144.03797
143.83013
143.60182
143.35169
143.07992
142.78623
145.00479
144.80604
144.61786
144.42115
144.2049
143.96622
143.70447
143.42091
143.11708
145.55501
145.30105
145.07569
144.84321
144.58816
144.30655
143.99832
143.66767
143.32166
146.72975
146.43135
146.15867
145.87088
145.55385
145.2081
144.83958
144.45509
144.06461
147.8601
147.29643
146.7216
146.1328
145.53141
144.91958
144.3059
143.70089
143.13088
147.96692
147.03673
146.11572
145.22202
144.35812
143.52029
142.72219
141.96984
141.30463
140.85323
140.42671
140.27937
140.48287
141.01016
141.73165
142.54732
143.41402
144.31694
142.645
142.22446
141.85997
141.5701
141.3613
141.23948
141.20545
141.27873
141.42856
143.69538
143.35068
143.01759
142.70482
142.41738
142.15888
141.93074
141.73442
141.57052
142.9734
142.63048
142.28227
141.93167
141.58067
141.23134
140.88497
140.54364
140.20835
142.80309
142.48393
142.15216
141.80892
141.45401
141.0882
140.71095
140.32325
139.92463
142.47594
142.15011
141.80387
141.43812
141.05333
140.64979
140.227
139.78495
139.32266
142.6509
142.3578
142.04288
141.70569
141.34559
140.96181
140.55318
140.11894
139.6576
142.6644
142.36156
142.0346
141.68339
141.3087
140.9076
140.47985
140.02158
139.53305
143.38
143.11538
142.83765
142.54462
142.23421
141.89416
141.52384
141.11682
140.67384
140.19172
139.67167
139.10953
138.50659
137.85643
137.16036
136.40998
135.60654
134.74036
139.01114
138.45662
137.86618
137.24063
136.57542
135.87116
135.12174
134.32759
133.48123
139.16865
138.65025
138.10199
137.52125
136.90748
136.25685
135.56858
134.83734
134.0621
138.84036
138.33665
137.8119
137.26373
136.69238
136.0938
135.46791
134.8085
134.11495
139.51632
139.09734
138.66885
138.22833
137.77655
137.3084
136.82428
136.31633
135.78438
139.88096
139.56157
139.25111
138.9471
138.6504
138.35459
138.05924
137.75365
137.43701
141.43979
141.33956
141.27026
141.22689
141.20942
141.2088
141.22366
141.24211
141.26122
141.65175
141.93842
142.28373
142.68069
143.12347
143.60521
144.11885
144.65753
145.2124
145.24764
146.20095
147.17636
148.17378
149.19938
150.25269
151.33765
152.44904
153.59085
154.75561
145.77365
141.26646
137.09541
135.21777
133.37873
133.23596
132.58327
133.81284
155.94703
146.33135
141.25272
136.72771
134.61592
132.5987
132.35765
131.62437
132.81199
157.14849
146.86942
141.20843
136.31693
133.96563
131.76407
131.41869
130.60523
131.73948
158.36728
147.37451
141.12369
135.86011
133.26585
130.87324
130.4175
129.5139
130.58129
159.55473
147.82089
140.98052
135.33627
132.50083
129.91336
129.34384
128.34784
129.3396
160.71191
148.19046
140.76392
134.73958
131.66868
128.88246
128.19475
127.10392
128.00087
161.71834
148.44217
140.45056
134.05371
130.75125
127.76636
126.95514
125.77958
126.56635
162.56618
148.55169
140.01908
133.26657
129.744
126.56265
125.62925
124.36374
125.0335
162.96508
148.4355
139.42809
132.35605
128.62454
125.26223
124.19939
122.85507
123.41507
121.73112
121.25
122.64232
123.83256
127.33943
131.26453
138.59427
147.9847
162.88453
120.03854
119.53908
120.93362
122.26191
125.82081
129.87719
137.2382
146.56145
159.77432
118.12368
117.70982
119.08744
120.52963
124.08518
128.20364
135.45406
144.59221
157.05737
115.95583
115.74429
117.10575
118.66228
122.16228
126.3153
133.43822
142.47628
154.58544
113.5284
113.63554
114.98408
116.64997
120.0835
124.27723
131.28382
140.25495
152.06709
110.97954
111.38668
112.72042
114.51028
117.86898
122.10706
129.00698
137.91128
149.41341
108.28786
109.00241
110.30976
112.21964
115.51863
119.78867
126.58099
135.4046
146.66386
105.48512
106.48788
107.76782
109.80272
113.03183
117.31623
123.99619
132.73826
143.87106
102.5056
103.8449
105.08931
107.2479
110.39897
114.67629
121.23602
129.90874
141.0353
138.14688
126.92746
118.31157
111.87315
107.62345
104.57339
102.27521
101.07836
99.386096
135.1938
123.78984
115.21872
108.90672
104.69921
101.77444
99.311067
98.191425
96.088618
132.17457
120.48754
111.97356
105.79214
101.65094
98.856928
96.223051
95.188796
92.666716
129.07011
117.01843
108.57064
102.55083
98.471943
95.823752
93.010626
92.072129
89.088062
125.86649
113.36678
105.02869
99.187548
95.197623
92.691376
89.703798
88.846455
85.404549
122.52374
109.5364
101.33981
95.708325
91.824183
89.460941
86.297095
85.519039
81.58438
119.03494
105.51492
97.531595
92.130772
88.382324
86.154305
82.827172
82.095878
77.68246
115.35036
101.31202
93.599511
88.474537
84.887819
82.768111
79.289452
78.58524
73.678172
111.47562
96.916339
89.58129
84.767864
81.374406
79.334677
75.727938
75.008244
69.667516
65.749423
71.33284
72.092344
75.787108
77.749251
80.893977
85.291538
92.017594
106.93354
61.921864
67.552197
68.411617
72.147281
74.031315
76.872654
80.731654
86.465864
101.39878
57.852532
63.721249
64.710469
68.488497
70.34694
72.893885
76.197555
80.752615
95.254113
53.645441
59.863342
61.023013
64.856423
66.744884
69.02681
71.807883
75.155991
88.530874
49.41553
55.976149
57.330044
61.241928
63.241382
65.302653
67.617044
69.757522
81.042189
45.297853
52.063205
53.672411
57.686221
59.856918
61.768621
63.668881
64.885669
72.499542
41.250276
48.132545
50.024112
54.158512
56.605831
58.456847
60.005922
60.767834
62.426302
37.353475
44.210446
46.42116
50.699291
53.506327
55.411832
56.629654
57.825781
51.103971
32.985001
40.33377
42.833056
47.313928
50.587122
52.694158
53.461318
56.503293
40.205255
28.420775
36.551788
39.249173
43.971081
47.608129
50.219874
49.898718
55.161654
33.117176
24.496949
33.000601
35.738809
40.722913
44.768807
47.925723
45.989299
52.360515
27.503256
21.230509
29.53507
32.421007
37.619334
42.085253
45.753805
42.276788
48.192913
26.108122
18.144451
26.149025
29.250736
34.474472
39.469267
43.594723
38.987303
43.810102
37.888015
15.200698
22.775097
26.148264
31.275358
36.87362
41.326622
35.669996
38.385933
39.529239
12.409248
19.466449
23.116315
27.927494
34.278825
39.063577
32.114362
33.656808
30.559679
9.8811454
16.18805
20.166199
24.479572
31.676202
36.766787
28.735758
32.520928
30.122183
7.6649276
12.947612
17.325031
20.909901
29.052886
34.498408
26.209319
30.476924
28.511218
5.8113026
9.7239476
14.574776
17.31643
26.403319
32.254423
24.424496
25.977018
27.654943
27.218817
23.560815
23.830812
30.809369
23.873122
13.847761
11.99037
6.5996476
4.3806734
27.176199
21.848562
23.567485
29.577637
21.450633
10.548603
9.5391661
3.6475209
3.3966096
27.314
20.870654
23.527108
28.186112
18.878092
7.165769
7.1186211
0.86362726
2.854696
27.691275
20.816339
23.390253
26.786363
16.165202
3.7756224
4.7003189
-1.6915064
2.740743
28.041761
20.996685
23.084909
25.410413
13.327398
0.37434259
2.3717614
-3.9516473
3.0491782
28.262461
20.872566
22.602916
24.226063
10.391016
-2.9852161
0.10490925
-5.8981455
3.7032321
28.221559
20.489458
21.803193
23.060758
7.3435439
-6.3281799
-2.0367
-7.4925017
4.7219686
27.910122
19.943575
20.918222
21.962575
4.2040423
-9.6035227
-4.0951885
-8.7172582
6.1782137
27.958437
19.284995
19.986018
20.687779
0.7930748
-12.908817
-6.0061853
-9.4862959
8.1374806
27.53495
18.69908
18.802086
18.602377
-4.9641509
-18.170418
-8.9141281
-9.8774615
12.157954
27.211101
16.977125
17.442129
14.33358
-15.510161
-25.104244
-11.324695
-7.7728371
19.606815
27.467158
15.455902
16.211215
8.4791792
-26.801624
-30.945037
-12.205523
-3.0709609
28.698206
27.940606
13.628857
14.419894
1.106473
-38.702653
-35.001407
-10.614112
4.2664265
38.676056
27.18743
11.564449
11.947631
-7.5879325
-49.832914
-36.66299
-6.6942196
13.950757
48.934553
25.612476
10.410682
9.1755262
-17.381377
-60.368306
-35.915733
-0.31142928
25.346833
58.430307
23.421956
7.7572824
4.3562657
-27.372272
-69.552261
-32.464156
8.0749846
37.461777
66.975776
21.393294
6.8530862
0.81419614
-38.142165
-77.664108
-26.294385
18.424158
49.786608
73.978577
19.730881
3.5171842
-6.1050519
-48.112816
-81.784536
-17.08286
29.395398
61.002374
79.358629
29.080637
1.8704913
-73.216954
-87.141624
-93.278445
-26.478374
34.742602
69.348994
120.81327
28.580234
1.9637808
-64.728734
-77.091853
-101.07468
-39.524527
35.712992
73.047273
120.98875
28.22153
2.2332366
-56.130764
-68.856029
-106.75095
-53.319546
35.375018
72.883346
118.88888
27.614131
2.0228846
-47.600886
-63.649621
-112.93919
-63.712094
31.116816
70.104313
116.44458
27.123547
2.238212
-38.602899
-62.240926
-119.61312
-71.957732
27.912839
66.633913
113.5145
26.512677
1.8869209
-31.225938
-62.533294
-124.41592
-77.595474
25.532419
62.540769
110.90463
25.948556
1.8983905
-24.265202
-63.437457
-129.43408
-81.575705
25.026799
59.067549
108.49984
25.305569
1.771229
-19.498241
-64.619357
-130.21828
-83.524221
25.523385
55.79147
106.45703
24.630833
1.7944718
-15.329494
-66.368593
-131.74574
-89.832877
26.654774
53.961909
104.7218
37.310456
-15.957536
-113.46524
-146.61001
-44.292052
8.6350601
35.824031
65.446016
81.479318
42.663256
-3.1808234
-97.888827
-145.39431
-58.200884
-1.6529636
27.420269
55.23605
76.729202
47.21153
8.9114461
-80.872982
-137.63161
-68.778493
-12.55837
18.615177
44.121318
70.524398
50.694129
19.946875
-63.989631
-126.09382
-76.02189
-22.500498
10.097601
32.853905
62.898658
53.593158
30.534966
-45.633672
-110.56317
-79.15472
-31.164714
1.9101814
21.623714
54.179754
55.789871
40.354263
-27.582055
-93.540848
-78.400959
-37.528439
-5.111134
11.121395
44.440935
56.89272
48.711516
-9.3337385
-74.585665
-73.457986
-41.427282
-10.900874
1.7259002
34.399403
57.670183
55.430285
6.4414405
-54.823108
-64.599111
-42.059772
-14.432863
-5.7306022
24.481368
58.573409
61.381366
24.101234
-32.399966
-51.620951
-39.513662
-15.741621
-10.835195
15.508338
-0.61978808
-2.1197528
0.8524772
-2.5329238
5.491485
17.532135
55.760338
71.271291
62.064486
-0.93016515
-5.019515
-2.0777541
-7.4530621
0.058761325
13.087925
53.113057
71.092333
62.103896
-0.75559222
-7.520293
-4.7490975
-12.289763
-5.6861882
8.6078055
50.633917
70.492911
61.999889
-0.14181587
-9.5767148
-7.1903572
-16.947935
-11.589594
4.2630169
47.572153
69.195241
61.695516
0.92264397
-11.145085
-9.3158465
-21.390257
-17.660986
-0.16850304
44.604465
68.189949
61.209604
2.4898012
-12.261988
-11.178861
-25.550182
-23.752704
-4.8621744
41.928433
67.096607
60.684379
4.4743125
-12.897464
-12.707792
-29.365785
-29.858443
-10.283146
39.414321
66.153047
60.148356
6.8654361
-13.045955
-13.960937
-32.741212
-35.714175
-15.756894
35.858995
64.840449
59.302254
9.8556202
-12.615939
-14.868726
-35.733665
-42.211893
-21.964572
31.715622
64.130368
58.552589
62.101288
71.698619
56.603657
21.758294
11.058046
2.783022
4.0740159
1.1642338
0.24937149
62.131212
73.42437
57.642874
26.902888
16.695289
8.3684871
7.6499987
4.7409172
1.6983981
64.306543
75.033797
58.919801
31.500249
21.989671
13.944992
11.419894
8.4979648
3.714292
63.940329
73.864002
60.444288
36.158477
27.029319
19.377685
15.396189
12.442845
6.2241424
69.804028
76.13506
61.952732
40.559993
31.80741
24.608874
19.551756
16.528588
9.1943321
70.212861
79.433103
63.005327
44.755718
36.331955
29.530088
23.849767
20.806261
12.482134
59.366249
81.312243
64.293085
48.531986
40.53238
34.199973
28.240016
25.16394
16.066192
59.825634
82.302564
66.312883
51.967674
44.612177
38.701208
32.812453
29.705048
19.960384
64.208171
81.599094
69.505545
56.123239
49.057513
43.472146
37.632492
34.415976
24.76153
72.168352
79.532197
80.948977
87.153888
91.148655
97.587629
104.09842
110.71726
123.57443
67.329064
74.964436
76.435893
82.848407
86.978545
93.560985
100.22376
106.12898
119.02504
62.278526
70.229338
71.77742
78.325676
82.684807
89.385364
96.303619
101.53681
114.0239
57.061421
65.355739
67.041147
73.636367
78.232688
85.080886
92.408557
96.978482
108.60785
51.738849
60.338195
62.205255
68.783983
73.665638
80.661662
88.585344
92.681084
102.61651
46.497006
55.194304
57.347392
63.814101
68.940577
76.116432
84.889069
88.726507
95.827612
41.262618
49.951494
52.436993
58.744355
64.097939
71.415075
81.197227
85.425044
87.76332
36.1898
44.686641
47.515493
53.638519
59.132508
66.507182
77.454954
82.941791
78.737273
30.50872
39.486336
42.575235
48.527914
54.140169
61.403204
73.602364
81.663912
69.547129
127.34837
114.73647
107.71095
101.3043
95.040718
91.182299
85.292323
83.884238
77.015081
130.58586
118.39835
111.08179
104.77587
98.726889
94.943575
89.428979
88.02947
81.818208
133.68834
121.90288
114.38485
108.12941
102.27378
98.562432
93.430992
92.01698
86.49821
136.63665
125.2931
117.59756
111.36804
105.70778
102.01004
97.256064
95.825852
90.965776
139.48437
128.52167
120.71776
114.47719
108.99241
105.31749
100.92942
99.458172
95.243484
142.21921
131.62418
123.72264
117.45791
112.14437
108.46392
104.41928
102.90998
99.288624
144.89118
134.57304
126.61926
120.31301
115.14355
111.45757
107.7457
106.18557
103.13577
147.4903
137.40116
129.39054
123.0425
117.99976
114.28616
110.88014
109.28496
106.74872
150.04302
140.08756
132.03601
125.63754
120.69286
116.96771
113.84238
112.21724
110.16426
131.76733
131.51165
133.04431
134.61776
138.24543
142.41766
149.38512
158.29653
171.7592
130.2457
129.96058
131.52262
133.24386
136.94829
141.25986
148.25441
157.03549
169.01582
128.48399
128.28092
129.85337
131.71699
135.43991
139.83443
146.7333
155.33908
166.62261
126.46335
126.45753
128.03536
130.04143
133.74882
138.20976
145.00694
153.50403
164.4511
124.16434
124.47815
126.06709
128.21574
131.91466
136.45058
143.1619
151.59006
162.22528
121.72071
122.34188
123.9479
126.25488
129.94818
134.56993
141.21042
149.56122
159.89043
119.10018
120.04651
121.67118
124.14757
127.84962
132.55723
139.13047
147.40267
157.45613
116.33148
117.59461
119.23521
121.9026
125.61292
130.39075
136.91067
145.09198
155.01613
113.34359
114.98523
116.62351
119.50072
123.2321
128.0797
134.54107
142.66003
152.54565
133.26676
134.69007
136.02313
137.25233
138.38506
139.419
140.36922
141.23431
142.02893
132.94732
134.27835
135.51435
136.65641
137.71249
138.6836
139.58403
140.41345
141.18292
134.41002
135.64977
136.78136
137.8244
138.78188
139.66576
140.47801
141.22877
141.91982
135.84542
136.95124
137.95844
138.88183
139.72281
140.49526
141.20088
141.85204
142.45019
139.31638
140.23519
141.04876
141.7776
142.42601
143.01146
143.53551
144.01291
144.44457
143.29335
144.00394
144.60045
145.10534
145.53006
145.8883
146.18531
146.44008
146.65537
150.03119
150.45862
150.73993
150.91426
151.00047
151.02015
150.98646
150.91648
150.81893
158.59806
158.61798
158.41161
158.08188
157.63954
157.13109
156.56577
155.97369
155.36228
171.76938
171.31457
170.48157
169.48281
168.35846
167.20218
166.02837
164.86206
163.70846
142.75206
141.89229
142.55969
143.00554
144.84264
146.84637
150.70538
154.7515
162.57692
143.41605
142.55061
143.14996
143.51922
145.20768
147.01417
150.57894
154.14627
161.46538
144.02013
143.15798
143.69755
143.99916
145.54929
147.17103
150.45312
153.56069
160.38123
144.57445
143.72175
144.20383
144.44618
145.86773
147.31784
150.32952
152.99697
159.32173
145.07846
144.24215
144.67413
144.86605
146.17003
147.46395
150.21935
152.46591
158.29195
145.54064
144.72519
145.10963
145.25922
146.45605
147.60977
150.12367
151.96936
157.29126
145.96079
145.17108
145.51421
145.62953
146.73023
147.76086
150.05126
151.51777
156.32423
146.34544
145.58431
145.88883
145.97716
146.99204
147.91681
150.00254
151.11274
155.38092
146.69403
145.96488
146.23623
146.30447
147.24361
148.07923
149.98169
150.76466
154.46297
148.65129
148.25314
148.3519
148.4381
149.01906
149.63575
150.89732
150.80434
150.02627
148.50014
148.07958
148.19212
148.26412
148.86303
149.46432
150.72385
150.52091
149.66755
148.33899
147.88874
148.01588
148.07601
148.69794
149.29182
150.56165
150.29872
149.57844
148.16673
147.6799
147.82231
147.87336
148.52323
149.11833
150.41344
150.14423
149.81874
147.98225
147.45273
147.61043
147.65521
148.3378
148.9438
150.28182
150.05891
150.34879
147.77761
147.20451
147.37926
147.42082
148.14136
148.76853
150.17141
150.04575
151.06239
147.5503
146.93416
147.12748
147.16909
147.93337
148.59301
150.08438
150.10748
151.85516
147.29479
146.63824
146.85405
146.89967
147.71435
148.41877
150.02326
150.25763
152.69429
147.01045
146.31617
146.55728
146.61148
147.48416
148.24677
149.9884
150.4754
153.56571
150.40293
151.16117
151.09048
149.81206
149.17004
148.60094
148.49788
148.41003
148.77145
150.95073
151.58848
151.29207
149.98128
149.30936
148.7498
148.63006
148.55143
148.86525
151.55728
152.04355
151.48348
150.13562
149.43155
148.88196
148.74736
148.67714
148.94171
152.20218
152.49576
151.65309
150.26918
149.5348
148.99724
148.85055
148.78892
149.00957
152.88463
152.92926
151.79197
150.37658
149.61742
149.09551
148.94016
148.8871
149.06309
153.58717
153.33229
151.89497
150.45681
149.68014
149.17815
149.01769
148.97259
149.10959
154.30394
153.69946
151.96097
150.51343
149.72685
149.24878
149.08578
149.04495
149.14558
155.02705
154.03704
152.00551
150.56296
149.77287
149.31659
149.14901
149.10494
149.17424
155.74939
154.38153
152.08823
150.64589
149.84574
149.39606
149.2128
149.15348
149.18776
156.56441
154.79045
152.30292
150.83775
150.00019
149.5279
149.30411
149.20525
149.18842
157.49065
155.22359
152.57485
151.07691
150.19658
149.70355
149.44163
149.29031
149.21947
158.38184
155.61116
152.83415
151.31135
150.39418
149.87802
149.58322
149.38834
149.27506
159.2216
155.95117
153.0648
151.53466
150.58942
150.05373
149.72885
149.49891
149.35141
159.98499
156.22276
153.24583
151.73537
150.77273
150.22491
149.87572
149.61961
149.44551
160.60456
156.39935
153.37167
151.90918
150.94052
150.3878
150.02091
149.74698
149.55402
160.86956
156.44078
153.42432
152.04552
151.08815
150.53883
150.16076
149.87686
149.67399
160.43368
156.34754
153.43328
152.1477
151.22055
150.67586
150.29065
150.00467
149.80118
159.29618
156.1139
153.41246
152.21601
151.33398
150.79463
150.40635
150.12574
149.92974
149.93241
150.02975
150.21122
150.50385
150.91206
151.48807
152.16312
153.38399
153.92638
150.12157
150.19757
150.37231
150.6676
151.1034
151.70418
152.48926
153.72419
154.67805
150.25401
150.31922
150.49355
150.8021
151.25084
151.87391
152.68092
153.99504
154.97006
150.32768
150.39387
150.57932
150.90215
151.36326
152.01312
152.86468
154.28784
155.43094
150.34478
150.42717
150.63081
150.96756
151.44349
152.12163
153.0296
154.60307
155.94247
150.31538
150.42421
150.64719
150.99669
151.48926
152.2032
153.16815
154.92139
156.47593
150.25232
150.3879
150.62811
150.98977
151.49725
152.24855
153.27502
155.23357
157.04407
150.16247
150.32229
150.57833
150.95122
151.47258
152.26244
153.34224
155.52905
157.66014
150.05249
150.23333
150.50294
150.88554
151.41706
152.24956
153.38186
155.80626
158.33388
156.60514
157.30249
158.02425
158.89974
159.92578
161.09498
162.45373
164.03255
165.84356
157.20842
157.87231
158.62467
159.53217
160.58757
161.78092
163.14683
164.74276
166.56439
157.83365
158.51937
159.30936
160.23605
161.30352
162.50816
163.87204
165.49198
167.37095
158.5486
159.25698
160.06724
161.00474
162.06488
163.26796
164.63541
166.28037
168.22216
159.33831
160.05935
160.86249
161.77952
162.82184
164.0142
165.39187
167.09186
169.11119
160.12556
160.83797
161.63236
162.53405
163.55421
164.7396
166.10556
167.81193
169.75146
160.86211
161.53964
162.29457
163.16716
164.16317
165.33816
166.72917
168.49807
170.22797
161.45712
162.10606
162.8429
163.67822
164.62349
165.72738
167.01998
168.82028
169.82874
161.77694
162.38603
163.08756
163.88381
164.74532
165.77794
166.87085
168.93816
169.58145
163.60441
166.08781
164.68163
165.12454
164.20875
163.72457
163.04397
162.40562
161.77424
159.1568
160.38139
160.26429
161.03525
160.84179
161.03163
160.83507
160.68642
160.27227
157.16601
157.68082
157.58345
158.04569
158.00508
158.24502
158.22292
158.31147
158.15586
155.35169
155.73519
155.56175
155.91572
155.76525
155.99439
155.90667
156.03435
155.93739
153.83996
154.07713
153.97585
154.18782
154.08011
154.21
154.14267
154.2201
154.14634
152.39296
152.55628
152.44215
152.63393
152.49388
152.63574
152.51928
152.60327
152.49293
151.07498
151.14446
151.06503
151.15641
151.06258
151.12546
151.04581
151.09094
150.99094
149.75084
149.77159
149.66258
149.74053
149.60843
149.67952
149.56401
149.61316
149.49443
148.47361
148.41938
148.33561
148.31502
148.21786
148.20084
148.111
148.1174
148.00076
146.57524
145.19499
143.66911
141.92289
139.90195
137.3663
134.31217
130.7506
127.89361
146.70346
145.30403
143.75546
141.9738
139.86801
137.29469
134.10368
130.56349
127.08378
146.67462
145.28095
143.69818
141.90333
139.72152
137.0988
133.81111
130.10496
126.08264
146.79365
145.34834
143.77904
141.90309
139.73248
136.96294
133.58491
129.53377
125.02544
146.77992
145.37725
143.75602
141.92412
139.66293
136.88508
133.33783
129.00859
124.00293
146.91356
145.4567
143.85633
141.97121
139.70926
136.84456
133.21306
128.46999
123.07098
146.91684
145.52126
143.88177
142.05475
139.7342
136.92255
133.14654
128.26149
122.1361
147.03126
145.58111
143.96492
142.09555
139.81405
136.91122
133.16163
128.01244
123.61442
147.12632
145.71559
144.09702
142.28284
139.99085
137.22926
133.33574
128.30953
120.6959
128.34656
131.04375
134.40746
136.77549
138.35431
139.81431
141.22197
142.60279
143.91696
127.1464
130.15465
134.01382
136.51267
138.16056
139.69828
141.19163
142.61374
143.95604
125.6938
129.35888
133.6974
136.25446
137.93109
139.52025
141.06811
142.53284
143.8991
123.7885
128.50225
133.43992
136.06904
137.85731
139.51916
141.12378
142.59957
143.97414
121.39306
127.40864
132.92484
135.59218
137.47707
139.25249
140.93894
142.47062
143.8753
118.5216
127.27241
133.13133
135.66852
137.60308
139.39323
141.07492
142.58667
143.98077
112.82076
125.48942
132.46164
135.0166
137.15933
139.11277
140.88742
142.44349
143.8689
108.47111
126.01265
132.97295
135.24745
137.34347
139.27573
141.02017
142.55232
143.95915
97.524304
124.42241
132.54453
134.86729
137.11098
139.14535
140.93472
142.47658
143.90173
145.19352
146.43324
147.70217
148.98671
150.3328
151.71011
153.16935
154.70044
156.35297
145.22791
146.4796
147.7427
149.04134
150.38506
151.78332
153.24853
154.80305
156.45838
145.19028
146.46088
147.74018
149.05714
150.41054
151.82687
153.29956
154.87425
156.54381
145.25351
146.53029
147.80536
149.1298
150.48223
151.90761
153.38502
154.97431
156.6529
145.17835
146.47625
147.77109
149.10963
150.47875
151.9195
153.41459
155.0215
156.71729
145.26849
146.55903
147.84389
149.18007
150.54365
151.98597
153.47948
155.09212
156.79126
145.17869
146.48966
147.79506
149.14697
150.52366
151.97825
153.48343
155.109
156.81912
145.25937
146.55968
147.85827
149.20298
150.57714
152.02817
153.53361
155.15858
156.871
145.21138
146.52241
147.82628
149.18006
150.55617
152.01427
153.52081
155.15288
156.86592
158.11708
160.03218
162.08361
164.29334
166.64299
169.17015
171.79766
174.55612
176.5085
158.24965
160.17502
162.26946
164.52398
166.96775
169.59793
172.38584
175.2814
177.40209
158.36305
160.31174
162.45028
164.75193
167.2873
170.02234
172.95913
175.95717
178.29538
158.49264
160.45746
162.63352
164.96863
167.57785
170.38236
173.45002
176.5633
179.18117
158.57665
160.56207
162.76818
165.13754
167.80559
170.67584
173.8808
177.12746
180.06114
158.66232
160.65858
162.88831
165.27958
167.99928
170.91816
174.26799
177.64008
180.9274
158.70665
160.7132
162.96756
165.37447
168.13854
171.09259
174.57506
178.07624
181.78994
158.76104
160.77145
163.03676
165.45131
168.24887
171.22036
174.82679
178.41184
182.7791
158.76272
160.77828
163.04831
165.47828
168.28147
171.28354
174.9478
178.62371
182.91984
177.54346
169.89344
166.98346
163.55453
160.15475
156.83952
153.67717
150.56059
147.49346
178.75623
170.73716
167.74816
164.17526
160.69706
157.2982
154.12815
150.94779
147.88341
179.87709
171.501
168.44973
164.80078
161.24556
157.79312
154.59135
151.38998
148.31396
181.02995
172.20562
169.07157
165.30414
161.73921
158.2032
155.01613
151.74379
148.69498
182.2438
173.08266
169.81172
165.95386
162.31812
158.77188
155.5284
152.27102
149.17906
183.46472
173.67993
170.31752
166.35694
162.72707
159.07112
155.85216
152.50717
149.45249
184.94108
174.79338
171.09638
167.10966
163.40473
159.7343
156.46895
153.12764
150.0511
185.75857
175.08141
171.33821
167.28483
163.59225
159.85907
156.60508
153.2233
150.16063
188.29205
176.78278
172.35386
168.20289
164.4526
160.66412
157.36642
153.95709
150.88073
144.39476
141.28079
138.11676
134.91564
131.64159
128.30508
124.86701
121.33378
117.69342
144.73289
141.64456
138.43575
135.26751
131.95431
128.64779
125.17668
121.66984
117.98885
145.16893
142.07828
138.88086
135.71467
132.41399
129.1181
125.66302
122.18206
118.52552
145.48785
142.44046
139.19049
136.06882
132.72714
129.47139
125.9884
122.54047
118.86241
145.9977
142.91947
139.69624
136.55753
133.2349
129.9798
126.50455
123.08401
119.39581
146.20946
143.17387
139.90663
136.80744
133.45602
130.22977
126.74571
123.33754
119.66828
146.81347
143.77517
140.51087
137.4203
134.06703
130.86626
127.36826
124.01725
120.29149
146.89906
143.87392
140.59839
137.51715
134.16284
130.96223
127.4781
124.11084
120.44165
147.60631
144.58733
141.30546
138.2423
134.88392
131.7125
128.2235
124.90735
121.19254
113.5123
108.51947
103.61437
98.201873
92.967322
87.862735
82.981579
76.154981
65.755534
113.88752
108.97867
104.20587
98.932137
93.836944
88.930913
84.407674
78.503455
69.338311
114.47761
109.68335
105.03911
99.904227
94.912397
89.955184
85.579064
79.668331
72.524518
114.92211
110.26756
105.7174
100.74546
95.817609
90.919393
86.881269
82.423674
75.919722
115.51499
110.93642
106.5595
101.67709
96.926326
91.904789
88.308247
82.947065
84.199311
115.871
111.50253
107.11387
102.47118
97.627804
92.762855
88.354782
86.977015
85.479779
116.60137
112.28417
108.20166
103.59962
99.07598
94.057647
90.034707
83.303144
109.57455
116.77653
112.65011
108.46476
104.12601
99.471726
94.597411
88.961839
85.571545
97.218049
117.67652
113.70826
109.85683
105.66835
101.49255
96.792296
93.756088
73.628778
140.7519
42.951832
26.456184
24.489328
23.043287
20.957249
23.669366
28.342318
30.617517
32.169395
44.082475
25.596982
24.728748
23.914314
23.459473
25.31445
28.578956
30.661514
32.331967
44.258242
24.28232
25.354118
23.833498
22.087238
25.534406
28.864999
30.845814
32.537193
42.085841
21.887439
26.250398
23.747031
24.411328
26.266199
29.16616
31.066378
32.802606
36.703922
18.680817
27.606957
24.022176
23.823491
26.638177
29.533329
31.307195
33.06843
31.568575
20.677944
29.051757
23.31928
25.001854
27.357243
29.779232
31.549015
33.286383
34.357184
31.926537
26.791995
24.259389
25.142388
27.889691
30.110072
31.775164
33.490658
34.642142
16.480819
27.295969
23.336081
25.55941
28.30251
30.249253
31.944755
33.631479
-53.174115
41.320041
23.974981
24.314401
26.576733
28.850416
30.622965
32.16543
33.751045
33.033401
33.072561
32.67311
31.499557
29.53688
26.802212
24.276887
16.377366
18.770124
33.308958
33.428554
33.142704
31.904409
29.731815
26.711893
23.753774
16.36938
19.627523
33.466656
33.59213
33.163198
31.684413
29.379999
26.023323
22.372104
16.921474
19.594449
33.675498
33.767266
33.288863
31.721595
29.164317
25.533661
21.475298
16.43432
20.690378
33.904933
34.008179
33.454875
31.693574
28.931242
25.149947
20.89288
17.563847
22.102984
34.118956
34.193353
33.536433
31.703902
28.714905
24.853615
20.864643
18.897294
23.529227
34.282268
34.358311
33.600407
31.585029
28.394196
24.437652
21.050312
20.201885
25.477689
34.402315
34.44928
33.604114
31.572069
28.242225
24.363994
21.022827
21.297611
26.285192
34.463201
34.47142
33.505975
31.179241
27.600597
23.750945
21.027594
22.905518
28.423615
19.500198
19.983686
21.188257
23.456086
25.495231
27.791516
28.01176
26.851358
25.995994
19.956472
19.409712
20.429083
22.677752
25.074644
27.522411
28.315869
27.716946
28.1988
20.468784
19.653823
20.608544
22.503847
24.659681
26.966692
28.066598
28.354384
29.984691