/*--------------------------------*- C++ -*----------------------------------*\
  =========                 |
  \\      /  F ield         | OpenFOAM: The Open Source CFD Toolbox
   \\    /   O peration     | Website:  https://openfoam.org
    \\  /    A nd           | Version:  11
     \\/     M anipulation  |
\*---------------------------------------------------------------------------*/
FoamFile
{
    format      ascii;
    class       volScalarField;
    location    "0.0135";
    object      rho;
}
// * * * * * * * * * * * * * * * * * * * * * * * * * * * * * * * * * * * * * //

dimensions      [0 0 0 0 0 0 0];

internalField   nonuniform List<scalar> 
880
(
0.3733250556165154
0.3733250556165154
0.3733250556165154
0.3733250556162655
0.3733250556165154
0.3733250556165154
0.3733250556165152
0.3733250556134253
0.3733250556165154
0.3733250556165153
0.3733250556165154
0.3733250552570689
0.3733250556165154
0.3733250556165154
0.3733250556165154
0.3733250614860297
0.3733250556165154
0.3733250556165155
0.3733250556165152
0.3733250556165154
0.3733250556165154
0.3733250556165154
0.3733250556165151
0.3733250556165154
0.3733250556165154
0.3733250556165154
0.3733250556172581
0.3733250556018128
0.373325939125602
0.3733269580074178
0.3733269399327564
0.3733267387898257
0.3733250556165154
0.3733250556165154
0.3733250556165152
0.3733250556165154
0.3733250556165154
0.3733250556165152
0.3733250556165154
0.3733250556165162
0.3733250559029105
0.3733250559195053
0.3733250559340173
0.3733250556709399
0.3733268511461152
0.3733269395720696
0.3733269726147868
0.3733262364979873
0.3733336692883588
0.3733280300165565
0.3733252710565372
0.3733250576436999
0.3733250585804831
0.3733250568302997
0.3733250557252835
0.3733250556177328
0.3733250556172016
0.3733250556166528
0.3733250556165153
0.3733250556165154
0.3733250556165154
0.3733250556165155
0.3733250556165154
0.3733250556165154
0.3733250556165152
0.3733250556165152
0.3733250556165154
0.3733250556165155
0.3733250556165154
0.3733250556165155
0.3733250556165154
0.3733250556165155
0.3733250556165151
0.3733250556165154
0.3733250556165151
0.3733250556165154
0.3733250556145033
0.3733250556165097
0.3733250556165152
0.3733250556165154
0.3733250556165154
0.3733250556165154
0.3733250556165154
0.3733250556165154
0.3733250556157957
0.3733250556165154
0.3733250556165154
0.3733250556165153
0.3733250571296181
0.3733250556239513
0.3733250556165154
0.3733250556165154
0.373321337420268
0.3733250546146726
0.3733250556164641
0.3733250556165153
0.3733250556165152
0.3733250556165153
0.3733250556206171
0.3733250764473661
0.3733250556165155
0.3733250556165154
0.3733250556253001
0.3733251409025412
0.3733250556165154
0.3733250556165154
0.3733250556267748
0.3733251461505008
0.3733250556165154
0.3733250556165154
0.3733250556283368
0.3733251507241711
0.3733251556818274
0.3733250556301607
0.3733250556165154
0.3733250556165154
0.3733251611769275
0.373325055632209
0.3733250556165154
0.3733250556165154
0.3733251671595077
0.3733250556348849
0.3733250556165152
0.3733250556165154
0.3733251786075487
0.373325055639338
0.3733250556165154
0.3733250556165154
0.3733250556165153
0.3733250556165154
0.3733250556333095
0.3733251525522696
0.3733250556165154
0.3733250556165154
0.3733250556332658
0.3733251383951868
0.3733250556165206
0.3733250556165154
0.3733250556245323
0.3733251276076752
0.3733250556147479
0.3733250556143972
0.3733250560710732
0.3733250408901086
0.3733250558040953
0.3733250642021118
0.3733240970393331
0.372324218319923
0.3733250558366431
0.3733250651689851
0.373322683972012
0.3704162227342985
0.3733250557765511
0.3733250632640793
0.3733229469543415
0.3701550114846139
0.3733250557309464
0.3733250616641459
0.373323448805438
0.3703781227539213
0.3709558780596823
0.3733238345783449
0.3733250604805708
0.3733250556980428
0.371107569780502
0.373324119637272
0.3733250601478541
0.373325055685356
0.371244495196456
0.3733242903321416
0.3733250595349417
0.3733250556728452
0.3703048322691351
0.3733237677776186
0.3733250580476369
0.3733250556628818
0.3732258294135034
0.3733250585142017
0.373325055917232
0.3733250556178107
0.3733255563277144
0.3733250588717777
0.3733250556177382
0.3733250556165154
0.3733250656543625
0.373325055711541
0.3733250556165155
0.3733250556165154
0.3733233907019456
0.3733250548521344
0.3733250556164716
0.3733250556165154
0.3733470490845798
0.3733251296789292
0.3733250556939555
0.3733250556165151
0.3733469859737908
0.3733251296316461
0.3733250556937904
0.3733250556165154
0.3733457817232155
0.3733251275373447
0.3733250556918905
0.3733250556165154
0.3733419041220983
0.3733251184665012
0.3733250556811425
0.3733250556165154
0.3733233907017637
0.3733250548519987
0.3733250556163301
0.3733250556165154
0.3733250656541174
0.3733250557114001
0.3733250556165152
0.3733250556165154
0.3733255563276008
0.3733250588717936
0.3733250556177382
0.3733250556165154
0.3732258294138056
0.3733250585145463
0.3733250559172503
0.3733250556177879
0.3733250556982688
0.3733250604809564
0.3733238345785267
0.3709558780597771
0.3733250556854759
0.3733250601479101
0.3733241196374079
0.3711075697806269
0.373325055672652
0.3733250595351584
0.3733242903321448
0.3712444951969124
0.373325055662925
0.3733250580476847
0.3733237677780287
0.3703048322687937
0.3703781227536548
0.3733234488052807
0.373325061664029
0.3733250557309208
0.3701550114841911
0.3733229469541028
0.3733250632637059
0.3733250557763075
0.3704162227341623
0.373322683971662
0.3733250651689681
0.3733250558363937
0.3723242183200419
0.3733240970392048
0.373325064201981
0.373325055804408
0.3733250556165151
0.3733250556165156
0.3733250556334905
0.3733251525525467
0.3733250556165155
0.3733250556165154
0.3733250556332584
0.3733251383950736
0.3733250556165739
0.3733250556165154
0.373325055624404
0.3733251276076268
0.3733250556148203
0.3733250556143769
0.3733250560709082
0.373325040890122
0.3733251786080946
0.3733250556391862
0.3733250556165154
0.3733250556165154
0.3733251671599531
0.3733250556350753
0.3733250556165154
0.3733250556165154
0.3733251611769467
0.3733250556324429
0.3733250556165154
0.3733250556165154
0.3733251556820745
0.3733250556300566
0.3733250556165154
0.3733250556165154
0.3733250556165154
0.3733250556165154
0.373325055620609
0.3733250764469587
0.3733250556165154
0.3733250556165154
0.3733250556253677
0.37332514090258
0.3733250556165154
0.3733250556165154
0.3733250556267929
0.373325146150689
0.3733250556165154
0.3733250556165154
0.3733250556282226
0.3733251507242543
0.3733250556165154
0.3733250556165154
0.3733250556165154
0.3733250556165154
0.373325055616316
0.3733250556165154
0.3733250556165154
0.3733250556165153
0.3733250546147014
0.3733250556241041
0.3733250556165154
0.3733250556165154
0.3733213374202397
0.3733250571296181
0.3733250556158003
0.3733250556165154
0.3733250556165152
0.3733250556165154
0.3733250556165151
0.3733250556165154
0.3733250556165154
0.3733250556165153
0.3733250556165154
0.3733250556165153
0.3733250556165154
0.3733250556165154
0.3733250556165154
0.37332505561651
0.3733250556165154
0.3733250556165153
0.3733250556165153
0.373325055614485
0.3733250556165154
0.3733250556170041
0.3733250585802841
0.3733336692882865
0.3733250556165153
0.3733250556166591
0.3733250568303368
0.3733280300162403
0.3733250556165153
0.3733250556165155
0.3733250557251642
0.373325271056518
0.3733250556165154
0.3733250556165154
0.3733250556177539
0.3733250576435207
0.373326236498126
0.3733250556711316
0.3733250556165153
0.3733250556165154
0.3733269726146702
0.373325055934482
0.3733250556165154
0.3733250556165153
0.3733269395723348
0.3733250559197538
0.3733250556165154
0.3733250556165152
0.3733268511460451
0.3733250559023877
0.3733250556165154
0.3733250556165154
0.3733267387900214
0.3733250556017838
0.3733250556165154
0.3733250556165154
0.3733269399326597
0.3733250556170875
0.3733250556165154
0.3733250556165154
0.3733269580076383
0.3733250556165155
0.3733250556165154
0.3733250556165153
0.3733259391255667
0.3733250556165154
0.3733250556165154
0.3733250556165151
0.3733250556165154
0.3733250556165154
0.3733250556165154
0.3733250556164261
0.3733250556165152
0.3733250556165155
0.3733250556165153
0.3733250556135109
0.3733250556165154
0.3733250556165154
0.3733250556165154
0.3733250552569715
0.3733250556165154
0.3733250556165154
0.3733250556165151
0.373325061485861
0.3733250555737422
0.3733250538058251
0.3733250021666865
0.3733261944594203
0.373325053805574
0.3733250409171102
0.3733235769596956
0.373302004473921
0.3733250021666643
0.3733235769598411
0.3733259102052267
0.374435670480701
0.373326194459548
0.3733020044740384
0.3744356704806661
0.3961679639269461
0.4953234086475954
0.40807435855515
0.3792843811778238
0.3734991084988876
0.5333041774042809
0.4340654446478809
0.3862848972815664
0.3737802647121621
0.5370459963790652
0.4368937242732558
0.3871683355940944
0.3738200047256856
0.5372399062401934
0.4368867870374513
0.3871033514335823
0.3738136062025023
0.3738548291776862
0.3738732635642119
0.3738744154462594
0.3737541522755073
0.3881785740995848
0.3885481492240312
0.3885700741517494
0.3888565889352312
0.4388798192644296
0.4394891859044487
0.4395498161806908
0.4483613991658144
0.5415649073767547
0.5429832168662529
0.5431551768418433
0.5733063587659479
0.374578506046913
0.3736305929223356
0.3733375839004957
0.3733251000943485
0.3823564500653068
0.3742500476287268
0.3733390974499868
0.3733241876586177
0.3884154834079456
0.3738812499654421
0.373286315609476
0.373322419528609
0.3840654223994169
0.3731041842450508
0.373168423647717
0.3733058013381109
0.3733250532933666
0.3733250556049599
0.3733250556174615
0.3733250556165153
0.3733250328117983
0.3733250557929528
0.3733250556318936
0.3733250556166378
0.3733250725303593
0.3733250561656433
0.3733250556858779
0.3733250556202053
0.373324826565008
0.3733250563620265
0.3733250559115353
0.3733250556304418
0.3733250556165152
0.3733250556165152
0.3733250556163205
0.3726211095428578
0.3733250556165154
0.3733250556165154
0.3733250556182964
0.3618467261977319
0.3733250556165154
0.3733250556165154
0.3733250556165453
0.3403700320138228
0.3733250556165407
0.3733250556165154
0.3733250556165152
0.3449940075582927
0.3733694654393491
0.3734109578409167
0.3734119535722681
0.3734120500659229
0.3864598721303333
0.3931349061023808
0.3931935688671029
0.3931865144517072
0.523380579315266
0.5525864356797351
0.5519488970826544
0.5516791631377843
0.7902949651622434
0.8500058211265008
0.8482770480086086
0.8470917299228912
0.3734120672330622
0.3734120818366747
0.3734120983115559
0.3734154925199114
0.3931866756131125
0.3931866904300056
0.3931866922079769
0.3934977957573311
0.5516675384318079
0.5516675517475502
0.55166756502822
0.5518536850560362
0.8470166391093107
0.8470163610088537
0.8470164050302701
0.8469016323760976
0.3733866271962084
0.3733732344605124
0.3733631046388114
0.3733449480017914
0.3887910099184607
0.3866818036402335
0.3848798419725512
0.3808821872379591
0.5385694275753403
0.5312432280479524
0.5232756543728585
0.5210925869970963
0.8282487034004337
0.8206437875624928
0.8124687681099212
0.9127663223579794
0.3488093826985238
0.2885101150321344
0.2729536250966001
0.2729734177727182
0.2938685783791146
0.1835765516741076
0.1608336215448617
0.159896638223172
0.2350158184303184
0.1020752555522705
0.0866012378357558
0.08588080482034383
0.2061040064580599
0.05624638913310274
0.05097912989399837
0.05075041346064222
0.2648765803498445
0.2646749209341174
0.2637024785157774
0.219969821758925
0.1552353384585478
0.1547906724000216
0.154638960805741
0.1066814860137472
0.08232254893808509
0.08196585649885556
0.08397574191999166
0.06439446750087099
0.04955717242874217
0.0494542490176776
0.05284202594933024
0.06597842999691457
0.3627099390008381
0.3733080383972311
0.3733067953700152
0.3730117220290085
0.3365606107099356
0.3727663344116558
0.3730445570110415
0.3716832973327558
0.2880630447101624
0.3691717354894516
0.3718448656999229
0.3673116808257428
0.2403343746936311
0.354759896392214
0.3684295985285596
0.3793855195526978
0.3730761554159832
0.3728522857234079
0.3726656261720507
0.3728895883968389
0.3603530634383803
0.3497765791059839
0.3436219450385338
0.3427615944198937
0.2899126781716299
0.2387244639499484
0.212900365847894
0.2070792255046652
0.216200511321443
0.1285304631109551
0.08786122913399193
0.08246058319744862
0.08450558596537744
0.08402305965871087
0.08299975447439835
0.08286634229849189
0.1963287182176101
0.1937107834093962
0.1924124214448381
0.192208847018384
0.339351629527122
0.3392451033130175
0.3390646745556322
0.33902952643901
0.3732045800419989
0.3734763032237107
0.3736057686257385
0.3736193884985909
0.08286634229849582
0.1922088470183287
0.3390295264397739
0.3736193884986213
0.08299975447449923
0.1924124214448079
0.3390646745559552
0.3736057686256556
0.0840230596585869
0.193710783409591
0.3392451033126902
0.3734763032235449
0.08450558596545936
0.1963287182175842
0.3393516295270015
0.3732045800418571
0.3728895883967163
0.3726656261719297
0.372852285723153
0.3730761554155159
0.3427615944195779
0.3436219450385578
0.349776579106323
0.3603530634380619
0.207079225504683
0.2129003658480005
0.2387244639499591
0.2899126781715939
0.08246058319745052
0.08786122913399884
0.1285304631109638
0.2162005113214399
0.3793855195526608
0.3684295985284476
0.3547598963922076
0.2403343746935346
0.3673116808257306
0.3718448656998915
0.369171735489442
0.2880630447100656
0.3716832973327687
0.3730445570106817
0.3727663344116142
0.3365606107099021
0.3730117220289652
0.3733067953698641
0.3733080383971585
0.3627099390008706
0.2199698217588638
0.2637024785156611
0.2646749209339512
0.2648765803495216
0.1066814860137153
0.154638960805814
0.1547906724002365
0.1552353384587232
0.0643944675010122
0.08397574192000251
0.0819658564989174
0.08232254893814196
0.065978429996865
0.052842025949384
0.04945424901767034
0.04955717242875333
0.2729734177721804
0.2729536250967665
0.2885101150323597
0.3488093826986219
0.1598966382235102
0.1608336215448698
0.1835765516739753
0.2938685783787863
0.08588080482039273
0.08660123783567887
0.1020752555523098
0.2350158184299925
0.05075041346073445
0.05097912989390763
0.05624638913300722
0.2061040064579399
0.3733449480018386
0.3733631046390077
0.3733732344603652
0.3733866271963719
0.3808821872374913
0.3848798419726877
0.3866818036403403
0.3887910099185685
0.5210925869965897
0.5232756543726563
0.5312432280479176
0.5385694275749698
0.9127663223577689
0.8124687681096902
0.8206437875622686
0.8282487034000808
0.3734154925198755
0.3734120983118682
0.3734120818366873
0.3734120672332916
0.3934977957570432
0.3931866922083267
0.3931866904303958
0.3931866756128162
0.5518536850553142
0.5516675650281569
0.5516675517475654
0.5516675384315032
0.8469016323753439
0.8470164050299747
0.8470163610086823
0.8470166391092494
0.3734120500654759
0.3734119535725341
0.3734109578409577
0.3733694654395549
0.3931865144519128
0.3931935688673784
0.3931349061016589
0.3864598721310293
0.5516791631377016
0.5519488970828009
0.5525864356794367
0.523380579315577
0.8470917299225658
0.8482770480087201
0.8500058211262437
0.7902949651623913
0.3726211095427944
0.3733250556163205
0.3733250556165152
0.3733250556165152
0.3618467261976918
0.3733250556182952
0.3733250556165154
0.3733250556165154
0.3403700320138909
0.3733250556165452
0.3733250556165154
0.3733250556165154
0.3449940075583227
0.3733250556165152
0.3733250556165154
0.3733250556165407
0.3733250556165153
0.3733250556174766
0.3733250556049564
0.373325053293412
0.3733250556166375
0.3733250556318964
0.3733250557929498
0.3733250328117901
0.3733250556201972
0.3733250556858966
0.3733250561656605
0.3733250725303498
0.3733250556304376
0.3733250559115452
0.3733250563620439
0.3733248265650139
0.3733251000943028
0.3733375839004935
0.3736305929222585
0.3745785060468466
0.3733241876585937
0.3733390974499928
0.3742500476287035
0.3823564500652122
0.3733224195286013
0.3732863156094769
0.373881249965411
0.3884154834079887
0.3733058013380859
0.373168423647717
0.3731041842450396
0.3840654223994376
0.3737541522757636
0.3738744154461859
0.3738732635641205
0.3738548291779848
0.388856588934659
0.3885700741517593
0.3885481492241327
0.3881785740996781
0.4483613991655328
0.4395498161804949
0.43948918590394
0.4388798192645816
0.5733063587657495
0.5431551768415271
0.5429832168656896
0.5415649073768204
0.3738136062026916
0.3738200047256705
0.3737802647122905
0.3734991084991271
0.3871033514333039
0.3871683355941531
0.3862848972811682
0.3792843811776675
0.4368867870374675
0.436893724272556
0.4340654446476634
0.4080743585549299
0.5372399062402464
0.537045996378242
0.5333041774040738
0.4953234086475576
0.3733281628290005
0.3733250871422406
0.3733250556376095
0.3733250556165154
0.3733340463306323
0.3733251229331861
0.3733250556565414
0.3733250556165156
0.3733353442336313
0.3733251344620528
0.3733250556613197
0.3733250556165151
0.3733388374603819
0.3733251323690791
0.3733250556627685
0.3733250556165154
0.3733250556165154
0.3733250556938717
0.3733251296790071
0.3733470490846038
0.3733250556165154
0.3733250556939677
0.3733251296313087
0.3733469859740257
0.3733250556165154
0.3733250556920672
0.3733251275374563
0.3733457817228633
0.3733250556165153
0.3733250556813449
0.3733251184657162
0.3733419041219702
0.3733250556165154
0.3733250556165154
0.3733250556165154
0.373325055616515
0.3733250556628217
0.3733250556613197
0.3733250556564885
0.3733250556374266
0.3733251323693134
0.3733251344616011
0.3733251229336469
0.3733250871419825
0.3733388374601663
0.3733353442331483
0.3733340463308233
0.3733281628290976
)
;

boundaryField
{
    back
    {
        type            empty;
    }
    inlet
    {
        type            calculated;
        value           nonuniform List<scalar> 
16
(
0.3733250556165154
0.3733250556165154
0.3733250556165154
0.3733250556165154
0.3733250556165154
0.3733250556165155
0.3733250556165152
0.3733250556165154
0.3733250556165154
0.3733250556165154
0.3733250556165154
0.3733250556165151
0.3733250556165154
0.3733250556165152
0.3733250556165154
0.3733250556165154
)
;
    }
    front
    {
        type            empty;
    }
    top
    {
        type            calculated;
        value           nonuniform List<scalar> 
40
(
0.3733250556165154
0.3733250556165154
0.3733250556165152
0.3733250556165154
0.3733250556165154
0.3733250556165155
0.3733250556165154
0.3733250556165154
0.3733250556165152
0.3733250556165152
0.3733250556165154
0.3733250556165155
0.3733250556165154
0.3733250556165154
0.3733250556165154
0.3733250556165154
0.3733250556165152
0.3733250556165155
0.3733250556165154
0.3733250556165154
0.3733250556165154
0.3733250556165154
0.3733250556165154
0.3733250556165154
0.3733250556165153
0.3733250556165154
0.3733250556165206
0.3733250556147479
0.3733250558040954
0.3733250558366431
0.3733250557765511
0.3733250557309464
0.3733250556980428
0.373325055685356
0.3733250556728452
0.3733250556628818
0.3733250556178107
0.3733250556165154
0.3733250556165154
0.3733250556165154
)
;
    }
    outlet
    {
        type            calculated;
        value           uniform 0.3733250556165154;
    }
    bottom
    {
        type            calculated;
        value           nonuniform List<scalar> 
40
(
0.3733250556165154
0.3733250556165154
0.3733250556165154
0.3733250556177879
0.3733250556982688
0.3733250556854759
0.373325055672652
0.373325055662925
0.3733250557309208
0.3733250557763075
0.3733250558363937
0.373325055804408
0.3733250556165151
0.3733250556165155
0.3733250556165739
0.3733250556148203
0.3733250556165154
0.3733250556165154
0.3733250556165154
0.3733250556165154
0.3733250556165154
0.3733250556165154
0.3733250556165154
0.3733250556165154
0.3733250556165154
0.3733250556165154
0.3733250556165154
0.3733250556165154
0.3733250556165152
0.3733250556165154
0.3733250556165154
0.3733250556165154
0.3733250556165154
0.3733250556165153
0.3733250556165154
0.3733250556165154
0.3733250556165154
0.3733250556165154
0.3733250556165153
0.3733250556165154
)
;
    }
    wall
    {
        type            calculated;
        value           nonuniform List<scalar> 
104
(
0.4953234086475954
0.5333041774042809
0.5370459963790652
0.5372399062401934
0.5415649073767547
0.5429832168662529
0.5431551768418433
0.5733063587659479
0.3840654223994169
0.3731041842450508
0.373168423647717
0.373305801338111
0.373324826565008
0.3733250563620265
0.3733250559115353
0.3733250556304418
0.3733250556165407
0.3733250556165154
0.3733250556165152
0.3449940075582927
0.7902949651622434
0.8500058211265008
0.8482770480086086
0.8470917299228912
0.8470166391093108
0.8470163610088537
0.8470164050302702
0.8469016323760977
0.8282487034004337
0.8206437875624928
0.8124687681099212
0.9127663223579795
0.2061040064580599
0.05624638913310274
0.05097912989399837
0.05075041346064222
0.04955717242874217
0.0494542490176776
0.05284202594933024
0.06597842999691457
0.2403343746936311
0.354759896392214
0.3684295985285596
0.3793855195526978
0.216200511321443
0.1285304631109551
0.08786122913399193
0.08246058319744862
0.08450558596537744
0.08402305965871087
0.08299975447439835
0.08286634229849189
0.08286634229849582
0.08299975447449923
0.0840230596585869
0.08450558596545936
0.08246058319745052
0.08786122913399884
0.1285304631109638
0.2162005113214398
0.3793855195526608
0.3684295985284476
0.3547598963922076
0.2403343746935346
0.065978429996865
0.05284202594938399
0.04945424901767034
0.04955717242875333
0.05075041346073445
0.05097912989390763
0.05624638913300722
0.2061040064579399
0.9127663223577689
0.8124687681096902
0.8206437875622686
0.8282487034000808
0.8469016323753438
0.8470164050299747
0.8470163610086824
0.8470166391092494
0.8470917299225658
0.8482770480087201
0.8500058211262437
0.7902949651623913
0.3449940075583227
0.3733250556165152
0.3733250556165154
0.3733250556165407
0.3733250556304376
0.3733250559115452
0.3733250563620439
0.3733248265650139
0.3733058013380859
0.373168423647717
0.3731041842450396
0.3840654223994376
0.5733063587657495
0.5431551768415271
0.5429832168656896
0.5415649073768204
0.5372399062402464
0.537045996378242
0.5333041774040738
0.4953234086475576
)
;
    }
}


// ************************************************************************* //
