/*--------------------------------*- C++ -*----------------------------------*\
  =========                 |
  \\      /  F ield         | OpenFOAM: The Open Source CFD Toolbox
   \\    /   O peration     | Website:  https://openfoam.org
    \\  /    A nd           | Version:  11
     \\/     M anipulation  |
\*---------------------------------------------------------------------------*/
FoamFile
{
    format      ascii;
    class       volScalarField;
    location    "0.0525";
    object      Ma;
}
// * * * * * * * * * * * * * * * * * * * * * * * * * * * * * * * * * * * * * //

dimensions      [0 0 0 0 0 0 0];

internalField   nonuniform List<scalar> 
880
(
1.443353270571932
1.443353270571932
1.443353270571932
1.443353271212867
1.443353270571932
1.443353270571932
1.443353270571934
1.44335344866803
1.443353270571932
1.443353270571933
1.443353270571932
1.44335170288454
1.443353270571932
1.443353270571932
1.44335327057195
1.443317508592299
1.443353270571932
1.443353270571932
1.443353270571933
1.443353270571932
1.443353270571932
1.443353270571932
1.443353270571935
1.443353270571932
1.443353270706021
1.443353268986753
1.443354249295326
1.443352318606566
1.441607703943298
1.434406887213647
1.428441121097967
1.427636600756427
1.443353269872391
1.443353269460546
1.443353269253002
1.443353270187749
1.443353249666758
1.443353247276514
1.443353245670207
1.443353242056564
1.4433220514635
1.443317781006289
1.443316467874276
1.443305585874202
1.426801060664521
1.426327139903
1.426648990238354
1.421571987369928
1.432575078030226
1.442392572148855
1.446709260734888
1.445178266103104
1.44329362939651
1.443316731988886
1.44334908592223
1.443358390784089
1.443353203650386
1.443353227422501
1.443353263199558
1.443353274478492
1.4433532661709
1.443353266294419
1.443353267941172
1.443353269826136
1.443353270506695
1.443353270571597
1.443353270571932
1.443353270571932
1.44335327151045
1.443353270602229
1.443353270571966
1.443353270571508
1.443354468794865
1.443353313837283
1.443353270957484
1.443353270571915
1.44365451316174
1.443365698739774
1.4433533645034
1.443353262562637
1.443353264253441
1.443353270544037
1.443353270571932
1.443353270571932
1.443353265795543
1.443353270697655
1.443353270584759
1.443353270571932
1.44335051012129
1.443353095914218
1.443353265791062
1.443353270442599
1.444696726102673
1.443405072243233
1.44335333708611
1.443353270614533
1.443353270650996
1.443353112483336
1.443314960168812
1.397412895598238
1.443353268277158
1.443353102464859
1.443114852037194
1.333845214650792
1.443353264371369
1.443353032948955
1.442992368611451
1.316790946077214
1.443353262372996
1.443352971574813
1.442925826196098
1.312734124044676
1.30691398738219
1.442854668698195
1.443352894916804
1.443353260100152
1.301406253441917
1.442769389335389
1.443352797514477
1.443353256661994
1.293407608424869
1.442655065243785
1.443352652436975
1.443353253148443
1.286459622793783
1.442505705621281
1.443352459284594
1.443353243959085
1.44335324722474
1.443352571712812
1.44250087860524
1.278575093248289
1.443353243842802
1.443352410099493
1.442396899041264
1.276892434966901
1.443353238027684
1.443352269821038
1.442347087649706
1.28714259142345
1.443353244281392
1.443352655798861
1.442731016171113
1.347021977482315
1.443353257206085
1.44335721505413
1.443750658007627
1.441610555239225
1.443353366721653
1.443354921781929
1.442475354637621
1.420691894430409
1.443353263683145
1.443343659935177
1.440465258786099
1.34832456252615
1.443353259061179
1.443334192364021
1.437458138254941
1.278527700101608
1.284339598506315
1.439853295888836
1.443346231008424
1.443353266377569
1.307035555814462
1.440307721045816
1.443346541677856
1.443353265935466
1.32988876748199
1.441440229116167
1.443350114160574
1.443353268914585
1.311298439560033
1.440770277710818
1.443348483723262
1.443353267661958
1.375532562717096
1.442535979919416
1.443352029923993
1.443353269765156
1.426006124281875
1.443256996220272
1.443353179186583
1.443353270520938
1.442425853896644
1.443353181697765
1.443353274353873
1.443353270577192
1.445973642338133
1.443370591660733
1.443353310060404
1.443353270578444
1.426405828593041
1.443121168395983
1.443352305380857
1.443353269071723
1.426465682150577
1.443121669293968
1.443352306307298
1.443353269058398
1.426515670818634
1.443122116111641
1.443352302820397
1.443353268976403
1.425757990237448
1.443120934276527
1.443352301787089
1.443353268832896
1.445973642342727
1.443370591663864
1.443353310064867
1.443353270575477
1.442425853901388
1.443353181701537
1.443353274362789
1.443353270576422
1.426006124281775
1.443256996218814
1.44335317918607
1.443353270521066
1.375532562711457
1.442535979910575
1.443352029923234
1.443353269767343
1.443353266371727
1.443346230996447
1.439853295885416
1.284339598502491
1.443353265931017
1.44334654167704
1.440307721041517
1.307035555813149
1.443353268919599
1.443350114155159
1.441440229115892
1.329888767473359
1.443353267661334
1.443348483720811
1.440770277703937
1.311298439563108
1.278527700107694
1.437458138260855
1.443334192370983
1.443353259063521
1.348324562531627
1.440465258791465
1.443343659944142
1.443353263693568
1.420691894430617
1.442475354644426
1.443354921782065
1.443353366728129
1.441610555237477
1.443750658010091
1.44335721505668
1.443353257194212
1.44335324722756
1.443352571706699
1.442500878602662
1.278575093242475
1.443353243841582
1.443352410096453
1.442396899040585
1.276892434966804
1.44335323802194
1.443352269821176
1.442347087654475
1.287142591423782
1.443353244271496
1.443352655799048
1.442731016174415
1.347021977482975
1.286459622783583
1.442505705626852
1.44335245927603
1.443353243960166
1.293407608417029
1.442655065229906
1.443352652436182
1.443353253146753
1.301406253445953
1.442769389325674
1.443352797505828
1.443353256663424
1.306913987374522
1.442854668710731
1.443352894917624
1.443353260101747
1.443353270646714
1.443353112476858
1.443314960169941
1.397412895605336
1.443353268281515
1.443353102471155
1.443114852033168
1.3338452146533
1.443353264373672
1.443353032948627
1.442992368610013
1.316790946071717
1.443353262375804
1.443352971573105
1.442925826197665
1.312734124046614
1.443353270615579
1.443353270441237
1.443353270571932
1.443353270571932
1.443353337093907
1.443353265792131
1.443353270580173
1.443353270571932
1.443405072241175
1.443353095910703
1.443353270700924
1.443353270545568
1.444696726102532
1.443350510120897
1.443353265795298
1.443353264253152
1.443353270571934
1.443353270571381
1.443353270569732
1.443353262560882
1.443353270571932
1.443353270572984
1.443353270948588
1.443353364503167
1.443353270571582
1.443353270602177
1.44335331384268
1.443365698738963
1.443353270505922
1.443353271511054
1.443354468788208
1.443654513164222
1.443353266177241
1.443353203656183
1.443293629400757
1.432575078031508
1.443353266299805
1.443353227422129
1.443316731989899
1.442392572153626
1.443353267942872
1.4433532631919
1.443349085923866
1.446709260736209
1.443353269827473
1.443353274474859
1.443358390784253
1.445178266108221
1.42157198736753
1.443305585861502
1.44335324206015
1.443353270190673
1.42664899024045
1.443316467859837
1.443353245671597
1.443353269251414
1.426327139893977
1.443317781001202
1.443353247275795
1.443353269462322
1.426801060667045
1.443322051488518
1.443353249668281
1.443353269870853
1.427636600753451
1.443352318601782
1.443353270571932
1.443353270571932
1.428441121099616
1.443354249303745
1.443353270571932
1.443353270571933
1.434406887210248
1.443353268989171
1.443353270571932
1.443353270571933
1.441607703944059
1.443353270705228
1.443353270571932
1.443353270571934
1.443353270571932
1.443353270571933
1.443353270571932
1.443353271067288
1.443353270571931
1.443353270571932
1.443353270571932
1.44335344869052
1.443353270571932
1.443353270571932
1.443353270571932
1.443351702904653
1.443353270571932
1.443353270571932
1.443353270571861
1.443317508596708
1.443353864412958
1.44335503592579
1.443356081725282
1.443097124078053
1.443355035855833
1.443360691068578
1.443372848286489
1.440444293532414
1.443356081727085
1.443372848292128
1.442543628453635
1.414318403268293
1.443097124051935
1.440444293545804
1.41431840327992
1.255949452569753
1.09890407060011
1.197324107948132
1.344086449419788
1.408558853368649
1.152528903836227
1.178721486460565
1.249584333173014
1.310829154869503
1.212203192715572
1.241652445768774
1.266408651257855
1.293205712573567
1.2380141401109
1.290764349838237
1.295438742727251
1.305255358027169
1.310215104169025
1.312082830585371
1.312764141067397
1.295486452780364
1.307753777480667
1.311243124649126
1.312149304807054
1.309971369206454
1.311620595074361
1.316818472810925
1.317775359128729
1.369820204662952
1.240884348149231
1.241660662466618
1.241997615445233
1.467421632426955
1.422440274612859
1.506220319333067
1.488764921540998
1.458361809723508
1.525971049664085
1.628431888716194
1.521940383782997
1.46935694511502
1.654026667931283
1.627264698812715
1.544629521926022
1.486120658768819
1.250425911538117
1.268083467250187
1.343130204233091
1.402511345136553
1.445322796170458
1.443450468250207
1.443354662357337
1.443353306915571
1.447473252090819
1.443582250726434
1.443358103536668
1.443353410857672
1.452197363478085
1.443932656803879
1.443365667103627
1.443353541617992
1.434217848062567
1.442667956792619
1.443341140730201
1.443352773428143
1.443353253248874
1.443353280897424
1.443351226851713
1.408085932907953
1.443353263307967
1.443353272811594
1.443352367818501
1.31089755998242
1.443353273440949
1.443353270986549
1.443353158619634
1.21092971130442
1.443353264300016
1.443353269723681
1.443352808791361
1.068808483422567
0.9239295711714034
0.973849461454658
1.01283525619411
1.026900728624078
0.7806466347158929
0.9297013137076452
1.012296787702415
1.037420440361609
0.6861056606656589
0.889040798683999
1.001123390781391
1.033079484006403
0.6214203774329228
0.7951299595347923
0.8791832509736001
0.9114141107200202
1.028125664307264
1.027879466503689
1.026698949048199
1.027267154895241
1.04051003673908
1.040909560412323
1.040986647124013
1.042461656742208
1.03697043278543
1.037208379920095
1.037324883286922
1.038266180014976
0.9191098687195528
0.9192538389770468
0.9191172259057576
0.916545406338396
1.021707077930774
1.024992166348474
1.051850697410735
1.109076877868894
1.040339394563322
1.044434903015161
1.074013242420652
1.156825855944432
1.038792307385322
1.044360736109685
1.088501597800739
1.42184411164445
0.9242488779123266
0.9307033696184862
1.042912761378923
1.885483333982803
1.37529197774294
1.245794937848179
0.4786062111214795
0.1927949763116762
1.330201766984529
1.076085953205115
0.359859229413526
0.2941092396127559
1.431257082570316
0.9434581209186057
0.3774857901045222
0.2543861603508468
1.065135424238794
0.4914986738847597
0.2935089855492152
0.2021707752994957
0.2064331922046307
0.2381619519019226
0.2865436123847827
0.2978116058453837
0.306029552153684
0.2892122612311633
0.2560463854313997
0.4611979417964598
0.268113872683881
0.2639524422828702
0.3597356476700609
0.6070580766876537
0.1987339705123682
0.2257823644357013
0.3807773466533348
0.7244785895874023
1.239313612987204
1.364062980700977
1.443131737630302
1.483977897746799
0.8657703584451492
1.197023381230565
1.392268487319068
1.514440966761542
0.3940278121030553
0.8508138701041481
1.235726784443837
1.622756588879409
0.3489594869742554
0.6540061706511264
1.032436354721989
1.988917754489192
1.605718689966586
1.720324971264492
1.353554613162705
1.052686221224667
1.852239829208098
2.518642736088611
1.955226507981241
1.197898916141512
2.058570908623682
2.557086911070262
1.954122858823532
1.241160526156664
1.508901912343666
1.808006135830982
1.414607904953095
0.8458182941097144
0.6139958523126468
0.587260039509667
0.4856778151314435
0.1432771815512794
0.9933800383812713
0.9166952312926535
0.7738290629818826
0.2762943867578836
0.95100709257256
0.754680359603733
0.4159591674345581
0.1135151761186418
0.8161901624803998
0.6630894878160669
0.5678162901912862
0.5460265636708329
0.1432771815535345
0.2762943867584182
0.1135151761194143
0.546026563667889
0.4856778151325116
0.7738290629827965
0.4159591674344392
0.5678162901924837
0.5872600395100073
0.9166952312925196
0.7546803596053631
0.6630894878176959
0.6139958523117499
0.9933800383802669
0.9510070925740667
0.8161901624816686
1.052686221225548
1.353554613165157
1.720324971268637
1.605718689975563
1.197898916143272
1.955226507975121
2.518642736086704
1.852239829212449
1.241160526155391
1.954122858820358
2.557086911072784
2.058570908625754
0.8458182941082739
1.414607904952845
1.808006135830967
1.508901912343186
1.988917754490802
1.032436354721753
0.6540061706508631
0.3489594869728073
1.622756588882425
1.235726784447081
0.8508138701046579
0.3940278121026707
1.514440966764788
1.39226848732421
1.197023381230913
0.8657703584432956
1.483977897750431
1.443131737634462
1.36406298070114
1.239313612982988
0.2978116058436998
0.2865436123803707
0.2381619519009289
0.2064331922043461
0.4611979417942813
0.2560463854312849
0.2892122612303276
0.3060295521521372
0.6070580766868137
0.3597356476696009
0.2639524422805806
0.2681138726801421
0.7244785895873949
0.3807773466549372
0.2257823644352656
0.1987339705108882
0.1927949763137683
0.4786062111218944
1.245794937839387
1.375291977742743
0.294109239604621
0.3598592294132612
1.076085953200758
1.330201766988511
0.2543861603394699
0.3774857901021126
0.9434581209136497
1.431257082574381
0.2021707752943274
0.293508985549028
0.4914986738810503
1.065135424240458
1.109076877869996
1.051850697410341
1.024992166347481
1.021707077926876
1.156825855946245
1.074013242420392
1.044434903013534
1.040339394559992
1.421844111646831
1.088501597800908
1.044360736108568
1.03879230738392
1.88548333398649
1.042912761381269
0.9307033696223278
0.9242488779180681
1.027267154890499
1.02669894904521
1.027879466505174
1.028125664303037
1.042461656739887
1.04098664712127
1.040909560412008
1.040510036737224
1.038266180014756
1.037324883285138
1.037208379919506
1.036970432785393
0.9165454063440882
0.919117225907169
0.9192538389774133
0.9191098687227529
1.026900728625632
1.01283525619121
0.973849461456414
0.9239295711729809
1.037420440362899
1.012296787700129
0.9297013137095084
0.7806466347163846
1.033079484007404
1.001123390779707
0.8890407986852883
0.6861056606658736
0.911414110720301
0.8791832509745234
0.7951299595353288
0.621420377432166
1.408085932907682
1.443351226853467
1.443353280898672
1.443353253248193
1.310897559982049
1.443352367819205
1.443353272812436
1.443353263307512
1.210929711303962
1.44335315861981
1.443353270986774
1.443353273440923
1.068808483421928
1.44335280879187
1.443353269723712
1.443353264299867
1.443353306914207
1.443354662355301
1.443450468249936
1.445322796173896
1.4433534108565
1.443358103531587
1.443582250731211
1.447473252088216
1.443353541617012
1.443365667096289
1.443932656812468
1.452197363472352
1.443352773428721
1.443341140729623
1.442667956795034
1.434217848066329
1.458361809729002
1.488764921541821
1.506220319337541
1.422440274613526
1.469356945119727
1.521940383782731
1.628431888718827
1.525971049664601
1.486120658773415
1.544629521925537
1.627264698814998
1.654026667932631
1.402511345132172
1.343130204234543
1.268083467251648
1.250425911539008
1.295486452779869
1.312764141067514
1.312082830582461
1.310215104167972
1.309971369208999
1.312149304806566
1.311243124647776
1.307753777478269
1.369820204667531
1.317775359129111
1.316818472812263
1.311620595073552
1.467421632433323
1.241997615452319
1.241660662473155
1.240884348145005
1.305255358025094
1.293205712575211
1.310829154866822
1.408558853369421
1.295438742726474
1.266408651258787
1.249584333172546
1.344086449419793
1.290764349835806
1.241652445771305
1.178721486461354
1.197324107947437
1.238014140116105
1.212203192722046
1.152528903836845
1.098904070601669
1.442354152732032
1.443328997683641
1.443353172711909
1.443353270424407
1.437612674707195
1.443280175353574
1.443352983952772
1.44335327011886
1.427985694467282
1.443191790423321
1.443352647266425
1.443353269471991
1.419379201486427
1.443086419176632
1.443352255616739
1.443353268758562
1.443353269068367
1.443352305382609
1.443121168395779
1.426405828592207
1.443353269055771
1.443352306303126
1.443121669298874
1.426465682147293
1.44335326897966
1.443352302815524
1.443122116113478
1.426515670824578
1.443353268843073
1.443352301781532
1.443120934295425
1.425757990240756
1.443353268759601
1.443353269473827
1.443353270129515
1.443353270436064
1.443352255616002
1.443352647266432
1.44335298395502
1.443353172718115
1.443086419171516
1.443191790428468
1.443280175347417
1.443328997688887
1.419379201493416
1.427985694472375
1.437612674704994
1.442354152732227
)
;

boundaryField
{
    back
    {
        type            empty;
    }
    inlet
    {
        type            calculated;
        value           nonuniform List<scalar> 
16
(
1.443353270571932
1.443353270571932
1.443353270571932
1.443353270571932
1.443353270571932
1.443353270571932
1.443353270571932
1.443353270571932
1.443353270571932
1.443353270571932
1.443353270571932
1.443353270571933
1.443353270571932
1.443353270571932
1.443353270571932
1.443353270571932
)
;
    }
    front
    {
        type            empty;
    }
    top
    {
        type            calculated;
        value           uniform 0;
    }
    outlet
    {
        type            calculated;
        value           nonuniform List<scalar> 
16
(
1.443353268552241
1.443353268535699
1.443353268415294
1.443353268216471
1.44335327036493
1.443353269952692
1.443353269074209
1.443353268108626
1.443353268550071
1.443353268533959
1.44335326841737
1.443353268223095
1.443353268109289
1.443353269075282
1.443353269959502
1.443353270372519
)
;
    }
    bottom
    {
        type            calculated;
        value           uniform 0;
    }
    wall
    {
        type            calculated;
        value           uniform 0;
    }
}


// ************************************************************************* //
