/*--------------------------------*- C++ -*----------------------------------*\
  =========                 |
  \\      /  F ield         | OpenFOAM: The Open Source CFD Toolbox
   \\    /   O peration     | Website:  https://openfoam.org
    \\  /    A nd           | Version:  11
     \\/     M anipulation  |
\*---------------------------------------------------------------------------*/
FoamFile
{
    format      ascii;
    class       volScalarField;
    location    "0.325";
    object      Ma;
}
// * * * * * * * * * * * * * * * * * * * * * * * * * * * * * * * * * * * * * //

dimensions      [0 0 0 0 0 0 0];

internalField   nonuniform List<scalar> 
880
(
1.11801663592382
1.118016635432366
1.117957466617325
1.105382284675318
1.118016635924367
1.118016634688003
1.11792325757161
1.100682226894229
1.118016635916754
1.118016631265321
1.117823742473311
1.094439209775964
1.118016635871651
1.11801661163994
1.117559596153522
1.076152746789059
1.118016636320738
1.118016634970818
1.118016610681804
1.118016242135541
1.118016475820898
1.118015241163046
1.118009932946405
1.118021769922492
1.116800420106488
1.115884562014219
1.114619096111697
1.114307747084347
1.039001943810119
1.002933148680904
0.9822765209630413
0.9793472140561221
1.118012424539813
1.11800353638894
1.117990675223314
1.117911906970971
1.117932037815749
1.117607610025615
1.11709948451537
1.116193020881001
1.106489934901882
1.100372674693879
1.092410611246535
1.085198494262056
0.9686243367822986
0.9681878751670835
0.9659695912265596
0.987558630444841
1.045184069144948
1.078584374192614
1.092766056805119
1.104645927102645
1.071463278079821
1.070922224269787
1.075615455102529
1.082885229161604
1.112726839493003
1.108430714935728
1.104222331106266
1.101905179805075
1.117528146424493
1.116859238749349
1.115879498726289
1.114716256991376
1.113652302063402
1.11288099710615
1.112357390782602
1.112112466873411
1.101623584722903
1.103516885900094
1.107275595005088
1.111985993601373
1.091288688794249
1.100950622129273
1.108994269507698
1.11643137343988
1.112117964211531
1.120959012802307
1.123879678231799
1.128937590779457
1.131372904270988
1.123769646174917
1.116998190576374
1.111978523924224
1.110773709922984
1.128376449323309
1.122526609004222
1.112174349568796
0.9180079677990033
1.124547360840234
1.126255677115873
1.112951000909748
0.6374403686021759
1.069047566258438
1.127331866413461
1.114763041939312
1.113350481720941
1.123475208415284
0.9942606612576779
0.5490320572064044
1.112720616947075
1.114462874678142
0.9332346587719161
0.5787375503207329
1.111984842039427
1.094872532681014
0.860127915783642
0.5953638649486013
1.109251990279638
1.06336461239213
0.805831683682882
0.625331252344846
0.6670065014084532
0.7744216982471792
1.01657628751376
1.103041590304304
0.712935482914086
0.7843811633851321
0.967670165084324
1.090577904116814
0.7614194007332412
0.8138938134794887
0.9366829817846414
1.070834359841953
0.8086319613638391
0.8634807602110415
0.9335050162527319
1.046002226702686
1.021877799762784
0.9835013158381342
0.9398304538188602
0.8693300799353477
1.035098749892055
1.041197858486924
1.027490009259664
0.9517245825374672
1.055905648934505
1.102168562209844
1.121538401455454
1.057021285358408
1.07233382051965
1.142666804833071
1.207960875091252
1.183105082490721
1.08641378912212
1.179917213242563
1.285045462401666
1.379005581280266
1.106086397864191
1.206927004515095
1.335616107851582
1.566722018107432
1.120001545663953
1.208207902619904
1.360225190511277
1.798469167959548
1.127839538123714
1.193870155192983
1.324818341935655
1.7941545569318
1.382304073571127
1.281602722158353
1.184085098299239
1.1322304680423
1.071380823050316
1.249875693521434
1.171878576260742
1.131903887601932
0.9699702816331399
1.226755242650215
1.162324485185969
1.128829931649108
0.8422483406141497
1.187355547617656
1.148784563089125
1.125329420144254
0.7594923688285908
1.125998192902575
1.128578951098843
1.120954542660885
0.7219473420017465
1.072906643589658
1.11158318113311
1.118123979364367
0.7138152218597845
1.033454955912326
1.105975091363433
1.117570232149526
0.7232163570844418
1.04091712582859
1.108934090150257
1.117697448072049
0.703222065188461
0.9730562994252979
1.087919460512026
1.115810583123637
0.7207142631714087
0.9711546523590291
1.087169852422995
1.115685787399115
0.7465602823585182
0.968670669099721
1.086708517000294
1.115537243399708
0.757487081486127
0.9730295316628989
1.087782313827584
1.11554468780116
0.7232163570850239
1.040917125830928
1.108934090154149
1.117697448077509
0.7138152218604361
1.033454955915401
1.105975091364583
1.117570232152345
0.7219473420033728
1.072906643592531
1.111583181134312
1.118123979367309
0.7594923688285027
1.12599819290623
1.12857895109969
1.120954542661867
1.132230468041544
1.184085098298534
1.281602722156856
1.382304073576407
1.131903887601224
1.171878576259978
1.249875693521288
1.071380823051082
1.128829931647064
1.162324485185085
1.226755242655023
0.9699702816331094
1.125329420142897
1.148784563086491
1.187355547621169
0.8422483406145292
1.794154556935158
1.324818341935227
1.193870155194651
1.12783953812424
1.798469167960623
1.360225190512572
1.208207902619821
1.120001545664409
1.566722018107541
1.335616107851874
1.206927004516103
1.106086397860805
1.379005581279446
1.285045462403101
1.179917213244493
1.086413789116611
1.021877799760082
0.9835013158350278
0.939830453816236
0.8693300799349659
1.035098749891797
1.041197858487737
1.027490009257785
0.9517245825363407
1.055905648938312
1.102168562210768
1.121538401454219
1.057021285357807
1.072333820516524
1.142666804834706
1.20796087509078
1.183105082489569
0.8086319613640126
0.8634807602108672
0.9335050162511319
1.046002226694873
0.7614194007336054
0.8138938134796747
0.9366829817853083
1.070834359841013
0.7129354829146199
0.7843811633855957
0.9676701650858194
1.090577904114627
0.6670065014090587
0.7744216982462442
1.016576287509404
1.10304159030285
1.113350481721174
1.123475208416355
0.994260661259025
0.5490320572078526
1.112720616941364
1.114462874675792
0.9332346587728199
0.5787375503213572
1.111984842031799
1.094872532674726
0.8601279157838165
0.5953638649499304
1.109251990276847
1.063364612393844
0.8058316836842011
0.6253312523449576
1.114763041939813
1.112951000910388
1.112174349566041
1.111978523923711
1.127331866418606
1.126255677117357
1.122526609005712
1.116998190577248
1.069047566262658
1.124547360841532
1.128376449327136
1.123769646176922
0.6374403686043042
0.9180079678012425
1.11077370992225
1.131372904270882
1.112112466871172
1.111985993598513
1.116431373437899
1.12893759077773
1.112357390783821
1.107275595002311
1.108994269506059
1.123879678231791
1.112880997106228
1.103516885898956
1.10095062213158
1.120959012806289
1.113652302065904
1.101623584723295
1.091288688794139
1.112117964212354
1.117528146425126
1.11272683949779
1.071463278077654
1.045184069143662
1.116859238752834
1.108430714938503
1.070922224268381
1.078584374192129
1.11587949872393
1.104222331108182
1.075615455104404
1.092766056809788
1.114716256993229
1.101905179806674
1.082885229161056
1.104645927105996
0.9875586304456996
1.08519849426207
1.116193020885746
1.117911906968387
0.9659695912275115
1.092410611245552
1.11709948451914
1.117990675224225
0.9681878751664277
1.10037267469456
1.117607610032533
1.118003536391372
0.9686243367830427
1.106489934904191
1.117932037819589
1.118012424536705
0.9793472140570321
1.114307747084299
1.118021769922934
1.118016242133125
0.9822765209633658
1.114619096112558
1.118009932949748
1.118016610680879
1.002933148678747
1.115884562015563
1.118015241165353
1.118016634972184
1.039001943802261
1.116800420108242
1.118016475823514
1.118016636317633
1.118016635923784
1.118016635431916
1.117957466617391
1.105382284670678
1.11801663592368
1.118016634690991
1.117923257571884
1.100682226870328
1.118016635916333
1.118016631267937
1.117823742473817
1.094439209754864
1.118016635869817
1.118016611642739
1.117559596154535
1.076152746774282
1.09614110477699
1.087286758282993
1.068184509119495
1.020567145025688
1.087286758332815
1.073357030250171
1.039400162748588
0.9664453152044074
1.068184509198536
1.039400162803263
0.9751348309155675
0.8723995777724791
1.020567145054854
0.9664453152413864
0.8723995778005047
0.763083282746338
0.7354405806324888
0.7740862009447042
0.8474833827204105
0.919253714343343
0.7906974660870897
0.7958687307593715
0.8263197894028615
0.8723378154893991
0.7795671652575594
0.8179570521116506
0.8486435976142256
0.8709150971643245
0.8138214013654503
0.8561772748782355
0.8784433473047788
0.890191797884135
0.9057065598882958
0.9166822074483296
0.9356706414590633
0.971751416833542
0.9031826389003228
0.9170816402620759
0.9402209198828302
0.9936636972927838
0.8915584161593929
0.9132918556326015
0.9413499266277544
1.057011986864051
0.8444310801023107
0.8692763162749831
0.9046754818606992
1.143747584640554
1.152701365067269
1.192228570028901
1.163044828153878
1.154839051084042
1.272953107143134
1.297379157514321
1.243127481198285
1.211190056175652
1.428576301468536
1.360627387858938
1.292412531940708
1.247826233077713
1.162057515201653
1.097453155840629
1.084687796166242
1.085690790152698
1.152144746710615
1.15296620679381
1.151253794050109
1.148425555658432
1.190088687498263
1.174313034389768
1.161202665426989
1.148294421255611
1.214946732389421
1.187839249495602
1.166600466338217
1.144834227485716
1.078935639522375
1.068452509940846
1.057594909535826
1.040221078173044
1.141925237009427
0.9650579837526847
0.6575715055876944
0.4142215726923806
1.129779227546321
0.8331767888770176
0.4664048175836487
0.2183975712412076
1.100658254778327
0.6686349683769613
0.2483656764355366
0.01726089901062861
0.9548357163566907
0.4444655655507464
0.07853290888371837
0.07407982854269095
0.3717824822726437
0.4523849495838658
0.5004160795079375
0.5659313203557743
0.2842341213793564
0.4234240848741584
0.4970193372732438
0.5637367019910147
0.1492750639808895
0.34696905216173
0.4698454964332233
0.5497912117194401
0.0276039776236627
0.1928768700908247
0.3427368553906904
0.4574543909524009
0.6273982349482984
0.6884583773589714
0.7543338516353602
0.8068888060690834
0.6265503336890308
0.6843825843823815
0.7490872741042917
0.8048752782692932
0.6180622791851302
0.677275078937952
0.742088563226695
0.8028486817256151
0.5572344545882745
0.6598384101668646
0.7351893644924203
0.8011878704812577
0.8587791392142216
0.9287553653428183
1.014287453121354
1.124724543220582
0.8538522233184552
0.9156377491123319
0.9961165306953494
1.139455891172028
0.8521234759701368
0.9040236569649555
1.012274611709919
1.450596101727629
0.8501094051888044
0.8978618263676983
1.038851897338428
2.022813425128164
1.345426437999331
1.490600530322203
0.7964196894869661
1.762907153598705
1.433116541792428
1.271296646820783
1.154875403482496
1.836929262683421
1.474077323716247
0.8812204765139346
1.297134394973458
1.788895666709187
1.14022080693752
0.4003577225137304
1.504309835522119
1.723103781000523
1.128863472236988
0.7083900223849555
0.592624848909505
0.3977229899157461
1.264034815834261
0.8814088354493634
0.6481203961424632
0.3217371960313883
1.249176311352516
0.9201868165726996
0.5849053197570973
0.2241484823850774
1.197360105055662
0.8945984876337179
0.5361392590345673
0.1711396210960122
0.2395077835109413
0.02427563641969612
0.2478597530532773
0.4334295909180588
0.2852127621651557
0.172472452869163
0.09643712962509177
0.368902590928452
0.256710950181309
0.2759301969625252
0.08470631702348785
0.2612502575910745
0.204507856373796
0.292814654542814
0.1565441190125212
0.1943745887229399
0.3860395328642409
0.4144113664505136
0.4284127663411369
0.4283811194937562
0.3865294623056017
0.3909126031701375
0.4021444099240855
0.3871372235395186
0.3268908423098174
0.2750540837420005
0.2566472137578233
0.2044292027418743
0.3507141207570971
0.2349867928063055
0.1736867597770841
0.09086834155773743
0.05719347183458669
0.07120320699887771
0.08184620238198016
0.08293152250032892
0.1251459432190153
0.06224951243251738
0.05190712680581343
0.0774515628553054
0.329187068820709
0.2551193089275115
0.1578003216672547
0.05988192931954916
0.4043576746199642
0.3598090969817159
0.2917937314654818
0.2330198663158744
0.08293152250046419
0.07745156285520914
0.05988192931767238
0.2330198663153742
0.08184620238213831
0.05190712680550419
0.1578003216656535
0.2917937314655484
0.07120320699907903
0.0622495124317417
0.2551193089264576
0.3598090969819782
0.05719347183479027
0.1251459432183411
0.3291870688200969
0.4043576746199335
0.4283811194936586
0.4284127663407737
0.4144113664497318
0.3860395328637872
0.3871372235390503
0.4021444099236063
0.3909126031694612
0.3865294623050101
0.2044292027413168
0.2566472137575142
0.2750540837416506
0.3268908423092813
0.09086834155762258
0.1736867597770208
0.2349867928062592
0.350714120757069
0.1943745887231653
0.156544119011171
0.2928146545406312
0.2045078563720951
0.2612502575905759
0.08470631702275566
0.2759301969603269
0.2567109501790354
0.3689025909276948
0.09643712962535704
0.1724724528670605
0.2852127621627974
0.4334295909174476
0.2478597530531951
0.02427563641994545
0.2395077835081631
0.3977229899115992
0.5926248489090078
0.7083900223941306
1.1288634722555
0.3217371960287566
0.6481203961411183
0.8814088354534243
1.264034815841925
0.2241484823837464
0.584905319756049
0.9201868165730769
1.249176311355324
0.1711396210954254
0.5361392590335071
0.8945984876324302
1.197360105057218
1.762907153603546
0.7964196894903517
1.490600530318056
1.345426437997665
1.836929262688772
1.154875403491182
1.271296646818276
1.433116541790804
1.788895666713227
1.297134394980423
0.8812204765125999
1.474077323715578
1.723103781005171
1.504309835530206
0.4003577225149632
1.140220806937728
1.124724543220011
1.014287453121287
0.9287553653423738
0.858779139214455
1.139455891171555
0.9961165306951614
0.9156377491119744
0.853852223317805
1.450596101726969
1.012274611709648
0.9040236569643558
0.8521234759688622
2.02281342512717
1.038851897338072
0.8978618263671363
0.8501094051874487
0.806888806069021
0.7543338516358942
0.6884583773599307
0.627398234948654
0.8048752782682641
0.7490872741045503
0.6843825843831819
0.6265503336892478
0.8028486817240629
0.7420885632264658
0.6772750789385835
0.6180622791855035
0.8011878704797065
0.7351893644919664
0.6598384101680781
0.557234454590282
0.5659313203554741
0.5004160795050437
0.4523849495836221
0.3717824822737424
0.5637367019904543
0.4970193372709842
0.4234240848739957
0.2842341213806099
0.5497912117189776
0.4698454964319531
0.3469690521612969
0.1492750639818881
0.4574543909527913
0.3427368553890788
0.1928768700898588
0.02760397762421351
0.4142215726939595
0.6575715055901785
0.9650579837531487
1.141925237007694
0.21839757124261
0.4664048175863452
0.833176788878922
1.129779227544668
0.01726089901122033
0.2483656764377372
0.6686349683792835
1.100658254776042
0.07407982854212626
0.07853290888462071
0.4444655655509001
0.9548357163527055
1.148425555657318
1.151253794052028
1.152966206799225
1.152144746712925
1.148294421254062
1.161202665429145
1.174313034394008
1.19008868749992
1.144834227483694
1.166600466340123
1.187839249499767
1.214946732390521
1.040221078169409
1.057594909536962
1.068452509943985
1.078935639524684
1.15483905108818
1.163044828160031
1.192228570028092
1.152701365066452
1.211190056181103
1.243127481204677
1.297379157513649
1.272953107142732
1.247826233083938
1.292412531947005
1.360627387857795
1.428576301468979
1.08569079015257
1.084687796170296
1.0974531558389
1.162057515203523
0.9717514168343822
0.9356706414593606
0.9166822074460744
0.9057065598866193
0.9936636972936346
0.9402209198819299
0.9170816402593882
0.9031826388980617
1.057011986865153
0.9413499266260381
0.9132918556284134
0.8915584161561422
1.143747584641856
0.9046754818609354
0.869276316274769
0.8444310801033134
0.8901917978848843
0.8709150971637361
0.8723378154879786
0.9192537143345924
0.878443347304281
0.8486435976120891
0.8263197893995859
0.847483382706452
0.8561772748766625
0.8179570521081576
0.7958687307542202
0.774086200933663
0.8138214013667188
0.7795671652573642
0.7906974660817139
0.7354405806282343
0.661745831015922
1.019512246710323
1.104210498484682
1.117297737187451
0.698382565990687
1.000395187853102
1.098888396777464
1.116813770208222
0.7147124291194734
0.9951957404332403
1.094687817538776
1.116257578096555
0.7340706598911062
0.9837363601263739
1.09076420927633
1.115804502508572
1.115810583122104
1.087919460511774
0.9730562994247343
0.7032220651868902
1.115685787398837
1.087169852421989
0.9711546523580415
0.7207142631721062
1.115537243399991
1.086708517002366
0.9686706690991115
0.7465602823595449
1.115544687801042
1.087782313830099
0.9730295316626018
0.7574870814858568
1.115804502509405
1.116257578094915
1.116813770208486
1.117297737191541
1.090764209279063
1.094687817539814
1.098888396778789
1.104210498486728
0.9837363601273424
0.9951957404343444
1.000395187854422
1.019512246711422
0.734070659890761
0.7147124291192432
0.6983825659902589
0.6617458310162776
)
;

boundaryField
{
    back
    {
        type            empty;
    }
    inlet
    {
        type            calculated;
        value           nonuniform List<scalar> 
16
(
1.11801663592382
1.118016635923681
1.118016635923417
1.118016635912125
1.11801663600982
1.118016635936117
1.118016630018315
1.118016450216194
1.118016450215417
1.118016630017909
1.118016635936045
1.118016636009719
1.118016635923784
1.118016635923681
1.118016635923177
1.118016635911552
)
;
    }
    front
    {
        type            empty;
    }
    top
    {
        type            calculated;
        value           uniform 0;
    }
    outlet
    {
        type            calculated;
        value           nonuniform List<scalar> 
16
(
1.115147455250612
1.115001760739838
1.11483363846272
1.114834967210723
1.117044366405475
1.11644521856756
1.115742953173137
1.115169775318735
1.115147455248862
1.115001760739309
1.114833638463012
1.11483496721084
1.115169775319453
1.1157429531712
1.116445218568233
1.117044366409685
)
;
    }
    bottom
    {
        type            calculated;
        value           uniform 0;
    }
    wall
    {
        type            calculated;
        value           uniform 0;
    }
}


// ************************************************************************* //
