/*--------------------------------*- C++ -*----------------------------------*\
  =========                 |
  \\      /  F ield         | OpenFOAM: The Open Source CFD Toolbox
   \\    /   O peration     | Website:  https://openfoam.org
    \\  /    A nd           | Version:  11
     \\/     M anipulation  |
\*---------------------------------------------------------------------------*/
FoamFile
{
    format      ascii;
    class       volScalarField;
    location    "0.325";
    object      T;
}
// * * * * * * * * * * * * * * * * * * * * * * * * * * * * * * * * * * * * * //

dimensions      [0 0 0 1 0 0 0];

internalField   nonuniform List<scalar> 
880
(
500
500.000000123292
500.0138135426695
502.6968150636602
500.0000000001248
500.000000333611
500.0199562980544
504.0696432706568
500.0000000003604
500.0000012800105
500.0389491755045
505.7438462123772
500.0000000104607
500.0000061707654
500.085670923756
508.2713465000288
499.9999999230787
499.9999999890017
500.000005282127
500.0001661045696
500.000034590448
500.0000891922782
500.0013131664793
500.001827417212
500.2035976571081
500.3482629062638
500.5959838652409
500.7277584819527
513.5963531794924
519.6460013869054
524.7600320278789
527.32380195391
500.0003717745548
500.0025427366515
500.0077015175405
500.0283210384225
500.0184850381564
500.0714832436615
500.1472122778115
500.3032737474117
502.053140410854
503.198574635514
504.5814596438006
506.3050179589874
529.6093283424694
532.4379542728879
533.1613630148238
532.4209497368358
522.4083835280092
517.4736713184553
515.65571824673
514.0280644296797
509.9880059691045
511.5164053849796
512.4974995515988
512.6919543292124
500.913948157467
501.604027226588
502.3722204284357
503.0253075506142
500.1007906086114
500.2533478618925
500.4929697285213
500.8259245581212
501.1906396446734
501.546927926349
501.8670973038338
502.0226526973318
503.5217786312514
503.8309485067986
504.0387510994115
504.0187951239679
512.2413416114202
511.6428147887403
510.6267965530274
509.5775744307322
512.2498956661514
511.5099354957279
510.4243599176745
509.8343151909223
508.7899389449272
508.7788156844605
503.9681101522522
502.0472778380613
513.7670314763975
507.69827506992
503.8495570635276
501.9373240957749
549.9603794514603
509.0461416191956
503.2472958606621
501.538989596029
606.0531514150612
518.3205166694673
503.7148869071853
501.4609412876766
500.9053117143723
504.3406887500049
531.9533216199693
631.446949578669
500.59757706413
505.7409132324141
545.9291961445839
630.6094956192333
500.8317025583005
509.0921121640051
564.5563346381612
634.0218380871323
501.6311911980383
515.4801738186698
582.7457679854632
635.7340094565739
632.5866808826845
597.1633568286157
526.3503271244309
503.4031595785073
626.9309399499546
604.7353535007447
540.1230758075362
506.797822501484
619.194238854992
603.6860623687068
553.7797377765266
512.346592655795
609.828217448395
597.5088094400445
560.9415382789915
520.0758949454414
528.9292250139732
559.7782714103136
583.6119070726746
598.9014525369601
528.5544527377953
548.7583501358419
566.3468563922526
583.4400871603156
526.22047290742
537.9005453820909
547.8262858374101
562.1369860256821
522.5726918411916
527.5187870264252
527.9067097560965
532.8340196834406
520.1313199582053
519.0020304760089
512.1587070339059
498.7811737967796
515.5021116273631
510.3437402562045
496.6198546480648
462.2507494608553
511.4099316462484
505.3963575595204
489.2454358411241
419.7424821894269
507.9972790725537
504.752077831552
492.2048182849709
400.6004863690749
455.3648495934874
497.2919058072421
503.6422279489651
504.9525971598252
506.1602174965733
500.4970356438272
502.5677030649159
502.9031767392034
535.3188047159193
502.8244947927275
501.3383588468629
501.4998220447816
545.6027746591864
506.8919138508179
500.5696816164886
500.7854573545499
540.2791647861642
506.9314465093339
498.9322746304426
499.7224122324493
525.3924475277681
503.4692267628859
497.5975728165094
499.319539681501
509.9927208208117
500.3279490105157
497.6535758128857
499.5203973529556
501.2715478256093
496.0304743356092
497.7146899037822
499.7509497462908
463.5969533280054
473.0124238890639
493.261138273819
499.4058751242231
458.5154410017312
474.2395398473621
493.3308244940111
499.3870882118251
453.3814502092163
476.430541807906
493.4137087554314
499.3694670006703
453.0665019673872
479.101093882542
493.7928525042874
499.3639924670366
501.2715478257243
496.0304743355192
497.7146899042594
499.7509497459365
509.9927208208304
500.3279490100293
497.6535758127816
499.5203973522769
525.3924475275984
503.4692267622399
497.5975728156613
499.3195396806847
540.2791647861455
506.9314465085549
498.9322746302165
499.7224122321331
504.9525971597108
503.6422279493145
497.2919058079752
455.3648495927395
502.9031767389407
502.5677030649565
500.497035644224
506.1602174960914
501.4998220447711
501.3383588468762
502.8244947919261
535.3188047161034
500.7854573544727
500.5696816168243
506.891913850015
545.6027746593161
400.6004863690276
492.2048182852403
504.752077831617
507.9972790724698
419.7424821894807
489.24543584124
505.3963575599986
511.4099316461101
462.2507494610572
496.6198546484189
510.343740256474
515.502111627426
498.7811737971383
512.158707033914
519.0020304756953
520.1313199583014
528.9292250140197
559.778271410829
583.611907073266
598.901452537329
528.5544527375326
548.7583501356902
566.3468563923752
583.4400871607904
526.2204729065851
537.9005453822372
547.8262858374719
562.1369860259965
522.5726918409791
527.5187870261632
527.9067097560797
532.8340196838772
609.8282174486445
597.5088094402846
560.9415382792314
520.0758949463781
619.1942388553414
603.6860623689589
553.7797377767275
512.3465926557293
626.930939950343
604.7353535009739
540.1230758072928
506.7978225015531
632.5866808830264
597.1633568288846
526.3503271248301
503.4031595784742
500.9053117143759
504.3406887499834
531.9533216199285
631.4469495785984
500.5975770648113
505.7409132328769
545.929196144636
630.6094956190055
500.8317025592403
509.0921121651764
564.5563346385535
634.0218380870062
501.6311911981829
515.4801738181989
582.7457679857869
635.7340094569561
501.4609412874601
501.5389895958657
501.9373240962005
502.0472778382012
503.7148869063158
503.2472958604395
503.849557063386
503.9681101521742
518.3205166688705
509.0461416191158
507.6982750694314
508.7788156842919
606.0531514145976
549.960379451097
513.7670314765974
508.7899389450992
502.0226526977216
504.0187951242178
509.5775744311309
509.8343151912652
501.8670973038163
504.038751099793
510.6267965534379
510.4243599178187
501.5469279263976
503.8309485069835
511.6428147887015
511.509935495115
501.1906396442919
503.5217786310179
512.2413416117024
512.2498956661302
500.1007906081567
500.9139481573125
509.988005969581
522.4083835283508
500.2533478612087
501.6040272263924
511.5164053857048
517.4736713186716
500.4929697287351
502.3722204283227
512.4974995518323
515.6557182459957
500.8259245577389
503.0253075504872
512.6919543297287
514.0280644291432
532.420949736869
506.3050179591575
500.3032737473202
500.0283210387258
533.1613630148794
504.5814596439458
500.1472122774573
500.0077015173582
532.4379542732821
503.1985746354886
500.0714832425086
500.0025427361068
529.6093283427138
502.0531404106634
500.0184850377233
500.0003717752754
527.3238019540054
500.7277584822363
500.0018274174017
500.0001661052647
524.7600320279864
500.5959838652225
500.0013131661513
500.0000052824896
519.6460013868837
500.3482629061838
500.0000891920168
499.9999999890654
513.5963531785995
500.2035976570658
500.0000345901231
499.9999999231684
500.000000000033
500.0000001235841
500.0138135426037
502.6968150643877
500.0000000001247
500.0000003332611
500.0199562980337
504.0696432709255
500.0000000005753
500.0000012798049
500.0389491755171
505.7438462099807
500.0000000109736
500.0000061705155
500.0856709237207
508.2713464988819
505.1099693263749
507.5072746220939
511.4386093389267
519.7020844203438
507.5072746192723
510.549093876703
516.7576081035118
528.9210593289805
511.438609338028
516.7576081048499
526.6568917266936
541.7343827947592
519.7020844191758
528.921059328541
541.7343827957225
558.2412230083551
575.7310834267643
562.359325501808
555.1853696258626
542.5833045558791
573.7770273382204
569.7354371913781
568.4062324988078
562.4624247383302
573.9973466488909
572.840912370373
572.1746645684583
570.2671474278648
570.8707123525562
570.3573545355353
570.3993431018149
569.532657238517
566.6370246078784
564.8649370836471
560.1075502316606
553.6411873991227
566.3557846675234
564.479381198598
559.9876964461397
554.2760407116486
566.4010043449633
564.4912896553665
559.8925677619366
554.8906862971419
566.5201899618713
564.2372882576528
559.9949761893569
550.9960237887943
512.9983094963376
493.6930652166126
491.0848066635258
491.6743744175777
502.5480933638114
489.5359242262728
491.2476407976335
492.2576745309892
492.3400580815394
489.5922647995554
492.8207462558194
493.9383948834917
470.4270248437788
484.8912447284793
491.2521314835565
492.5851571329563
492.2494409793236
493.2356300695927
494.776919211366
496.2456026232397
492.7358066694613
493.4811803367661
494.6611768874788
496.3683972512933
494.1928695025896
494.5501374283225
495.3005082673442
496.4977770831596
493.1693633652078
493.8370075167073
494.763495966522
496.7031991197746
499.9513631104969
546.9977241762078
616.3353820557196
656.522207237681
502.2017325394079
560.1442520610394
624.4796256989848
651.3304661288596
504.9894825564648
567.9910099385844
627.1408534251743
652.9269867134832
506.9437365009102
576.4639856030249
630.6472478820083
652.5648174054617
690.4438222637181
680.2259779314528
673.9996355279474
665.018297343644
698.9200331235543
688.9258647720212
681.4590282743337
670.8377919117261
705.8501086059463
696.3640724287172
688.2277143379829
676.8316141458405
704.2702236794239
700.4637885183673
691.8998618517293
680.0675680969769
653.0248977478755
641.2800145302506
628.3792560541123
620.7139932249503
657.5995643914855
645.2490209554123
631.5724507946788
622.3995630021732
662.5074448588394
649.7718348005208
635.7312089432728
624.7354917657918
665.593154528972
654.273075423664
640.5267391456168
627.5798282753658
614.939762717824
606.4226977814448
590.4342755381034
565.8457280694041
616.0338110800919
607.2719546898733
593.1149228286296
593.4360808638984
616.8758703546123
607.248220488682
600.991372398718
620.5167438662181
618.7649660654494
611.016405506059
613.8017057611231
604.0220382999995
524.0182230452124
458.6415375403482
373.2317781826526
284.8571123169344
511.7519078374886
417.5154759495019
284.3594257975616
241.6474362098592
469.9611827710797
365.8444683492825
249.9859283022437
236.2282516521816
369.5810619287276
285.5595143088062
231.4691851429131
244.7530251680757
345.4802194836962
427.6333946556132
476.9355039694331
516.821828926699
316.3495484350962
389.2020311257128
438.7949603759465
480.122810516147
300.1245113894052
352.3369487486704
396.6728905490532
434.084377612436
303.3685962370081
349.0529276947876
393.2420070283559
419.9890453863965
490.9906751088196
504.7412380187068
497.3325529878347
494.1234187905939
438.7823167513972
471.4004555340064
483.6946480614035
495.9564287587158
403.2268223312333
431.9417718843405
463.6139780482886
504.2202702737261
387.7678379429644
407.3019724891706
441.8874476276227
518.6898890582974
481.76268181379
466.1715731910775
456.8477478524023
451.7777149213078
484.4697339781921
480.5429608699298
477.6331213998171
474.6041394819974
492.2139290112876
502.5882371610446
499.7931911156173
492.334785402692
480.5185553077327
499.1351324604162
493.6399933972505
483.5138763952567
466.3473858324363
449.0288784109514
438.8894299359749
435.734158798638
476.8198265115166
459.2930011312437
446.2989670715509
442.261133537818
472.8026979979959
467.2635812099813
459.7772301131367
456.1025196832841
456.3322070959903
460.9938572076866
461.9573330428425
462.3901523648875
435.7341587986296
442.261133537786
456.1025196833107
462.3901523649891
438.8894299358709
446.2989670713814
459.7772301131233
461.9573330430939
449.0288784107257
459.2930011310074
467.2635812099347
460.993857207915
466.3473858322134
476.8198265113421
472.80269799798
456.3322070961613
451.7777149213787
456.8477478524832
466.1715731913506
481.7626818140199
474.604139482073
477.6331213999907
480.5429608701591
484.46973397839
492.3347854027056
499.7931911157448
502.5882371611589
492.2139290114054
483.5138763951943
493.6399933973275
499.1351324605153
480.5185553077919
518.6898890582988
441.8874476279518
407.301972489677
387.7678379436866
504.2202702738332
463.6139780485301
431.9417718847597
403.2268223319579
495.9564287588929
483.6946480615942
471.4004555342604
438.7823167521692
494.1234187907382
497.3325529879144
504.7412380188035
490.9906751093553
516.8218289266971
476.9355039697717
427.6333946554437
345.4802194829254
480.1228105164738
438.7949603766111
389.2020311257982
316.3495484346703
434.0843776130747
396.6728905498909
352.3369487490769
300.1245113892612
419.9890453870882
393.2420070292714
349.052927695519
303.3685962371731
284.8571123185098
373.2317781818127
458.641537540634
524.0182230457185
241.6474362098918
284.3594257970154
417.5154759496559
511.7519078379746
236.2282516522377
249.9859283018036
365.8444683496039
469.9611827714069
244.7530251682198
231.4691851426118
285.5595143091642
369.581061929114
565.8457280699438
590.4342755385796
606.4226977819203
614.9397627180772
593.4360808644625
593.114922828977
607.2719546900631
616.0338110800985
620.5167438666338
600.9913723989268
607.248220488679
616.8758703542622
604.0220383003565
613.8017057611523
611.0164055059156
618.7649660648767
620.7139932250208
628.3792560544374
641.280014530673
653.0248977482147
622.3995630021432
631.5724507948783
645.249020955789
657.5995643917501
624.7354917656143
635.7312089433822
649.7718348009656
662.5074448590751
627.5798282751049
640.5267391456766
654.2730754242976
665.5931545291999
665.0182973436201
673.9996355274396
680.2259779312826
690.4438222636904
670.8377919116034
681.4590282735202
688.9258647717094
698.9200331234952
676.8316141455269
688.2277143372005
696.36407242824
705.8501086057735
680.0675680965186
691.8998618507795
700.4637885177804
704.2702236792599
656.5222072374581
616.335382055257
546.9977241763704
499.9513631109565
651.330466128603
624.4796256985561
560.1442520609729
502.2017325399327
652.9269867131308
627.1408534247731
567.9910099383389
504.9894825569412
652.5648174050577
630.6472478815621
576.4639856027015
506.9437365013576
496.2456026237858
494.776919211476
493.2356300690187
492.2494409790547
496.368397251783
494.6611768872426
493.4811803360279
492.7358066691925
496.4977770835911
495.300508266959
494.5501374275319
494.1928695024048
496.7031991201579
494.7634959661708
493.8370075157531
493.1693633650754
491.6743744167642
491.0848066629397
493.6930652169033
512.9983094967354
492.2576745299506
491.2476407969455
489.5359242267157
502.5480933641117
493.93839488223
492.8207462551563
489.592264800032
492.3400580817121
492.5851571316237
491.2521314827542
484.891244728918
470.4270248439272
553.6411873993306
560.1075502320202
564.8649370844219
566.6370246083335
554.2760407117453
559.9876964464795
564.4793811993036
566.3557846679626
554.8906862972109
559.892567762309
564.4912896560078
566.4010043452503
550.996023788745
559.9949761896925
564.2372882583222
566.5201899621413
569.5326572381992
570.2671474273501
562.4624247378413
542.5833045563197
570.3993431015223
572.1746645678764
568.4062324978275
555.1853696254969
570.3573545352568
572.8409123697409
569.7354371899269
562.3593255003648
570.870712352252
573.9973466482442
573.7770273366232
575.7310834239787
495.6963091550519
494.5328600082309
497.5053315717809
499.773254661704
486.8243201521329
489.8352277823198
496.306105050246
499.6700516783013
475.412654741932
485.6332165758185
495.2198403576658
499.5390792362688
461.7631691186328
481.807267134056
494.3429264919592
499.4313101841601
499.4058751240278
493.2611382739233
473.0124238890664
463.5969533280755
499.3870882116005
493.3308244944062
474.239539847229
458.5154410020151
499.3694670006786
493.4137087556914
476.4305418076111
453.3814502094469
499.3639924672471
493.7928525043051
479.1010938823252
453.0665019673816
499.4313101840576
499.5390792360028
499.6700516786667
499.7732546618112
494.3429264917148
495.2198403574644
496.3061050499234
497.5053315719479
481.8072671340877
485.6332165760478
489.8352277828375
494.5328600087234
461.7631691183269
475.4126547416341
486.8243201520406
495.6963091552129
)
;

boundaryField
{
    back
    {
        type            empty;
    }
    inlet
    {
        type            zeroGradient;
    }
    front
    {
        type            empty;
    }
    top
    {
        type            zeroGradient;
    }
    outlet
    {
        type            fixedValue;
        value           uniform 500;
    }
    bottom
    {
        type            zeroGradient;
    }
    wall
    {
        type            zeroGradient;
    }
}


// ************************************************************************* //
