/*--------------------------------*- C++ -*----------------------------------*\
  =========                 |
  \\      /  F ield         | OpenFOAM: The Open Source CFD Toolbox
   \\    /   O peration     | Website:  https://openfoam.org
    \\  /    A nd           | Version:  11
     \\/     M anipulation  |
\*---------------------------------------------------------------------------*/
FoamFile
{
    format      ascii;
    class       volScalarField;
    location    "0.025";
    object      rho;
}
// * * * * * * * * * * * * * * * * * * * * * * * * * * * * * * * * * * * * * //

dimensions      [0 0 0 0 0 0 0];

internalField   nonuniform List<scalar> 
880
(
0.3733250556165154
0.3733250556165154
0.3733250556165154
0.3733250555613721
0.3733250556165154
0.3733250556165154
0.3733250556165152
0.3733250555753622
0.3733250556165154
0.3733250556165153
0.3733250556165154
0.3733250509455165
0.3733250556165154
0.3733250556165154
0.3733250556165154
0.3733250524118006
0.3733250556165154
0.3733250556165155
0.3733250556165152
0.3733250556165154
0.3733250556165154
0.3733250556165154
0.3733250556165151
0.3733250556165154
0.3733250556165154
0.3733250556165154
0.3733250564773049
0.3733250459425164
0.3733746916617158
0.3735269890564011
0.3735924796421519
0.3735729370606129
0.3733250556165199
0.3733250556165155
0.3733250556165152
0.3733250556165154
0.3733250556384127
0.3733250556433697
0.3733250556462233
0.3733250556221462
0.3733251492245403
0.3733251598504601
0.3733251661824144
0.3733251085272652
0.3735969394995136
0.3736243948288053
0.3736328849750965
0.3735841641821389
0.3738327420734214
0.3735515731194098
0.3733606071445288
0.3733263457912301
0.3733254631864371
0.3733252758862423
0.3733250981297231
0.3733250576093153
0.3733250557962944
0.3733250557224541
0.3733250556380145
0.3733250556172946
0.3733250556174847
0.3733250556171844
0.3733250556165156
0.3733250556165154
0.3733250556165152
0.3733250556165152
0.3733250556165154
0.3733250556165155
0.3733250556165154
0.3733250556165155
0.3733250556165154
0.3733250556165155
0.3733250556171908
0.3733250556146126
0.3733250556162004
0.3733250556165154
0.3733250447746136
0.3733250519638817
0.3733250553756946
0.3733250556148746
0.3733250556165164
0.3733250556165154
0.3733250556165154
0.3733250556165154
0.3733250552453504
0.3733250556120775
0.3733250556165154
0.3733250556165153
0.3733253792203326
0.3733250595440624
0.3733250556182141
0.3733250556165154
0.3729814465429824
0.3733247681492072
0.3733250554893922
0.3733250556165153
0.3733250556165152
0.3733250556171433
0.3733250647592359
0.373400286893735
0.3733250556165227
0.3733250556322066
0.3733251444525132
0.3737833053688001
0.3733250556165331
0.373325055636865
0.3733251650619859
0.3738455519911268
0.3733250556165165
0.3733250556410318
0.3733251802411111
0.3738680479691644
0.3738947469569492
0.3733251989855561
0.3733250556469312
0.3733250556165343
0.3739254060217588
0.3733252220452492
0.373325055654455
0.3733250556165155
0.3739582455700261
0.3733252495234043
0.3733250556640751
0.3733250556165373
0.3740141829706496
0.373325293615634
0.3733250556805734
0.3733250556166937
0.3733250556165163
0.3733250556493424
0.373325193512866
0.3738171938543345
0.3733250556165638
0.3733250556460397
0.3733251700673531
0.3736968709077844
0.37332505563513
0.3733250556443388
0.3733251562777428
0.3736135691075403
0.3733250555314167
0.3733250556704489
0.3733251062532046
0.3734309944939209
0.3733250560537531
0.3733250054230444
0.3732888962783087
0.3696935951551423
0.3733250560314297
0.3733249565667947
0.3732182873203362
0.3545413450813461
0.3733250559335782
0.3733249637436692
0.3732033852624367
0.3466414905250809
0.3733250558628365
0.3733249898150226
0.3732091554117029
0.3450385807194912
0.3522540700969437
0.3732574438508869
0.3733249999011909
0.3733250557830248
0.353216722804426
0.3732669799236074
0.3733250133974608
0.3733250557714017
0.3550520187229293
0.3732798809611828
0.3733250258006008
0.3733250557535474
0.3501922011797371
0.373266037965387
0.3733250178018974
0.3733250556902801
0.3694714219737618
0.3733200671183295
0.3733250529651886
0.3733250556283753
0.3731941917556068
0.3733249815782682
0.3733250556505672
0.3733250556182345
0.373314510294867
0.3733250431039109
0.3733250556122261
0.3733250556165154
0.3732389671211538
0.3733249419604884
0.3733250555369474
0.373325055616183
0.3726722528906875
0.3733239680776443
0.3733250617302296
0.3733250557469467
0.3726729574170795
0.3733239640992577
0.3733250616682246
0.3733250557469184
0.3726729141983393
0.3733239202277406
0.3733250609555337
0.3733250557401861
0.3726764672500191
0.3733238287290161
0.3733250593206819
0.3733250557204477
0.3732389671208656
0.3733249419602258
0.3733250555366231
0.3733250556162239
0.3733145102943824
0.3733250431036148
0.3733250556116252
0.3733250556165154
0.3731941917553963
0.3733249815782875
0.3733250556505548
0.3733250556182842
0.3694714219742992
0.373320067118984
0.3733250529652292
0.3733250556282642
0.3733250557835598
0.3733249999019581
0.3732574438512217
0.3522540700971752
0.37332505577165
0.3733250133975877
0.3732669799238766
0.3532167228044772
0.3733250557531169
0.3733250258010209
0.3732798809611823
0.3550520187237053
0.3733250556903953
0.373325017801981
0.3732660379661641
0.3501922011791252
0.3450385807187785
0.3732091554113854
0.3733249898148131
0.3733250558627598
0.3466414905242095
0.3732033852620039
0.3733249637429066
0.3733250559328975
0.3545413450809954
0.3732182873196855
0.3733249565667614
0.3733250560307584
0.3696935951553517
0.3732888962780669
0.3733250054227785
0.3733250560545692
0.3733250556165152
0.3733250556496215
0.3733251935132409
0.3738171938548814
0.3733250556165705
0.373325055646116
0.3733251700673387
0.3736968709075598
0.3733250556354837
0.3733250556443565
0.3733251562773438
0.3736135691074613
0.3733250555320298
0.3733250556704384
0.3733251062528868
0.373430994493939
0.3740141829717655
0.3733252936151987
0.373325055680955
0.3733250556166506
0.3739582455709569
0.3733252495239623
0.3733250556642158
0.3733250556165396
0.3739254060218555
0.3733252220460027
0.3733250556547625
0.3733250556165154
0.3738947469573666
0.3733251989852232
0.3733250556469639
0.3733250556165165
0.3733250556165154
0.3733250556173283
0.3733250647591982
0.3734002868929168
0.3733250556165155
0.373325055631999
0.3733251444527604
0.373783305368886
0.3733250556165164
0.3733250556368772
0.3733251650620703
0.3738455519915249
0.3733250556165154
0.3733250556411282
0.3733251802406813
0.3738680479693252
0.3733250556165154
0.3733250556165154
0.3733250556165154
0.3733250556165154
0.3733250554888054
0.3733250556181726
0.3733250556165154
0.3733250556165153
0.3733247681492776
0.3733250595444936
0.3733250556118616
0.3733250556165154
0.3729814465429095
0.373325379220344
0.3733250552453811
0.3733250556165164
0.3733250556165152
0.3733250556165154
0.3733250556165151
0.3733250556149438
0.3733250556165154
0.3733250556165153
0.3733250556164469
0.3733250553756971
0.3733250556165154
0.3733250556165154
0.3733250556144813
0.3733250519639207
0.3733250556165154
0.3733250556165153
0.373325055617464
0.3733250447745171
0.3733250556173235
0.3733250557957684
0.3733254631860312
0.3738327420732774
0.3733250556168994
0.3733250557226605
0.3733252758863223
0.3735515731188359
0.3733250556165154
0.3733250556386076
0.3733250981295154
0.3733606071444819
0.3733250556165154
0.3733250556173414
0.3733250576093786
0.373326345790841
0.3735841641823937
0.37332510852783
0.3733250556219594
0.3733250556165154
0.3736328849748697
0.373325166183495
0.3733250556460936
0.3733250556165154
0.3736243948293675
0.3733251598509998
0.3733250556434288
0.3733250556165153
0.3735969394993889
0.3733251492232929
0.3733250556383486
0.3733250556165199
0.3735729370609643
0.3733250459425065
0.3733250556165154
0.3733250556165154
0.3735924796419705
0.3733250564767132
0.3733250556165154
0.3733250556165154
0.3735269890567914
0.3733250556165155
0.3733250556165154
0.3733250556165153
0.3733746916616496
0.3733250556165154
0.3733250556165154
0.3733250556165151
0.3733250556165154
0.3733250556165154
0.3733250556165154
0.3733250555657442
0.3733250556165152
0.3733250556165155
0.3733250556165153
0.3733250555757275
0.3733250556165154
0.3733250556165154
0.3733250556165154
0.3733250509454424
0.3733250556165154
0.3733250556165154
0.3733250556165151
0.3733250524115318
0.3733250509718596
0.3733249749212273
0.3733239123373874
0.3733391144682028
0.3733249749211197
0.3733243103193852
0.3733053555189247
0.3732094727380019
0.3733239123374009
0.373305355519146
0.3733293343371064
0.3765285813184417
0.3733391144684212
0.3732094727381344
0.3765285813187723
0.4114038880313023
0.5033965135747496
0.4268321128515097
0.3998903998201185
0.3776675974138322
0.536000510144775
0.4805622662573733
0.4519940347698342
0.3941251000764268
0.5477340017054984
0.4998816473218285
0.4740373800123322
0.403505959469386
0.5500957311769605
0.5024874947452059
0.4764288723664339
0.4040193759077094
0.4065705546713601
0.4082151550103071
0.4085626579739885
0.4085900814762061
0.4791984323383529
0.4808160980028867
0.4812544008012597
0.4953530651600553
0.5039191986363457
0.5044786431317155
0.5047864386563816
0.5264544264007354
0.5521311770823384
0.5521075985865765
0.5522479919933895
0.5847417644886636
0.4028804388336497
0.3820868231738742
0.3741863289675388
0.3733405812699623
0.4336981521295249
0.385690558237351
0.3742856132518338
0.3733141130666912
0.4173127784579657
0.3808201709330585
0.3736919014355512
0.3732864411154564
0.3691863304693484
0.3696447221025077
0.372782438762254
0.3732051044873756
0.3733237358008357
0.3733248672613896
0.373325050239662
0.3733250556111354
0.3733224620760052
0.3733249859891197
0.3733250551481607
0.3733250556723291
0.3733221315523845
0.3733250602449296
0.3733250558826349
0.3733250556790345
0.3733107713354165
0.3733245734535712
0.3733250530142634
0.3733250556520484
0.3733250556193946
0.373325055626265
0.3733250613186099
0.3552206620897415
0.3733250556351836
0.3733250556192888
0.3733250582264517
0.3397906134863192
0.373325055641457
0.3733250556189401
0.3733250559003118
0.3464064634110496
0.3733250556470671
0.373325055620239
0.3733250556560546
0.418663098039587
0.4087698902853371
0.4684466969110583
0.474095571482881
0.4738639563377528
0.575214086879442
0.6793505739493036
0.6864954387675871
0.686109286647915
0.6688784813711386
0.7396877365818271
0.7466533656492188
0.7466110715529013
0.7436931987968329
0.8061478970226675
0.8149184693821271
0.8152569759384722
0.4738126087561911
0.4738832828445938
0.4739732715103327
0.475252360530391
0.6859021015421159
0.6859023236851848
0.685935320099345
0.6861784951250872
0.7464519853625647
0.746411683713368
0.7464083770975283
0.7461139435176497
0.8150768787947363
0.8149838141677026
0.8149760563567251
0.8145841292105548
0.4531117528761055
0.4382591361971656
0.4263350969636846
0.396700047589864
0.6674119360753401
0.6514421832380128
0.6338472378258684
0.5722044848018096
0.7393219841201436
0.7328612398927818
0.7203425045844397
0.6938078251222172
0.813468187437048
0.8164272745518831
0.8066527510879216
0.8421761962464556
0.3438121837244524
0.209752133225708
0.1191540132488629
0.1125853049618184
0.3195035146983951
0.1521717048357343
0.08750937410576763
0.08128710624075586
0.2871899577512626
0.09642729603154485
0.06579052435843376
0.06267480427340112
0.2205430035638489
0.04696744063419817
0.04502066601730757
0.04441989309592056
0.1105812812858326
0.1111447059159995
0.1113471342511563
0.09095264557959044
0.08150021179162124
0.0819598466083258
0.08582742116553096
0.07598375457540731
0.0607611081479616
0.0612856713992487
0.06750791031758928
0.06779390605429385
0.04154358791204261
0.04152359607328752
0.0485580268837219
0.05348523850520824
0.2686340013271737
0.3633852956307983
0.3723810081938965
0.3666330602303658
0.2080705413146912
0.3389474546665689
0.3670286727294784
0.359545054030354
0.1768871280088888
0.3069800508689552
0.3520956905247529
0.3566370242990994
0.1413152744650007
0.2740192041936302
0.3343867442007347
0.3572186733276301
0.3611154337602297
0.3402783837626565
0.3130277785838063
0.3002117862054283
0.3179629259791361
0.2760214321379161
0.2200835361153247
0.1861890080350556
0.2451559386353214
0.208901415152244
0.1551004175530468
0.105055883414519
0.1788779820478424
0.1289009637860292
0.1089104080299764
0.06744949561273314
0.05478551949918995
0.05445367829737281
0.05387270533984839
0.05327088323358072
0.0946508711725674
0.09316036610003811
0.09131701524224888
0.09001881028565981
0.177838015357848
0.1764557292322822
0.1750076313025802
0.174138231218962
0.293405705197649
0.2925099700793592
0.2918723942698911
0.2916041556122086
0.05327088323358207
0.09001881028575365
0.1741382312190546
0.2916041556148705
0.05387270533977751
0.09131701524251933
0.17500763130246
0.2918723942698481
0.05445367829729169
0.09316036610007403
0.1764557292321918
0.2925099700792944
0.05478551949933667
0.09465087117242771
0.1778380153575576
0.2934057051973613
0.3002117862052434
0.3130277785834779
0.3402783837622381
0.361115433759576
0.1861890080347882
0.2200835361154234
0.2760214321381912
0.3179629259788438
0.1050558834145405
0.1551004175531523
0.2089014151522363
0.2451559386351614
0.06744949561282268
0.1089104080299839
0.1289009637860018
0.1788779820477787
0.3572186733274242
0.3343867442003422
0.2740192041936881
0.1413152744649503
0.3566370242989975
0.352095690524697
0.3069800508689187
0.1768871280088876
0.3595450540303827
0.3670286727290904
0.3389474546663871
0.2080705413147873
0.3666330602302259
0.3723810081936019
0.3633852956306821
0.2686340013273279
0.09095264557949524
0.1113471342510633
0.1111447059158388
0.1105812812855249
0.07598375457532852
0.08582742116547749
0.08195984660836339
0.08150021179159897
0.06779390605436569
0.06750791031768077
0.06128567139938844
0.06076110814806809
0.05348523850519851
0.04855802688385086
0.04152359607336831
0.04154358791211241
0.1125853049612479
0.1191540132487345
0.2097521332254707
0.3438121837243904
0.08128710624079859
0.08750937410574897
0.1521717048354704
0.3195035146977725
0.06267480427356432
0.06579052435839156
0.09642729603152002
0.2871899577508002
0.04441989309606204
0.04502066601722454
0.04696744063407866
0.2205430035636037
0.3967000475895812
0.4263350969638278
0.4382591361967744
0.4531117528757617
0.5722044848006477
0.6338472378257382
0.6514421832378506
0.6674119360750543
0.6938078251216168
0.7203425045842317
0.7328612398928102
0.7393219841198432
0.8421761962463346
0.8066527510877979
0.8164272745518785
0.8134681874370715
0.4752523605296479
0.4739732715108023
0.473883282844797
0.4738126087559945
0.6861784951242078
0.6859353200996722
0.6859023236855072
0.6859021015419307
0.7461139435167312
0.7464083770975977
0.7464116837133755
0.746451985362345
0.8145841292098657
0.8149760563567313
0.8149838141675518
0.815076878794657
0.4738639563372848
0.4740955714834078
0.468446696910658
0.4087698902862307
0.6861092866476042
0.6864954387680381
0.6793505739487237
0.5752140868803758
0.7466110715526856
0.7466533656495009
0.7396877365814759
0.6688784813714498
0.8152569759383357
0.8149184693823333
0.8061478970222576
0.743693198796809
0.3552206620896804
0.3733250613185928
0.3733250556262363
0.3733250556193932
0.3397906134863897
0.3733250582264421
0.3733250556192775
0.3733250556351787
0.3464064634111494
0.3733250559003076
0.3733250556189387
0.3733250556414516
0.4186630980397102
0.3733250556560546
0.3733250556202382
0.3733250556470549
0.3733250556111395
0.3733250502397267
0.3733248672613924
0.3733237358008494
0.3733250556723128
0.3733250551481598
0.3733249859891871
0.373322462075938
0.3733250556789943
0.3733250558826366
0.3733250602450326
0.3733221315523539
0.3733250556520207
0.3733250530142756
0.3733245734536656
0.3733107713355344
0.3733405812698471
0.3741863289675036
0.3820868231736252
0.4028804388334159
0.3733141130666103
0.3742856132518353
0.3856905582372157
0.4336981521294827
0.3732864411153861
0.3736919014355567
0.3808201709329697
0.417312778458072
0.3732051044871611
0.3727824387622896
0.3696447221024204
0.3691863304694588
0.4085900814760057
0.4085626579737544
0.4082151550099745
0.4065705546717315
0.4953530651594084
0.4812544008009591
0.4808160980024894
0.479198432338682
0.5264544264003523
0.5047864386560623
0.5044786431309575
0.5039191986365615
0.5847417644885362
0.5522479919930843
0.5521075985859066
0.5521311770826159
0.4040193759076843
0.4035059594689317
0.3941251000767147
0.3776675974141667
0.4764288723662047
0.4740373800115992
0.4519940347698274
0.3998903998201638
0.5024874947454253
0.4998816473210448
0.4805622662572063
0.4268321128512854
0.5500957311774313
0.5477340017054302
0.5360005101447047
0.5033965135748619
0.3731801774733974
0.3733248091255491
0.3733250561936747
0.3733250556371027
0.3728916150216564
0.3733243014245768
0.3733250574032556
0.373325055679683
0.3725363806236816
0.3733236507849812
0.3733250571879073
0.3733250556903811
0.3723693750999552
0.3733234200736552
0.3733250577190956
0.373325055705325
0.3733250557471394
0.3733250617300552
0.3733239680777654
0.3726722528907513
0.3733250557470412
0.3733250616686046
0.3733239640986622
0.3726729574172808
0.3733250557400511
0.3733250609558794
0.3733239202278498
0.3726729141977296
0.3733250557199381
0.3733250593210861
0.3733238287275044
0.3726764672500621
0.373325055705259
0.3733250556903313
0.3733250556791509
0.3733250556365212
0.3733250577192112
0.3733250571879037
0.3733250574031019
0.3733250561932043
0.3733234200741412
0.3733236507842381
0.3733243014253118
0.3733248091251084
0.3723693750994441
0.3725363806229647
0.3728916150218439
0.3731801774735662
)
;

boundaryField
{
    back
    {
        type            empty;
    }
    inlet
    {
        type            calculated;
        value           nonuniform List<scalar> 
16
(
0.3733250556165154
0.3733250556165154
0.3733250556165154
0.3733250556165154
0.3733250556165154
0.3733250556165155
0.3733250556165152
0.3733250556165154
0.3733250556165154
0.3733250556165154
0.3733250556165154
0.3733250556165151
0.3733250556165154
0.3733250556165152
0.3733250556165154
0.3733250556165154
)
;
    }
    front
    {
        type            empty;
    }
    top
    {
        type            calculated;
        value           nonuniform List<scalar> 
40
(
0.3733250556165199
0.3733250556165155
0.3733250556165152
0.3733250556165154
0.3733250556174847
0.3733250556171844
0.3733250556165156
0.3733250556165154
0.3733250556165152
0.3733250556165152
0.3733250556165154
0.3733250556165155
0.3733250556165154
0.3733250556165154
0.3733250556165154
0.3733250556165154
0.3733250556165152
0.3733250556165227
0.3733250556165331
0.3733250556165165
0.3733250556165343
0.3733250556165155
0.3733250556165374
0.3733250556166937
0.3733250556165164
0.3733250556165638
0.37332505563513
0.3733250555314167
0.3733250560537531
0.3733250560314297
0.3733250559335782
0.3733250558628365
0.3733250557830248
0.3733250557714017
0.3733250557535474
0.3733250556902801
0.3733250556283753
0.3733250556182345
0.3733250556165154
0.373325055616183
)
;
    }
    outlet
    {
        type            calculated;
        value           uniform 0.3733250556165154;
    }
    bottom
    {
        type            calculated;
        value           nonuniform List<scalar> 
40
(
0.3733250556162239
0.3733250556165154
0.3733250556182842
0.3733250556282642
0.3733250557835598
0.37332505577165
0.3733250557531169
0.3733250556903953
0.3733250558627598
0.3733250559328975
0.3733250560307584
0.3733250560545692
0.3733250556165152
0.3733250556165705
0.3733250556354837
0.3733250555320298
0.3733250556166506
0.3733250556165396
0.3733250556165154
0.3733250556165165
0.3733250556165154
0.3733250556165155
0.3733250556165164
0.3733250556165154
0.3733250556165154
0.3733250556165154
0.3733250556165154
0.3733250556165154
0.3733250556165152
0.3733250556165154
0.3733250556165154
0.3733250556165154
0.3733250556173235
0.3733250556168994
0.3733250556165154
0.3733250556165154
0.3733250556165154
0.3733250556165154
0.3733250556165152
0.3733250556165199
)
;
    }
    wall
    {
        type            calculated;
        value           nonuniform List<scalar> 
104
(
0.5033965135747496
0.536000510144775
0.5477340017054984
0.5500957311769605
0.5521311770823384
0.5521075985865765
0.5522479919933895
0.5847417644886636
0.3691863304693484
0.3696447221025077
0.372782438762254
0.3732051044873756
0.3733107713354165
0.3733245734535712
0.3733250530142634
0.3733250556520484
0.3733250556470671
0.373325055620239
0.3733250556560546
0.418663098039587
0.7436931987968329
0.8061478970226675
0.8149184693821271
0.8152569759384722
0.8150768787947363
0.8149838141677026
0.8149760563567251
0.8145841292105548
0.813468187437048
0.8164272745518831
0.8066527510879216
0.8421761962464556
0.2205430035638489
0.04696744063419817
0.04502066601730757
0.04441989309592056
0.04154358791204261
0.04152359607328752
0.0485580268837219
0.05348523850520824
0.1413152744650007
0.2740192041936302
0.3343867442007347
0.35721867332763
0.1788779820478424
0.1289009637860292
0.1089104080299764
0.06744949561273314
0.05478551949918995
0.05445367829737281
0.05387270533984839
0.05327088323358072
0.05327088323358207
0.05387270533977751
0.05445367829729169
0.05478551949933667
0.06744949561282268
0.1089104080299839
0.1289009637860018
0.1788779820477787
0.3572186733274242
0.3343867442003423
0.2740192041936881
0.1413152744649503
0.05348523850519851
0.04855802688385086
0.04152359607336831
0.04154358791211241
0.04441989309606204
0.04502066601722454
0.04696744063407866
0.2205430035636037
0.8421761962463347
0.8066527510877979
0.8164272745518785
0.8134681874370715
0.8145841292098657
0.8149760563567313
0.8149838141675518
0.815076878794657
0.8152569759383357
0.8149184693823333
0.8061478970222576
0.743693198796809
0.4186630980397102
0.3733250556560546
0.3733250556202382
0.3733250556470549
0.3733250556520207
0.3733250530142756
0.3733245734536656
0.3733107713355344
0.3732051044871611
0.3727824387622896
0.3696447221024204
0.3691863304694588
0.5847417644885362
0.5522479919930843
0.5521075985859066
0.5521311770826159
0.5500957311774313
0.5477340017054302
0.5360005101447047
0.5033965135748619
)
;
    }
}


// ************************************************************************* //
