/*--------------------------------*- C++ -*----------------------------------*\
  =========                 |
  \\      /  F ield         | OpenFOAM: The Open Source CFD Toolbox
   \\    /   O peration     | Website:  https://openfoam.org
    \\  /    A nd           | Version:  11
     \\/     M anipulation  |
\*---------------------------------------------------------------------------*/
FoamFile
{
    format      ascii;
    class       volScalarField;
    location    "0.025";
    object      T;
}
// * * * * * * * * * * * * * * * * * * * * * * * * * * * * * * * * * * * * * //

dimensions      [0 0 0 1 0 0 0];

internalField   nonuniform List<scalar> 
880
(
300
300
300
299.9999999822855
300
300
299.9999999999998
299.9999999881833
300
300
300
299.9999984372357
300.0000000000001
300
300
299.9999997212147
300
300
299.9999999999999
300
300
300
299.9999999999997
300
300
300.0000000000015
300.0000002790349
299.9999968264698
300.0163138392818
300.0709737792108
300.0962354987635
300.0893310242095
299.9999999999795
299.9999999999511
299.9999999999404
300
300.000000007115
300.0000000086809
300.0000000096542
300.000000001836
300.000031440922
300.0000350898437
300.000037223908
300.0000185203092
300.0988359822044
300.1092953950188
300.1124521460316
300.0969848331966
300.1773196799535
300.0755076059896
300.0114962524382
300.0004129603505
300.0001344485425
300.000071511168
300.0000136406553
300.0000006368292
300.0000000583167
300.0000000341005
300.0000000067803
300.0000000001771
300.0000000002975
300.0000000002456
299.9999999999583
300
300
300.0000000000001
300
299.9999999999999
300
300
300.0000000000001
300
300.0000000000912
299.9999999994494
299.999999999856
300
299.9999966477789
299.999998846946
299.9999999224985
299.9999999994767
299.9999999997447
300
300.0000000000001
300
299.9999998898199
299.9999999987036
300
300
300.0000943968844
300.0000012000495
300.0000000003586
300.0000000000001
299.8973122354056
299.9999120321654
299.9999999602038
300
299.9999999999998
300.0000000001008
300.0000033253521
300.031505122636
300.0000000000039
300.0000000055276
300.0000340526672
300.2236865863015
300.0000000000103
300.0000000071184
300.00004225877
300.2583959165185
299.9999999999833
300.0000000084657
300.0000480664323
300.2689663566765
300.2816168948056
300.0000552434182
300.0000000105301
299.9999999999867
300.2962624727187
300.0000640767705
300.0000000131153
299.9999999999547
300.3117730249054
300.0000745676588
300.0000000163988
299.999999999984
300.3392788709085
300.0000915653584
300.0000000220903
300.0000000000778
299.9999999999807
300.0000000113066
300.0000520678711
300.2317251600954
300.0000000000274
300.00000001001
300.0000422776052
300.1676711380558
300.0000000060174
300.0000000100651
300.0000366647503
300.1257101776646
299.9999999725678
300.0000000138754
300.0000175193833
300.0428375543904
300.0000001371241
299.9999686648242
299.9837290629395
299.9302494306685
300.0000001346289
299.9999731141887
299.9764383974072
297.5244065219572
300.0000001036557
299.9999773016739
299.9775131762919
296.8460752218882
300.0000000800381
299.9999836399785
299.9775875462523
296.3046892719503
297.6901440358342
299.9877907784502
299.9999866973203
300.0000000545421
297.7031269083094
299.9893669134797
299.9999900262571
300.0000000507675
298.0580797052015
299.9919543400345
299.9999930794062
300.0000000450549
297.644965841289
299.9901337932401
299.9999914531494
300.0000000246955
299.385807042146
299.9991077204435
299.9999994686642
300.0000000039161
299.9691410727587
299.999982766538
300.0000000153029
300.0000000004617
299.9964721781799
299.9999959027211
299.9999999987555
300
299.971773906286
299.9999630823609
299.9999999746015
299.9999999999598
299.880576295822
299.9997911081321
300.0000020708882
300.0000000361919
299.8804025519656
299.9997893387537
300.0000020508223
300.0000000364204
299.8789394360493
299.9997722958046
300.0000018148577
300.0000000350592
299.8763273884979
299.9997340131414
300.0000012692011
300.0000000304573
299.9717739059873
299.9999630821544
299.999999974339
299.9999999999592
299.996472177848
299.9999959025121
299.9999999982046
299.9999999999997
299.9691410726818
299.9999827665908
300.0000000153035
300.0000000004894
299.3858070425952
299.999107720994
299.9999994686709
300.0000000037682
300.0000000548548
299.999986697896
299.9877907786909
297.6901440360385
300.0000000509986
299.9999900263547
299.989366913739
297.7031269082437
300.0000000447758
299.9999930797512
299.99195434005
298.058079705866
300.0000000247282
299.9999914532688
299.990133793725
297.6449658410203
296.3046892714539
299.9775875458777
299.99998363974
300.0000000799384
296.8460752214647
299.9775131759745
299.9999773010967
300.0000001031323
297.5244065218687
299.976438396953
299.9999731141913
300.0000001342435
299.9302494307938
299.9837290627856
299.9999686646236
300.0000001377458
299.9999999999816
300.0000000115265
300.0000520680607
300.231725160577
300.0000000000306
300.0000000101044
300.0000422776241
300.1676711380106
300.0000000062774
300.000000009969
300.0000366645217
300.125710177606
299.9999999730251
300.0000000138525
300.0000175192105
300.0428375543767
300.3392788717599
300.0000915650381
300.0000000224021
300.0000000000412
300.3117730255839
300.0000745682499
300.0000000164655
299.9999999999627
300.2962624724904
300.000064077322
300.0000000133328
299.9999999999771
300.2816168952049
300.000055242926
300.0000000105465
299.9999999999915
300
300.0000000002246
300.000003325305
300.0315051219164
299.9999999999993
300.0000000053538
300.0000340528426
300.2236865863121
299.9999999999982
300.000000007135
300.0000422588732
300.2583959168797
299.9999999999995
300.000000008518
300.0000480661908
300.2689663567047
300
300
300
300
299.9999999598778
300.0000000003891
299.9999999999877
300.0000000000002
299.9999120322734
300.0000012003263
299.9999999985482
300
299.8973122354931
300.0000943969033
299.999999889839
299.9999999997531
299.9999999999999
300
299.9999999999999
299.9999999995334
300
300
299.9999999999937
299.999999922501
300
300
299.9999999993348
299.9999988469764
300
300.0000000000092
300.0000000002751
299.9999966477248
300.0000000002034
300.000000057962
300.0001344482326
300.1773196798841
300.0000000000086
300.0000000340927
300.0000715111456
300.075507605631
299.9999999999693
300.0000000071252
300.0000136405237
300.0114962523906
300
300.0000000001958
300.0000006368707
300.0004129600297
300.0969848333457
300.0000185209032
300.000000001747
300.0000000000001
300.1124521458676
300.0000372247571
300.0000000096233
299.9999999999432
300.1092953956136
300.0000350901979
300.0000000087344
299.9999999999505
300.0988359820221
300.0000314397005
300.000000006995
299.9999999999785
300.089331024485
299.9999968266198
300
300
300.0962354985977
300.0000002786019
300
300.0000000000001
300.0709737794631
299.9999999999612
300
300
300.0163138392013
300
300
299.9999999999999
300
299.9999999999999
300
299.9999999838452
300.0000000000002
300
300
299.9999999883962
300
300
300
299.9999984371643
300
300
299.9999999999999
299.9999997210059
299.9999985087348
299.999974432722
299.9996393469581
300.0044218113966
299.9999744326158
299.9997597740249
299.9937327278415
299.964127760436
299.9996393469615
299.9937327279129
300.0013723122929
301.171429811775
300.004421811601
299.9641277605769
301.1714298118844
314.9877293695299
343.5642289549909
319.1931115963957
308.8822779620353
301.42524052969
350.8220818799635
334.2951607013801
325.4188147392854
307.2883394733515
353.128891778782
338.9364325175651
331.8218527894799
310.6793394669318
353.6320173606363
339.5312753674356
332.4835493496108
310.8683348317491
311.802100847452
312.3963763392199
312.5172036937589
312.7938075482719
333.3858551871783
333.9248276683326
334.0625769462499
338.2100552262856
340.08857152624
340.3796758425879
340.4862904578783
345.3254991963476
354.2953999348078
354.4645935672909
354.5317903318751
359.692816458767
310.1372186822135
302.9642640288494
300.2875968171769
300.0051103848817
320.2954805904056
304.4793233059709
300.338512815354
299.9966047451711
318.0899115437276
303.3877271155092
300.1737420177251
299.9871470575937
301.6204383540016
299.2219817711143
299.9238871038718
299.9606764631432
299.9996085795402
299.9999430519842
299.9999982987086
299.9999999981837
299.9991531436368
299.9999737117743
299.9999998064075
300.0000000160826
299.9984718824005
299.9999796964123
299.999999883745
300.0000000148443
299.9930367866884
299.9997702938643
299.999998968031
300.0000000096937
300.0000000008924
300.0000000019017
300.0000040070849
293.9105169372718
300.0000000063682
300.0000000009023
300.0000009494991
285.8420147192024
300.0000000097226
300.0000000011814
300.0000000697328
284.0108954712918
300.0000000101982
300.000000001494
300.0000000127152
302.8609147022331
315.8732748717977
342.0949669850291
344.62327914963
344.5022596721624
371.4313992848449
400.3546648481454
401.9731614347535
401.817692711015
396.8338460712812
412.4943262694617
413.3889799753588
413.2289718718387
415.1668713115977
430.3038669925165
431.4014979597658
431.2603184029284
344.4407750609772
344.4439584951397
344.4513691125962
344.8214915617335
401.7338277456065
401.7341474164478
401.7441172526743
401.7991768248413
413.1453373799017
413.1378491099728
413.1378675975944
413.1069526363688
431.1478599951399
431.1296208116252
431.128438718418
431.071758933137
335.7133586205915
329.3161525562452
324.1006865954067
310.3115699635595
396.2745443446703
391.5530013986258
386.5639396671964
370.789797118763
410.5773101943022
408.1896600407214
404.7911593044182
405.2477576917067
430.0827498869135
430.0919304557517
427.9890362392381
425.753937353454
307.2228828492358
281.3985012514649
221.5935774643497
213.7728669292877
321.7451825509294
269.4690611829695
173.7650514307771
159.1921917716491
328.4398435864704
236.0600152289188
129.2773435704987
117.1214293104739
287.128846644609
175.4650357113895
91.26935284252147
84.56281615265976
214.3973305449114
215.3416807910431
215.7653679852403
198.5380569755931
159.8520798584236
160.0621213470774
162.7215390264548
157.8826478772473
113.7391033759683
113.485845765032
117.2412900920649
136.0436182466837
80.43857620207444
79.91361113607401
83.46757805733023
105.5513407583989
284.8838055770304
298.4164361529651
299.6901360823415
297.7313082311611
267.5986039890745
294.3261618109478
298.1374326218634
296.0188939918381
256.0435395860798
289.3987226162454
293.9683102299726
297.568221275384
218.4025239304069
277.9590593732039
289.4418232492029
280.6792124406384
297.1098626789639
292.7724566875692
287.3510069008316
285.0085711913872
281.8982990592237
267.1023917123101
247.9935251408893
234.8237700007196
242.7654536542555
220.9861680531261
192.7962422101129
160.8227219515348
192.9095694807684
157.4116041740308
138.2595119505924
102.6763482457688
87.45537713971876
86.04651356862465
85.26021697819776
84.86204033803419
150.9176097420737
148.8817399083208
147.2918348149588
146.3872244774779
232.3524378681014
232.0500297811507
231.5858602660316
231.2137381802136
284.2474869183542
284.2817309591829
284.2635460552468
284.2364992647815
84.86204033804965
146.3872244774176
231.2137381803058
284.236499265819
85.26021697839926
147.2918348149936
231.58586026604
284.2635460552528
86.04651356867195
148.8817399084745
232.0500297810959
284.2817309591744
87.45537713978905
150.9176097422064
232.3524378680953
284.247486918158
285.0085711912396
287.3510069006992
292.7724566873106
297.1098626785301
234.8237700005066
247.9935251410012
267.1023917126957
281.8982990590412
160.8227219516806
192.7962422102568
220.9861680530913
242.7654536542574
102.6763482458008
138.2595119506251
157.4116041740852
192.9095694807901
280.6792124405395
289.441823249001
277.9590593733074
218.4025239304075
297.5682212752511
293.9683102298288
289.3987226162931
256.0435395861041
296.0188939917357
298.1374326215125
294.3261618109143
267.5986039891901
297.7313082310332
299.6901360821365
298.4164361529047
284.8838055772249
198.5380569754594
215.7653679851203
215.3416807909351
214.3973305446615
157.8826478773529
162.7215390264606
160.062121347332
159.8520798586032
136.043618247169
117.2412900921147
113.4858457652957
113.7391033762692
105.5513407585761
83.46757805735928
79.91361113610674
80.43857620234031
213.7728669287599
221.5935774642501
281.3985012515068
307.2228828492416
159.1921917719756
173.7650514306388
269.469061182565
321.7451825506776
117.1214293109235
129.2773435702047
236.0600152286818
328.4398435862319
84.56281615333124
91.26935284193537
175.4650357108019
287.1288466444738
310.3115699634192
324.100686595396
329.316152556124
335.7133586207153
370.7897971184306
386.5639396671145
391.5530013985793
396.2745443448194
405.2477576915314
404.7911593043558
408.1896600407171
410.5773101943142
425.7539373533425
427.9890362392366
430.0919304557793
430.0827498869768
344.8214915617802
344.4513691128798
344.4439584950742
344.4407750610688
401.7991768248395
401.7441172528041
401.7341474164514
401.7338277457023
413.1069526362598
413.137867597647
413.1378491099887
413.1453373799014
431.0717589330928
431.1284387184852
431.1296208116426
431.1478599951494
344.5022596720041
344.6232791499376
342.0949669848042
315.8732748718687
401.8176927108889
401.9731614349481
400.3546648479725
371.4313992849409
413.22897187175
413.3889799754261
412.4943262693794
396.8338460713736
431.260318402879
431.4014979597989
430.3038669924756
415.1668713116508
293.9105169372845
300.0000040070712
300.0000000018869
300.0000000008921
285.8420147192274
300.0000009494892
300.0000000008964
300.0000000063707
284.0108954713445
300.0000000697314
300.0000000011838
300.0000000097259
302.8609147023372
300.0000000127185
300.0000000014943
300.0000000101995
299.9999999981963
299.9999982988211
299.9999430519935
299.9996085796071
300.0000000160989
299.9999998065915
299.9999737117465
299.999153143628
300.0000000148493
299.9999998839592
299.999979696341
299.9984718823124
300.000000009697
299.9999989681502
299.9997702938015
299.993036786508
300.005110384708
300.2875968171535
302.9642640286992
310.1372186821454
299.9966047451213
300.3385128153469
304.4793233059049
320.2954805903663
299.9871470575882
300.1737420177159
303.3877271154745
318.0899115436656
299.9606764631238
299.9238871038788
299.2219817710782
301.620438353921
312.7938075482256
312.5172036936188
312.3963763393476
311.8021008476584
338.2100552260125
334.0625769461104
333.9248276683388
333.3858551874445
345.325499196076
340.4862904576994
340.3796758422762
340.08857152641
359.6928164585575
354.531790331691
354.4645935669673
354.2953999349542
310.8683348318357
310.6793394667206
307.2883394735912
301.4252405298104
332.4835493495548
331.8218527892666
325.4188147393508
308.8822779620349
339.5312753674497
338.9364325171693
334.2951607013353
319.1931115963
353.6320173606479
353.12889177847
350.8220818799517
343.564228955035
299.9650979682253
299.9999377316259
300.000000190247
300.0000000061958
299.9033812876307
299.9998139509095
300.0000006055554
300.0000000192322
299.8342344809182
299.9996538755573
300.0000005616072
300.0000000226154
299.8042423050828
299.9996040365533
300.0000007419848
300.00000002707
300.0000000363286
300.0000020707614
299.99979110825
299.8805762958523
300.0000000365102
300.0000020510906
299.9997893383045
299.8804025522012
300.0000000349489
300.0000018151556
299.9997722958418
299.8789394355672
300.0000000301043
300.0000012695132
299.9997340119759
299.8763273884739
300.0000000270293
300.0000000225659
300.0000000188417
300.0000000057245
300.0000007420438
300.0000005616058
300.0000006054368
300.0000001899168
299.9996040368923
299.9996538750351
299.9998139514739
299.9999377312473
299.8042423046476
299.8342344804145
299.9033812878548
299.965097968279
)
;

boundaryField
{
    back
    {
        type            empty;
    }
    inlet
    {
        type            zeroGradient;
    }
    front
    {
        type            empty;
    }
    top
    {
        type            zeroGradient;
    }
    outlet
    {
        type            fixedValue;
        value           uniform 300;
    }
    bottom
    {
        type            zeroGradient;
    }
    wall
    {
        type            zeroGradient;
    }
}


// ************************************************************************* //
