/*--------------------------------*- C++ -*----------------------------------*\
  =========                 |
  \\      /  F ield         | OpenFOAM: The Open Source CFD Toolbox
   \\    /   O peration     | Website:  https://openfoam.org
    \\  /    A nd           | Version:  11
     \\/     M anipulation  |
\*---------------------------------------------------------------------------*/
FoamFile
{
    format      ascii;
    class       volVectorField;
    location    "0.025";
    object      U;
}
// * * * * * * * * * * * * * * * * * * * * * * * * * * * * * * * * * * * * * //

dimensions      [0 1 -1 0 0 0 0];

internalField   nonuniform List<vector> 
880
(
(25 -5.28918918619502e-16 0)
(25 -3.597173129237637e-16 0)
(25 1.620714463946517e-15 0)
(25.0000000001265 -1.001451131404103e-09 0)
(25 5.077533428853457e-16 0)
(25 -6.808833256460735e-16 0)
(25.00000000000002 2.714080308867466e-15 0)
(25.00000007242 3.253599006415834e-10 0)
(25 0 0)
(25.00000000000001 1.089065647916567e-15 0)
(25 -4.569586128118966e-15 0)
(25.00000067757145 -7.12558901245626e-07 0)
(25 0 0)
(25 -8.996848008263239e-16 0)
(25 -2.354460769036634e-16 0)
(24.99997486947203 -1.05520307314955e-05 0)
(25 -4.046058355605356e-16 0)
(25 -3.35668776187594e-16 0)
(25.00000000000001 1.49930213666226e-15 0)
(25 1.535039361008111e-15 0)
(25 -1.21079711807832e-16 0)
(25 -4.694390600522344e-18 0)
(25.00000000000003 6.697215399998968e-15 0)
(25 1.721152799476675e-14 0)
(25 9.106853323457556e-15 0)
(24.99999999999986 4.541927490186163e-12 0)
(25.00000002079698 3.555170106508557e-08 0)
(24.99999983942184 -4.773653020287484e-07 0)
(24.99929730985416 0.002211819945820279 0)
(24.99738625322635 0.009316829810445468 0)
(24.99724700387119 0.01268238615949747 0)
(24.99758465953507 0.01176035249201487 0)
(24.9999999999997 -4.743173179930074e-12 0)
(25 -5.972027586624268e-12 0)
(25.00000000000001 -6.679252235146447e-12 0)
(25 -1.205625222620358e-12 0)
(24.99999999983723 1.027490988305946e-09 0)
(24.99999999986984 1.276681810314804e-09 0)
(24.99999999984976 1.393043823393012e-09 0)
(24.99999999965769 2.175473081239537e-10 0)
(24.99999925211596 4.33652301710236e-06 0)
(24.99999917364618 4.835001971769955e-06 0)
(24.99999915132511 5.131763767798987e-06 0)
(24.99999828714452 2.402991376064927e-06 0)
(24.99724892911221 0.01293929759229891 0)
(24.99724562020051 0.01432127640451362 0)
(24.99723857094542 0.01473954993809725 0)
(24.99607489930169 0.01236923936139193 0)
(24.99917970175519 0.02440712631148502 0)
(25.00296959430854 0.0109501854900509 0)
(25.00101547832926 0.001474146771842651 0)
(25.00005006347552 4.491042012289259e-05 0)
(24.99999938584355 1.907395545264465e-05 0)
(25.00000169601419 1.037381863871029e-05 0)
(25.0000007987451 1.896259432658886e-06 0)
(25.00000005186045 8.136014791207947e-08 0)
(24.99999999971236 8.4933730146998e-09 0)
(25.00000000062188 5.041308171511876e-09 0)
(25.00000000033597 1.002445737374897e-09 0)
(25.00000000003518 4.363033760394085e-11 0)
(24.99999999994181 -4.416873179057853e-11 0)
(24.99999999995524 -2.697743009777176e-11 0)
(25 -4.770757819514161e-12 0)
(25 -2.096210363213142e-13 0)
(25.00000000000001 2.268822436876446e-15 0)
(25.00000000000001 5.154278335478816e-16 0)
(25 -3.2238221300485e-16 0)
(24.99999999999999 -4.150849790939795e-16 0)
(25 -2.08898559639763e-13 0)
(25 -3.01246291046168e-14 0)
(25 -3.725218904512146e-15 0)
(25 -6.008662353133821e-16 0)
(25.00000000039501 -7.949055673412804e-11 0)
(24.99999999997705 -1.044487416877015e-10 0)
(24.9999999999999 -1.14043958375258e-11 0)
(25 -1.162990725159601e-13 0)
(25.00000033050398 -6.257831078939604e-07 0)
(24.99999995634469 -1.919667931044443e-07 0)
(24.99999999159868 -9.678059740527365e-09 0)
(24.9999999999311 -4.552683115494231e-11 0)
(25.00000000004359 1.297092290228822e-11 0)
(25 1.446115702977144e-13 0)
(25 1.174362475692512e-15 0)
(25 3.227341338656538e-16 0)
(24.99999998736077 -1.531153858268031e-08 0)
(24.99999999989226 -2.16545763981917e-10 0)
(25 -1.83637835397704e-12 0)
(25 7.370255881806883e-15 0)
(25.00000661950833 1.687349584734396e-05 0)
(25.00000003013228 1.813369675240745e-07 0)
(25.00000000002129 8.900543659552404e-11 0)
(25 -4.232680472892606e-13 0)
(25.00251243908257 -0.01553689923669576 0)
(25.00000098996061 -1.316545365794023e-05 0)
(25.00000000020915 -5.8717504196777e-09 0)
(25.00000000000001 -1.778134776064306e-12 0)
(25.00000000000002 -2.978095027667397e-14 0)
(24.99999999994648 2.658603133612607e-11 0)
(24.99999948135785 2.925719706993701e-07 0)
(24.99633034590088 0.002528790937488931 0)
(24.99999999999951 -2.468455563424059e-12 0)
(24.99999999975192 7.114544105729579e-10 0)
(24.99999808803353 3.932504922351692e-06 0)
(24.98699826659465 0.02133016081729162 0)
(24.99999999999886 -3.232413910711462e-12 0)
(24.99999999969612 9.302998248274449e-10 0)
(24.99999772877673 4.886515298198483e-06 0)
(24.98593757399595 0.02482750394887238 0)
(24.99999999999993 -4.076180755619784e-12 0)
(24.99999999964738 1.134112780529779e-09 0)
(24.99999741487078 5.56208394599252e-06 0)
(24.98535959179315 0.0258841809607236 0)
(24.98464554944633 0.0271300513450183 0)
(24.99999702500982 6.39607443903691e-06 0)
(24.99999999955835 1.400725414015144e-09 0)
(24.99999999999874 -5.157412703982008e-12 0)
(24.9838391800246 0.02856710898902261 0)
(24.99999655053569 7.42258609252036e-06 0)
(24.99999999945286 1.749994205009443e-09 0)
(25 -6.632690283727083e-12 0)
(24.98289357984323 0.03007470933971782 0)
(24.99999594810458 8.63579345920485e-06 0)
(24.99999999930638 2.193989561142996e-09 0)
(24.99999999999854 -8.507578372185437e-12 0)
(24.98164004008208 0.03288031513230361 0)
(24.99999514803313 1.064785572059274e-05 0)
(24.99999999910738 2.96158719428135e-09 0)
(24.99999999998876 -1.200451188899307e-11 0)
(24.99999999999995 -6.682626698111324e-12 0)
(24.99999999954421 1.509063144227272e-09 0)
(24.999997247188 6.139608899481044e-06 0)
(24.98745370465329 0.02323238234085556 0)
(24.99999999999676 -5.742289508306268e-12 0)
(24.99999999955703 1.348967376438025e-09 0)
(24.99999763251996 5.012038550429218e-06 0)
(24.99052475642413 0.01710339484587861 0)
(25.00000000139949 2.642963811586453e-10 0)
(24.9999999994449 1.043313871634003e-09 0)
(24.99999788244167 4.393482567101281e-06 0)
(24.99271539598594 0.01305865025922066 0)
(24.99999999236433 -2.438745966251495e-09 0)
(24.99999999994264 3.44276230689093e-09 0)
(24.99999906758151 2.181711587911993e-06 0)
(24.9974515947901 0.004664999284406415 0)
(24.99999999676822 8.984784847034102e-09 0)
(24.99999809639473 -2.307987016716086e-06 0)
(24.99850796585832 -0.001116489081460907 0)
(24.91419280669086 -0.1240959612726478 0)
(24.99999999343507 6.583499025555017e-09 0)
(24.99999652932355 -3.116738859717224e-06 0)
(24.99573417336713 -0.001753414186227735 0)
(24.34732105079695 -0.1744402539570015 0)
(24.99999999528879 4.748930066046918e-09 0)
(24.99999653239738 -2.561622823645743e-06 0)
(24.9950141923871 -0.001410545622935185 0)
(24.11292022517524 -0.07192226631358416 0)
(24.9999999966801 3.85947682381474e-09 0)
(24.99999742845741 -1.751000312413836e-06 0)
(24.99519557519329 -0.0008325135791150851 0)
(24.03773104592653 0.01769922225620482 0)
(24.31907575422554 -0.01750898851190913 0)
(24.99727934048357 -0.0012727430370086 0)
(24.99999820376072 -1.962500475788369e-06 0)
(24.99999999633008 1.603928618946892e-09 0)
(24.35247263849188 0.003512766486386947 0)
(24.99764338041203 -0.001010653664543355 0)
(24.99999861745471 -1.448567232789338e-06 0)
(24.99999999607578 1.581132381137316e-09 0)
(24.42254573343533 -0.01397495916265454 0)
(24.99820875291629 -0.0008541848773173669 0)
(24.99999907997817 -1.048833064761162e-06 0)
(24.99999999659599 1.427998446388203e-09 0)
(24.27442511847507 0.06691818023901815 0)
(24.99753226148379 -0.0009086662924090214 0)
(24.99999872500877 -1.281044073061002e-06 0)
(24.99999999794163 2.931481052030667e-10 0)
(24.86134010413332 0.01818135123408541 0)
(24.99976487234545 -9.260987343022941e-05 0)
(24.99999990340863 -9.866807313532404e-08 0)
(24.99999999968257 -9.003896014773836e-11 0)
(24.99459680731993 8.59905000270185e-05 0)
(24.9999964866382 -2.169959200565105e-06 0)
(25.00000000165556 9.77439899308738e-10 0)
(24.99999999993026 1.127436606683078e-11 0)
(25.0000309042543 -0.0004715457585840403 0)
(25.00000009407323 -6.079748675019051e-07 0)
(25.00000000036405 -4.297945468295553e-10 0)
(25 8.720596353840581e-13 0)
(25.00077848002959 -0.004611188719801282 0)
(25.00000084517187 -5.95179287350088e-06 0)
(25.00000000033522 -3.580301732486495e-09 0)
(24.99999999993223 -4.828540980365599e-12 0)
(24.97444010562224 -3.116550660520359e-06 0)
(24.99995556667499 3.018732947866736e-09 0)
(25.0000002880435 4.037454466894661e-11 0)
(25.00000000586314 9.095998726982404e-14 0)
(24.97449134848833 1.921354866698377e-05 0)
(24.99995547335962 3.091115375393329e-07 0)
(25.00000028566088 2.987454072026005e-09 0)
(25.00000000582229 2.912088017210011e-11 0)
(24.97448993661416 0.0001910223962096292 0)
(24.99995361224914 2.159040513764028e-06 0)
(25.00000025374997 2.463537991125391e-08 0)
(25.00000000553806 2.752156485737086e-10 0)
(24.97442997830405 0.0006376018770264887 0)
(24.99994882021167 4.704606235028058e-06 0)
(25.00000017516876 4.432359777313531e-08 0)
(25.00000000466218 5.528238078979953e-10 0)
(25.00077848005568 0.004611188714364701 0)
(25.00000084518964 5.951793550001515e-06 0)
(25.00000000035666 3.580632366084834e-09 0)
(24.99999999993112 5.159210951810501e-12 0)
(25.00003090428444 0.0004715457615826348 0)
(25.00000009409233 6.079770220618641e-07 0)
(25.00000000040951 4.333486840658466e-10 0)
(25 -7.787208824851497e-13 0)
(24.99459680733061 -8.599049113499175e-05 0)
(24.99999648663447 2.169962910909489e-06 0)
(25.00000000165603 -9.766092630512042e-10 0)
(24.99999999992733 -1.13741067779326e-11 0)
(24.86134010409529 -0.01818135122958811 0)
(24.9997648722996 9.260987609052676e-05 0)
(24.99999990340631 9.866800215549257e-08 0)
(24.99999999969235 9.004781653551994e-11 0)
(24.99999999629943 -1.607156669832546e-09 0)
(24.99999820371096 1.962498791542786e-06 0)
(24.99727934046133 0.001272743038445805 0)
(24.31907575421523 0.01750898852507166 0)
(24.99999999605713 -1.578202604774088e-09 0)
(24.99999861744658 1.448566500218688e-06 0)
(24.99764338039306 0.001010653670226665 0)
(24.35247263847372 -0.003512766513994528 0)
(24.99999999662225 -1.423708113596921e-09 0)
(24.99999907994927 1.048830014847839e-06 0)
(24.99820875291524 0.0008541848781258529 0)
(24.42254573337681 0.01397495916022903 0)
(24.99999999793734 -2.972822071762641e-10 0)
(24.99999872500008 1.281048004029249e-06 0)
(24.99753226143844 0.0009086662787458058 0)
(24.27442511849994 -0.06691818022074504 0)
(24.03773104595329 -0.01769922227149403 0)
(24.99519557521786 0.0008325135658687003 0)
(24.99999742847346 1.75099423658155e-06 0)
(24.99999999668748 -3.863779181407107e-09 0)
(24.11292022521153 0.07192226632133782 0)
(24.9950141924192 0.001410545623414717 0)
(24.99999653244847 2.561622716955935e-06 0)
(24.99999999533392 -4.748991650091575e-09 0)
(24.34732105080175 0.1744402539609177 0)
(24.99573417340588 0.001753414190545293 0)
(24.99999652932525 3.116741331492655e-06 0)
(24.99999999347272 -6.576386818153353e-09 0)
(24.91419280667699 0.1240959612687975 0)
(24.99850796587373 0.001116489081505863 0)
(24.99999809641183 2.3079914056217e-06 0)
(24.99999999671425 -8.985050381196461e-09 0)
(25.00000000000001 6.606464626932686e-12 0)
(24.99999999952623 -1.509593108129828e-09 0)
(24.99999724716853 -6.139612118815255e-06 0)
(24.98745370461398 -0.02323238234053697 0)
(24.99999999999631 5.719837596328521e-12 0)
(24.99999999955138 -1.348479523935209e-09 0)
(24.99999763251939 -5.012037353611328e-06 0)
(24.99052475643265 -0.01710339483982279 0)
(25.0000000013767 -2.64733023487577e-10 0)
(24.99999999944984 -1.042697229822783e-09 0)
(24.99999788246462 -4.393479385584544e-06 0)
(24.99271539599137 -0.01305865025915177 0)
(24.99999999232471 2.438058930902897e-09 0)
(24.99999999994419 -3.440613165954464e-09 0)
(24.99999906759927 -2.181710351691968e-06 0)
(24.99745159479073 -0.004664999286600221 0)
(24.98164004000887 -0.03288031513852053 0)
(24.99999514806106 -1.064785357922712e-05 0)
(24.99999999908087 -2.962362071753462e-09 0)
(24.99999999999165 1.210285079053168e-11 0)
(24.98289357978225 -0.0300747093421559 0)
(24.99999594806025 -8.635791834309496e-06 0)
(24.99999999930073 -2.194646699983895e-09 0)
(24.99999999999839 8.493656105076319e-12 0)
(24.98383918003451 -0.02856710898983337 0)
(24.99999655048625 -7.422588694400522e-06 0)
(24.9999999994337 -1.750326368872447e-09 0)
(25 6.631151999585416e-12 0)
(24.98464554941793 -0.02713005134695179 0)
(24.99999702504721 -6.396074431418758e-06 0)
(24.99999999955615 -1.400918662234818e-09 0)
(24.99999999999993 5.164535781386971e-12 0)
(25 6.619202602698103e-15 0)
(24.99999999993458 -2.679249581273547e-11 0)
(24.99999948136095 -2.925712482283775e-07 0)
(24.99633034596201 -0.002528790933347979 0)
(25 2.394333016880955e-12 0)
(24.99999999976648 -7.111484811599481e-10 0)
(24.99999808801815 -3.932505930146818e-06 0)
(24.98699826658956 -0.02133016081568863 0)
(24.99999999999994 3.23096874613945e-12 0)
(24.99999999969461 -9.303233387893976e-10 0)
(24.99999772877111 -4.886515756826285e-06 0)
(24.98593757396838 -0.02482750395030599 0)
(25 4.073196583157358e-12 0)
(24.99999999964336 -1.134212403948291e-09 0)
(24.99999741489135 -5.56208233481987e-06 0)
(24.98535959178308 -0.02588418096234074 0)
(25 1.867335520907178e-12 0)
(25 4.022308766671134e-13 0)
(25 6.597380910200763e-16 0)
(25 5.041096045741836e-16 0)
(25.00000000024187 5.872694198034279e-09 0)
(25.00000000001888 -8.896991655455514e-11 0)
(25 1.944544302965717e-12 0)
(25 -9.849268820448414e-16 0)
(25.00000098995356 1.316545114644829e-05 0)
(25.00000003010608 -1.813359486529095e-07 0)
(24.99999999990589 2.159278166832634e-10 0)
(25 -1.438767954137267e-13 0)
(25.00251243907972 0.0155368992344185 0)
(25.00000661950744 -1.687349546200392e-05 0)
(24.99999998735938 1.531173431690141e-08 0)
(25.00000000004354 -1.308967800119656e-11 0)
(25.00000000000002 -2.551698695188753e-15 0)
(25 -2.920053271376994e-16 0)
(25.00000000000002 6.55881469773548e-14 0)
(24.99999999992575 4.542099463944494e-11 0)
(25 4.032445449742227e-16 0)
(25 1.714472742056819e-15 0)
(24.9999999999879 1.161962035283038e-11 0)
(24.99999999159863 9.678106852234293e-09 0)
(25 0 0)
(25 3.447410746036592e-14 0)
(24.99999999998665 1.035727001870962e-10 0)
(24.99999995634184 1.919672661786581e-07 0)
(25 1.148964848869838e-16 0)
(25.00000000000001 1.971111293411299e-13 0)
(25.00000000037924 7.890840226156841e-11 0)
(25.00000033050922 6.257837385146355e-07 0)
(24.99999999995081 4.438935853891931e-11 0)
(24.99999999974459 -8.494524321192602e-09 0)
(24.99999938587091 -1.907395808758109e-05 0)
(24.99917970176114 -0.02440712631537098 0)
(24.99999999997421 2.665176396370229e-11 0)
(25.0000000006178 -5.036529450384407e-09 0)
(25.00000169601418 -1.037381426465805e-05 0)
(25.00296959434235 -0.01095018549442456 0)
(25.00000000000001 5.29948154104903e-12 0)
(25.00000000030417 -1.003997185429387e-09 0)
(25.00000079875586 -1.896258337388769e-06 0)
(25.00101547833346 -0.001474146771893173 0)
(25 2.159418301396469e-13 0)
(25.00000000002887 -4.452987614487614e-11 0)
(25.00000005185599 -8.135882142489876e-08 0)
(25.00005006350331 -4.491041520690688e-05 0)
(24.99607489928652 -0.01236923935363159 0)
(24.99999828709996 -2.403006901278354e-06 0)
(24.99999999966814 -2.182936016294702e-10 0)
(25 6.518239550581583e-13 0)
(24.99723857095957 -0.01473954993421436 0)
(24.99999915125285 -5.131767211846475e-06 0)
(24.99999999985297 -1.392983758417942e-09 0)
(25.00000000000001 6.758885645577819e-12 0)
(24.99724562015954 -0.01432127642096178 0)
(24.99999917361005 -4.83499443558507e-06 0)
(24.99999999986994 -1.277540019228383e-09 0)
(25.00000000000002 5.973738902180898e-12 0)
(24.99724892912318 -0.01293929758933655 0)
(24.99999925220447 -4.336490158441566e-06 0)
(24.99999999984538 -1.02673080435322e-09 0)
(24.9999999999997 4.748493393423461e-12 0)
(24.99758465951152 -0.01176035249434693 0)
(24.99999983942375 4.773436874092108e-07 0)
(25 -1.165836006267592e-13 0)
(25 -1.579388584029179e-15 0)
(24.99724700388323 -0.01268238615576794 0)
(25.00000002083199 -3.55482702620719e-08 0)
(25 5.070348331511755e-16 0)
(25.00000000000001 7.996525820345213e-16 0)
(24.99738625320289 -0.009316829807146843 0)
(25 -4.630395564472455e-12 0)
(25 2.408329184349045e-16 0)
(25.00000000000001 2.366725871268124e-15 0)
(24.99929730985997 -0.002211819941810038 0)
(25 -1.772302392684844e-14 0)
(25 -6.602048960000615e-16 0)
(25.00000000000002 -2.562731200992773e-15 0)
(25 1.057626269670503e-15 0)
(25 7.194921852203198e-16 0)
(25 0 0)
(25.0000000000877 1.022275463355407e-09 0)
(24.99999999999999 -2.843418720158383e-19 0)
(25 1.021270517802537e-15 0)
(25 -1.422460094272691e-16 0)
(25.0000000724094 -3.377875306221647e-10 0)
(25 -9.759643939459221e-16 0)
(25 -6.461811912825189e-16 0)
(25 5.553008632819308e-16 0)
(25.00000067758004 7.125469160763639e-07 0)
(25 -4.287979746257991e-16 0)
(25 -5.277153477336864e-17 0)
(25.00000000000002 -4.008544979739664e-15 0)
(24.99997486949203 1.055202696258162e-05 0)
(25.00000010479366 4.059701922295086e-11 0)
(25.00000554392791 -1.240944112699302e-06 0)
(25.00008530292351 2.290636425684047e-05 0)
(24.99994115865098 -0.0006495931095581415 0)
(25.00000554395242 1.240953550781572e-06 0)
(25.00000963813149 1.720403873612187e-11 0)
(25.00026946156944 -0.0008604302790459142 0)
(24.99815529977972 -0.01214200668870327 0)
(25.00008530292874 -2.29063777251383e-05 0)
(25.00026946155999 0.0008604302684281002 0)
(24.99853444813748 1.534521306829128e-11 0)
(24.88883041964088 -0.02145522098328642 0)
(24.99994115863213 0.0006495930916648149 0)
(24.99815529977312 0.01214200666077331 0)
(24.88883041965193 0.02145522098451034 0)
(22.94852592836239 1.762835837352745e-12 0)
(21.9197307429311 2.017269963224765 0)
(23.03198876606885 2.6915181611605 0)
(24.73401040846009 1.098811776752616 0)
(24.95411863256417 0.1978020578748494 0)
(22.48015649474054 4.496798738364025 0)
(22.79891483003237 5.363472358213902 0)
(24.4993610673154 3.186484262083312 0)
(24.78593420021436 0.9636651256662845 0)
(22.94010579241331 5.138055965976639 0)
(23.15603548297464 6.167519025868702 0)
(24.66864091756236 4.00913691458023 0)
(24.78246781596487 1.411625738903779 0)
(23.01717931783968 5.212935891630301 0)
(23.23624246658705 6.269650370868562 0)
(24.71147069310238 4.085509432238486 0)
(24.7904777255867 1.435047899468918 0)
(24.77040203007857 1.555887824251625 0)
(24.77705147057705 1.635655345717001 0)
(24.78290165207365 1.651919883786698 0)
(24.68781838589461 1.64695622691369 0)
(24.69210140494441 4.189845457093629 0)
(24.71363920634747 4.253829284886886 0)
(24.72612584157372 4.26736374561243 0)
(24.71282000702443 4.727454341889634 0)
(23.15461110350854 6.31831876969265 0)
(23.16926948254073 6.343523136092379 0)
(23.18277546489005 6.354137961645042 0)
(23.55053410064169 7.654206491108021 0)
(22.962830332095 5.208077316701112 0)
(22.9887069040404 5.244606123459183 0)
(23.00378015300965 5.256941468533711 0)
(24.86985254023593 6.692133341174001 0)
(25.03960655516037 1.384884535207629 0)
(25.2206216719739 0.4308459132858742 0)
(25.03914483644502 0.03355302376042755 0)
(25.00107917361453 0.0001465972813332346 0)
(25.81073218142437 2.448894389290662 0)
(25.49773733118925 0.5025106614675907 0)
(25.05763532509085 0.0232390658861808 0)
(25.00128787265481 -0.001243999408827587 0)
(26.85802450192506 3.150331753529071 0)
(25.81404137590699 0.2607115211296089 0)
(25.07333966445936 -0.02050322968328813 0)
(25.00362950241157 -0.003730949980410919 0)
(23.83637773999554 0.5783916467878421 0)
(24.67979705402677 -0.03456222211532501 0)
(24.93118858396306 -0.01862531649012656 0)
(24.98662662300303 -0.003260164698856074 0)
(25.0000162083218 -6.1992274005392e-05 0)
(24.99999551013822 -9.690742170208791e-06 0)
(24.99999973625217 -1.840304966945758e-07 0)
(24.9999999988824 4.139186837409357e-10 0)
(25.00012556820579 -0.000238507254806293 0)
(24.99999964157856 -7.935396899472446e-06 0)
(24.99999995172536 -8.941522141355318e-09 0)
(25.00000000064307 2.249214341258299e-09 0)
(25.00051086375151 -0.0003532257386529011 0)
(25.00001083581719 -1.144653988241341e-05 0)
(25.00000002587405 -3.533785035363146e-08 0)
(25.00000000253182 3.967942903334072e-09 0)
(24.9986001270017 -0.0003523474805646011 0)
(24.9999597573588 -9.668556133889538e-06 0)
(24.99999983329677 -2.945637843375147e-08 0)
(25.00000000450807 2.970169270876e-09 0)
(25.00000000000317 1.870968721853372e-10 0)
(25.00000000166517 -1.609648902067537e-10 0)
(24.99999885849432 -7.193132190327464e-07 0)
(25.23076184004288 -0.8520198279444388 0)
(25.00000000053412 7.932623072065804e-10 0)
(25.00000000023136 3.360518624377932e-12 0)
(24.99999987515406 -1.265203252027902e-07 0)
(25.20995349131186 -1.594260751037407 0)
(25.00000000128055 1.18499746834526e-09 0)
(25.00000000011381 6.689304080884682e-11 0)
(24.99999999233436 -1.322166955576042e-08 0)
(23.60609286396985 -1.916643069890937 0)
(25.00000000201991 9.605440154757569e-10 0)
(25.00000000016458 6.337695288897239e-11 0)
(24.99999999897733 1.454259526183187e-09 0)
(19.57426272925061 -4.007384320923644 0)
(23.90155887528891 1.447424581051193 0)
(22.66763251739795 4.100522902403511 0)
(22.73860935014422 4.423195378462277 0)
(22.75094569450005 4.415797060269981 0)
(19.9358966689159 6.861691227024366 0)
(19.61964302763659 10.32153054340225 0)
(19.87034249446885 10.60737272967536 0)
(19.88418012098123 10.5966637299601 0)
(14.75513790129786 9.534327810336432 0)
(15.62688725706775 12.65381227938847 0)
(15.8416930520447 12.83237057301724 0)
(15.84483344790339 12.81744721996774 0)
(14.14130661576047 8.158872964036721 0)
(15.93176238863818 10.92910136642638 0)
(16.14895295507703 11.0779438112644 0)
(16.14558141701636 11.06129782593856 0)
(22.75189998285457 4.411039161271849 0)
(22.75032557139134 4.412375999840253 0)
(22.74858303922865 4.414333068866123 0)
(22.74448204643938 4.474663684986815 0)
(19.88271216993577 10.58748052861618 0)
(19.88173166633079 10.58721654423672 0)
(19.88128159012603 10.58799912398698 0)
(19.89980909198085 10.61408228483993 0)
(15.84058253280855 12.80465076028419 0)
(15.83985817850492 12.80301081984619 0)
(15.83996772945591 12.80296064676957 0)
(15.86415654932366 12.7990261251867 0)
(16.13725288269781 11.05009575977546 0)
(16.13528138241257 11.04889749800843 0)
(16.13525396212397 11.04895329492916 0)
(16.14731486961984 11.05022409376283 0)
(23.23895573961757 3.609739360554783 0)
(23.51837200590943 2.962161751476149 0)
(23.7843877401381 2.444266841074582 0)
(24.39802492428719 1.036948033802653 0)
(20.3023095170098 10.11773565906456 0)
(20.52026595084173 9.658233407465735 0)
(20.89615257197461 9.186208465904302 0)
(22.19269822136667 7.525969098171657 0)
(16.05945416828225 12.71420588676193 0)
(16.08916176518143 12.61898134727671 0)
(16.50111728571569 12.63193420808394 0)
(19.49115481249925 15.18828446892683 0)
(16.25371795317623 10.98015960592487 0)
(16.34152843629606 10.81546044657398 0)
(16.94704250039942 10.87429216028314 0)
(25.56818110522158 15.24342799654302 0)
(25.22780679416038 -1.073157061608056 0)
(18.18501573112555 -3.44632889755805 0)
(9.250888726274088 -0.8135581305092144 0)
(8.509123296994776 -0.111002972791596 0)
(25.7853282623853 0.2863418233319474 0)
(15.11918889393833 -4.944080264532251 0)
(2.855339735600427 -1.015787538523778 0)
(1.51281089171433 -0.1384124303062467 0)
(23.53211452376778 1.671179393657815 0)
(13.23642997276787 -5.92312123004088 0)
(0.2739715183220499 -0.7822586508527858 0)
(-0.442806489731598 -0.2988776024812111 0)
(18.62668672033825 -9.26812923893157 0)
(9.196630720655627 -7.600865700602788 0)
(0.7816888769436032 -0.3372094540220248 0)
(0.5144172633535942 -0.1131204559138774 0)
(8.284865421040204 -0.09214764859180288 0)
(8.366262264230974 -0.009418942357412717 0)
(8.339667821124547 -0.07033319768430647 0)
(5.845636001786578 2.717354170654928 0)
(1.57060659267599 -0.1360191829747184 0)
(1.569990686401834 0.009002819206640344 0)
(1.59987884833218 0.561878753819623 0)
(0.7901988615758005 5.8484240231682 0)
(-0.3336369732049325 -0.271903947131557 0)
(-0.3300247601289382 0.02880933212766014 0)
(-0.2836393444906132 1.352259521518068 0)
(1.84497459367576 7.572921712619837 0)
(0.8891156552708216 -0.07571197041021877 0)
(0.89706020570976 0.03406036540601148 0)
(0.7141555724664308 1.301407838545843 0)
(0.1290272956992861 9.1616872979054 0)
(21.5098348667797 -0.6965700059453555 0)
(24.61676203342027 -0.03530968443628427 0)
(24.99827090282475 -0.03585504727386252 0)
(25.04250533700786 -0.3279582361674984 0)
(18.73391915907865 -1.183183464455542 0)
(24.03232288870029 -0.2066519538772084 0)
(25.00150395171613 -0.2559202772559781 0)
(25.23642899434367 -0.7743126078044855 0)
(15.59310619696964 -0.1394566575590586 0)
(23.54253896034194 -1.13222637171342 0)
(24.94329280958802 -0.7294379958781628 0)
(28.06669735442494 -0.9884059047932857 0)
(11.37622463963729 7.661596675876902 0)
(19.27037294802174 2.694067210619684 0)
(23.1580075850941 0.3637414142051835 0)
(33.59192687023212 0.1951667135030394 0)
(24.65397259189435 -0.6806750594083613 0)
(23.53644501141718 -1.122371457257787 0)
(22.23632157039142 -0.5764381765908442 0)
(21.74349949891707 -0.1979546405948659 0)
(24.9959093704358 -3.658132765891091 0)
(20.66734325843928 -4.950268179767342 0)
(16.41198723576807 -2.737269816751039 0)
(14.55259515912817 -0.9436421562483847 0)
(27.5750834404318 -9.023234269393516 0)
(18.99004404631851 -12.05042046063931 0)
(12.16242624579613 -7.405449708458508 0)
(8.878362788375519 -2.576629707242336 0)
(17.74737691749964 -11.88570153718099 0)
(8.926956639048415 -15.42008003383247 0)
(5.632286256024329 -10.45986587320408 0)
(3.050676530096273 -3.127328234836022 0)
(2.841505951634559 -0.3883771362942905 0)
(2.873592006661512 -0.220054160042018 0)
(2.864438185855984 -0.1248332801135426 0)
(2.869462923372689 -0.01798363394199349 0)
(8.612131805955546 -1.128364427548251 0)
(8.802247983469897 -0.5912613307231129 0)
(8.760743822775718 -0.2715442835713184 0)
(8.756209677446622 -0.03989454010418873 0)
(14.15191570153847 -0.4726147249440297 0)
(14.22879349421567 -0.2055436929169099 0)
(14.15389746246316 -0.1184576694549158 0)
(14.11798509912057 -0.02158377398706881 0)
(21.47358617438159 -0.1035996821450035 0)
(21.47800498260984 -0.02270226507321674 0)
(21.4546696718355 -0.0152792591858987 0)
(21.4410557278556 -0.002800549060817215 0)
(2.869462923375667 0.01798363396328263 0)
(8.756209677448934 0.03989454005912488 0)
(14.11798509910997 0.02158377404864931 0)
(21.44105572785706 0.002800549127413761 0)
(2.864438185852127 0.1248332801196078 0)
(8.760743822791937 0.2715442836013812 0)
(14.15389746246919 0.1184576694061791 0)
(21.45466967186595 0.01527925910046656 0)
(2.873592006656607 0.2200541600099536 0)
(8.802247983465676 0.5912613307773138 0)
(14.2287934942364 0.2055436928932708 0)
(21.47800498262825 0.02270226506470791 0)
(2.84150595163948 0.3883771362922906 0)
(8.612131805940823 1.128364427548943 0)
(14.15191570154912 0.4726147249303074 0)
(21.47358617440709 0.1035996821391619 0)
(21.74349949893312 0.1979546406017968 0)
(22.236321570398 0.5764381765946259 0)
(23.53644501144591 1.122371457230147 0)
(24.65397259193909 0.6806750594224683 0)
(14.55259515915056 0.9436421562494801 0)
(16.4119872357565 2.7372698168033 0)
(20.66734325841358 4.950268179727312 0)
(24.99590937046191 3.658132765890894 0)
(8.878362788367074 2.576629707240647 0)
(12.16242624579257 7.405449708429756 0)
(18.99004404632089 12.05042046064747 0)
(27.57508344043605 9.023234269384625 0)
(3.050676530094893 3.127328234835729 0)
(5.632286256026307 10.45986587321067 0)
(8.926956639042512 15.4200800338272 0)
(17.74737691749615 11.88570153718278 0)
(33.59192687021789 -0.1951667135074654 0)
(23.15800758508399 -0.3637414141859689 0)
(19.27037294803151 -2.694067210615651 0)
(11.37622463962341 -7.661596675875776 0)
(28.06669735443366 0.9884059047861209 0)
(24.94329280962599 0.7294379958435523 0)
(23.54253896033195 1.132226371724371 0)
(15.59310619696526 0.1394566575654261 0)
(25.23642899435926 0.7743126077932784 0)
(25.00150395176058 0.2559202772654297 0)
(24.0323228886961 0.2066519538792533 0)
(18.7339191590776 1.183183464470712 0)
(25.04250533702152 0.3279582361604138 0)
(24.99827090284325 0.03585504727280742 0)
(24.61676203342723 0.0353096844420869 0)
(21.50983486676341 0.6965700059673648 0)
(5.84563600179517 -2.717354170656559 0)
(8.339667821128643 0.07033319768666541 0)
(8.366262264234877 0.009418942353236339 0)
(8.284865421049236 0.09214764858234006 0)
(0.790198861584929 -5.848424023167057 0)
(1.599878848334463 -0.5618787538087472 0)
(1.569990686400476 -0.009002819203393407 0)
(1.570606592684201 0.1360191829795734 0)
(1.844974593662044 -7.572921712624251 0)
(-0.2836393444948387 -1.352259521531218 0)
(-0.3300247601555547 -0.02880933212633135 0)
(-0.3336369732194939 0.2719039471333417 0)
(0.129027295690896 -9.161687297941699 0)
(0.7141555724602938 -1.301407838560042 0)
(0.8970602057001396 -0.03406036540464424 0)
(0.8891156552657379 0.07571197042575614 0)
(8.509123297020345 0.1110029727942368 0)
(9.250888726229604 0.8135581305069914 0)
(18.18501573102379 3.446328897547042 0)
(25.22780679414817 1.07315706161533 0)
(1.512810891725919 0.1384124303011028 0)
(2.855339735548625 1.015787538495648 0)
(15.11918889387881 4.944080264517259 0)
(25.78532826240009 -0.2863418233186634 0)
(-0.4428064897434672 0.2988776024756152 0)
(0.2739715182781397 0.7822586508317431 0)
(13.23642997271383 5.923121230032681 0)
(23.5321145238089 -1.67117939366643 0)
(0.5144172633517281 0.113120455906136 0)
(0.7816888769282997 0.3372094539933672 0)
(9.196630720648333 7.600865700591219 0)
(18.62668672035451 9.268129238920457 0)
(24.39802492429575 -1.036948033791698 0)
(23.78438774013223 -2.444266841075295 0)
(23.51837200591975 -2.962161751463899 0)
(23.23895573959562 -3.609739360514031 0)
(22.19269822139394 -7.525969098146567 0)
(20.89615257197421 -9.186208465894543 0)
(20.52026595084434 -9.658233407457443 0)
(20.30230951700339 -10.1177356590313 0)