/*--------------------------------*- C++ -*----------------------------------*\
  =========                 |
  \\      /  F ield         | OpenFOAM: The Open Source CFD Toolbox
   \\    /   O peration     | Website:  https://openfoam.org
    \\  /    A nd           | Version:  11
     \\/     M anipulation  |
\*---------------------------------------------------------------------------*/
FoamFile
{
    format      ascii;
    class       surfaceScalarField;
    location    "0.189";
    object      phi;
}
// * * * * * * * * * * * * * * * * * * * * * * * * * * * * * * * * * * * * * //

dimensions      [0 3 -1 0 0 0 0];

internalField   nonuniform List<scalar> 
1652
(
2.843686947071611
0.8895636090847481
-2.220446049250313e-16
1.95412333798815
0.8895636090831127
1.77635683940025e-15
1.064559729232814
0.8895636060098528
-2.504219054344503e-12
0.88953788605893
-5.820499637820831e-11
0.1749991065998134
2.843686947076739
1.779127218162427
1.95412333799799
1.779127218171079
1.06455973019787
1.779127201422048
1.779031232840468
0.1750344127936324
2.84368694709074
2.668690827246525
1.954123338003211
2.668690827281313
1.064559735203457
2.668690684846525
2.668312083452979
0.1752046914220758
2.843686947092867
3.558254436328657
1.954123338043647
3.558254438744563
1.064559767632035
3.558253245129949
3.555121678418878
0.176028694890338
4.418652025448567
2.872852967045246
5.27904961457063
2.872852967043179
6.139447203600136
2.872852967031395
2.872852995379106
6.999844160648547
4.418651922525163
2.012455394603736
5.279049917407277
2.012455288671355
6.139443274619324
2.01245621136963
2.012450651487328
6.999862375378139
4.418652871898684
1.152063123454295
5.279047319880768
1.152047307103128
6.139949202496773
1.151681316306803
1.152938579986254
7.001489952670667
4.434883057216902
0.2503378011145668
5.43466649424374
0.1076356442038906
6.48571580813512
0.04189869209030317
7.543984149306951
0.02865193422185097
6.941511917540417
0.05833204621374644
6.883163343095684
0.05832801501051865
6.824837754087512
0.05830795639488207
0.05830605543246414
6.766510118357795
6.941541864872389
0.1166256669121406
6.883258619059553
0.1165423227847132
6.825099651665562
0.1163480264004413
0.1162111732829711
6.767002506174442
6.948696795711923
0.1637982440752442
6.900540829067343
0.1568917216663979
6.856972831738513
0.1502255140257561
0.1423574470862798
6.817784696825029
7.633977982953503
0.01634843453614687
7.722317537586195
0.009581379008999691
7.79979184058306
0.01169478696049586
7.856875273708306
0.007463656120092588
7.899094342147208
0.07298044379675978
-0.1678022305888691
7.787495084842742
0.1282690803540525
-0.05301802176678938
7.666592767314779
0.1142487177935188
-0.01164922958720421
0.09909262098483151
7.575316780541272
-0.009017675333840958
6.865520906192558
0.001514156315390536
6.951811090181187
0.005375468772139458
7.015981428321385
0.01119313037850467
0.01632874693404818
7.055579826581704
6.767788450896511
8.565945274252584e-05
6.770590666900875
0.0002928255570964211
6.776048823695194
0.0008393997882198967
0.001570540201867421
6.782505714118416
6.766519392963837
6.766555501269448
6.766635460763858
6.766628912437796
6.766544071708164
-0.001945047211812878
6.766399202274517
-0.001845966236571406
6.766286641282046
-0.001632654838391701
-0.001272683102822803
6.76625051312955
6.785963536255219
-0.018172332126135
6.785663720772739
-0.01618021861972196
6.783733371318742
-0.01352128059913127
-0.01056481630036998
6.780280902983947
7.061490449769728
-0.08341601698712903
7.046016442600892
-0.06775154304832942
7.016807965563407
-0.05209371382126277
-0.03956801259550524
6.975837182656649
7.529383487792528
-0.008982455650193122
7.497188655793264
-0.005131145957318062
7.437140647971678
-0.0005977532616563974
7.358897906349338
0.001959558309902687
0.03041817450230433
7.270128888222589
0.00232494961729468
0.007461269662079384
6.927569123793734
0.0008410609023925542
6.775646077152691
6.766302714025332
0.02314245294287065
7.17067799522814
0.002002446438002514
0.004632430736717263
6.876300217152473
0.0004413365889825993
6.770999858327239
6.766396916359761
0.01061404965339247
7.072062233820122
-0.001443794655333452
0.002083328500359305
6.820258030824899
0.0001476821221532143
6.767737129979587
6.76648493344022
0.008597192918290197
7.131153696076373
-0.2025944942047463
0.0003058356787551952
6.785836315291707
2.464572861138326e-05
6.766642990530749
6.766507823991545
0.1555473306983848
6.610956044373737
0.3109707485103412
6.611024282216617
0.4450341265753874
6.626020295170202
7.142836439824131
0.1353481967164218
0.1555359888682014
6.455404680899127
0.3105232977934945
6.455749930191086
0.4018854402030662
6.497073339571872
6.953315528722186
0.1504544571433235
0.1554285391869639
6.299894033110732
0.3089983003732413
6.300929654286885
0.3455137662845363
6.375921678227638
6.77432353306058
0.1044964791878913
0.155241973585255
6.144387226663135
0.3060223704630657
6.146992132398198
0.2787132912057968
6.269319923232785
6.60570044953362
0.08114452447231313
-0.1935700685647428
6.367644248451963
0.0560717693562216
-0.2998074288793632
6.160545484521648
-0.1547122980365446
5.993288575166948
5.989005963354747
-0.09712839073729407
6.061030617820933
0.03459457360216966
-0.28924058300943
6.056756540434493
-0.1536050395061863
5.842420532693025
5.833810660887238
0.01359185994617707
5.688797251260439
0.01310306283057006
-0.2722415943142451
5.947608858057563
-0.1521351835880527
5.691946182978643
5.678590435571461
0.1301663453007215
5.339581782209959
-0.002166918397729645
-0.2430325361235047
5.810699207814467
-0.1486959530874229
5.544209224863675
5.524076002200804
0.1888852389378524
5.325569733212626
0.2896773202522465
5.352688576474407
-0.1604708747613119
5.641672958179418
5.020166129922918
0.07846128952562181
0.1806710981565183
5.128747801165383
0.2320622178126381
5.159616166996714
-0.1468530753092772
5.39769540364248
4.860541948801547
0.1521396638498462
0.1784274808122582
4.914549856576618
0.2512977850151448
4.954434651818363
0.05103180137979213
5.151889718674108
4.845461210403734
0.1898471230986035
0.1847369854071141
4.724710982895537
0.2993247397127862
4.75279222173979
0.2516286446880737
4.898490063448145
4.789829100109213
0.3462810132246164
-0.3634135100718093
5.071227086425536
-0.836285575466709
5.096011668550351
-1.326567448655313
5.222876972884626
4.856725389385167
-1.379839269360566
-0.3670374259257056
5.407340957518773
-0.7979675065789027
5.46118795189881
-1.098088393889334
5.479401022806966
4.23670634152567
-0.428375136394092
-0.3561169712934031
5.740208217716737
-0.7246084684321796
5.795349913969058
-0.955852279739835
5.763858839948409
3.456628837841609
-0.04371094601963092
-0.3450919701737214
6.072935032176828
-0.6778558484808181
6.111469059563007
-0.7994951409117895
5.989298749196667
2.965091491182152
-0.03354742144469547
0.3451970582437184
2.82465529068125
-0.01917664613196679
0.338192796069894
6.089306927597216
0.1720944838228177
6.264245485032506
6.243541334080507
0.2971689901571214
2.808092890384013
-0.0163644156623275
0.3266712670761748
6.16727603031176
0.1743205993410376
6.413958808153525
6.417309537204992
0.2641985072214747
2.802918232138317
-0.009522272149521817
0.3222421566011565
6.215672082822983
0.1741475799344294
6.573137697242699
6.591803661060143
0.2248720837682043
2.796981559543682
0.003933007304177574
0.3160937096309008
6.237673216361165
0.1740142273170715
6.739995365105282
6.766359380938793
-0.2682633934518894
3.322064201529235
0.0696581526493333
-0.04224781930792054
6.245219011225408
-0.001091051283693911
6.747641551811623
6.766383053092992
-0.1954531661252127
3.606911623636111
0.141495553822276
-0.02399719642005493
6.346577019945825
-0.0004068440056641531
6.756960902342993
6.766474016197361
-0.1455473072666185
3.874800236789788
0.1355441166535536
-0.01280048422376012
6.494642600927529
-0.0001568312439277353
6.764103011103463
6.766507693012137
-0.1231016238470423
0.1372169255364602
4.19541905958322
-0.006337523337511364
6.601246600784373
-5.24817814100409e-05
6.762173759429329
6.766511490418136
0.9611889525571559
-0.7446911843796866
-0.004498269767631586
2.361844053666573e-11
1.959945519950327
-0.8623485797103112
1.49912970925925e-10
2.857286354184637
-0.8736057432484601
4.353584159844104e-11
-0.8749436160848534
-1.408357874765898e-10
0.9505359913412634
-1.451482325113695
-0.005816811434135861
1.96061931616247
-1.718424409402093
2.85734558069271
-1.747155597768389
-1.749891002068307
0.9284624578014299
-1.978563028105414
-0.01246141551571743
1.960378526344748
-2.567525096101492
2.857426808482858
-2.62200937372774
-2.624868358604993
0.8959800757805786
-0.02457939890379864
-2.286002473011594
1.961772537044434
-3.398953490738986
2.857605483578608
-3.496966051853339
-3.499878599485138
-0.1231016238462856
-3.874800236811334
0.1372169255358005
4.195419059580466
-0.006337523350804508
-6.494642600933568
6.601246600835461
-5.248185509154624e-05
-6.764103011093687
6.762173759481007
-6.766507693034837
6.766511490537927
-0.1455473072899319
-3.606911623661376
0.1355441166566973
-0.01280048424327584
-6.346577019944978
-0.0001568311913848763
-6.756960902381905
-6.766474016123388
-0.1954531661456611
-3.322064201524344
0.1414955538190958
-0.02399719645805298
-6.245219011194736
-0.0004068440371824966
-6.747641551809087
-6.766383053132012
-0.2682633934508285
-2.796981559539154
0.06965815264765279
-0.042247819283453
-6.237673216345134
-0.001091051264796361
-6.739995365103574
-6.766359380900767
-0.1720944838453607
6.243541334124129
-6.072935032225047
-0.3381927960690487
6.264245485078331
-6.11146905966226
-0.345197058236293
6.089306927566145
-5.989298749151392
2.824655290630757
-2.96509149113213
-0.01917664613167656
-0.1743205993230871
6.417309537237524
-0.3266712670611623
6.413958808163529
-0.2971689901508888
6.167276030281341
2.808092890355777
-0.01636441566162621
-0.1741475799179455
6.591803661060648
-0.3222421565835719
6.573137697260944
-0.2641985072138379
6.215672082799278
2.802918232125293
-0.009522272148950045
-0.1740142273105142
-0.3160937096091906
-0.2248720837589991
0.003933007303095301
0.7994951409140806
-3.456628837797521
-0.03354742144467812
0.6778558485072779
-5.763858839914474
0.3450919701860277
-5.795349914081609
-5.74020821775319
0.9558522797450045
-4.236706341503421
-0.04371094601858835
0.7246084684556344
-5.479401022780888
0.3561169712990946
-5.461187951952318
-5.407340957608967
1.098088393899927
-4.856725389379812
-0.4283751363929265
0.7979675065984135
-5.222876972880528
0.3670374259086057
-5.096011668447028
-5.071227086499421
1.326567448668921
-4.789829100113301
-1.379839269366209
0.8362855754686187
-4.898490063455053
0.3634135100415072
-4.752792221650545
-4.724710983920592
0.1888852389476224
5.325569733219266
-5.524076002225509
0.289677320281986
5.352688576493138
-5.544209224909239
-0.1604708747671741
5.641672958134004
-5.81069920782617
5.020166129912436
-5.339581782240423
0.07846128952597686
0.1806710981523761
5.128747801190905
0.2320622178219399
5.159616166997832
-0.146853075288802
5.39769540357344
4.860541948808191
0.1521396638110262
0.1784274808043648
4.914549856625849
0.2512977848627843
4.954434651842583
0.0510318013831268
5.151889718611021
4.845461210398906
0.1898471230924013
0.1847369853945722
0.2993247398194312
0.2516286447080318
0.3462810132226772
0.130166345297004
-5.68879725125325
-0.002166918394973849
-0.2430325360687559
-5.947608858177242
-0.148695953045874
-5.691946183156665
-5.678590435584804
0.01359185994459777
-6.061030617697034
0.01310306282660478
-0.2722415943639488
-6.056756540304563
-0.1521351836185572
-5.842420532561394
-5.83381066096026
-0.09712839067668122
-6.36764424840394
0.034594573610365
-0.2892405828796288
-6.16054548440619
-0.153605039424079
-5.99328857506783
-5.989005963373519
-0.1935700685432529
-6.605700449604495
0.05607176935441871
-0.2998074289247579
-6.269319923302668
-0.1547122980623208
-6.146992132488709
-6.144387226696951
0.1555473307062419
6.610956044539788
-6.766507824159284
0.3109707485126686
6.611024282211792
-6.766642990534109
0.4450341265806937
6.626020295176896
-6.785836315295724
7.142836439809014
-7.131153696068571
0.1353481967054835
0.1555359888750468
6.455404680976184
0.3105232977956388
6.455749930187625
0.4018854402077295
6.497073339560496
6.953315528688125
0.1504544571396088
0.1554285392025153
6.29989403313575
0.3089983003964016
6.300929654275381
0.3455137662769117
6.375921678234032
6.774323533076405
0.1044964791819486
0.1552419735647876
0.3060223704233226
0.2787132912249642
0.08114452447795517
-6.766484933418545
-2.464574032468025e-05
-6.766396916373037
-0.0001476821179972054
-6.766302714036486
-0.0004413365875862718
-0.0008410609028411953
-6.766250513132865
-6.767737129992413
-0.0003058356834964027
-6.770999858349583
-0.002083328497831993
-6.775646077157033
-0.004632430726805969
-0.007461269668780579
-6.780280902986009
-6.82025803083099
-0.008597192920166696
-6.876300217133656
-0.0106140496524833
-6.927569123770181
-0.02314245295356149
-0.03041817450126166
-6.975837182664902
-7.072062233814269
-0.2025944942003627
-7.170677995210013
-0.001443794657931208
-7.27012888822059
0.002002446434402949
-7.358897906374314
0.002324949620281236
-0.0012726831128681
-6.766286641249169
-0.01056481630284711
-6.783733371319291
-0.03956801259054282
-7.01680796559389
-7.437140648004469
0.001959558312609966
-0.001632654841178804
-6.76639920228469
-0.01352128060610847
-6.785663720777008
-0.05209371381236327
-7.046016442589908
-7.497188655817967
-0.0005977532551441622
-0.001845966236370788
-6.766544071719776
-0.01618021862883556
-6.785963536257505
-0.06775154305316472
-7.061490449733911
-7.529383487812226
-0.005131145958203853
-0.001945047214040985
-6.766628912445369
-0.01817233213339686
-6.782505714121439
-0.08341601698213486
-7.055579826537966
-7.575316780557031
-0.008982455649194698
-8.565943199423387e-05
6.766519392584924
-6.766510117636527
-0.001514156349779472
6.767788450968414
-6.767002506291913
-0.07298044380456931
6.865520906393987
-6.817784697059738
7.899094342138735
-7.856875273706871
-0.1678022305848824
-0.0002928255606046148
6.76655550115909
-0.005375468789037829
6.770590666912918
-0.1282690803684023
6.951811090291097
7.787495084834601
-0.05301802177224219
-0.0008393997907684136
6.766635460756334
-0.0111931303777163
6.776048823703689
-0.1142487178054425
7.015981428337293
7.666592767318935
-0.01164922959159354
-0.001570540206041304
-0.01632874693890574
-0.09909262099066984
-0.009017675336030817
-0.1423574471119711
-7.799791840566797
0.007463656130592522
-0.1162111732881841
-6.856972831865535
-0.05830605546593504
-6.825099651689166
-6.824837754151911
-0.1502255140627934
-7.722317537545775
0.01169478696480808
-0.1163480264292727
-6.900540828987896
-0.0583079562787624
-6.883258619048448
-6.883163343426222
-0.1568917216869558
-7.633977982897669
0.009581379014407254
-0.1165423228165473
-6.9486967953981
-0.05832801510754582
-6.941541864906547
-6.941511917523783
-0.1637982440600327
-7.543984149235334
0.01634843452559154
-0.1166256669359905
-7.001489952286978
-0.05833204621979449
-6.999862375416963
-6.999844160635555
-1.152938579997694
-6.485715808078122
0.02865193425054358
-2.012450651467408
-6.139949202582304
-2.872852995389069
-6.139443274651753
-6.139447203599509
-1.151681316324525
-5.434666494212141
0.04189869216836573
-2.012456211358979
-5.279047319866551
-2.872852967031839
-5.279049917422233
-5.279049614567583
-1.15204730710313
-4.434883057272672
0.1076356442581914
-2.012455288663673
-4.418652871889678
-2.872852967044605
-4.418651922531063
-4.418652025446892
-1.15206312345163
-3.555121678523614
0.2503378010877092
-2.012455394599279
-3.558253245138185
-2.87285296704692
-3.55825443874437
-3.55825443632866
2.843686947076677
0.8895636090796828
1.954123337995113
0.8895636090810872
1.064559729239002
0.8895636060116778
0.8895378859870651
0.1749991066231273
2.843686947077597
1.7791272181565
1.954123337999139
1.779127218168865
1.064559730198027
1.779127201428694
1.779031232840169
0.1750344128094036
2.843686947089469
2.668690827241873
1.954123338001431
2.668690827279667
1.064559735200588
2.668690684858959
2.668312083517122
0.1752046914066083
2.843686947088214
1.954123338037224
1.064559767624256
0.1760286948920192
0.1749977166957966
0.1749977167097631
0.1749886899004423
0.175038916311738
0.1749794139721156
0.1751982565856168
0.1760468511568937
0.1748207556447963
0.1750389163161987
0.1749886898981733
0.175034688635009
0.1750346885996321
0.1750374878139767
0.1751703225019216
0.1749886753567456
0.1758677279856014
0.1751982566262946
0.1749794139502711
0.1751703225806368
0.1750374877436542
0.1751259758997269
0.1751259758061661
0.1719539986158312
0.1775785599787734
0.1760468511460279
0.1748207556268016
0.1749886753425913
0.1758677278642739
0.1719539985719909
0.1775785598350635
0.1715932177080198
0.1715932175233266
-0.07364897311940088
0.2440239520069326
-0.1352581766918842
0.237653746921016
-0.201540006572748
0.2405649490851947
0.2222154526337365
-0.01165199319449384
0.2538883612092338
-0.03226243040535337
0.2564973010611014
-0.06085006887819677
0.2670120842001917
0.2668746340302083
-0.00290079821005218
0.2547161261523
-0.0152949910384631
0.2667895782827071
-0.0268978460564977
0.2764810016568457
0.2792336884730689
-0.004088109785707728
0.2566442361653505
-0.01454403762236456
0.2747322430593623
-0.02184378456485814
0.2811581737229197
0.2828763085022221
0.2835863037146381
0.01425992505552698
0.2841891066847203
0.007991888935830804
0.2864477338378185
0.008790964620409403
0.00613966514037767
0.2872203027080055
0.2825276423763666
0.01176518361049927
0.2837942524271324
0.00598381610073051
0.2867228620706395
0.005453613364781951
-0.001587650172970745
0.294279591721862
0.2785930674342373
0.006785602561233894
0.2816783675612888
0.002570930331184496
0.2855561743653081
0.001401702428769747
-0.02839308755582021
0.3122610871472062
0.262134880696273
0.2647268024856358
0.2660432392159324
0.2381281543641246
0.264103808256078
-0.1440416645592993
0.2375133006133514
-0.0249500793691092
0.2311656177838778
-0.003827543481722151
-0.006346351987900678
0.2311584541396002
0.2582053358092863
-0.1072119343859481
0.2404620332724232
-0.006047504098040335
0.2378822375041856
0.0005331757740968945
-0.003752541927561415
0.2377510998089699
0.2645468792214014
-0.05860960931001452
0.2503186871178849
0.009025909192495907
0.2448968019265054
0.007861500950624212
0.001160199764744962
0.2421769883800941
0.1800359073176244
0.1893835009265632
0.1993225134164183
0.2023869582127541
0.234591868347147
-0.0091100321655877
0.2387247676746619
-0.005499695614665345
0.2418613622297779
-0.0005577600972709318
0.002915492098994832
0.2429943217099133
0.237776824540001
-0.005899032732411824
0.2390988614476072
-0.003227094522266993
0.2418097907112811
0.0004322411116853275
0.004113063725692256
0.2431277174845018
0.2403075472488083
-0.00105110770984479
0.2397429738024848
0.0006376654162195128
0.2401441855521229
0.002985144222129588
0.004413254708465375
0.2420415881449606
0.2043108654289879
0.2082656407142911
0.2141536449485819
0.2207407607082698
0.2430490889039506
0.002726415979527552
0.2427790931217335
0.002360199702816534
0.2457551077504476
-0.006463537316444223
-0.2122742680105958
0.2466145954918318
0.2431806588428403
0.00340239824390437
0.2428231884092093
0.002640643896312078
0.2471778853556475
-0.01420326280076273
-0.1849310092827283
0.2108810477032296
0.2427138291530886
0.004607055742136212
0.2429643120882975
0.003294230463189718
0.2467054379489284
-0.02260451087798149
-0.1105430863795475
0.1632087303054156
0.2268702433856315
0.2305544035978874
0.2025259047605622
0.08420409014752289
0.2638052122408294
0.1075006722579617
0.265275765849904
0.1379730175343777
0.2652820828872525
0.09619570592198712
0.06995547786887257
0.2718083844801382
0.2403503806126464
0.07013232460871621
0.2589724749931591
0.1097348734933014
0.2641757951123447
0.08303488453098984
0.05813406610845429
0.2717821293599041
0.1973075548447544
0.02836759811571521
0.2342628417128212
0.06225068167562342
0.2533800649106439
0.05549257029573285
0.04031669171044638
0.266925361730081
0.1064721954429405
0.1595978790660332
0.2067755176367593
0.2424052798708248
0.2782211937888825
0.04640419778476879
0.2798966790487467
0.0249002403939701
0.2765037272432672
0.01024423174662692
-0.0005416241860968229
0.2712497368882645
0.2789581532723057
0.03682226884202899
0.2812132618899385
0.01631104646734693
0.2783141609636414
0.007689915459777263
-0.0007873661371158303
0.2755513733465026
0.2768836862798486
0.02513632523407383
0.279811174428036
0.009605789602395332
0.2789800566598893
0.003354836033369279
-0.001135939446040957
0.2773726927624933
0.266546772273584
0.2729288303017267
0.2715564493810372
0.2683323528270103
0.28677459446354
0.0514020621654705
0.3170822614770738
0.110303199055935
0.3389780548340094
0.171120652207157
0.2805472770866058
0.4122559026016422
0.2900080445422391
0.02803104501731779
0.317362010125277
0.07308624925644858
0.3467383868138766
0.1409903606455317
0.1946687854382464
0.4380341621618286
0.2890309990373272
0.01035507353022647
0.313490978868581
0.04040873143388479
0.355126082372023
0.09629123371094206
0.04796307475279016
0.5060139164931013
0.274341686974731
0.3075550771304447
0.4042862654080815
0.4572573732058955
0.206876618943106
-1.166506488103729
0.02037434509552902
-0.2397480111516108
0.002468865078414743
-0.02443699985768583
-0.02439835954226137
-0.003508801338230614
0.1460653186339473
-0.8687943437770165
0.00826775432384343
-0.100432808280478
-0.001236249033594354
-0.01310311857268475
-0.01522385503401835
-0.006745530126219795
0.07467443528407129
-0.4347024816374509
0.002432338416873776
-0.0269324273243476
-0.004014340188251873
-0.004547305335230277
-0.007125462872486887
-0.00809312767452073
0.02428228501040755
-0.001917468510660777
-0.004362647110494232
-0.0077294968556114
-0.002431050177936354
-0.01707574755478426
-0.001272944222061397
-0.01391152332816352
-0.0005101269878728092
-0.006897899707726134
0.003326523481799654
0.0007974098094727759
-0.00626858573494102
-0.01366841697821641
-0.005410996547174664
-0.01028918029421691
-0.003549774067441667
-0.005350971339408914
0.001636092884907153
-0.002022874751816089
-0.008780355392217073
-0.007530744730607077
-0.007581532276812155
-0.005542518553601938
-0.006099779573841608
-0.003184544083042987
0.001651077005385748
-0.007073362377372567
-0.00938274359001935
-0.008680004555566913
-0.008428452041792366
-0.008481956150810349
0.03787947440162505
0.03384534021426064
0.07499456474781757
0.1064284923732194
0.1037542550917567
0.1097985080992305
0.1170943028758156
0.1295534993303195
0.01898813770451028
0.01286879743783678
0.05935489451529062
0.06475043634998255
0.08867158164318792
0.07926314165113128
0.0877082662984513
0.1193682447339283
0.002607796993403924
0.001374188809005306
0.03794275838664851
0.02554997454792601
0.06907157402419681
0.0439968353577456
0.05484063652890893
0.1014546709000866
-0.008937853421761982
0.01226928787556107
0.04953045021799387
0.09942302651691218
0.1041514851194942
-0.1026269352451755
0.1303266892660644
0.08201704243226735
-0.08487613940217269
0.1054879960779092
0.05913675745944577
-0.07012140384467995
0.09333542456700002
-0.04815867043863796
0.03074225476776927
0.07346380912209192
0.09163563450922121
-0.07467040615606312
0.06710010404897961
-0.06088897533361514
0.04062069609290887
-0.04248234840987784
-0.02652813188529431
0.0176570128220885
0.07470812450723473
-0.04785848186891663
0.04942169170261304
-0.03247839450689945
0.02487309890568336
-0.01773734239794241
-0.009205827340606629
0.007410736406706822
0.05181788276774679
0.02073562480429097
0.003484940565540016
-0.003877269769370993
-0.005185046387828837
0.003416390315007451
-0.0043002146970786
0.0008699397171891311
-0.002057577273906971
-0.001351126555426326
-0.002194560187407515
-1.489780521168882e-14
0.001947568105471711
0.009450480083902212
0.0004604080798463125
0.002397228398288327
0.0002307212565441953
-0.002186447338374382
-0.003397685181982996
-1.287164819174791e-14
0.0112238426744317
0.01529476154633131
0.007954058932871422
0.005023962058847376
0.004374726177204268
7.081561062274692e-05
-0.001000757731442896
1.096379931286862e-13
0.01993168653134903
0.01158284546352956
0.00545882729105545
2.013320066218682e-13
-0.002194560187459326
0.002057577273904453
-0.003397685182041086
-0.0002307212564523833
-0.001000757731623402
-0.004374726176835989
-0.005458827290004596
0.004498269766968127
-0.001351126555501668
0.004300214697064438
-0.002186447338471911
-0.0004604080796956171
7.081561054735064e-05
-0.007954058932459363
-0.01158284546236744
0.00581681143410899
0.0008699397171049693
0.005185046387843999
0.002397228398184747
-0.001947568105312745
0.00502396205879775
-0.01122384267404433
-0.01993168653058733
0.01246141551603554
0.003416390314941701
0.003877269769461067
0.009450480083792052
-0.007410736406500577
0.01529476154628895
-0.01765701282179752
-0.03074225476721255
0.02457939890387973
-0.05913675745868118
-0.04815867043845554
0.07346380912169877
-0.0820170424314226
-0.07012140384431198
0.09333542456649327
-0.104151485118697
-0.08487613940172169
0.1054879960774013
-0.1026269352444944
-0.1295534993296921
0.1303266892652896
-0.04062069609258556
-0.02652813188516767
-0.06710010404849315
-0.04248234840966858
-0.09163563450859162
-0.06088897533329087
-0.07467040615547486
-0.1193682447333748
-0.02487309890542
-0.009205827340519817
-0.04942169170227335
-0.01773734239783111
-0.07470812450680601
-0.03247839450677752
-0.04785848186854653
-0.1014546708995218
-0.003484940565334466
-0.02073562480399331
-0.05181788276741155
-0.09942302651625957
-0.04953045021748863
-0.05484063652893129
-0.01226928787497862
-0.0439968353578349
0.008937853421143518
-0.02554997454629925
-0.001374188809314433
0.00848195615062209
-0.06907157402387272
-0.08770826629840349
-0.0379427583854299
-0.07926314165214977
-0.002607796993265341
-0.06475043634706777
-0.01286879743780264
0.007073362377204167
-0.08867158164322225
-0.1170943028754146
-0.05935489451411995
-0.1097985081014123
-0.01898813770367406
-0.1064284923698867
-0.03384534021341541
0.002022874751809942
-0.1037542550917907
-0.07499456474688176
-0.03787947440037265
-0.0007974098091252484
0.0005101269877641375
0.003326523481159173
0.001272944222128791
-0.006897899707305886
0.00243105017810975
-0.01391152332750877
-0.01707574755447578
0.003508801338348085
0.00354977406735494
0.001636092884457707
0.005410996547144621
-0.005350971339152764
0.006268585734943756
-0.0102891802937448
-0.01366841697795581
0.006745530126319199
0.006099779573577813
0.001651077005165424
0.007581532276687375
-0.003184544083015495
0.008780355392196518
-0.005542518553375897
-0.007530744730400569
0.008093127674636456
0.008428452041498989
0.00868000455538258
0.009382743589979587
0.007729496855781958
-0.00246886507816606
-0.02439835954233695
-0.02037434509476986
-0.02443699985729141
-0.206876618941938
-0.2397480111508762
-1.166506488108626
-0.4122559026009388
0.001236249033781942
-0.01522385503402735
-0.008267754323428366
-0.01310311857271695
-0.1460653186332115
-0.1004328082800749
-0.8687943437803591
-0.4380341621621971
0.004014340188428007
-0.007125462872346191
-0.002432338416680637
-0.0045473053353468
-0.07467443528360673
-0.02693242732428184
-0.4347024816394971
-0.5060139164935012
0.004362647110716063
0.001917468510701134
-0.02428228501037973
-0.4572573732074896
-0.3389780548322867
0.2805472770832168
-0.3170822614701412
0.1711206521966835
-0.2867745944639116
0.1103031990310894
0.05140206216363574
-0.2712497368879412
-0.3467383868125759
0.1946687854335488
-0.3173620101210808
0.1409903606350151
-0.2900080445426444
0.07308624924266505
0.02803104501544762
-0.2755513733465852
-0.3551260823704577
0.04796307474864192
-0.3134909788662012
0.09629123370419557
-0.2890309990389585
0.04040873142818258
0.01035507352926301
-0.2773726927624813
-0.4042862654101462
-0.3075550771340894
-0.274341686977565
-0.268332352828238
-0.2765037272411875
-0.0005416241837534752
-0.279896679047717
0.01024423174393219
-0.2782211937885196
0.02490024040054062
0.04640419778372584
-0.2718083844823009
-0.2783141609616734
-0.0007873661353554606
-0.2812132618892705
0.007689915458689467
-0.2789581532722112
0.0163110464726951
0.03682226884174189
-0.2717821293619108
-0.2789800566572971
-0.001135939445078504
-0.2798111744270048
0.003354836033363839
-0.2768836862800637
0.009605789606737747
0.02513632523427634
-0.2669253617315556
-0.2715564493800054
-0.2729288303019794
-0.2665467722709511
-0.2424052798679219
-0.2652820828864108
0.06995547787161105
-0.2652757658495277
0.09619570591864857
-0.2638052122412348
0.1379730175309962
0.1075006722484384
-0.2466145954923077
-0.2641757951118376
0.05813406610915728
-0.2589724749925378
0.08303488452977648
-0.2403503806131008
0.1097348734905084
0.07013232460178043
-0.2108810477038255
-0.2533800649099925
0.04031669170985042
-0.234262841711107
0.05549257029468513
-0.1973075548420341
0.06225068167094017
0.02836759811296907
-0.163208730304732
-0.2067755176337005
-0.1595978790634403
-0.1064721954456842
-0.08420409015356631
-0.2457551077495922
-0.2122742680080391
-0.2427790931223596
-0.006463537316805046
-0.2430490889058508
0.002360199698793863
0.002726415981736507
-0.2429943217116094
-0.2471778853543108
-0.184931009282651
-0.2428231884100334
-0.01420326279766976
-0.2431806588448321
0.002640643892900085
0.003402398245832494
-0.243127717486335
-0.2467054379476726
-0.1105430863804972
-0.2429643120882897
-0.02260451087265059
-0.2427138291536141
0.003294230462103198
0.004607055742367805
-0.242041588146032
-0.2025259047667787
-0.2305544035986876
-0.2268702433870135
-0.2207407607082021
-0.241861362231609
0.002915492101922101
-0.2387247676746022
-0.000557760098824911
-0.2345918683474452
-0.005499695615482303
-0.009110032165108528
-0.2311584541391288
-0.241809790714473
0.004113063729820954
-0.2390988614475764
0.0004322411142169136
-0.2377768245399377
-0.003227094522907425
-0.005899032731806253
-0.2377510998089743
-0.2401441855529074
0.004413254709274006
-0.2397429738023158
0.002985144219450508
-0.2403075472483829
0.0006376654158545825
-0.001051107709023225
-0.2421769883802096
-0.2141536449465086
-0.2082656407123044
-0.2043108654280749