/*--------------------------------*- C++ -*----------------------------------*\
  =========                 |
  \\      /  F ield         | OpenFOAM: The Open Source CFD Toolbox
   \\    /   O peration     | Website:  https://openfoam.org
    \\  /    A nd           | Version:  11
     \\/     M anipulation  |
\*---------------------------------------------------------------------------*/
FoamFile
{
    format      ascii;
    class       volScalarField;
    location    "0.048";
    object      p;
}
// * * * * * * * * * * * * * * * * * * * * * * * * * * * * * * * * * * * * * //

dimensions      [0 2 -2 0 0 0 0];

internalField   nonuniform List<scalar> 
880
(
80
80
80
80.00000010329572
80
80
79.99999999999991
80.00000438553876
80
79.99999999999999
80
80.00023116714286
80
80
79.99999999996962
80.00090233516588
80
80.00000000000001
79.99999999999994
80.00000000000007
79.99999999999999
80
79.99999999999983
80
79.99999999971293
79.9999999979504
80.00023726788496
79.99884254695763
80.17251147482197
80.95999430603857
81.80573356107899
82.12859217814942
80.0000000279026
80.00000003696985
80.00000004179316
80.00000001616651
80.00000213557199
80.00000301183618
80.00000345754475
80.00000155123276
80.00394655130783
80.00434304141397
80.00476174178679
80.00364188410055
82.3121287573799
82.52036474413819
82.61382813479455
82.79548076846545
82.82467992841646
81.96415156335371
80.9293220008894
80.2381826195658
80.01042100830787
80.00886706779596
80.00482871307787
80.00126181894753
80.00001122732819
80.00000991805631
80.00000544203363
80.00000136056684
80.0000001561658
80.00000012648844
80.00000005541094
80.00000000942981
80.00000000023455
79.99999999999997
80
80.00000000000001
80.00000010513571
80.00000000152178
79.99999999999999
79.99999999999602
80.00010713168459
80.00000171344513
79.99999996354471
79.99999997573634
80.02197870796725
80.00042528051181
79.99999378247611
79.99999649074395
79.99999941133477
79.99999999591219
79.99999999999999
80
79.99999802039275
79.99999990323835
79.9999999970063
79.99999999999999
80.00060176921846
80.0000365613884
80.00000040258944
80.00000000250097
79.78680894832432
79.99361509039623
79.99999224473339
79.9999999959573
79.99999999983667
80.00000073306774
80.00079280250931
83.0747289931293
80.00000011412988
80.00000941332402
80.01488837863275
88.82286226676139
80.00000021586825
80.00001852877156
80.02571982842231
92.12105943181272
80.00000027733212
80.00002343595271
80.03074111663966
93.32939032060621
94.05645961585394
80.03565336192239
80.0000291686118
80.00000035506552
94.93252178865363
80.04223209303375
80.00003728198089
80.0000004642081
95.75567329307768
80.04909616685732
80.00004643920931
80.00000059856285
96.97046586090798
80.06198984617964
80.00006544904369
80.00000087354655
80.00000071085573
80.00005351043745
80.0592569886561
97.87775032006346
80.00000081308853
80.00006105264184
80.06431347579654
98.07512141223907
80.00000105912348
80.00007175376587
80.06808268834014
97.06496454659823
80.00000061296298
80.00004696756976
80.03708829034089
90.19136006944936
79.99992717911122
79.9987107896728
80.05289461113797
83.19081616613225
79.9999932048906
79.99732499180784
79.82158788350465
73.86122963241712
79.99999837143022
79.99845517300625
79.63716359139121
65.12267145546635
79.99999852308176
79.99822046333398
79.41234256315398
59.21256098600066
61.69872624866263
79.68678103248642
79.99916159733885
79.99999891938617
62.76739124651898
79.723609958016
79.99930073486566
79.99999918315734
65.31228115864791
79.81717754554499
79.99958488838763
79.99999954336957
63.86331655925603
79.7727463122434
79.99949605607813
79.99999945797107
71.57599484170696
79.94640771959941
79.99990413881154
79.99999989493068
77.60024527367129
79.99391932422809
79.99999217671972
79.99999999370741
79.52153520799422
79.99902833446757
79.99999876401259
79.99999999897294
79.52847325847056
79.99826286913782
79.9999971339999
79.99999999557208
77.8927991925506
79.97811382731498
79.99992019841042
79.99999993385842
77.89263072566102
79.97811964500818
79.99992018853453
79.99999993255854
77.88599522891785
79.97800546883316
79.99991962153381
79.99999991962635
77.94060240154386
79.97811101946037
79.99991930591096
79.99999989915061
79.52847325835612
79.99826286893685
79.99999713371193
79.99999999573349
79.52153520760901
79.99902833421967
79.99999876341342
79.99999999901462
77.60024527367932
79.99391932430254
79.99999217671822
79.99999999372842
71.57599484196052
79.94640772015143
79.99990413885625
79.9999998947835
79.9999989197922
79.99916159808591
79.68678103262242
61.69872624886519
79.99999918341547
79.99930073497484
79.72360995830361
62.7673912465298
79.99999954302159
79.99958488875885
79.81717754556439
65.3122811590858
79.99999945805006
79.99949605619631
79.77274631281225
63.8633165588948
59.21256098535592
79.4123425628207
79.9982204629563
79.99999852297273
65.12267145495035
79.637163591027
79.99845517237515
79.9999983707573
73.86122963229477
79.82158788300606
79.99732499183411
79.99999320436791
83.19081616626563
80.05289461099984
79.99871078947658
79.99992717989142
80.00000071070018
80.00005351080929
80.05925698887583
97.8777503205466
80.00000081318022
80.00006105280292
80.06431347579641
98.07512141220774
80.00000105950055
80.00007175376315
80.06808268801443
97.06496454655418
80.0000006136366
80.00004696755435
80.03708829009756
90.19136006939195
96.97046586181155
80.06198984577811
80.00006544960718
80.00000087346356
95.75567329384265
80.04909616761451
80.00004643933639
80.00000059866809
94.93252178870003
80.04223209377513
80.00003728247246
80.00000046412771
94.05645961602275
80.03565336134652
80.00002916862017
80.00000035495954
80.00000000009332
80.00000073347911
80.00079280245777
83.07472899256248
80.00000011383212
80.0000094129437
80.01488837883417
88.82286226666517
80.00000021572141
80.00001852877588
80.02571982868329
92.1210594321731
80.00000027715662
80.00002343606934
80.03074111620111
93.32939032075151
79.99999999590537
80.00000000257255
80
80
79.99999224418396
80.00000040250387
79.99999999731943
80.00000000000001
79.99361509052306
80.00003656166494
79.99999990300113
79.99999999582782
79.78680894832681
80.0006017692576
79.99999802041143
79.999999411342
79.99999999999991
79.99999999999578
79.99999997584067
79.99999649085728
80
79.99999999999999
79.9999999641324
79.99999378249318
79.99999999999999
80.00000000152407
80.00000171315018
80.00042528057004
80.00000000026616
80.00000010505967
80.00010713207607
80.02197870781706
80.00000015575176
80.00001122690337
80.01042100799384
82.8246799283292
80.00000012612763
80.0000099181527
80.00886706780062
81.96415156296281
80.00000005531983
80.00000544259015
80.00482871295348
80.9293220008209
80.00000000935098
80.00000136080843
80.00126181894049
80.23818261924669
82.79548076854974
80.00364188487373
80.00000155095977
80.00000001598708
82.61382813463354
80.00476174275659
80.00000345743538
80.00000004190301
82.52036474484375
80.0043430416453
80.00000301195374
80.00000003685938
82.31212875718727
80.00394654950051
80.00000213543474
80.00000002799551
82.12859217838204
79.99884254773913
80
80.00000000000007
81.80573356091369
80.00023726704951
80
79.99999999999999
80.95999430625605
79.99999999784116
80
79.99999999999999
80.17251147460236
79.99999999969837
80
79.99999999999989
80
79.99999999999997
80
80.00000011755041
80.00000000000003
80.00000000000001
79.99999999999999
80.00000438576699
80
80
80
80.0002311673512
80
80
79.99999999998157
80.00090233494957
79.99996361746938
79.99982700968371
79.99999599733597
80.06388468179452
79.99982701880317
79.99914580220022
79.99864884571453
80.13391443221916
79.99999599713404
79.99864884420563
80.06283123601445
82.41697900979524
80.06388468364746
80.13391443095205
82.41697901064873
97.58198049289653
127.2279736402647
104.5897666991988
93.94124098175389
84.82357324750687
125.704342771155
119.0458578005228
114.405378090033
102.8599282380598
123.9468155510702
123.6658619526596
122.7889249255927
117.3124952365023
125.9609627726107
127.6286742297378
127.7841736631619
123.5212511542863
125.7342019637253
126.1059005983273
126.2555744206365
129.9231456576088
129.9856068008161
130.2663915173484
130.3211692675902
136.3512878931031
129.2910420215807
129.4205974017602
129.4436479583773
135.2754758713213
126.8361513318719
126.819193956115
126.8554467788685
127.9070449308683
110.306971861862
93.91415385926408
84.89882511242116
81.19421064801101
104.2757115632842
82.97813344516594
81.40304675003782
80.75814279964403
85.37192538671889
76.21170501676049
80.85845405179747
81.28795953724456
73.18692614790763
77.04619236761521
79.89535697231189
80.08346129607673
80.11723917948359
80.00204261070324
79.99993065602028
79.99998753571573
80.1183255008911
80.00177570634531
79.99992797218852
79.99999782261925
80.23706037496792
80.00429107894452
79.9999040332155
79.999991762162
79.9326050429642
79.98833395163091
79.99948410334301
79.99998606510228
79.99999871106687
79.99999952715811
80.00036454681003
83.62909143405804
79.9999997241342
79.99999970579691
80.00019047823895
91.94527451834173
79.99999983154167
79.99999986280892
80.00005873317801
100.747960952655
79.99999975423188
79.99999994144437
80.00002769143194
100.0750355026527
167.0036248248133
193.7621967906998
207.2663895756747
211.2563754143282
198.318802733823
203.0919805214555
215.8251872261745
221.5039457628666
202.9728108596144
198.3094885653392
207.6973145004756
214.6334245045292
216.6743681362707
204.0049195203093
210.5483911904346
217.7122023859771
211.8423095062223
212.2176950490378
212.4821192555832
212.7458800323918
222.1140420897994
222.1525400582994
222.0961947061931
221.8495821287989
215.5964493014017
215.6281297069607
215.5939329175718
215.258273241762
219.0702004100983
219.1413664573933
219.152885998766
218.8812225852104
213.4765946948256
212.1425043568517
200.7004941944269
165.2658529162409
222.8620328762501
221.7969631574574
209.7317720843339
183.1367940247767
215.9539368836279
214.8569956290252
205.4453430271054
187.1800963493644
218.5240413368057
216.5038875828907
205.570961820255
206.2829143157711
94.68854866579927
34.09357349114611
12.70117413295121
8.568110791081367
86.25381808107794
20.74049644678875
8.398660909833994
5.575086415549531
56.05534642378024
13.99142558543539
8.060646374942483
5.71283382950087
29.18598478851297
3.90855084290124
6.815627273393285
6.429974670450261
8.917534023357836
9.000928288617013
9.455147185627334
7.863025896510253
5.11401059571684
5.276816855703206
6.472531432615813
5.852943277409448
5.349705596397785
5.80756088727551
7.198930909012192
6.850221954625504
6.124608420922249
6.728975546872012
7.997928846322923
6.254763619037852
34.85870041726419
57.34653440717188
67.72914556770792
69.02654941844482
26.3588241951338
46.49917857674372
57.38833443300318
65.99926746425221
19.75501929274982
40.99903865245633
51.58793816450051
66.01899133909588
9.637634304686285
26.55464247776236
43.70955230013401
57.90126703973329
58.60900901631304
50.26630596405504
47.75542662357732
38.79922129753456
41.54869174596546
19.64919807692293
27.00546528347306
32.34204751025341
33.08433459400293
12.72576880719083
6.771737081718128
14.08810017270051
17.90645799460687
5.668806994750828
5.706398495009477
6.113785599660122
6.92821320759087
6.265048796503806
4.022231349514147
2.700489897749627
18.56390652827147
16.80702699306918
9.936263393658807
5.781414666163164
26.65020883896558
18.18386699437273
11.70346118052687
10.14706334388108
29.51533057635991
22.97786422938476
19.78290495647573
19.25692805376334
2.700489897748313
5.781414666166576
10.14706334387452
19.25692805362065
4.022231349520363
9.936263393659853
11.70346118048913
19.78290495636054
6.265048796511918
16.80702699306545
18.18386699432912
22.97786422936629
6.928213207606604
18.56390652827904
26.65020883892257
29.51533057626576
38.79922129744351
47.75542662334434
50.26630596386769
58.60900901589177
32.3420475101765
27.00546528354319
19.64919807696571
41.54869174578253
14.08810017270914
6.771737081723511
12.72576880714715
33.0843345939364
6.113785599671847
5.70639849501223
5.668806994758444
17.90645799455165
57.90126703960008
43.70955230011823
26.55464247787672
9.637634304731295
66.01899133894213
51.58793816442777
40.99903865254232
19.75501929281525
65.99926746413989
57.38833443283495
46.49917857681519
26.35882419518035
69.02654941833174
67.72914556751847
57.34653440723262
34.85870041732378
7.863025896472833
9.45514718571374
9.000928288626495
8.917534023344567
5.85294327740861
6.472531432645367
5.276816855710304
5.114010595719972
6.850221954646496
7.198930909025963
5.807560887298982
5.349705596411775
6.254763619058073
7.997928846331784
6.728975546905811
6.124608420949204
8.568110790922406
12.70117413276344
34.09357349114522
94.68854866575036
5.575086415517013
8.398660909750957
20.7404964467533
86.25381808069665
5.71283382950189
8.060646374890513
13.99142558544666
56.05534642350434
6.429974670483914
6.815627273374501
3.908550842912565
29.18598478843342
165.2658529159172
200.7004941944015
212.1425043568453
213.4765946951481
183.1367940244167
209.7317720842934
221.7969631575811
222.862032876522
187.18009634913
205.4453430271074
214.8569956293459
215.9539368841082
206.282914315582
205.5709618203407
216.5038875831774
218.5240413373286
212.7458800327629
212.4821192560027
212.217695049155
211.8423095062518
221.8495821287453
222.0961947066259
222.1525400586041
222.114042089586
215.2582732419307
215.5939329179919
215.6281297071991
215.5964493013904
218.8812225852872
219.1528859990707
219.1413664576422
219.0702004100625
211.2563754144428
207.2663895759182
193.762196790687
167.003624824725
221.503945762911
215.8251872264138
203.0919805213421
198.3188027337679
214.6334245044351
207.6973145008054
198.3094885652042
202.9728108594872
217.7122023858895
210.5483911907481
204.0049195200832
216.6743681361437
83.62909143406118
80.0003645465322
79.99999952704276
79.99999871111206
91.94527451835376
80.00019047806904
79.99999970575573
79.99999972417011
100.7479609526781
80.00005873310509
79.99999986278704
79.99999983155348
100.0750355026567
80.00002769138794
79.99999994143239
79.99999975424083
79.99998753576257
79.9999306561179
80.00204261077143
80.1172391793357
79.99999782264776
79.99992797221333
80.00177570651924
80.11832550060117
79.99999176217575
79.99990403317167
80.00429107930353
80.23706037459013
79.99998606513238
79.99948410336214
79.98833395187273
79.9326050426626
81.19421064781305
84.89882511235845
93.9141538590621
110.3069718617044
80.75814279951088
81.40304675002194
82.97813344502207
104.2757115634585
81.28795953708158
80.85845405181416
76.21170501665195
85.37192538681512
80.08346129577967
79.89535697235075
77.04619236752356
73.18692614796743
129.9231456575134
126.2555744203264
126.1059005980929
125.7342019640376
136.3512878929022
130.3211692673634
130.2663915171007
129.9856068011132
135.2754758711451
129.4436479583175
129.4205974015743
129.291042021604
127.9070449307229
126.8554467788794
126.8191939559481
126.836151331656
123.521251154464
117.3124952361673
102.8599282383814
84.8235732473938
127.7841736633248
122.7889249253602
114.4053780901743
93.9412409821105
127.6286742301066
123.6658619523706
119.0458578006135
104.5897666992761
125.9609627731414
123.9468155508086
125.7043427710791
127.2279736404442
79.4908085042089
79.99686586894904
79.99999050839105
79.99999999098662
79.05607829979331
79.99205477482194
79.99997322733155
79.99999997563454
78.42841759239002
79.98449786901317
79.99994500915304
79.99999992768723
77.37633119438446
79.97455587040152
79.99991378633062
79.99999988224974
79.99999993409922
79.99992019828716
79.97811382726444
77.89279919237072
79.99999993273852
79.9999201888462
79.97811964465596
77.89263072571006
79.9999999194044
79.99991962183421
79.97800546881098
77.88599522871232
79.99999989844434
79.99991930627638
79.97811101814342
77.94060240140151
79.99999988215741
79.99999992756284
79.99999997490228
79.99999999015702
79.99991378639278
79.99994500915207
79.99997322719703
79.99999050798471
79.97455587077941
79.9844978685704
79.99205477525442
79.99686586861363
77.37633119394427
78.42841759199314
79.05607829981803
79.49080850424643
)
;

boundaryField
{
    back
    {
        type            empty;
    }
    inlet
    {
        type            zeroGradient;
    }
    front
    {
        type            empty;
    }
    top
    {
        type            zeroGradient;
    }
    outlet
    {
        type            fixedValue;
        value           uniform 80;
    }
    bottom
    {
        type            zeroGradient;
    }
    wall
    {
        type            zeroGradient;
    }
}


// ************************************************************************* //
