/*--------------------------------*- C++ -*----------------------------------*\
  =========                 |
  \\      /  F ield         | OpenFOAM: The Open Source CFD Toolbox
   \\    /   O peration     | Website:  https://openfoam.org
    \\  /    A nd           | Version:  11
     \\/     M anipulation  |
\*---------------------------------------------------------------------------*/
FoamFile
{
    format      ascii;
    class       surfaceScalarField;
    location    "4.5";
    object      phi;
}
// * * * * * * * * * * * * * * * * * * * * * * * * * * * * * * * * * * * * * //

dimensions      [0 3 -1 0 0 0 0];

internalField   nonuniform List<scalar> 
10792
(
0.071738702
-0.043925287
-0.07234494
0.044531525
0.071088677
-0.041869892
0.042519916
0.07034431
-0.039846615
0.040590982
0.069549238
-0.037584609
0.038379681
0.068778788
-0.03554618
0.03631663
0.067876622
-0.033223192
0.034125358
0.066968635
-0.030831853
0.031739841
0.066129092
-0.02857693
0.029416472
0.065263347
-0.026090254
0.026955998
0.064439689
-0.023707996
0.024531655
0.063748237
-0.021277473
0.021968925
0.063091977
-0.018905973
0.019562233
0.062447998
-0.016254496
0.016898475
0.061977194
-0.013883846
0.014354649
0.061540327
-0.011182582
0.01161945
0.061084281
-0.0087468872
0.0092029326
0.060902761
-0.0059858482
0.006167368
0.060673866
-0.0037275056
0.0039564007
-0.00086895407
0.060820084
0.00072273555
0.075732136
-0.043321992
-0.076335432
0.075104973
-0.041242728
0.074317049
-0.039058691
0.073612432
-0.036879992
0.07277561
-0.034709359
0.071847362
-0.032294944
0.071061781
-0.030046272
0.070219226
-0.027734375
0.069387538
-0.025258566
0.068692604
-0.023013062
0.067980359
-0.020565228
0.067249939
-0.018175553
0.066689934
-0.015694491
0.066118831
-0.013312743
0.065673388
-0.010737139
0.065320375
-0.0083938746
0.065162447
-0.005827921
0.065007151
-0.0035722096
-0.00095549858
0.065093696
0.080540657
-0.042721047
-0.081141601
0.079822974
-0.040525046
0.079110064
-0.038345781
0.078357207
-0.036127136
0.077454594
-0.033806745
0.076651074
-0.031491424
0.075849472
-0.02924467
0.074965223
-0.026850126
0.074198457
-0.0244918
0.073405078
-0.022219684
0.072595673
-0.019755822
0.07190627
-0.01748615
0.071325102
-0.015113323
0.070695838
-0.012683479
0.070326325
-0.010367627
0.069931945
-0.0079994942
0.069752542
-0.0056485182
0.069566432
-0.0033861
-0.00096081596
0.069571749
0.084919906
-0.041991164
-0.085649789
0.084274704
-0.039879844
0.08353555
-0.037606627
0.082699432
-0.035291018
0.081916682
-0.033023994
0.081158366
-0.030733109
0.080344194
-0.028430498
0.079525478
-0.026031409
0.07873398
-0.023700302
0.077894692
-0.021380396
0.077190702
-0.019051832
0.07652987
-0.016825319
0.075915089
-0.014498542
0.075434024
-0.012202414
0.075022768
-0.0099563713
0.074639029
-0.0076157547
0.074462057
-0.0054715471
0.074273217
-0.0031972595
-0.0010221368
0.074334538
0.090333473
-0.041320593
-0.091004044
0.089634574
-0.039180945
0.088852343
-0.036824396
0.088195487
-0.034634162
0.087435694
-0.032264201
0.086669054
-0.029966469
0.08582596
-0.027587404
0.084993883
-0.025199332
0.084154402
-0.022860821
0.083329597
-0.02055559
0.08260839
-0.018330625
0.081892441
-0.01610937
0.081281197
-0.013887297
0.080720051
-0.011641269
0.080231779
-0.0094680994
0.079845371
-0.0072293471
0.079568204
-0.00519438
0.079416294
-0.0030453494
-0.0010538471
0.079448004
0.095597823
-0.040725951
-0.096192465
0.094841227
-0.038424349
0.094160968
-0.036144136
0.093425261
-0.033898456
0.092568286
-0.031407225
0.091730536
-0.029128719
0.090814048
-0.026670917
0.090015729
-0.024401012
0.089216762
-0.022061854
0.088457701
-0.019796529
0.087730566
-0.01760349
0.087030237
-0.015409041
0.086427368
-0.013284428
0.085921354
-0.011135256
0.085477749
-0.0090244942
0.085184519
-0.0069361172
0.084955222
-0.0049650836
0.08485482
-0.0029449472
-0.0010870796
0.084888052
0.10185738
-0.040150107
-0.10243322
0.10103042
-0.037597388
0.10027891
-0.035392629
0.099379285
-0.032998834
0.098538552
-0.030566492
0.097710435
-0.028300602
0.096914539
-0.025875021
0.096198913
-0.023685387
0.095412506
-0.021275447
0.0946689
-0.019052924
0.093881542
-0.016816132
0.09318868
-0.014716179
0.092576819
-0.012672566
0.092054221
-0.010612658
0.091603417
-0.0085736908
0.091284798
-0.0066174979
0.09102159
-0.0047018752
0.090907424
-0.0028307812
-0.0010453843
0.090865728
0.10796369
-0.039341925
-0.10877187
0.10705439
-0.03668809
0.10628584
-0.034624075
0.10538114
-0.032094133
0.1046099
-0.029795256
0.10374034
-0.027431038
0.10289375
-0.025028438
0.10202952
-0.022821152
0.10119956
-0.020445489
0.10043925
-0.018292609
0.0996685
-0.016045385
0.099029463
-0.014077143
0.098430266
-0.012073369
0.097965087
-0.01014748
0.097524285
-0.0081328888
0.097203634
-0.0062968465
0.09692327
-0.0044215119
0.096798413
-0.0027059235
-0.0010253109
0.096778339
0.11500317
-0.038306063
-0.11603903
0.11405733
-0.035742254
0.11317701
-0.033743757
0.11227148
-0.031188599
0.11151454
-0.029038317
0.11058828
-0.026504784
0.10975798
-0.024198132
0.10889446
-0.021957632
0.10816587
-0.019716898
0.10744889
-0.017575637
0.10671017
-0.015306659
0.10599458
-0.013361551
0.10530053
-0.011379323
0.10476562
-0.0096125685
0.10432717
-0.0076944441
0.10401417
-0.0059838449
0.103796
-0.0042033414
0.10375083
-0.0026607541
-0.0010567236
0.10378225
0.12215036
-0.037184136
-0.12327229
0.12131641
-0.034908305
0.12026958
-0.03269692
0.11930392
-0.03022294
0.11837549
-0.028109889
0.11739611
-0.025525408
0.11660527
-0.023407285
0.11574271
-0.021095074
0.11501922
-0.01899341
0.11427448
-0.0168309
0.11364063
-0.014672805
0.11299118
-0.012712102
0.11239161
-0.010779754
0.11187524
-0.0090962008
0.11145337
-0.0072725724
0.11113226
-0.0056627351
0.11089173
-0.0039628126
0.11074251
-0.0025115347
-0.0010452456
0.11073103
0.1302588
-0.036034616
-0.13140832
0.12938957
-0.034039075
0.12827835
-0.031585704
0.12744306
-0.029387648
0.12644744
-0.027114269
0.12557417
-0.024652137
0.12466643
-0.022499548
0.1237377
-0.020166336
0.12291751
-0.01817322
0.12205871
-0.015972107
0.12142238
-0.014036474
0.12072881
-0.012018533
0.12016265
-0.010213591
0.11957621
-0.0085097596
0.11913581
-0.0068321707
0.11877253
-0.0052994546
0.11854596
-0.0037362417
0.11841707
-0.0023826448
-0.0010570278
0.11842885
0.13900747
-0.034804102
-0.14023799
0.13779146
-0.032823061
0.13654225
-0.030336493
0.13550161
-0.028347011
0.13433283
-0.025945484
0.13353822
-0.023857533
0.13262777
-0.021589091
0.13181907
-0.019357639
0.13095767
-0.017311824
0.13016387
-0.015178308
0.12946957
-0.01334217
0.12877227
-0.011321232
0.12824344
-0.0096847683
0.12768342
-0.0079497301
0.12725953
-0.0064082853
0.12687392
-0.0049138492
0.126675
-0.0035373129
0.12654876
-0.0022564071
-0.0011164068
0.12660814
0.1482601
-0.033684715
-0.14937948
0.14703748
-0.031600446
0.14589521
-0.029194222
0.14473786
-0.027189657
0.1435843
-0.024791928
0.14262218
-0.022895417
0.14154527
-0.020512178
0.14075931
-0.018571677
0.13980476
-0.016357281
0.13903024
-0.014403787
0.13819632
-0.01250825
0.13753727
-0.010662176
0.13694069
-0.0090881901
0.13640075
-0.0074097946
0.13596492
-0.0059724522
0.13562053
-0.0045694569
0.13539765
-0.0033144307
0.13526946
-0.0021282252
-0.0011847073
0.13533776
0.15852195
-0.032359034
-0.15984763
0.15707653
-0.03015503
0.15592261
-0.028040295
0.15466891
-0.025935964
0.15352207
-0.023645083
0.15232986
-0.021703207
0.15121877
-0.019401084
0.15029103
-0.017643942
0.14934436
-0.015410612
0.14858395
-0.01364338
0.14773245
-0.011656741
0.14708512
-0.010014852
0.14639828
-0.0084013467
0.145902
-0.0069135151
0.1454145
-0.0054849505
0.14508241
-0.0042373688
0.14483789
-0.0030699101
0.14472702
-0.0020173534
-0.0012206848
0.14476299
0.1692217
-0.030816063
-0.17076467
0.16768236
-0.02861569
0.16641328
-0.026771209
0.16496225
-0.024484933
0.16378707
-0.022469901
0.16243482
-0.020350965
0.16137969
-0.018345946
0.16026285
-0.016527111
0.15930457
-0.014452324
0.15839709
-0.012735907
0.15758163
-0.010841277
0.15693294
-0.0093661586
0.15627369
-0.0077421027
0.15582199
-0.0064618116
0.15534964
-0.0050126073
0.15501139
-0.0038991167
0.15473187
-0.0027903909
0.15459545
-0.00188093
-0.0011765861
0.15455135
0.18098013
-0.029056487
-0.18273971
0.17939588
-0.027031436
0.17788052
-0.025255852
0.17645537
-0.023059786
0.17524429
-0.02125882
0.17394068
-0.019047351
0.17292364
-0.017328908
0.17170403
-0.015307502
0.1708176
-0.01356589
0.16981864
-0.011736953
0.16902935
-0.010051981
0.16819912
-0.0085359323
0.16755317
-0.0070961504
0.16699862
-0.0059072681
0.16655603
-0.0045700176
0.16624556
-0.0035886407
0.16598639
-0.0025312202
0.16587708
-0.0017716268
-0.0011056238
0.16580612
0.19339481
-0.027120886
-0.19533041
0.19170892
-0.025345545
0.18999874
-0.023545668
0.18848356
-0.021544604
0.18697428
-0.019749544
0.18558958
-0.01766265
0.18433317
-0.016072495
0.18313421
-0.014108549
0.18216544
-0.012597116
0.1811396
-0.010711117
0.18036167
-0.0092740541
0.17948303
-0.0076572869
0.17888488
-0.0064979975
0.17822584
-0.0052482341
0.17786788
-0.0042120588
0.17749359
-0.003214348
0.1773097
-0.0023473317
0.1771509
-0.0016128207
-0.00099859889
0.17704387
0.20724058
-0.025085996
-0.20927547
0.20534891
-0.023453876
0.20353399
-0.021730756
0.20194172
-0.01995233
0.20035329
-0.018161111
0.19902064
-0.016330005
0.19765017
-0.014702022
0.19649307
-0.012951451
0.1953636
-0.011467646
0.19439101
-0.0097385248
0.19351246
-0.0083955066
0.19270952
-0.0068543457
0.19204713
-0.0058356123
0.19141426
-0.0046153628
0.19103918
-0.0038369739
0.19061746
-0.0027926276
0.19045522
-0.0021850974
0.19024393
-0.0014015285
-0.00090874859
0.19015408
0.22171509
-0.02300626
-0.22379483
0.21968027
-0.021419056
0.21775513
-0.019805612
0.21595002
-0.018147226
0.21424303
-0.016454121
0.21272262
-0.014809589
0.21121322
-0.013192632
0.20990695
-0.01164518
0.2086533
-0.010213992
0.20762116
-0.0087063802
0.20664752
-0.0074218688
0.20586929
-0.0060761179
0.20508005
-0.0050463724
0.20448954
-0.0040248535
0.20395887
-0.0033063035
0.20363117
-0.0024649286
0.20342819
-0.0019821159
0.20330956
-0.0012828994
-0.00091439268
0.2033152
0.23717817
-0.020857591
-0.23932683
0.23512135
-0.019362243
0.23321215
-0.01789641
0.23139078
-0.016325856
0.22970027
-0.014763613
0.22810518
-0.013214498
0.22660979
-0.011697245
0.22522992
-0.010265308
0.22396023
-0.0089442994
0.22285468
-0.0076008259
0.2218796
-0.0064467904
0.22107788
-0.0052744059
0.22029111
-0.0042595937
0.21967022
-0.0034039642
0.21902939
-0.0026654718
0.21864095
-0.0020764977
0.21830516
-0.0016463259
0.21815744
-0.0011351706
-0.00082694131
0.21806998
0.2538627
-0.018457303
-0.25626299
0.25159992
-0.017099466
0.24943765
-0.015734139
0.24741716
-0.014305364
0.245552
-0.012898449
0.2438557
-0.011518207
0.2422937
-0.010135243
0.24084665
-0.0088182511
0.23951349
-0.0076111451
0.23832475
-0.0064120806
0.23733267
-0.0054547103
0.23651276
-0.0044545036
0.23584457
-0.0035914026
0.235266
-0.0028253952
0.23473496
-0.0021344331
0.23433598
-0.0016775146
0.23396896
-0.0012793053
0.23378331
-0.00094952155
-0.00073068563
0.23368705
0.27158527
-0.016115407
-0.27392717
0.26939043
-0.01490463
0.26722038
-0.013564088
0.26521008
-0.012295063
0.26330507
-0.010993437
0.261576
-0.0097891325
0.25996276
-0.0085220007
0.25850202
-0.0073575174
0.25711143
-0.006220549
0.25586446
-0.0051651117
0.25475123
-0.0043414786
0.25379835
-0.0035016316
0.25308095
-0.0028739949
0.25248615
-0.0022305962
0.25201968
-0.0016679692
0.25163422
-0.001292052
0.25134062
-0.00098570411
0.25111974
-0.00072863994
-0.0006108885
0.25099994
0.29040042
-0.013549976
-0.29296585
0.28800074
-0.012504952
0.28572105
-0.0112844
0.28360586
-0.010179874
0.28165517
-0.0090427434
0.27990275
-0.0080367165
0.27833223
-0.0069514746
0.27691565
-0.0059409376
0.27565321
-0.0049581091
0.27450072
-0.0040126295
0.27342468
-0.0032654353
0.27248854
-0.0025654907
0.27167278
-0.0020582394
0.27104547
-0.0016032785
0.27054569
-0.0011681967
0.27018525
-0.00093160641
0.26986176
-0.00066221237
0.26964989
-0.00051677084
-0.0005036111
0.26954261
0.31117832
-0.010946728
-0.31378156
0.3086004
-0.0099270346
0.30619792
-0.0088819217
0.30391662
-0.0078985754
0.30179843
-0.0069245563
0.29984341
-0.0060816946
0.29810387
-0.0052119291
0.29661663
-0.0044537041
0.29532081
-0.0036622851
0.29419934
-0.002891161
0.29321304
-0.0022791351
0.29233442
-0.0016868705
0.29159896
-0.0013227752
0.29094501
-0.00094932867
0.29049924
-0.00072243051
0.29015797
-0.00059034085
0.28994366
-0.00044789771
0.28984562
-0.00041873422
-0.00039056996
0.28973258
0.33286557
-0.0079686819
-0.33584361
0.33010323
-0.0071646996
0.32758291
-0.0063615976
0.3252781
-0.0055937697
0.32318778
-0.0048342336
0.32128478
-0.0041786986
0.31957057
-0.0034977189
0.31807843
-0.0029615558
0.31678718
-0.0023710378
0.31574776
-0.0018517474
0.3148876
-0.0014189706
0.31416747
-0.00096673845
0.31358412
-0.0007394316
0.31307497
-0.00044017032
0.31267754
-0.00032501028
0.31229567
-0.00020846478
0.31201265
-0.00016488191
0.31181626
-0.00022234417
-0.00021464829
0.31164034
0.35710972
-0.004266572
-0.36081183
0.35383222
-0.0038872012
0.35093466
-0.0034640393
0.34833644
-0.0029955437
0.34606528
-0.002563076
0.34403435
-0.0021477709
0.34231406
-0.0017774277
0.3408052
-0.0014526922
0.33956111
-0.0011269516
0.3385667
-0.00085734234
0.3377594
-0.00061166213
0.33719209
-0.00039942972
0.33672652
-0.00027386138
0.33641859
-0.00013224503
0.33616868
-7.5096194e-05
0.3359361
2.4116026e-05
0.33580641
-3.5199226e-05
0.33562067
-3.6598028e-05
-0.00017319445
0.33557921
0.38433991
-0.38860648
0.38045271
0.37698867
0.37399312
0.37143005
0.36928228
0.36750485
0.36605216
0.3649252
0.36406786
0.3634562
0.36305677
0.36278291
0.36265066
0.36257557
0.36259968
0.36256448
0.36252789
0.36235469
0.061115324
0.0013059575
-0.0016011981
0.06150274
0.0040489601
-0.0044363757
0.062249793
0.0063110876
-0.0070581409
0.063253376
0.0088975958
-0.0099011786
0.064574841
0.011181451
-0.012502916
0.065958929
0.013907818
-0.015291906
0.067857339
0.015941297
-0.017839708
0.069597964
0.018668386
-0.020409011
0.071934146
0.020888125
-0.023224308
0.074186512
0.023284517
-0.025536883
0.076955881
0.025480866
-0.028250235
0.079718603
0.027754335
-0.030517058
0.082907094
0.029883563
-0.033072054
0.086132964
0.032095283
-0.035321153
0.089791781
0.033979499
-0.037638316
0.093688646
0.035815062
-0.039711927
0.098091482
0.037482694
-0.041885531
0.10278175
0.038998693
-0.043688964
0.040257599
0.10795351
-0.045429359
0.06520104
0.001198613
0.065772872
0.0034771278
0.066548029
0.0055359308
0.067696423
0.0077492017
0.069031756
0.0098461178
0.070757154
0.012182419
0.0726194
0.014079051
0.074656162
0.016631624
0.077063577
0.018480709
0.079447336
0.020900757
0.082287044
0.022641159
0.085027157
0.025014222
0.088315576
0.026595143
0.091474269
0.02893659
0.095241774
0.030211995
0.098780984
0.032275851
0.10307081
0.033192865
0.10712152
0.034947984
0.035337089
0.11204203
0.069730447
0.0010399158
0.070222961
0.0029846133
0.071024551
0.0047343403
0.072137177
0.0066365756
0.073473667
0.0085096277
0.07523091
0.010425176
0.077027174
0.012282787
0.079245158
0.01441364
0.081552688
0.01617318
0.084186965
0.01826648
0.086909955
0.019918168
0.089881926
0.02204225
0.092944678
0.023532391
0.096296448
0.02558482
0.099692651
0.026815793
0.10331868
0.02864982
0.10700823
0.029503312
0.11092773
0.031028492
0.031413989
0.11485083
0.074539673
0.00083478074
0.075125811
0.0023984743
0.076007016
0.0038531361
0.077152936
0.0054906555
0.078679086
0.0069834771
0.080345699
0.0087585632
0.082292381
0.010336104
0.08445872
0.012247301
0.086798446
0.013833453
0.089351852
0.015713073
0.091962508
0.017307512
0.094799185
0.019205574
0.097650748
0.020680828
0.10083548
0.022400089
0.10394012
0.023711151
0.10721816
0.025371782
0.11040261
0.026318857
0.11370538
0.027725727
0.028486083
0.11663328
0.079614553
0.00066823213
0.080280693
0.0017323342
0.081115444
0.0030183851
0.082354441
0.004251658
0.083847385
0.0054905334
0.085507294
0.0070986535
0.087511714
0.0083316847
0.089568517
0.010190498
0.091915689
0.011486282
0.09433235
0.013296412
0.096884013
0.014755849
0.099535795
0.016553791
0.10210162
0.018115007
0.10483094
0.019670769
0.10732863
0.021213459
0.10989186
0.02280855
0.11231516
0.023895557
0.11449272
0.025548167
0.026460421
0.11651838
0.0851951
0.00036118476
0.08582722
0.0011002141
0.086668983
0.0021766218
0.087975518
0.0029451222
0.089341819
0.0041242323
0.091153048
0.0052874251
0.092990954
0.0064937783
0.095155451
0.0080260006
0.09734859
0.009293142
0.099655854
0.010989148
0.10201848
0.012393221
0.10439525
0.014177021
0.10666199
0.01584827
0.10889468
0.017438073
0.1107045
0.01940364
0.11258027
0.02093278
0.11371468
0.022761147
0.11464771
0.02461514
0.02624635
0.11486178
0.091114636
0.00011227676
0.091690711
0.00052413925
0.092627603
0.0012397295
0.093886468
0.0016862572
0.09531203
0.0026986698
0.097108501
0.0034909545
0.098832586
0.0047696934
0.10099274
0.0058658496
0.10285469
0.0074311857
0.10508298
0.0087608564
0.10695692
0.010519279
0.10895095
0.012182995
0.11056735
0.014231867
0.11206214
0.015943288
0.11307756
0.018388223
0.11392908
0.020081254
0.11384455
0.02284568
0.11360625
0.024853436
0.027864596
0.11198801
0.097159149
-0.00026853302
0.097748346
-6.5058275e-05
0.09874661
0.00024146572
0.099942507
0.00049035956
0.1013975
0.0012436784
0.10307859
0.0018098664
0.10484346
0.0030048217
0.10681613
0.0038931732
0.10860982
0.0056374948
0.11052235
0.0068483287
0.11202363
0.0090179983
0.113585
0.010621632
0.11453936
0.013277504
0.11531704
0.015165603
0.11525324
0.018452031
0.11474214
0.020592352
0.11322122
0.024366598
0.11121233
0.026862321
0.031385066
0.10769186
0.10416439
-0.0006506799
0.10463971
-0.00054037476
0.10571337
-0.00083219075
0.10674719
-0.00054346413
0.10822965
-0.00023878112
0.10968618
0.00035333716
0.11134292
0.0013480762
0.11293387
0.0023022248
0.11447329
0.0040980773
0.11585636
0.0054652562
0.11689095
0.0079834084
0.11765021
0.0098623709
0.1179049
0.013022813
0.11774213
0.015328376
0.11676229
0.019431869
0.11518602
0.022168617
0.11237065
0.027181966
0.10885494
0.030378036
0.036287371
0.10395263
0.11101911
-0.0009387525
0.11163549
-0.0011567614
0.11263646
-0.0018331552
0.11369452
-0.0016015239
0.11523774
-0.0017820095
0.11651071
-0.00091962449
0.11822395
-0.00036516553
0.11940795
0.0011182233
0.12079045
0.0027155773
0.12156458
0.0046911244
0.12220369
0.0073442977
0.12219191
0.009874147
0.12166606
0.013548669
0.12023714
0.016757294
0.11818591
0.021483093
0.11519606
0.025158475
0.11139782
0.0309802
0.10689107
0.034884791
0.041885799
0.10129264
0.11868937
-0.0011992744
0.11926297
-0.0017303587
0.1200471
-0.0026172886
0.12113896
-0.0026933777
0.12232084
-0.0029638929
0.12349293
-0.0020917211
0.12487619
-0.0017484172
0.12571993
0.0002744839
0.12671849
0.0017170122
0.12677725
0.0046323649
0.12701504
0.0071065092
0.12610841
0.010780774
0.12497634
0.014680738
0.12260593
0.019127707
0.1198855
0.024203517
0.11593981
0.029104174
0.11172376
0.035196249
0.10650953
0.040099012
0.047467156
0.10092818
0.12681976
-0.0014108937
0.12744081
-0.0023514121
0.12825011
-0.0034265854
0.12934299
-0.0037862627
0.13032356
-0.0039444626
0.13148273
-0.0032508908
0.13239265
-0.0026583387
0.13310017
-0.00043303656
0.1334782
0.0013389778
0.13307704
0.0050335271
0.13243584
0.0077477084
0.13055074
0.012665872
0.12865646
0.016575019
0.12546923
0.022314941
0.12222061
0.027452137
0.11773043
0.033594351
0.11333888
0.039587798
0.1079459
0.045491998
0.052915341
0.10249771
0.13550032
-0.0015734463
0.13606639
-0.0029174832
0.13665913
-0.004019332
0.13759074
-0.0047178704
0.13838367
-0.0047373903
0.1392831
-0.0041503226
0.13966561
-0.0030408531
0.14011054
-0.00087796479
0.1398628
0.0015867207
0.13922826
0.0056680618
0.13783602
0.009139954
0.13571871
0.014783177
0.13319587
0.019097859
0.12945559
0.026055224
0.12580267
0.031105057
0.12099394
0.03840308
0.11675251
0.043829224
0.11130596
0.050938554
0.057882386
0.10633891
0.14499048
-0.0018009275
0.14542283
-0.0033498331
0.14599235
-0.00458886
0.14684152
-0.0055670406
0.14749696
-0.0053928263
0.14818439
-0.0048377545
0.14817378
-0.0030302449
0.14805061
-0.0007547954
0.14699647
0.0026408618
0.14588563
0.0067789032
0.14386261
0.011162973
0.14158552
0.017060265
0.13835373
0.022329653
0.1346853
0.029723645
0.13100288
0.034787482
0.12663935
0.042766611
0.12317746
0.047291107
0.11885299
0.055263026
0.059862658
0.11687272
0.15479713
-0.0020467107
0.15515504
-0.0037077428
0.15565854
-0.0050923564
0.15626261
-0.0061711134
0.15678633
-0.0059165457
0.15718608
-0.0052375056
0.15693087
-0.0027750309
0.1564768
-0.00030072368
0.15512174
0.0039959227
0.15374299
0.0081576521
0.1512048
0.013701161
0.14854097
0.019724088
0.14491864
0.025951991
0.14188935
0.03275293
0.13862923
0.038047606
0.13605144
0.045344402
0.13456471
0.04877783
0.13428228
0.055545463
0.055914417
0.13823052
0.16601817
-0.0022587608
0.16626178
-0.0039513484
0.16663054
-0.0054611237
0.16687086
-0.0064114243
0.16702653
-0.0060722235
0.16683208
-0.0050430509
0.1662939
-0.0022368491
0.16541428
0.00057889584
0.16387187
0.0055383264
0.16211416
0.0099153662
0.15934445
0.016470864
0.15687015
0.022198392
0.15400174
0.028820398
0.15234424
0.034410428
0.15068516
0.039706685
0.15127942
0.044750148
0.15328498
0.046772269
0.15898643
0.049844012
0.045935434
0.16896541
0.17717142
-0.0023863132
0.17745466
-0.0042345888
0.1778729
-0.0058793621
0.17804699
-0.0065855115
0.1780175
-0.0060427304
0.17752608
-0.0045516313
0.17687041
-0.0015811855
0.175619
0.0018303051
0.17390342
0.0072539099
0.17175559
0.012063198
0.16926843
0.018958024
0.16746704
0.023999778
0.16593842
0.030349018
0.16600517
0.034343682
0.16700076
0.038711094
0.17137743
0.040373477
0.17750598
0.040643714
0.18781766
0.03953234
0.033990406
0.19976268
0.18992624
-0.0021584726
0.18995302
-0.0042613681
0.19002297
-0.0059493164
0.1899467
-0.0065092388
0.18968432
-0.0057803494
0.1889897
-0.0038570156
0.18813037
-0.00072184806
0.18662699
0.0033336799
0.18504674
0.0088341646
0.18310365
0.014006281
0.18171116
0.020350521
0.1811358
0.024575133
0.18161777
0.029867049
0.18405966
0.031901788
0.18843296
0.034337802
0.195918
0.032888438
0.20450646
0.032055246
0.21570984
0.028328961
0.024390848
0.2253094
0.2032539
-0.0020971713
0.20342931
-0.0044367716
0.20330422
-0.0058242338
0.20300086
-0.0062058738
0.20252014
-0.005299629
0.20174847
-0.0030853485
0.20074317
0.0002834494
0.19908163
0.0049952252
0.19772373
0.010192065
0.19631464
0.015415367
0.19623885
0.020426314
0.19706011
0.023753867
0.1997153
0.02721186
0.20421504
0.027402047
0.21085595
0.027696893
0.2191218
0.024622593
0.22754733
0.023629714
0.23638221
0.019494077
0.019219294
0.24155377
0.21808165
-0.0021088332
0.21799906
-0.0043541889
0.21771503
-0.0055402058
0.21737227
-0.0058631097
0.2167303
-0.0046576574
0.21581326
-0.0021683072
0.2146333
0.0014634068
0.2134507
0.006177825
0.21270404
0.01093873
0.21256901
0.015550393
0.21408602
0.01890931
0.21643179
0.021408093
0.22115185
0.022491802
0.22688178
0.021672117
0.23408062
0.02049805
0.24115026
0.017552953
0.24747623
0.017303748
0.25212557
0.014844735
0.018554079
0.25279078
0.23378003
-0.0022018116
0.23344714
-0.0040212975
0.23317341
-0.0052664784
0.23253975
-0.0052294447
0.23163135
-0.0037492571
0.23069938
-0.0012363415
0.22962394
0.0025388543
0.22885181
0.0069499553
0.2287413
0.011049233
0.22996476
0.014326933
0.2324332
0.016440871
0.23611732
0.017723976
0.24165537
0.016953751
0.24705172
0.016275767
0.25326299
0.014286782
0.25781551
0.013000429
0.26087525
0.014244013
0.26071118
0.015008798
0.02218326
0.257082
0.25077224
-0.0019741139
0.25051102
-0.0037600748
0.25022953
-0.0049849884
0.24959551
-0.0045954235
0.24906789
-0.0032216415
0.24816977
-0.00033822178
0.2474758
0.0032328271
0.24743363
0.006992123
0.24848288
0.0099999823
0.25082569
0.011984126
0.25404922
0.01321734
0.25857306
0.013200136
0.26322827
0.012298543
0.26782655
0.011677482
0.27188306
0.010230276
0.27272713
0.012156363
0.27196233
0.015008806
0.26778683
0.019184301
0.027565523
0.26240457
0.26923015
-0.0016616525
0.26887951
-0.0034094342
0.26802588
-0.0041313582
0.26704973
-0.0036192783
0.26616285
-0.0023347557
0.26557069
0.00025393374
0.26552359
0.0032799259
0.26619836
0.0063173576
0.26797916
0.0082191824
0.2706599
0.0093033866
0.27411458
0.0097626542
0.27829854
0.0090161836
0.28183885
0.0087582263
0.28518989
0.0083264494
0.28569443
0.0097257346
0.28422521
0.01362558
0.28210267
0.017131347
0.27807505
0.023211925
0.028918304
0.27672226
0.28964167
-0.0015707364
0.28930483
-0.0030725973
0.28874632
-0.0035728529
0.28824247
-0.0031154224
0.28758332
-0.0016756096
0.28729692
0.00054033526
0.28776381
0.0028130325
0.28911504
0.0049661323
0.29128714
0.0060470849
0.29396485
0.006625679
0.29723259
0.0064949122
0.30019182
0.0060569507
0.30240924
0.0065408083
0.30295794
0.0077777496
0.30135614
0.011327533
0.30042266
0.014559061
0.29922915
0.018324853
0.30021805
0.022223024
0.023125929
0.30601043
0.31130863
-0.0012390253
0.31048255
-0.0022465208
0.30925204
-0.002342342
0.3080944
-0.0019577784
0.30748977
-0.0010709814
0.30762898
0.00040112315
0.30830229
0.0021397242
0.30997218
0.0032962402
0.31211354
0.0039057325
0.31460706
0.0041321534
0.31717045
0.0039315276
0.31921513
0.0040122647
0.32061519
0.005140749
0.32101043
0.0073825153
0.32216293
0.010175026
0.32452561
0.012196388
0.32819213
0.014658329
0.33564243
0.014772722
0.014111055
0.34465731
0.3354614
-0.0011212148
0.33488745
-0.0016725673
0.3342287
-0.0016835897
0.33380177
-0.0015308562
0.33377377
-0.0010429732
0.33423086
-5.5965071e-05
0.33552345
0.00084712524
0.33724956
0.0015701378
0.33913002
0.0020252755
0.34109236
0.0021698084
0.34250079
0.0025230988
0.34338444
0.0031286159
0.34413898
0.0043862095
0.34604322
0.0054782692
0.3493531
0.0068651482
0.35401279
0.007536698
0.36076225
0.0079088728
0.36906747
0.0064675012
0.0061866569
0.37699187
0.36123348
0.35956091
0.35787732
0.35634646
0.35530349
0.35524753
0.35609465
0.35766479
0.35969006
0.36185987
0.36438297
0.36751159
0.3718978
0.37737607
0.38424121
0.39177791
0.39968678
0.40615429
0.41234094
0.10666299
0.048366676
-0.047076159
0.10534403
0.049958301
-0.048639333
0.10466592
0.050557446
-0.049879336
0.10417389
0.051620045
-0.051128021
0.10386952
0.052712251
-0.052407882
0.10436453
0.052525502
-0.053020509
0.10487354
0.053094978
-0.053603988
0.10587794
0.05368405
-0.054688446
0.10753488
0.052536729
-0.054193674
0.10955739
0.051719728
-0.053742237
0.1118285
0.052062945
-0.054334049
0.11495227
0.0508886
-0.054012372
0.1182959
0.048722973
-0.052066605
0.12125739
0.047190683
-0.050152173
0.12421931
0.046566766
-0.049528682
0.12680349
0.04655629
-0.049140478
0.12900292
0.045228235
-0.047427656
0.12998003
0.044318195
-0.045295313
0.044583797
0.12843641
-0.043040177
0.10998511
0.050423598
0.10859228
0.051351132
0.1073393
0.051810428
0.10637006
0.052589284
0.10610068
0.052981631
0.10598798
0.052638194
0.10616702
0.052915942
0.10719032
0.052660754
0.10853963
0.051187418
0.11012259
0.050136766
0.11267307
0.049512462
0.11562402
0.047937652
0.11853565
0.045811338
0.1216433
0.044083039
0.1249731
0.04323696
0.12866434
0.042865056
0.13186121
0.042031363
0.13366735
0.042512053
0.044350646
0.1339005
0.11250933
0.052765096
0.11057753
0.053282932
0.10869855
0.053689402
0.10747072
0.053817113
0.1065082
0.053944158
0.10599009
0.053156304
0.10599822
0.052907807
0.106408
0.052250976
0.10755632
0.050039098
0.10882557
0.048867514
0.11109074
0.0472473
0.11425315
0.044775242
0.11804461
0.042019869
0.12170036
0.040427295
0.12542908
0.039508238
0.12954014
0.038753992
0.13360821
0.037963292
0.13759401
0.03852626
0.039816037
0.14212862
0.11388789
0.055510494
0.11099762
0.056173197
0.10880394
0.05588308
0.10653107
0.05608999
0.10520801
0.055267212
0.10389852
0.054465793
0.10322464
0.053581693
0.10363148
0.05184413
0.10376227
0.049908309
0.10481903
0.047810753
0.10780852
0.044257814
0.11111541
0.041468353
0.11448336
0.038651913
0.11881965
0.036091004
0.12534335
0.032984541
0.13392122
0.030176124
0.14321998
0.02866453
0.15229402
0.029452222
0.031989388
0.16012067
0.11293421
0.059094669
0.10981469
0.059292712
0.1065678
0.059129967
0.10390382
0.058753972
0.1014789
0.05769213
0.099322219
0.056622478
0.098253242
0.05465067
0.09713115
0.052966222
0.09707316
0.049966299
0.098980702
0.045903211
0.10067285
0.04256567
0.10375867
0.038382531
0.10991255
0.032498032
0.11857642
0.027427137
0.12815262
0.023408336
0.1373765
0.020952248
0.1456892
0.020351822
0.15366056
0.021480869
0.025028347
0.1606216
0.11047758
0.063478865
0.10643941
0.063330889
0.10211701
0.063452363
0.09862743
0.062243552
0.094857782
0.061461777
0.092142907
0.059337353
0.088972396
0.057821181
0.087351827
0.054586792
0.087067604
0.050250521
0.086136083
0.046834732
0.08736704
0.041334713
0.093288859
0.032460712
0.099563813
0.026223078
0.10336899
0.023621964
0.10432566
0.022451663
0.10264453
0.022633374
0.099589569
0.023406787
0.096904688
0.02416575
0.026515722
0.095417313
0.10676109
0.068705779
0.10122965
0.068862336
0.095859364
0.068822645
0.090425847
0.067677069
0.085251037
0.066636587
0.080044243
0.064544147
0.075283422
0.062582002
0.071824087
0.058046126
0.066734337
0.055340272
0.063596249
0.04997282
0.063515694
0.041415268
0.063254463
0.032721944
0.058576158
0.030901383
0.049093303
0.03310482
0.036974357
0.034570609
0.023914877
0.035692854
0.010250874
0.03707079
-0.004294649
0.038711273
0.04119998
-0.018978907
0.10115402
0.075243622
0.094189996
0.07582636
0.087424515
0.075588126
0.080020112
0.075081472
0.072687438
0.073969261
0.064371688
0.072859897
0.056473215
0.070480473
0.046907926
0.067611416
0.038477743
0.063770455
0.033370788
0.055079774
0.025242208
0.049543847
0.013207281
0.044756871
-0.0013371768
0.045445841
-0.017094094
0.048861737
-0.034124817
0.051601331
-0.051760929
0.053328967
-0.069704473
0.055014333
-0.088781013
0.057787814
0.061268416
-0.10884945
0.095904329
0.083291928
0.087631557
0.084099132
0.079122619
0.084097063
0.069972962
0.08423113
0.060314599
0.083627623
0.04950568
0.083668817
0.037565826
0.082420326
0.024245182
0.08093206
0.015530078
0.072485559
0.0069912189
0.063618634
-0.0080933953
0.064628461
-0.027836514
0.06449999
-0.048981417
0.066590743
-0.068426696
0.068307016
-0.087265431
0.070440066
-0.1061263
0.072189835
-0.12502111
0.073909139