/*--------------------------------*- C++ -*----------------------------------*\
  =========                 |
  \\      /  F ield         | OpenFOAM: The Open Source CFD Toolbox
   \\    /   O peration     | Website:  https://openfoam.org
    \\  /    A nd           | Version:  11
     \\/     M anipulation  |
\*---------------------------------------------------------------------------*/
FoamFile
{
    format      ascii;
    class       volScalarField;
    location    "0.15";
    object      Ma;
}
// * * * * * * * * * * * * * * * * * * * * * * * * * * * * * * * * * * * * * //

dimensions      [0 0 0 0 0 0 0];

internalField   nonuniform List<scalar> 
880
(
1.443353270571932
1.443353270571932
1.443353270567552
1.443349651036885
1.443353270571932
1.443353270571932
1.443353270528306
1.443328813679877
1.443353270571932
1.443353270571933
1.443353270280179
1.443312425482744
1.443353270571932
1.443353270571932
1.443353267941676
1.443046040241923
1.443353270571932
1.443353270571932
1.443353270571933
1.443353270498676
1.443353270571932
1.443353270571932
1.443353270571935
1.443353270571932
1.443354774576724
1.443348871004752
1.443106840105153
1.444061594061327
1.428937549526139
1.392628795708332
1.372525446861132
1.366597998697358
1.443353210703329
1.443353153088506
1.443351654555087
1.443351661943862
1.443350501924325
1.44334432256069
1.44333661555896
1.443337938427858
1.441915395563818
1.440750374196594
1.440087858743135
1.439668366752254
1.363495884461198
1.35411542200055
1.357872374368742
1.341979643950221
1.374022049212988
1.406190849835312
1.433806482073694
1.450416615780557
1.437230430501311
1.431643316213264
1.433833480653338
1.439431815836539
1.443308096936187
1.443168762690146
1.443037173831958
1.443114656411134
1.443349292808791
1.443342179029337
1.443327522843604
1.443311709312185
1.443308599272864
1.44331283585678
1.443324723193242
1.443339668714884
1.443255580945119
1.443347438420518
1.443414202995914
1.443416122668418
1.442597233936702
1.445235364240165
1.446383017424627
1.446228555870373
1.461759631099408
1.465872937555544
1.465866111058613
1.462919571476184
1.458259053149675
1.445176575318136
1.443381305067033
1.443349582047567
1.453079532262446
1.44402353858588
1.443358252383306
1.443352798107035
1.44682883715778
1.443460085399572
1.443353467538335
1.443353235958017
1.412649792976139
1.443081425622363
1.443354552540163
1.443354020969908
1.443353290272054
1.443353244317525
1.44153770748713
1.214384582454279
1.443352071607088
1.443334070958108
1.434837720081604
1.089857208234096
1.443351137932455
1.443259077834028
1.424074132060617
1.03957351668635
1.443339863874792
1.443175567603807
1.413115059665601
1.031074872311949
1.026337503283995
1.397790268845864
1.44296463355556
1.443333388327553
1.034575553318889
1.384234474096977
1.442780738665363
1.443299503281543
1.039566188722044
1.370260612215241
1.442462045501381
1.443284586499061
1.04439385364094
1.353298765622074
1.442020047752609
1.443232197285861
1.443178943948994
1.441598703371152
1.334815796467254
1.044147724620268
1.443102198304578
1.440232065731562
1.31724894168321
1.074972485268969
1.443130543140585
1.440212772901941
1.337579045378753
1.144422068566419
1.442768619766497
1.440852783085227
1.373163634823209
1.245517201130198
1.442867379109262
1.440188758668298
1.423656722153023
1.441145652864156
1.442379452531422
1.446419021598747
1.474607289535582
1.608923959723095
1.442952728104897
1.448107956203271
1.475812275691759
1.634927110412697
1.443419599926586
1.445197603058948
1.449742879578652
1.438725895791108
1.243777177727046
1.430917144720544
1.443644489182087
1.443397948966715
1.129583854377919
1.413190507738706
1.442703721927999
1.44337020966645
1.060500549890068
1.400802167514922
1.442445773720759
1.443356688036656
0.9834313797393328
1.387930827023877
1.441881421791043
1.44334788361413
1.039444399778573
1.398397464708371
1.44235295030036
1.443349927692166
1.157084751845608
1.416069098943173
1.442965354516395
1.443352222059355
1.26790879544529
1.429634836537982
1.443225982185599
1.443353020168367
1.362941492731642
1.439163262965921
1.443353553705527
1.44335323886146
1.311545160964499
1.432594718433623
1.443027971648927
1.443349637725269
1.322985043133958
1.433223149788876
1.443044215629996
1.443349696876997
1.320741277293022
1.432618214465021
1.443044623560491
1.443349821301256
1.316468867141656
1.433175602222394
1.443101186829736
1.443350430541332
1.362941492736862
1.439163262971072
1.443353553716109
1.443353238842593
1.267908795446923
1.429634836542965
1.443225982207137
1.443353020167883
1.15708475184445
1.416069098933677
1.442965354514494
1.443352222058681
1.03944439977014
1.398397464690939
1.442352950296828
1.443349927698272
1.443397948953964
1.443644489173018
1.430917144717315
1.24377717772389
1.443370209642847
1.442703721921416
1.413190507733878
1.129583854370885
1.443356688055465
1.44244577370467
1.40080216751731
1.060500549886435
1.443347883610503
1.441881421783984
1.387930827006136
0.9834313797435277
1.438725895807848
1.449742879592439
1.445197603076041
1.443419599943288
1.634927110430282
1.475812275706388
1.448107956219041
1.442952728135523
1.608923959720581
1.474607289550051
1.446419021605473
1.442379452529015
1.44114565286354
1.423656722159757
1.440188758670422
1.442867379059409
1.443178943953999
1.441598703367901
1.334815796455166
1.044147724612184
1.443102198305148
1.440232065709709
1.317248941675836
1.074972485265474
1.443130543078076
1.440212772900769
1.337579045382258
1.144422068566162
1.442768619812213
1.440852783075685
1.373163634823076
1.245517201131325
1.044393853628414
1.353298765609726
1.442020047707858
1.443232197285437
1.039566188708235
1.370260612200199
1.442462045527394
1.443284586492404
1.034575553317344
1.384234474097957
1.44278073862595
1.443299503289949
1.026337503277214
1.397790268859656
1.442964633578196
1.443333388335696
1.443353290264865
1.443353244309069
1.441537707489934
1.214384582459917
1.443352071613866
1.44333407097183
1.434837720068257
1.089857208245933
1.443351137945633
1.443259077844921
1.424074132056563
1.039573516678199
1.443339863893091
1.443175567571812
1.41311505966782
1.031074872313
1.443354020961033
1.443353235949729
1.443352798107074
1.443349582051499
1.443354552553058
1.443353467533566
1.443358252366124
1.44338130507957
1.443081425618195
1.443460085394339
1.444023538601904
1.445176575314991
1.412649792976097
1.44682883715471
1.453079532261625
1.458259053150716
1.44333966873485
1.443416122667538
1.446228555855838
1.462919571469873
1.443324723195241
1.443414203000488
1.4463830174122
1.465866111057498
1.443312835843118
1.443347438420774
1.445235364244757
1.465872937558517
1.443308599271276
1.443255580940597
1.442597233931264
1.461759631107509
1.443349292828565
1.443308096948736
1.437230430484941
1.374022049212975
1.44334217904965
1.443168762695796
1.431643316207378
1.406190849844027
1.443327522854298
1.443037173816617
1.433833480650252
1.433806482081315
1.44331170932052
1.443114656398557
1.439431815837632
1.450416615788729
1.341979643947577
1.439668366732829
1.443337938439055
1.443351661957748
1.357872374361132
1.440087858740157
1.443336615563068
1.443351654521161
1.354115421988356
1.440750374224681
1.443344322559545
1.44335315311298
1.36349588445605
1.441915395587253
1.443350501927702
1.443353210697018
1.366597998693167
1.444061594023395
1.443353270571932
1.443353270493815
1.372525446867057
1.443106840150044
1.443353270571932
1.443353270571933
1.392628795705754
1.443348871010374
1.443353270571932
1.443353270571933
1.428937549509556
1.44335477458141
1.443353270571932
1.443353270571934
1.443353270571932
1.443353270571933
1.443353270563365
1.443349651125462
1.443353270571931
1.443353270571932
1.443353270526369
1.443328813744432
1.443353270571932
1.443353270571932
1.443353270279264
1.443312425494754
1.443353270571932
1.443353270571932
1.443353267953015
1.443046040254442
1.443342068298853
1.443315063386494
1.443205253971137
1.440480430830833
1.44331506318559
1.443284210745558
1.442993051334823
1.432237344236778
1.443205253647287
1.442993051139647
1.438147867143815
1.376733994945646
1.440480430546841
1.432237344717366
1.376733995970232
1.187368359606965
1.020733160055889
1.109411673436197
1.264006048539005
1.359793986744984
1.076066731556667
1.095028620809337
1.15191335912145
1.227035421545515
1.101824539305231
1.140800152833051
1.187799413221028
1.237504471711012
1.141074525135947
1.177027789022813
1.210657154568151
1.241567518966131
1.249070057222214
1.258952563002852
1.267364780803056
1.266028204545598
1.230305676017047
1.251551724817761
1.262058146969828
1.294615277431808
1.20188621884438
1.23675888708147
1.253093121955557
1.378263841869551
1.159175134321548
1.16968679835202
1.176483255898452
1.495843761697474
1.39744868723234
1.528064703916498
1.52083271556087
1.504688328964329
1.487941261864866
1.634797518554722
1.591576972759646
1.551592276079382
1.666155943765556
1.734440033935648
1.635195637084657
1.570834985524239
1.278934062617783
1.304814049483278
1.299076627363478
1.289052892691255
1.492264531176392
1.487164127356065
1.480192024946194
1.472940579695792
1.520401191037884
1.504675541669075
1.493549085525937
1.482741094002676
1.532156462675111
1.512396610574529
1.500010183470884
1.489315818193024
1.296020207052443
1.320554444544437
1.354051836912662
1.384124136699552
1.46522624280081
1.461263067457703
1.451094539279165
1.19722073220059
1.473230977849258
1.467717983859812
1.454944237065772
1.02503718488858
1.479797949534686
1.4724810315294
1.453324227937557
0.8521374406612948
1.408889181844885
1.427165867586557
1.395910933313984
0.5655089479468671
0.8078024858388084
0.8088906597361156
0.8298994045924234
0.8760229709205285
0.7205858056964698
0.775521937707719
0.8243212614167726
0.8780363885226597
0.5867322839949646
0.6918908695450745
0.7872847311366616
0.8635512412215391
0.3285568006336824
0.4524730582914696
0.6105431937037079
0.7451199324609342
0.9152730170363077
0.9343555681007958
0.9486968620329869
0.9507976405278027
0.918490849133668
0.9352226099170854
0.9469767044014218
0.9501916183768699
0.9122612635160389
0.9333685931988124
0.9458066961279772
0.9499128880527113
0.8482941306518348
0.892560895107303
0.912578837266373
0.9127840848307092
0.9677892123419921
1.00063933366233
1.07915693687625
1.179330254710323
0.9672014098125918
1.000461696521939
1.069955905107186
1.221703116262123
0.966055446386254
0.9941778597365131
1.085333469741663
1.54924043935282
0.9386173455403892
0.968532695463878
1.103688626733021
2.171876280469067
1.435547662911831
1.769962852739857
0.7309190312994279
0.4621778278050956
1.501098013887896
1.583106945355982
0.4748376564941344
0.3152245529356809
1.54676124656232
1.302153158788888
0.174897353835469
0.2524393177523325
1.206478887909455
0.8205507558160799
0.1533243447534191
0.1571210548000483
0.245163190990342
0.098044273481198
0.06264689018651948
0.09544177676332405
0.2402990215703059
0.1329700397705666
0.1189060044691379
0.1606349059770604
0.1960001487698931
0.1875107863194672
0.2121204651724038
0.2258865307553516
0.1338662243632677
0.1890706278596928
0.2555363172859365
0.2383110823272971
0.4143214428895679
0.8195931462745205
1.101773263743161
1.356780205241396
0.1722620730089812
0.5907230005729077
0.9336999967459855
1.239729966559687
0.1205764795973224
0.2991033029227331
0.6768946482938287
1.131250418175102
0.1233165736197919
0.07521371921389275
0.5216720904539912
1.227234874225254
1.55110001759985
1.89201552677875
1.96743555190046
1.574115025561759
1.453903250527576
1.685216292487321
1.39633175107091
0.999090179775796
1.443766263059408
1.251728585187736
0.786664548593801
0.3974362564540463
1.141495849945448
0.4520083044904695
0.2376698463786498
0.1847141463332823
0.2048915253664554
0.2105915114208916
0.2008599116475568
0.1684775440545039
0.1993893246397562
0.16666343126019
0.2508557283002102
0.2879280552143779
0.4692071191340941
0.04678097782736275
0.1859936954241958
0.2348355822039076
0.9540304475661702
0.5324844647679091
0.342511733806484
0.2821400195803893
0.1684775440539156
0.2879280552145118
0.2348355822034092
0.2821400195705263
0.2008599116462335
0.2508557283003297
0.1859936954237657
0.3425117338029653
0.2105915114217031
0.1666634312610479
0.04678097782075864
0.5324844647658075
0.2048915253682299
0.1993893246399877
0.4692071191281154
0.9540304475608588
1.574115025559336
1.967435551902228
1.892015526786128
1.551100017608904
0.9990901797740525
1.396331751069098
1.685216292485021
1.453903250532033
0.397436256452201
0.786664548592189
1.25172858518526
1.443766263059384
0.1847141463347662
0.2376698463780501
0.4520083044899096
1.141495849943106
1.227234874224673
0.5216720904531008
0.07521371921247041
0.1233165736181647
1.131250418174626
0.6768946482899733
0.2991033029153652
0.1205764795960592
1.239729966561345
0.933699996741716
0.5907230005634363
0.1722620730049515
1.356780205245241
1.10177326373803
0.8195931462665815
0.4143214428836973
0.09544177675652704
0.06264689018838479
0.09804427347070634
0.2451631909876585
0.1606349059718062
0.1189060044650347
0.1329700397739274
0.2402990215811447
0.2258865307519916
0.2121204651669649
0.1875107863210415
0.1960001487837447
0.2383110823239175
0.2555363172804812
0.1890706278621692
0.1338662243737891
0.4621778278087264
0.7309190312816375
1.769962852742018
1.435547662914765
0.3152245529486916
0.4748376565012196
1.583106945361663
1.501098013895255
0.2524393177656283
0.1748973538333158
1.302153158794063
1.546761246568688
0.1571210548124058
0.1533243447617879
0.8205507558251106
1.206478887914172
1.17933025471066
1.079156936873775
1.00063933365876
0.9677892123369677
1.221703116263275
1.069955905105703
1.000461696518671
0.967201409807523
1.549240439358719
1.085333469742667
0.9941778597328802
0.966055446381843
2.171876280480061
1.103688626738109
0.968532695469308
0.9386173455463133
0.9507976405223052
0.948696862031162
0.9343555681003668
0.9152730170249789
0.9501916183723887
0.9469767044011977
0.9352226099178735
0.9184908491249109
0.9499128880490537
0.9458066961292522
0.9333685932001207
0.9122612635087827
0.912784084832752
0.9125788372704937
0.8925608951098898
0.8482941306402914
0.8760229709159347
0.8298994045911361
0.8088906597426737
0.8078024858429745
0.8780363885154547
0.8243212614149646
0.7755219377098556
0.7205858056998489
0.8635512412135703
0.7872847311330189
0.6918908695426478
0.5867322839973246
0.7451199324432147
0.6105431937039494
0.4524730582814363
0.3285568006287973
1.197220732212355
1.451094539280858
1.461263067447475
1.465226242802246
1.025037184906935
1.454944237072908
1.467717983851385
1.47323097784744
0.8521374406814759
1.453324227950507
1.472481031517667
1.479797949530414
0.5655089479719384
1.395910933346933
1.427165867581675
1.408889181833019
1.472940579690316
1.480192024943869
1.48716412735948
1.492264531181694
1.482741093998417
1.493549085523114
1.504675541671294
1.520401191043244
1.489315818191695
1.500010183466814
1.512396610576745
1.532156462679952
1.384124136697358
1.354051836914974
1.320554444542105
1.296020207055565
1.504688328973511
1.520832715568925
1.52806470392554
1.397448687236727
1.551592276088906
1.591576972767653
1.634797518565346
1.487941261870182
1.570834985533749
1.635195637093348
1.734440033950376
1.666155943769832
1.289052892697293
1.299076627364157
1.304814049490629
1.278934062616057
1.266028204550498
1.267364780804006
1.258952562986081
1.249070057200998
1.294615277438659
1.262058146970654
1.251551724804283
1.230305676009298
1.378263841883448
1.253093121961823
1.236758887078944
1.201886218844723
1.495843761722147
1.176483255909802
1.169686798335577
1.159175134292275
1.241567518956042
1.237504471714019
1.227035421561223
1.35979398661811
1.210657154576024
1.187799413228301
1.151913359051895
1.264006048314257
1.177027789031534
1.14080015283207
1.095028620700516
1.109411673047422
1.14107452508605
1.101824539223101
1.076066731497562
1.020733159898209
1.3976624891272
1.437287409669745
1.443262077541314
1.443352884444085
1.399530409775468
1.438121674333239
1.443250905699494
1.443352580089484
1.371242762122791
1.437225464021542
1.443227519955485
1.443352245899562
1.324835292650369
1.434805101683389
1.443171277843893
1.443351519696779
1.443349637717519
1.443027971649617
1.432594718431911
1.311545160933118
1.443349696867173
1.443044215619026
1.433223149806892
1.32298504315392
1.443349821312062
1.443044623546505
1.432618214481358
1.3207412773076
1.443350430569694
1.443101186815027
1.433175602248026
1.31646886715257
1.443351519705634
1.443352245912255
1.443352580126739
1.44335288447767
1.443171277838594
1.443227519957333
1.443250905706609
1.443262077560314
1.434805101688356
1.437225464030904
1.438121674323225
1.437287409683366
1.32483529265895
1.371242762138977
1.399530409777052
1.397662489128509
)
;

boundaryField
{
    back
    {
        type            empty;
    }
    inlet
    {
        type            calculated;
        value           nonuniform List<scalar> 
16
(
1.443353270571932
1.443353270571932
1.443353270571932
1.443353270571932
1.443353270571932
1.443353270571932
1.443353270571932
1.44335327057743
1.443353270575571
1.443353270571932
1.443353270571932
1.443353270571933
1.443353270571932
1.443353270571932
1.443353270571932
1.443353270571932
)
;
    }
    front
    {
        type            empty;
    }
    top
    {
        type            calculated;
        value           uniform 0;
    }
    outlet
    {
        type            calculated;
        value           nonuniform List<scalar> 
16
(
1.443347994551697
1.44334791259795
1.443347828498869
1.443347715284058
1.44335269347529
1.443352294429317
1.443351783057321
1.44334999443316
1.443347994546202
1.443347912591096
1.443347828504402
1.443347715301495
1.44334999443745
1.44335178306215
1.443352294450421
1.443352693496144
)
;
    }
    bottom
    {
        type            calculated;
        value           uniform 0;
    }
    wall
    {
        type            calculated;
        value           uniform 0;
    }
}


// ************************************************************************* //
