/*--------------------------------*- C++ -*----------------------------------*\
  =========                 |
  \\      /  F ield         | OpenFOAM: The Open Source CFD Toolbox
   \\    /   O peration     | Website:  https://openfoam.org
    \\  /    A nd           | Version:  11
     \\/     M anipulation  |
\*---------------------------------------------------------------------------*/
FoamFile
{
    format      ascii;
    class       volScalarField;
    location    "0.15";
    object      rho;
}
// * * * * * * * * * * * * * * * * * * * * * * * * * * * * * * * * * * * * * //

dimensions      [0 0 0 0 0 0 0];

internalField   nonuniform List<scalar> 
880
(
0.3733250556165154
0.3733250556165154
0.373325055623854
0.373327705014283
0.3733250556165154
0.3733250556165154
0.3733250556584541
0.3733351255318241
0.3733250556165154
0.3733250556165153
0.3733250559402757
0.373379103006849
0.3733250556165154
0.3733250556165154
0.3733250616221861
0.3734840286808678
0.3733250556165154
0.3733250556165155
0.3733250556165152
0.3733250556093707
0.3733250556165154
0.3733250556165154
0.3733250556165151
0.3733250556165154
0.3733249942061376
0.3733251205080069
0.3734471240082615
0.3731850590640599
0.3780893140293203
0.3883151529041924
0.3949701200331289
0.3976682552755551
0.3733250811897617
0.3733253292916644
0.3733255006686286
0.3733254580810825
0.3733258496403695
0.3733269035028898
0.3733316041957034
0.3733318278135948
0.3736132835244817
0.3739069106293721
0.3743763367532961
0.3747335697208083
0.4011054682122023
0.4058124535457965
0.4103948355158646
0.4163326820207349
0.4147866850994331
0.4058039914931549
0.3981529034192637
0.3955001001920777
0.3759296070550369
0.3786024811226574
0.3797022672545041
0.3798398849912643
0.3733449716430682
0.3733975240169455
0.373473638816963
0.3735236881443301
0.3733262726396206
0.3733287764022069
0.3733341126464386
0.3733369841817648
0.3733361932593021
0.3733334931550201
0.3733295904223283
0.3733265316412223
0.3735277730944339
0.3735045830706817
0.3734627421728957
0.3734052975374814
0.3792885219816085
0.3784993118978072
0.3774970815650298
0.3762770892318515
0.3944226564009796
0.3922731420605527
0.389328972790643
0.3860020323805222
0.3824621444594929
0.3749546459926114
0.3733531292874253
0.3733252439570438
0.3791470630212924
0.3738964627952189
0.3733295913511346
0.3733250651034179
0.3753839687321314
0.3733916339119408
0.3733252228316669
0.373325045019491
0.3847725090918525
0.373446985247346
0.3733249420641365
0.3733250905345735
0.373324857860044
0.3733249111842546
0.3738370933641608
0.4411966269578507
0.3733251464663001
0.3733350655553766
0.375941919645585
0.4896635401115165
0.3733260756336833
0.373349304295833
0.3785903647130813
0.516207085888768
0.3733290196083847
0.3733989762041801
0.3825152878629992
0.538198739302852
0.5517267086588912
0.3870924417466791
0.3734489333302082
0.3733324514091833
0.5681546060735275
0.3928543893103826
0.3735766615764403
0.3733411117061315
0.5848397520848191
0.3998531388914017
0.3737099566077397
0.3733460384624618
0.6079450571562544
0.4075818684456853
0.3739128272935524
0.3733620223143257
0.3733735660494237
0.3742038692625148
0.4183504403422362
0.6277076694225049
0.3734034465912561
0.3746407978447494
0.4275409813042438
0.6272105879595377
0.3735035412924452
0.3750105691465718
0.424043263689963
0.5857393198464977
0.3732978932541629
0.3742977390976267
0.4072126951044724
0.51681967888502
0.3735627821298139
0.3763710214531105
0.4004016601323299
0.4131583142945808
0.3736501799688852
0.3761046342474758
0.3778207997671719
0.3010837187749945
0.3734765960670322
0.374384657117122
0.3675685855340496
0.2265892629829108
0.3733258510264674
0.3733221029952438
0.3571022600458094
0.1903078349715573
0.1916366524236036
0.352894134662972
0.3727420221799683
0.3733208216106215
0.1904518071523152
0.3497854525328236
0.3724609249184142
0.3733186888030936
0.1913224569424453
0.3482142982845465
0.3724741456309658
0.3733184755512941
0.1847417201916156
0.3453738957890755
0.3723984933363774
0.3733185257657741
0.2111488071858143
0.3529276131823891
0.372859744053842
0.3733224744738251
0.2382601614625482
0.3613645561726127
0.3731580287570146
0.3733243358051126
0.2629204865483171
0.3666012923367994
0.3732604198832312
0.3733248233077466
0.2893943634910462
0.3709990644316949
0.373313315274157
0.3733249736316761
0.3263265613618054
0.3680579363703086
0.373149051033821
0.3733230626036542
0.3255537028317846
0.368325500293337
0.3731557383245817
0.3733230777362271
0.3236501354094257
0.3684757095153398
0.3731619255893592
0.3733231077948829
0.3250837217816624
0.3690175412782601
0.3731915757183502
0.3733234082568455
0.2893943634905347
0.3709990644306529
0.3733133152732722
0.3733249736315323
0.2629204865470276
0.3666012923355264
0.3732604198772527
0.3733248233067349
0.2382601614607769
0.3613645561722049
0.3731580287553268
0.3733243358067863
0.2111488071859048
0.352927613184906
0.372859744053356
0.3733224744726032
0.3733208216160657
0.3727420221838864
0.3528941346640902
0.191636652423145
0.3733186888018676
0.3724609249203172
0.3497854525344261
0.1904518071530636
0.3733184755482594
0.3724741456351474
0.3482142982854377
0.1913224569425812
0.3733185257667967
0.3723984933375982
0.3453738957952323
0.1847417201910503
0.1903078349685486
0.3571022600425469
0.3733221029941831
0.3733258510263481
0.2265892629793868
0.3675685855309541
0.3743846571146702
0.3734765960604866
0.3010837187744834
0.3778207997638738
0.3761046342484144
0.3736501799630354
0.4131583142951782
0.4004016601317028
0.3763710214499996
0.3735627821358135
0.3733735660483755
0.3742038692737504
0.4183504403407374
0.6277076694240302
0.3734034465925024
0.3746407978442443
0.4275409813029971
0.6272105879595061
0.3735035412850208
0.3750105691444068
0.424043263685931
0.5857393198461653
0.3732978932736545
0.3742977390961448
0.4072126951020076
0.516819678884888
0.6079450571616503
0.4075818684419948
0.3739128272918177
0.3733620223138801
0.5848397520969987
0.3998531389120565
0.3737099566205098
0.373346038463868
0.5681546060759318
0.3928543893117823
0.373576661578219
0.3733411117052384
0.5517267086574098
0.3870924417351967
0.3734489333323727
0.3733324514082831
0.3733248578648121
0.3733249111853358
0.3738370933646226
0.4411966269534228
0.3733251464649585
0.3733350655511626
0.3759419196454443
0.4896635401096779
0.3733260756308402
0.3733493042992496
0.3785903647162004
0.5162070858948503
0.3733290196055791
0.3733989761978551
0.3825152878643792
0.5381987393031957
0.3733250905314447
0.3733250450211579
0.3733250651032894
0.3733252439565891
0.3733249420596439
0.373325222832699
0.3733295913557384
0.3733531292849147
0.3734469852484417
0.3733916339133626
0.3738964627917684
0.3749546459907923
0.3847725090919364
0.3753839687323888
0.379147063020554
0.3824621444596163
0.3733265316374707
0.3734052975374701
0.3762770892341669
0.3860020323826277
0.3733295904207808
0.3734627421717748
0.3774970815697573
0.389328972792265
0.3733334931578953
0.3735045830704723
0.3784993118962484
0.3922731420603739
0.3733361932608547
0.373527773094406
0.3792885219837299
0.3944226564005064
0.3733262726352884
0.3733449716390977
0.3759296070527857
0.4147866850989192
0.3733287763985168
0.3733975240172513
0.3786024811189526
0.4058039914899612
0.3733341126454064
0.3734736388217765
0.3797022672531967
0.3981529034180364
0.3733369841808205
0.3735236881475014
0.3798398849917359
0.3955001001899019
0.4163326820225987
0.3747335697293461
0.3733318278107058
0.3733254580787526
0.4103948355170451
0.3743763367683545
0.3733316041942956
0.3733255006590868
0.4058124535487833
0.3739069106364492
0.3733269035026699
0.3733253293006312
0.4011054682074991
0.373613283514168
0.3733258496400518
0.3733250811909076
0.3976682552736022
0.3731850590549647
0.3733250556165154
0.3733250556106254
0.3949701200320002
0.3734471240064156
0.3733250556165154
0.3733250556165154
0.3883151529050038
0.3733251205070926
0.3733250556165154
0.3733250556165153
0.3780893140282625
0.3733249942046188
0.3733250556165154
0.3733250556165151
0.3733250556165154
0.3733250556165154
0.3733250556246226
0.3733277050323773
0.3733250556165152
0.3733250556165155
0.3733250556588373
0.3733351255364267
0.3733250556165154
0.3733250556165154
0.3733250559403024
0.3733791030055172
0.3733250556165154
0.3733250556165154
0.373325061619753
0.3734840286772897
0.3733323140608552
0.3733520873377699
0.3734212562310738
0.3743597756001283
0.3733520873806214
0.3733665126002875
0.3734810988140738
0.376971357001518
0.3734212562522248
0.3734810987878548
0.3748884622337281
0.3934800608424562
0.3743597753554005
0.3769713566040534
0.3934800611285552
0.4485340552623038
0.5299148711444973
0.4736669835543794
0.4433036717260833
0.4087622816599492
0.5152194337850706
0.5042668945786473
0.5027192951632955
0.4787687478065639
0.509658482796989
0.5069870048570946
0.5082413504248914
0.4974541490438557
0.5100107778648938
0.5078575056079359
0.5088390584629249
0.5015791143804995
0.5046448861202444
0.5039383264398009
0.5050890887710602
0.508151821799908
0.5101308010682433
0.5077614564398222
0.5088839289358748
0.5123707363362456
0.5115890543776074
0.5100625199517712
0.5108846442356789
0.5136090794372737
0.5130924934918486
0.5110719716135971
0.5113608480978344
0.508569166091579
0.4466442115481006
0.3783367749772698
0.3596139212083549
0.3648089680356883
0.4181653325992331
0.3550271043425878
0.3528232693838282
0.3620801555342082
0.3897637793644533
0.3490747511082831
0.3551748753428935
0.3642154966878903
0.3352266605086491
0.3348588312683185
0.3510816517941287
0.3612231732425103
0.3721364226821534
0.3764213943204073
0.3782345995216411
0.3790490259203483
0.3701875179178664
0.3743257899200901
0.3761711247716851
0.3773235960062111
0.3709607412934681
0.3739870550483025
0.3757270445360031
0.3771600883565427
0.3681116348585493
0.3718881593657135
0.3744533436538801
0.3759826416553403
0.3790819087371588
0.3791061762179495
0.3781074584215046
0.4699022329860994
0.3784835860892061
0.378659099202158
0.3794776551530357
0.506052613329083
0.3787252111871666
0.3790645986265569
0.3817650295375174
0.520243654919603
0.3774962801737253
0.3789070512148709
0.3841855915638935
0.5299659935107254
0.7055908266294461
0.7262867554303661
0.7222899157773601
0.7156730386948092
0.7454454951163398
0.739932688664439
0.7287345281744144
0.7218902069269074
0.7310036807448059
0.7291282618566849
0.7282965438676826
0.7272250756804237
0.7483571314353114
0.7373017331367275
0.7325296057659495
0.7297396556438751
0.6968051257848302
0.6884126761148458
0.6856531344243167
0.693401373816221
0.7038451715248699
0.6951908286280354
0.691561666484079
0.6985385815265931
0.7109244751806364
0.7022481143328207
0.6995150439378365
0.7058630691233015
0.7170497462008115
0.7061006823138275
0.7027762394417755
0.7087103438698428
0.7005529725458655
0.6898615145481415
0.6525892409022198
0.5690571791974909
0.7052239970091028
0.6973426229695436
0.6565623226135581
0.5805994248412391
0.7126066436736159
0.7059862216292058
0.6625626849742924
0.5937158215064
0.7158869813476006
0.7110937222802229
0.6667233378695571
0.6892045674219657
0.3676384420577626
0.08731377330184251
0.02386173889228755
0.03458432183121159
0.2981758228729121
0.05765127052281092
0.03242980272654144
0.04402714722044506
0.2252825051668046
0.03665706040129515
0.03192731941484504
0.05311910637006081
0.1627704119617041
0.02053659218488664
0.03582971510030074
0.05659530825859975
0.04931060876048856
0.05848769051782512
0.06550972935663014
0.06356593305993959
0.06038563744743351
0.07007408875147772
0.07269759531481687
0.06725757942357834
0.07437807099543535
0.08518474370108702
0.08055323460144327
0.07168346333474647
0.07992956359535401
0.09443213411963451
0.08549452376373935
0.07801536383592371
0.1013427528468354
0.1312291536000949
0.1591881931777359
0.1938565831007878
0.09507914822782505
0.1226808599844985
0.1455751502326277
0.1803459294208853
0.08838992404978997
0.1126086072237311
0.1321400241690211
0.1598647094802096
0.08155894175929378
0.1019328720638229
0.1181839960159808
0.1508780552628291
0.1496735833714027
0.09755097282566681
0.08278751326872454
0.08506922023401331
0.1337169271200164
0.08837161627118674
0.0982131614153266
0.09149050874739507
0.1063998083229283
0.09458083232846186
0.1039415703051268
0.09880699744570802
0.08639716580199909
0.1024488815001919
0.1090128324451504
0.1143429249830252
0.1105736605129832
0.1057843914947464
0.1062341880511176
0.1059747131665839
0.0925571886384044
0.0903297611234882
0.09104535805376297
0.09153049852620106
0.08143549758122874
0.08318893075153466
0.08497241438569345
0.08699544713405392
0.09411647673807344
0.09998521749520141
0.1010083367600235
0.101933467904722
0.1059747131665665
0.0915304985262473
0.08699544713422511
0.1019334679049873
0.1062341880510704
0.09104535805381307
0.08497241438592407
0.1010083367599565
0.1057843914946352
0.09032976112356279
0.08318893075162637
0.09998521749496561
0.1105736605128372
0.09255718863839696
0.08143549758136318
0.09411647673797477
0.08506922023382474
0.08278751326837305
0.09755097282507885
0.1496735833703091
0.09149050874735414
0.09821316141527757
0.08837161627102465
0.1337169271193643
0.09880699744562954
0.1039415703050752
0.09458083232843655
0.1063998083226455
0.1143429249828898
0.1090128324451513
0.1024488815001614
0.08639716580182068
0.1508780552622904
0.1181839960151019
0.1019328720623448
0.08155894175837035
0.1598647094797983
0.13214002416857
0.1126086072224154
0.0883899240487253
0.1803459294203558
0.1455751502323452
0.1226808599834034
0.09507914822678468
0.1938565831001016
0.1591881931773909
0.131229153599148
0.1013427528457457
0.06356593305899767
0.0655097293564855
0.05848769051781579
0.04931060876023144
0.06725757942292011
0.07269759531439589
0.07007408875125444
0.06038563744717671
0.07168346333422322
0.08055323460104596
0.08518474370069699
0.07437807099528027
0.07801536383528911
0.08549452376329125
0.09443213411928027
0.07992956359512146
0.03458432183123594
0.02386173889104236
0.08731377330074389
0.3676384420566226
0.04402714722017703
0.03242980272594092
0.05765127052222106
0.2981758228716465
0.05311910636964359
0.03192731941425323
0.03665706040097861
0.2252825051661075
0.05659530825829354
0.03582971510003484
0.02053659218452327
0.1627704119613582
0.5690571791968446
0.6525892409038987
0.689861514550177
0.7005529725505332
0.5805994248409201
0.6565623226147851
0.6973426229716395
0.7052239970139109
0.5937158215059432
0.6625626849751294
0.7059862216315758
0.7126066436781548
0.6892045674217266
0.6667233378705673
0.7110937222828875
0.7158869813521641
0.6934013738227913
0.6856531344286013
0.6884126761154825
0.696805125786518
0.6985385815330125
0.6915616664877056
0.6951908286289493
0.703845171526455
0.7058630691293061
0.6995150439409731
0.7022481143336299
0.7109244751815224
0.7087103438759831
0.7027762394447025
0.7061006823148095
0.7170497462011349
0.7156730386950031
0.7222899157797608
0.7262867554289115
0.7055908266242809
0.7218902069275077
0.728734528176879
0.7399326886634024
0.7454454951141181
0.7272250756809306
0.7282965438698749
0.7291282618566269
0.7310036807433629
0.7297396556436061
0.7325296057691557
0.737301733136227
0.7483571314336741
0.4699022329826946
0.3781074584201159
0.379106176220644
0.3790819087391742
0.5060526133221342
0.3794776551501294
0.3786590992055868
0.3784835860924255
0.5202436549100932
0.3817650295331459
0.3790645986307553
0.378725211190019
0.5299659935022515
0.3841855915587052
0.3789070512190712
0.3774962801774711
0.3790490259224655
0.3782345995231471
0.376421394320579
0.3721364226814833
0.3773235960078538
0.3761711247728688
0.3743257899201637
0.370187517916917
0.3771600883574472
0.3757270445368854
0.3739870550482392
0.3709607412923656
0.3759826416558776
0.3744533436554342
0.3718881593653107
0.3681116348576115
0.3648089680333827
0.3596139212066627
0.3783367749754726
0.4466442115484751
0.3620801555315432
0.3528232693819844
0.355027104340903
0.4181653326006295
0.3642154966851818
0.3551748753412717
0.3490747511064618
0.3897637793669764
0.3612231732394093
0.3510816517920951
0.3348588312655656
0.3352266605111442
0.5081518217991915
0.5050890887677703
0.5039383264431895
0.5046448861216138
0.5123707363350649
0.5088839289343593
0.5077614564439038
0.5101308010679988
0.5136090794359873
0.5108846442345714
0.5100625199552558
0.5115890543788801
0.5085691660931172
0.511360848096082
0.5110719716161098
0.5130924934925331
0.5015791143812939
0.497454149036482
0.4787687478117257
0.408762281731741
0.5088390584597478
0.5082413504170011
0.5027192951644277
0.4433036716902106
0.5078575056069087
0.5069870048550316
0.5042668945583703
0.4736669833678536
0.5100107778631285
0.5096584827953925
0.5152194337601739
0.5299148711039656
0.2994833741155578
0.3698566811359781
0.3732754295911843
0.3733247967049004
0.3010245370350091
0.3696274411716378
0.3732661547864495
0.3733246499692816
0.3092230420893251
0.3696842538547087
0.3732536349032239
0.3733244569796172
0.3152697164684348
0.3693796434005801
0.3732281576862351
0.3733240251259295
0.3733230626041236
0.3731490510371819
0.3680579363656327
0.3263265613577337
0.373323077737119
0.3731557383275778
0.368325500290837
0.325553702827401
0.3733231077927875
0.3731619255897186
0.368475709516698
0.3236501354079424
0.3733234082509057
0.373191575720366
0.3690175412755587
0.3250837217811552
0.3733240251218941
0.3733244569772284
0.3733246499628126
0.3733247966974432
0.3732281576880145
0.37325363490316
0.3732661547857279
0.373275429589765
0.3693796433981839
0.3696842538500207
0.3696274411742789
0.3698566811357383
0.3152697164681401
0.309223042085952
0.3010245370325265
0.2994833741182207
)
;

boundaryField
{
    back
    {
        type            empty;
    }
    inlet
    {
        type            calculated;
        value           nonuniform List<scalar> 
16
(
0.3733250556165154
0.3733250556165154
0.3733250556165154
0.3733250556165154
0.3733250556165154
0.3733250556165155
0.3733250556165152
0.3733250556093707
0.3733250556106254
0.3733250556165154
0.3733250556165154
0.3733250556165151
0.3733250556165154
0.3733250556165152
0.3733250556165154
0.3733250556165154
)
;
    }
    front
    {
        type            empty;
    }
    top
    {
        type            calculated;
        value           nonuniform List<scalar> 
40
(
0.3733250811897617
0.3733253292916644
0.3733255006686287
0.3733254580810825
0.3733262726396206
0.3733287764022069
0.3733341126464386
0.3733369841817648
0.3733361932593021
0.37333349315502
0.3733295904223283
0.3733265316412223
0.3733252439570438
0.3733250651034179
0.373325045019491
0.3733250905345735
0.373324857860044
0.3733251464663001
0.3733260756336833
0.3733290196083847
0.3733324514091833
0.3733411117061315
0.3733460384624618
0.3733620223143256
0.3733735660494237
0.3734034465912561
0.3735035412924452
0.3732978932541629
0.3735627821298139
0.3736501799688852
0.3734765960670322
0.3733258510264674
0.3733208216106214
0.3733186888030936
0.3733184755512941
0.373318525765774
0.373322474473825
0.3733243358051126
0.3733248233077465
0.3733249736316761
)
;
    }
    outlet
    {
        type            calculated;
        value           uniform 0.3733250556165154;
    }
    bottom
    {
        type            calculated;
        value           nonuniform List<scalar> 
40
(
0.3733249736315323
0.3733248233067349
0.3733243358067863
0.3733224744726032
0.3733208216160657
0.3733186888018676
0.3733184755482594
0.3733185257667967
0.3733258510263481
0.3734765960604866
0.3736501799630354
0.3735627821358135
0.3733735660483755
0.3734034465925024
0.3735035412850208
0.3732978932736545
0.3733620223138801
0.373346038463868
0.3733411117052384
0.3733324514082831
0.3733248578648121
0.3733251464649585
0.3733260756308402
0.3733290196055791
0.3733250905314447
0.3733250450211579
0.3733250651032894
0.3733252439565891
0.3733265316374707
0.3733295904207808
0.3733334931578953
0.3733361932608547
0.3733262726352884
0.3733287763985168
0.3733341126454064
0.3733369841808205
0.3733254580787526
0.3733255006590868
0.3733253293006312
0.3733250811909076
)
;
    }
    wall
    {
        type            calculated;
        value           nonuniform List<scalar> 
104
(
0.5299148711444973
0.5152194337850706
0.509658482796989
0.5100107778648938
0.5130924934918486
0.5110719716135971
0.5113608480978344
0.508569166091579
0.3352266605086491
0.3348588312683185
0.3510816517941286
0.3612231732425102
0.3681116348585493
0.3718881593657136
0.3744533436538801
0.3759826416553403
0.3774962801737253
0.3789070512148709
0.3841855915638935
0.5299659935107254
0.7483571314353114
0.7373017331367275
0.7325296057659495
0.7297396556438751
0.7170497462008115
0.7061006823138275
0.7027762394417755
0.7087103438698428
0.7158869813476006
0.7110937222802229
0.6667233378695571
0.6892045674219657
0.1627704119617041
0.02053659218488664
0.03582971510030074
0.05659530825859974
0.07992956359535401
0.09443213411963451
0.08549452376373935
0.07801536383592371
0.08155894175929378
0.1019328720638229
0.1181839960159808
0.1508780552628291
0.08639716580199909
0.1024488815001919
0.1090128324451504
0.1143429249830252
0.1105736605129832
0.1057843914947464
0.1062341880511176
0.1059747131665839
0.1059747131665665
0.1062341880510704
0.1057843914946352
0.1105736605128372
0.1143429249828898
0.1090128324451513
0.1024488815001613
0.08639716580182068
0.1508780552622904
0.1181839960151019
0.1019328720623448
0.08155894175837035
0.07801536383528911
0.08549452376329125
0.09443213411928027
0.07992956359512148
0.05659530825829354
0.03582971510003484
0.02053659218452327
0.1627704119613582
0.6892045674217266
0.6667233378705673
0.7110937222828875
0.7158869813521641
0.7087103438759831
0.7027762394447025
0.7061006823148095
0.7170497462011349
0.7297396556436061
0.7325296057691557
0.737301733136227
0.7483571314336741
0.5299659935022515
0.3841855915587052
0.3789070512190712
0.3774962801774711
0.3759826416558776
0.3744533436554342
0.3718881593653107
0.3681116348576115
0.3612231732394093
0.3510816517920951
0.3348588312655656
0.3352266605111443
0.5085691660931172
0.511360848096082
0.5110719716161098
0.5130924934925331
0.5100107778631285
0.5096584827953925
0.5152194337601739
0.5299148711039656
)
;
    }
}


// ************************************************************************* //
