/*--------------------------------*- C++ -*----------------------------------*\
  =========                 |
  \\      /  F ield         | OpenFOAM: The Open Source CFD Toolbox
   \\    /   O peration     | Website:  https://openfoam.org
    \\  /    A nd           | Version:  11
     \\/     M anipulation  |
\*---------------------------------------------------------------------------*/
FoamFile
{
    format      ascii;
    class       volScalarField;
    location    "0.161";
    object      Ma;
}
// * * * * * * * * * * * * * * * * * * * * * * * * * * * * * * * * * * * * * //

dimensions      [0 0 0 0 0 0 0];

internalField   nonuniform List<scalar> 
880
(
1.443353270571932
1.443353270571932
1.443353270551994
1.443348412339028
1.443353270571932
1.443353270571932
1.443353270438131
1.443323181159682
1.443353270571932
1.443353270571933
1.443353269395889
1.443304035963995
1.443353270571932
1.443353270571932
1.443353253413155
1.4429573408925
1.443353270571932
1.443353270571932
1.443353270571822
1.443353270524235
1.443353270573285
1.443353270520481
1.443353271913661
1.443353227424726
1.443355542424866
1.443347238239543
1.443025334562462
1.444198658025706
1.42782605083159
1.389079096980586
1.367489876556543
1.361350260525953
1.443353190595807
1.443353123592987
1.443351233926417
1.443351050135181
1.443350022684182
1.443342231438651
1.443330869707983
1.443331153508597
1.441784831842331
1.440313827832059
1.4393675993306
1.438788964782507
1.357917628302496
1.347663985788278
1.351461596893624
1.334708097266665
1.367131672365705
1.400456781389972
1.429489451616376
1.446242428417025
1.435775004897673
1.429424943605662
1.431233701261585
1.437703253895154
1.443288198247548
1.443090903857919
1.442879298549372
1.442953094576547
1.443347609720138
1.443336415143351
1.443314169643517
1.443286748630608
1.443278765486943
1.44328200320404
1.443296871410164
1.443319906964145
1.44318032399721
1.443316777069925
1.443433863931425
1.44346678603492
1.441631647161997
1.444953369830557
1.446809935406063
1.447176411389111
1.459105646690944
1.465878443278224
1.467773363794159
1.466313519241448
1.462373317705738
1.446411334625657
1.443428204393795
1.443340289553078
1.457606046802171
1.445036888782174
1.443377023857632
1.44335046781688
1.449945768178709
1.443899525995089
1.443356002022659
1.443352957939172
1.410910394379944
1.443010954774781
1.443354430206633
1.443354297564114
1.443353156992134
1.443352623800442
1.441159754665478
1.200244091789406
1.443351324363023
1.443328910476898
1.433051024244814
1.067302071876052
1.443350016118136
1.443224283840292
1.419715658376433
1.016137908040427
1.44333400173261
1.443101019826143
1.405917889885034
1.009951001045788
1.00716917735369
1.386850485747715
1.442777480311647
1.443322784150566
1.016453782414105
1.368948096573712
1.442435641429199
1.443271931123253
1.021941361433417
1.351245667592625
1.44193087001368
1.443234949540148
1.027506594334014
1.329748896274811
1.441122178178726
1.443150075292145
1.443042212906031
1.44036070509537
1.30800804296443
1.035472961272992
1.442900128756901
1.438115037462323
1.29333136988557
1.069668747854749
1.443100742542354
1.438291134722015
1.318979396133745
1.146671485159706
1.442053942986199
1.439564144288813
1.365361544766395
1.251010978157418
1.442644180792195
1.438344626358654
1.417114178125548
1.445955158839407
1.441840710317493
1.447023720666772
1.480075483337401
1.617204150066533
1.442605836782159
1.450233583439292
1.486416450136296
1.669375167532692
1.443452709499361
1.44664290457276
1.459722691137932
1.49335131790794
1.276717843179556
1.437348701895069
1.444299580192668
1.443420333771536
1.151378428674336
1.416496532786652
1.442829447605787
1.443391619020804
1.061397592303253
1.400536148408155
1.442243121008502
1.443366648365888
0.9721110076490849
1.383421221209388
1.441529008908723
1.443346025232152
1.017689884648047
1.39143291781219
1.441960986539877
1.443347666664124
1.129478336426686
1.409453775213694
1.442735091557274
1.443351297460033
1.240955240303608
1.424947628532892
1.443131224424556
1.44335275368118
1.340412928562884
1.436915121017311
1.443346771768047
1.443353176380138
1.294530744388321
1.42992635139013
1.442891466673512
1.443347290452779
1.305791162919996
1.430671640841761
1.442915081456487
1.443347445277644
1.306061982036874
1.429903101372104
1.442910620718685
1.443347689512136
1.30195168087589
1.430691789067978
1.442989091865887
1.443348832124699
1.340412928567406
1.436915121022489
1.443346771778711
1.443353176360088
1.240955240304944
1.424947628536755
1.443131224446945
1.443352753681072
1.129478336426166
1.409453775203859
1.442735091555435
1.443351297459442
1.01768988464001
1.391432917795158
1.441960986535913
1.443347666670335
1.443420333758465
1.444299580184328
1.43734870189236
1.276717843177267
1.443391618997831
1.442829447598713
1.416496532781652
1.151378428666099
1.443366648382974
1.442243120992612
1.400536148409933
1.061397592299706
1.443346025229645
1.441529008901369
1.38342122119091
0.9721110076530942
1.493351317928273
1.459722691152759
1.44664290458948
1.443452709517226
1.669375167549785
1.486416450152506
1.450233583458515
1.442605836811161
1.6172041500644
1.480075483354161
1.447023720673552
1.44184071031484
1.445955158838926
1.41711417813062
1.438344626355653
1.442644180734218
1.443042212910699
1.440360705089833
1.308008042951731
1.035472961266109
1.442900128756694
1.438115037438584
1.293331369877367
1.069668747850571
1.443100742437887
1.438291134724258
1.31897939613596
1.146671485158115
1.442053943083976
1.439564144274783
1.365361544764766
1.251010978157903
1.027506594322221
1.32974889626439
1.441122178132672
1.443150075291797
1.021941361418188
1.351245667580696
1.441930870051513
1.443234949531751
1.016453782409716
1.368948096569776
1.44243564137884
1.443271931133021
1.007169177348136
1.386850485758701
1.442777480336251
1.443322784160328
1.443353156987536
1.443352623789927
1.441159754667592
1.200244091795818
1.44335132437064
1.443328910489179
1.433051024232302
1.067302071885916
1.443350016132501
1.443224283852617
1.419715658370174
1.016137908031902
1.443334001752884
1.443101019792285
1.40591788989052
1.009951001049015
1.443354297548523
1.443352957930447
1.443350467817724
1.443340289558589
1.44335443022392
1.443356002017142
1.443377023840411
1.443428204406594
1.443010954770418
1.443899525990179
1.445036888797068
1.446411334621541
1.410910394380436
1.449945768175918
1.457606046802703
1.462373317706072
1.443319906986113
1.443466786033995
1.447176411375354
1.466313519234328
1.443296871410718
1.443433863936055
1.446809935394844
1.467773363793527
1.443282003190004
1.443316777069164
1.444953369833601
1.465878443280745
1.443278765485377
1.443180323993653
1.441631647158058
1.459105646699473
1.443347609739519
1.443288198260465
1.435775004882861
1.367131672365643
1.443336415164465
1.443090903864237
1.429424943600017
1.400456781398958
1.443314169655497
1.442879298534248
1.431233701257212
1.429489451624226
1.443286748640212
1.442953094562208
1.437703253893292
1.446242428426265
1.334708097263607
1.438788964767701
1.443331153520797
1.443351050159228
1.351461596884999
1.439367599329139
1.443330869714199
1.443351233860166
1.347663985774445
1.440313827855376
1.443342231438776
1.443353123638965
1.357917628295895
1.4417848318562
1.443350022688225
1.443353190588945
1.361350260523428
1.444198657995114
1.443353227422728
1.443353270518719
1.367489876563481
1.443025334608535
1.443353271913141
1.44335327057198
1.389079096975831
1.443347238245637
1.443353270520159
1.443353270571933
1.427826050807236
1.443355542429683
1.443353270573219
1.443353270571934
1.443353270571932
1.443353270571933
1.443353270546476
1.443348412364855
1.443353270571931
1.443353270571932
1.443353270435565
1.443323181195618
1.443353270571932
1.443353270571932
1.443353269395026
1.443304035969701
1.443353270571932
1.443353270571932
1.443353253425547
1.442957340921015
1.443337822890969
1.443303951189354
1.443178682774013
1.440193308821599
1.443303951052558
1.443256319112092
1.442896345487078
1.431594458593592
1.443178682532984
1.442896345323979
1.437693298865407
1.374330395687808
1.440193308558774
1.431594458720586
1.374330396332847
1.182845857044458
1.016788823831992
1.10558814587307
1.260396026876427
1.357239776942103
1.074596278738473
1.092094548664485
1.147799284913759
1.222864969954165
1.093544846252895
1.136535554460991
1.184040670898887
1.232959656576857
1.12815710899801
1.170654064754707
1.205064214926046
1.234664904532311
1.241291153398469
1.251772140607046
1.261389397826834
1.2604344888823
1.221847296989324
1.243397894992409
1.255001333033902
1.28925023466492
1.194387267471032
1.22694528605863
1.24429910293434
1.370621888537006
1.153320282310759
1.166473940525634
1.170859996481247
1.486334585731148
1.393349703796848
1.524615072187495
1.518958362981815
1.504061271376679
1.482941516697028
1.632312298248524
1.591654289314635
1.553032033994053
1.659639720971954
1.733299391246123
1.635470146275749
1.574662848448965
1.278832705160567
1.305525109748897
1.305276424848804
1.29662399492944
1.491474461542837
1.487959897087727
1.483337441598133
1.477714981804759
1.52151653936964
1.504768013385213
1.495193304954885
1.486287572632912
1.533396297320642
1.512469143957143
1.500193667329152
1.490755850653674
1.295933302855327
1.313064264804085
1.341760510395187
1.372064564838633
1.470402670633542
1.463796676048705
1.454878987623935
1.182599943346535
1.477768944478488
1.469703092436664
1.458307838881931
1.004320756518743
1.482986693672269
1.473941226689814
1.453384593784261
0.8244772658407742
1.396025841595423
1.421855752407941
1.37396944353068
0.5301352238631805
0.7958400348710596
0.79485083827076
0.815816015047344
0.8604778167873642
0.7133370117640172
0.7635739016437445
0.8098945181817792
0.8616925274027821
0.5781982145528098
0.6787141634620897
0.7709089863572395
0.8458279640058408
0.3108290243800883
0.4291757622789765
0.5854881036861578
0.723527456187593
0.904995892308068
0.9280418753648689
0.9422986905601096
0.9405171637334586
0.9082916609940423
0.9296034417830169
0.9415627942415629
0.942188654766056
0.9014666183881574
0.9269972493820254
0.9403541542272759
0.9428705415536319
0.8376873432278702
0.8883418072672696
0.9113697800314873
0.9090576358817662
0.9534585456583015
0.9904964160497953
1.077605069860686
1.182977384688478
0.9570176314461264
0.9939216654366249
1.068169069866046
1.223525876593627
0.9576906877301814
0.9903677725581568
1.082333478522367
1.55381102002916
0.9324518812841494
0.9633597034874104
1.099852580225361
2.18073489033805
1.442314741892951
1.772591113898013
0.753224966230854
0.4978242492453648
1.502486437668757
1.58796420893928
0.4623343844848548
0.3893879555094968
1.549679648186596
1.32961412510899
0.180711888204633
0.3348633461398783
1.202615416949449
0.8436969447877718
0.2111828829477026
0.2368322258663801
0.2840745393253217
0.112375499076449
0.06299262753203722
0.0881707031172629
0.317553470953493
0.1964618961047388
0.1196198943631036
0.1347788378463118
0.2825392241916439
0.2400138665661208
0.2260700530615168
0.1974817498217203
0.217695579617928
0.2310110799359558
0.2554944041212016
0.2035648108889786
0.4005259546307503
0.792074037347953
1.05345870975282
1.317889900715046
0.17761054267921
0.5794009504265657
0.8947101368260781
1.201095940196987
0.131247498566563
0.308103378424057
0.6497444027952142
1.086499802349754
0.1160035488923014
0.06857533336977634
0.4901609685566315
1.164733564205904
1.515356570539064
1.826101844340914
1.776329839217102
1.447964886971489
1.414682756820547
1.538336013914748
1.289515942954025
0.9711285734768801
1.379610412061625
1.141313988042882
0.7408575545352458
0.4021961309746059
1.082062101475745
0.4957513552246005
0.2167746090235737
0.1381553442660106
0.1495877296462949
0.1906164514430286
0.1931858846678101
0.1598917584505164
0.1815319790828159
0.1367461987849024
0.2126520614909446
0.2386432173858858
0.4527448454749975
0.07303777103033858
0.1796703431178704
0.2199371839023186
0.8768294770476008
0.4985588909095257
0.3270678114391293
0.2841307399368029
0.1598917584499296
0.2386432173866427
0.2199371839024029
0.2841307399256172
0.1931858846664903
0.2126520614921324
0.1796703431170289
0.3270678114352882
0.1906164514442064
0.1367461987860918
0.07303777102497165
0.4985588909086379
0.149587729647928
0.1815319790809012
0.4527448454690318
0.8768294770442947
1.447964886969415
1.776329839218678
1.826101844345473
1.515356570547359
0.9711285734741377
1.289515942952202
1.538336013911509
1.414682756824188
0.4021961309715101
0.7408575545329026
1.141313988039779
1.379610412060114
0.1381553442665641
0.2167746090226958
0.4957513552236524
1.082062101471896
1.164733564204348
0.4901609685549054
0.06857533336732229
0.1160035488905458
1.08649980234813
0.6497444027906852
0.3081033784167085
0.1312474985672671
1.201095940197751
0.8947101368213195
0.5794009504168759
0.1776105426781017
1.317889900718093
1.053458709747633
0.7920740373398435
0.4005259546259763
0.08817070311070273
0.06299262753272156
0.1123754990676481
0.2840745393258077
0.1347788378423734
0.1196198943573984
0.1964618961041653
0.3175534709638155
0.1974817498187684
0.226070053054583
0.2400138665650881
0.2825392242046224
0.203564810885845
0.2554944041150924
0.2310110799363279
0.2176955796279687
0.4978242492487244
0.7532249662217488
1.772591113902499
1.442314741895888
0.3893879555252877
0.4623343844988899
1.587964208947631
1.502486437675805
0.3348633461562304
0.1807118882075865
1.329614125115187
1.549679648192633
0.2368322258800806
0.211182882961545
0.8436969447949569
1.202615416953158
1.18297738468849
1.077605069858874
0.9904964160475769
0.9534585456567555
1.223525876594581
1.068169069864763
0.9939216654336542
0.9570176314428231
1.553811020034282
1.082333478522794
0.9903677725540573
0.9576906877267705
2.180734890347078
1.099852580229735
0.9633597034930701
0.9324518812907069
0.9405171637283033
0.9422986905563061
0.9280418753612256
0.9049958922975814
0.9421886547617024
0.9415627942394544
0.9296034417807076
0.9082916609848167
0.9428705415501056
0.940354154226691
0.9269972493809154
0.9014666183800748
0.9090576358837006
0.9113697800348047
0.8883418072673351
0.8376873432138927
0.8604778167866673
0.8158160150441239
0.7948508382750686
0.7958400348749718
0.8616925273995872
0.8098945181789788
0.7635739016458603
0.7133370117651348
0.8458279640008408
0.7709089863529249
0.6787141634603003
0.5781982145538441
0.7235274561725055
0.5854881036838199
0.4291757622708212
0.3108290243772737
1.182599943361535
1.454878987622276
1.46379667604674
1.470402670631354
1.004320756539987
1.458307838884207
1.469703092431514
1.477768944473892
0.8244772658603235
1.453384593793188
1.473941226682067
1.482986693665296
0.530135223893993
1.373969443561117
1.421855752401338
1.396025841587933
1.477714981799102
1.483337441595729
1.487959897091353
1.491474461549032
1.486287572628103
1.495193304951542
1.504768013389016
1.521516539375135
1.490755850651002
1.500193667325367
1.512469143960135
1.533396297325271
1.372064564836823
1.341760510395279
1.313064264803601
1.29593330285666
1.504061271386916
1.51895836299076
1.524615072198027
1.393349703799595
1.553032034004711
1.591654289324695
1.632312298261246
1.482941516701208
1.574662848459138
1.635470146287212
1.733299391262931
1.659639720974414
1.296623994934265
1.305276424851499
1.305525109759814
1.278832705158652
1.260434488884983
1.26138939782599
1.25177214058879
1.241291153377905
1.289250234670046
1.255001333033183
1.243397894977152
1.221847296982661
1.370621888550417
1.244299102938472
1.226945286052405
1.19438726747533
1.486334585754233
1.170859996486428
1.166473940506184
1.15332028226801
1.234664904523453
1.232959656582056
1.222864969951346
1.35723977680142
1.205064214935446
1.18404067089981
1.147799284808901
1.260396026618388
1.170654064762343
1.136535554435951
1.092094548522361
1.105588145542072
1.128157108927626
1.093544846147947
1.074596278663456
1.016788823599194
1.382589981978004
1.434755917497224
1.443193984595314
1.443352523057035
1.384677813240131
1.435497154288269
1.443178232601576
1.443352010038556
1.362771288549245
1.434920658405675
1.44315566143012
1.443351553235074
1.308786577496467
1.432445922396717
1.443085059725625
1.443350493101037
1.443347290444629
1.442891466673578
1.429926351387328
1.294530744354319
1.443347445267534
1.442915081444506
1.430671640863596
1.305791162939023
1.443347689524041
1.442910620703633
1.429903101388414
1.306061982053906
1.443348832153901
1.442989091850504
1.430691789095115
1.301951680888068
1.443350493111227
1.443351553249469
1.443352010078118
1.443352523092276
1.443085059719841
1.443155661432215
1.443178232608995
1.443193984616244
1.432445922398701
1.434920658417298
1.435497154278897
1.434755917512254
1.308786577507248
1.3627712885648
1.384677813242722
1.38258998197755
)
;

boundaryField
{
    back
    {
        type            empty;
    }
    inlet
    {
        type            calculated;
        value           nonuniform List<scalar> 
16
(
1.443353270571932
1.443353270571932
1.443353270571932
1.443353270571932
1.443353270571932
1.443353270571932
1.443353270571896
1.443353270574023
1.443353270571918
1.44335327057195
1.443353270571932
1.443353270571933
1.443353270571932
1.443353270571932
1.443353270571932
1.443353270571932
)
;
    }
    front
    {
        type            empty;
    }
    top
    {
        type            calculated;
        value           uniform 0;
    }
    outlet
    {
        type            calculated;
        value           nonuniform List<scalar> 
16
(
1.443344062168825
1.443344033083356
1.443344199159638
1.443344479841351
1.44335215456085
1.443351490168716
1.4433507827722
1.443348250158705
1.443344062162943
1.443344033076357
1.443344199165558
1.443344479859054
1.443348250163443
1.443350782777431
1.443351490190929
1.4433521545826
)
;
    }
    bottom
    {
        type            calculated;
        value           uniform 0;
    }
    wall
    {
        type            calculated;
        value           uniform 0;
    }
}


// ************************************************************************* //
