/*--------------------------------*- C++ -*----------------------------------*\
  =========                 |
  \\      /  F ield         | OpenFOAM: The Open Source CFD Toolbox
   \\    /   O peration     | Website:  https://openfoam.org
    \\  /    A nd           | Version:  11
     \\/     M anipulation  |
\*---------------------------------------------------------------------------*/
FoamFile
{
    format      ascii;
    class       volScalarField;
    location    "0.161";
    object      p;
}
// * * * * * * * * * * * * * * * * * * * * * * * * * * * * * * * * * * * * * //

dimensions      [0 2 -2 0 0 0 0];

internalField   nonuniform List<scalar> 
880
(
80
80
80.00000000549822
80.00098137787575
80
80
80.00000002886917
80.00383958444777
80
79.99999999999999
80.00000022048579
80.01818881034511
80
80
80.00000348765637
80.05757161485855
80
80.00000000000001
80.00000000000391
79.99999999916659
80.00000000010034
79.9999999942023
80.00000020593603
79.99999542769753
79.99996861062505
80.00009619579579
80.04210364402189
79.94919830567834
81.61248784466903
85.13569525718107
87.68398438149619
88.68551425665908
80.00000815421456
80.00011530484204
80.00017758573212
80.00017808500253
80.00031388830824
80.0007430160988
80.00258158341272
80.00272861760324
80.11506970879823
80.22854725678057
80.3969282401378
80.53633438596556
89.98812386160402
91.6469581804714
93.28432167934785
95.30892296725915
94.61943637459258
91.65965974702343
89.06609793108801
87.89148491737316
80.99604587052237
81.98181184166867
82.4234689993482
82.51574840262847
80.00836027901147
80.03075021485903
80.06384477092655
80.08801567779041
80.00053273100649
80.00168774160659
80.00429215036337
80.00599166124803
80.00585720705061
80.00477935468916
80.00298086046783
80.00128589868882
80.09330954122738
80.08466391967737
80.06922185945204
80.04734405390948
82.33566406471984
82.02978269858649
81.67135648239007
81.26558112756783
87.45483546111113
86.7581317947422
85.73104396352367
84.63505727401079
83.53691403013462
80.82826522985579
80.02322705340204
80.00029570542618
82.52457582212372
80.42040827975889
80.00654849652889
80.00002594349796
81.18504225175953
80.09685060670019
80.00061305510241
79.99998654444101
84.52314323859504
80.05989358335587
80.00012852257566
80.00004038923822
79.99993753798283
80.00000264446071
80.19868751510964
105.7405715264988
80.00006212671538
80.00402699435854
80.9948663254489
125.0793124522544
80.00043779118245
80.01028200021211
82.11492412997266
136.1318075615351
80.00169633893557
80.03232945333011
83.77304499299672
145.8730891067914
152.705401530591
85.88565762085486
80.05844785252454
80.0033962472467
160.0376007833626
88.48781553009158
80.11920163042025
80.00762436690094
167.2625312684933
91.84574337769335
80.19929102659499
80.01082699058664
176.3931578644155
95.63128689337067
80.31143057722949
80.01921117463992
80.02630179681115
80.47736254292788
100.5485122761146
183.5976047150565
80.04277049568968
80.73632959916301
104.8649506979233
183.064300197885
80.10465479841716
80.8929727597327
102.3003672970032
164.3690679942109
79.97834788397053
80.55107508767217
94.99362793846468
135.8928625651367
80.11823136021268
81.34708550472243
91.79594261525634
101.5936832857179
80.15790920467367
81.26746837055086
83.81027334708567
68.56598099065938
80.07705518132497
80.63931171523672
80.6294488095056
49.04602576357725
80.00577048576709
80.22988569094723
78.24661729960557
41.76361360378466
42.34346707829397
76.62283816721451
79.8883858867966
79.99662363027294
41.99409143413781
75.13908329736104
79.71761434376153
79.99275562109402
41.74411219845218
74.10724919279764
79.6651761340926
79.99435944707905
39.36026102995044
72.8965201823477
79.63138487688103
79.99610792967192
43.94872695155376
74.38868373519236
79.80630116185559
79.99859701605888
47.24256460431412
76.27502489860098
79.92762617348413
79.9996198474698
50.35860976851335
77.60265600033603
79.96961107154453
79.99987268060991
55.39331316844977
79.06413961553325
79.99479629877976
79.99995530044052
69.89963839397952
78.43797089697155
79.92033425857058
79.99892579294321
68.87524426765795
78.49202040458036
79.92296960109067
79.99891748088056
67.69754893707628
78.50454534023915
79.92800206126566
79.9989328334882
67.73264771302019
78.64542926680426
79.93564643844589
79.99896232122194
55.39331316820185
79.06413961515068
79.99479629815626
79.99995530118389
50.35860976819803
77.60265600007257
79.9696110692946
79.99987268007132
47.24256460382175
76.27502489883184
79.92762617320842
79.99961984811463
43.9487269515788
74.38868373628068
79.8063011617844
79.99859701547503
79.99662363173245
79.88838588809406
76.62283816729921
42.3434670783081
79.99275562171412
79.71761434445033
75.13908329794351
41.99409143437032
79.99435944551973
79.66517613553329
74.10724919272707
41.74411219849469
79.99610792991655
79.63138487751596
72.89652018436352
39.36026102978114
41.76361360253956
78.24661729839481
80.22988569008156
80.00577048540949
49.04602576260582
80.62944880838204
80.63931171445114
80.0770551789404
68.56598099069969
83.81027334599681
81.2674683707296
80.15790920307248
101.5936832859052
91.79594261498544
81.3470855035186
80.11823136323946
80.02630179626644
80.47736254608749
100.5485122760531
183.597604715926
80.042770495955
80.73632960015803
104.8649506977439
183.0643001977298
80.10465479381647
80.89297275917363
102.3003672959287
164.3690679941954
79.97834789281612
80.55107508746298
94.99362793753336
135.8928625650618
176.3931578672637
95.63128689341598
80.31143057708336
80.01921117475632
167.2625312732147
91.84574338402051
80.19929103144175
80.01082699096071
160.0376007833397
88.48781552898632
80.11920163079597
80.00762436646131
152.705401530229
85.8856576181698
80.05844785110531
80.00339624673306
79.999937539692
80.0000026448436
80.19868751517151
105.7405715249964
80.0000621265154
80.00402699384257
80.99486632582691
125.0793124512324
80.00043779025215
80.01028199931216
82.11492413067715
136.131807563516
80.00169633778509
80.03232945441785
83.77304499362688
145.8730891075252
80.00004038796187
79.9999865451699
80.00002594333613
80.00029570504785
80.00012852089701
80.0006130558411
80.0065484979697
80.02322705243107
80.059893583739
80.09685060713213
80.42040827858204
80.82826522961014
84.52314323855381
81.18504225187496
82.52457582188291
83.53691403025896
80.001285897117
80.04734405393886
81.26558112860911
84.6350572747277
80.00298086012454
80.06922185913525
81.67135648390193
85.73104396392968
80.00477935580525
80.08466391974395
82.02978269800919
86.75813179453114
80.00585720735394
80.09330954133948
82.33566406540344
87.454835460883
80.00053272949192
80.00836027765646
80.99604587091578
94.61943637449082
80.00168774007587
80.03075021477569
81.98181184134164
91.65965974605926
80.00429214967465
80.06384477244811
82.42346899903086
89.06609793067069
80.00599166072189
80.08801567886583
82.51574840263088
87.89148491662364
95.30892296793704
80.53633438923455
80.00272861667823
80.00017808416573
93.28432167968845
80.39692824399602
80.00258158283611
80.00017758062019
91.64695818135651
80.22854725811165
80.00074301605099
80.00011530985387
89.98812385981022
80.11506970454958
80.00031388826127
80.00000815475258
88.68551425593546
79.94919830336733
79.9999954276912
79.99999999973065
87.68398438092116
80.04210364310194
80.00000020598485
79.99999999999638
85.13569525727704
80.00009619541589
79.99999999422656
79.99999999999999
81.61248784451767
79.99996861009492
80.00000000010296
79.99999999999989
80
79.99999999999997
80.0000000059038
80.00098138296998
80.00000000000003
80.00000000000001
80.00000002904234
80.00383958677023
80
80
80.00000022051144
80.01818881256932
80
80
80.00000348664915
80.05757161290718
80.00281427964427
80.01029064019269
80.03463392961218
80.34832026951156
80.01029064907631
80.01654607108948
80.05907168916804
81.19278741453532
80.03463393278007
80.05907168866855
80.51624594587447
86.57758533107743
80.34832021091411
81.19278729907533
86.57758526271535
105.266318636505
135.1198620072733
114.5516887771775
103.0544612733025
91.39749821823337
130.2232752062969
125.6213910653152
123.6277193413068
114.7566994643297
127.9750085402134
126.5719253632158
126.078659234176
122.1082953442011
127.8217646325304
126.8788084194517
126.7559784161744
124.2456235125792
125.2718174079332
124.8812605705471
125.1516112451951
126.2563955894034
126.9561090741119
125.6870906463168
125.7790433194291
126.8941840245989
127.3288229241145
126.1934967425717
126.0584621724528
126.8244210804541
127.6860169478949
126.4983404472302
126.1671828816723
123.5281534235505
105.1388041658488
83.73798481859788
76.96887596666711
78.04358114366784
95.73605476889205
76.78164622592864
75.04836022196012
77.58575795625119
86.31247637239021
74.18651287049462
75.78079561740792
78.39307211134674
68.87451869095082
69.4963324937531
74.69057184649952
77.674822260551
79.91347575585129
81.23649617634631
81.66475703673048
81.78712447745973
79.78333505555624
80.92334602740164
81.35988468346076
81.4784688164283
80.27099585421055
81.01778937690378
81.39437240987564
81.54593628150209
79.53577193701422
80.43938861155206
81.11126514935043
81.39622472581752
81.82875734963329
81.64155905826638
81.99000584367961
116.6602506882037
81.53898255360716
81.58046726315219
82.66268092975626
131.9464472534836
81.58938046275352
81.73842395273491
83.47224547245217
139.4248386957385
81.31999676571958
81.65435276766316
84.82053813854502
145.1207104213851
213.1684550929923
223.1103633899249
221.3100512566943
219.7729195790931
230.5866566808301
229.0518051792393
223.821097391725
220.9287762901899
226.8700431226054
225.6778028008222
223.8923317717814
222.0336516124304
235.0371709806931
229.2132028208453
225.85250318821
222.6983607791455
214.0375421443482
209.9996747745458
208.2667249684481
210.6014560132116
214.8405968105798
210.5025449109933
208.3068309935506
210.112028151789
215.7627138601786
210.7346818955566
208.5258434894691
209.9981029344297
217.603620033935
211.4636977803683
208.6002198678094
209.6623401040906
211.8314116613877
207.6903979063645
191.0271502348602
159.508181541875
211.2950548700137
208.2923815158252
191.4845552773516
170.4848279710743
211.341174187017
208.7610276697022
194.6150062394232
180.2925173105571
211.017512099006
209.3992371723709
198.0723362592378
200.457538543334
93.5066315041591
18.52667697847776
3.011453305262743
4.185116618903303
74.44841287866103
10.85496192917788
3.693018874953193
4.306582524693102
50.85358802542046
5.490418749020853
3.150274165585917
4.814804093247055
28.02950782626396
1.97306279792023
3.494058916428552
5.099534499824258
6.820423398711802
9.322225153258065
11.53591814184078
11.3686000903691
6.732918880633659
9.72115344922598
11.81722389514803
11.80618437604528
7.428150224265564
10.35608733866105
12.04106892823248
12.71854771927818
7.836705668787031
10.97438726031136
12.70678810460712
14.08728104776846
20.10496663056761
23.94299676337652
27.015385469041
32.11230870109665
19.38380755763718
23.24082753065233
25.36804252042035
30.87617308005421
17.79996459189106
22.17532180051984
24.36317052440031
29.18659116718268
15.99267681736298
20.61209360434415
22.76650962971227
29.52450428026952
22.98719269368867
13.8419835847644
12.60764033586384
13.03852769508745
21.29644020745584
15.0094823660689
16.0100941994226
13.46652694118765
17.40411751021319
16.72478599518558
15.726156064892
13.34099239418058
13.87666097922726
16.01574539481603
15.02257730647826
14.09387539922449
13.27263990137162
12.8390881188141
12.89800191080083
13.0360680440198
11.78424948935546
10.98336178066075
10.95206127123708
10.98996637633411
11.68515849061141
11.68782063312348
11.39057118414655
11.34204281107084
15.99581773676355
16.74732445945273
15.96200959856291
15.73695525896465
13.03606804402119
10.98996637633688
11.34204281107873
15.73695525904634
12.89800191079383
10.95206127123102
11.39057118416866
15.96200959856485
12.83908811880335
10.98336178066701
11.68782063314704
16.74732445938505
13.27263990136356
11.78424948936604
11.6851584906474
15.99581773670476
13.03852769503985
12.60764033578502
13.84198358464592
22.98719269340256
13.46652694117631
16.01009419940542
15.00948236606398
21.29644020727831
13.34099239418865
15.72615606489011
16.72478599516175
17.40411751013848
14.09387539923249
15.02257730648641
16.01574539479187
13.87666097918205
29.52450428010646
22.76650962944043
20.61209360387855
15.99267681706491
29.18659116704934
24.36317052424485
22.17532180011378
17.79996459157329
30.87617307988802
25.36804252031083
23.24082753031443
19.38380755737854
32.11230870088774
27.01538546893541
23.9429967630662
20.10496663031829
11.36860009016283
11.53591814182464
9.322225153280197
6.820423398664493
11.80618437584927
11.81722389507759
9.721153449237365
6.732918880618302
12.71854771909441
12.0410689281313
10.35608733864173
7.428150224264294
14.0872810475279
12.70678810447373
10.97438726026908
7.836705668766442
4.185116618839411
3.011453305173738
18.5266769782428
93.50663150390889
4.306582524662022
3.693018874863199
10.85496192902853
74.44841287824974
4.814804093204634
3.150274165489472
5.490418748961385
50.85358802527638
5.099534499795176
3.494058916359193
1.973062797868566
28.02950782621342
159.5081815416951
191.0271502354269
207.6903979072406
211.8314116636439
170.4848279709994
191.4845552779
208.2923815169868
211.2950548725144
180.2925173105781
194.6150062401203
208.7610276712256
211.3411741895362
200.457538543634
198.0723362603179
209.3992371741483
211.0175121015949
210.601456016197
208.2667249698147
209.9996747746373
214.0375421441995
210.1120281547237
208.3068309948032
210.5025449110971
214.8405968103939
209.9981029371255
208.5258434905827
210.7346818954884
215.7627138599825
209.6623401068101
208.6002198688563
211.4636977801857
217.6036200337456
219.7729195800312
221.3100512583329
223.11036338928
213.1684550910151
220.9287762914543
223.8210973933164
229.051805179065
230.586656680009
222.0336516136709
223.8923317731784
225.6778028008056
226.8700431229767
222.6983607801572
225.8525031898419
229.2132028206509
235.0371709810582
116.6602506860918
81.99000584321226
81.64155905861725
81.82875735030709
131.9464472511819
82.66268092898848
81.58046726370218
81.53898255449629
139.4248386934352
83.47224547164906
81.73842395381492
81.5893804636648
145.1207104196687
84.8205381372748
81.65435276904199
81.31999676692652
81.78712447799779
81.66475703718979
81.23649617615688
79.91347575547637
81.47846881682726
81.35988468387477
80.92334602717989
79.78333505509364
81.54593628175272
81.39437241017957
81.01778937674854
80.27099585370649
81.39622472614748
81.11126514975652
80.43938861133961
79.53577193659521
78.04358114286011
76.96887596608424
83.73798481812914
105.1388041662838
77.58575795530939
75.04836022134131
76.78164622549821
95.73605476958571
78.39307211030167
75.78079561693859
74.18651287008136
86.31247637324401
77.67482225937904
74.69057184591912
69.49633249306054
68.87451869163802
126.2563955896028
125.1516112444916
124.8812605718193
125.2718174077566
126.8941840245438
125.7790433189186
125.6870906476402
126.9561090731814
126.8244210801306
126.058462172
126.1934967439844
127.3288229236909
123.5281534238635
126.1671828813415
126.4983404484449
127.6860169466701
124.2456235126751
122.108295340979
114.75669946194
91.39749823948883
126.7559784151927
126.07865923042
123.6277193364784
103.0544612627204
126.8788084195113
126.5719253603145
125.6213910520005
114.5516887353395
127.8217646331576
127.9750085391538
130.2232751920922
135.1198619729627
56.96797656804699
78.6097389443626
79.97507993586638
79.99985313494423
56.59418020728955
78.51080718252882
79.97162395352454
79.99978518711748
59.97881931850777
78.62845477879961
79.96788755041737
79.99969848880754
64.31701177098485
78.66973968825137
79.95484847395144
79.99940349130225
79.99892579323061
79.92033425975025
78.43797089571363
69.8996383941608
79.99891748138454
79.92296960217453
78.49202040360827
68.87524426669859
79.99893283231978
79.92800206176834
78.50454534038757
67.69754893627143
79.99896231861533
79.93564643936911
78.64542926537213
67.73264771248313
79.99940348966524
79.99969848721997
79.99978518374034
79.99985313174936
79.95484847470526
79.96788755052168
79.97162395331642
79.97507993515055
78.66973968771444
78.62845477709253
78.51080718317122
78.60973894408912
64.3170117704379
59.97881931742364
56.59418020693891
56.96797656861246
)
;

boundaryField
{
    back
    {
        type            empty;
    }
    inlet
    {
        type            zeroGradient;
    }
    front
    {
        type            empty;
    }
    top
    {
        type            zeroGradient;
    }
    outlet
    {
        type            fixedValue;
        value           uniform 80;
    }
    bottom
    {
        type            zeroGradient;
    }
    wall
    {
        type            zeroGradient;
    }
}


// ************************************************************************* //
