/*--------------------------------*- C++ -*----------------------------------*\
  =========                 |
  \\      /  F ield         | OpenFOAM: The Open Source CFD Toolbox
   \\    /   O peration     | Website:  https://openfoam.org
    \\  /    A nd           | Version:  11
     \\/     M anipulation  |
\*---------------------------------------------------------------------------*/
FoamFile
{
    format      ascii;
    class       volScalarField;
    location    "0.295";
    object      p;
}
// * * * * * * * * * * * * * * * * * * * * * * * * * * * * * * * * * * * * * //

dimensions      [0 2 -2 0 0 0 0];

internalField   nonuniform List<scalar> 
880
(
79.99999999999999
80.00000005577273
80.00465769373002
81.19481861668494
80.00000000000119
80.00000007376249
80.00735265809107
81.88313828196475
80.00000000000601
80.00000027102567
80.0154505575253
82.76568800494236
80.00000000192496
80.00000141224875
80.03584071660323
84.13232271811491
79.99999996618081
79.99999997075112
80.00000124365617
80.00008938810615
80.00001187561121
80.00002295849529
80.00061011905801
80.00073456054611
80.08692530794295
80.1499607059221
80.26210321077293
80.30499017364374
86.87462639005868
89.7626359442849
92.17699855541527
93.24364300570696
80.00013812918199
80.00109894837234
80.00241644118091
80.01123611439957
80.0087758061571
80.02802133007341
80.05847970607016
80.11580741716894
80.90474950561682
81.41975605672067
82.01582046037447
82.81984427393232
94.42257483380176
96.21842358734187
96.72619077204421
96.53258614194763
90.4658958890039
87.43033391063442
86.24335989580356
85.12793346025987
84.56792893833817
85.18358428286355
85.62036037054094
85.71556487646036
80.37899270954031
80.66490161523413
80.99834921146496
81.29827588763067
80.04021525189275
80.10546502649721
80.2104470908416
80.34880759080399
80.49509641387002
80.63564767050822
80.72834266058153
80.74696502651618
81.50970250727335
81.65752109348027
81.75403297230062
81.78523750962587
85.59187145701554
85.31190965748345
84.88986386315402
84.56516708557551
84.33815488345134
83.77404539867308
83.12140160125443
83.18870599058583
82.83470897727541
84.16796577878866
81.84379800734972
80.72356640329991
84.58047324282857
83.76658885449524
81.80013497540588
80.64122094068588
98.58224887098875
84.2919160648978
81.47645571418018
80.47775036423253
138.2030533994098
88.01431166256697
81.53719351074908
80.37994069372573
80.16206701205557
81.63876568753055
94.59011646497937
166.1615996898037
80.12985188052799
81.91497438373499
101.3911530443012
168.3051387978378
80.21144773555598
82.86178143771036
111.5167893912745
173.5826664775912
80.47426412569615
84.87598982355087
122.2114616278578
174.3410501978295
171.9841626429125
133.8270048988732
88.7613521535108
81.04567244727102
166.8279988795908
142.3044768651351
94.89759805691202
82.17869832072248
158.9295463398037
143.9096605195621
102.2236409907949
84.03131895884934
149.6298167650664
142.2941636157099
108.5702041162596
86.87753783339308
90.58586713790699
110.3361526250623
131.2201089260511
138.7814932218615
91.16314592051552
104.077947329485
117.6667258083119
125.1334535241856
90.44495470174712
98.10973140517386
104.7749508912303
108.8988657772156
89.06212423022932
92.49894249396435
92.43132403859525
90.85248475026688
88.22800213460562
88.11227141734369
83.17650863655533
69.12563436084888
86.05761039543943
84.00260234045805
75.93336466735624
44.60557711889602
84.17814564472215
81.81856950826592
72.03708330130732
26.70704076096746
82.69882756666533
81.21955551107136
69.57109205402307
21.25643350089381
29.89351999699078
68.91591874115264
80.33520746503008
81.44528529361067
32.53144803561739
68.2987820060775
79.64848669298298
80.65391372287164
32.73650843149694
67.31949012136907
79.15356950459095
80.20006339650355
30.31049235055907
66.26126720799672
78.63361003223686
80.00694962697439
34.9983508579237
67.45824212511307
78.08349640838141
79.83474419861976
40.81451189577381
69.24733528216284
78.02446165095554
79.83156313337589
46.15414771558408
71.35287145420006
78.402831832902
79.89976470963364
52.01000910971752
72.75667098833314
78.8907703187727
79.94499523317606
42.76548582554778
65.04309633629731
77.50987104789456
79.85120194775142
43.77192412115971
65.55256419884753
77.42156701247293
79.84268157656341
45.41046589041105
66.25840419095182
77.34825308647181
79.83274826022219
48.44099926910038
67.59244922455653
77.34621009760673
79.82680189881535
52.01000910966116
72.75667098826476
78.89077031884469
79.94499523280113
46.15414771555715
71.35287145399985
78.40283183279413
79.89976470924078
40.81451189574584
69.24733528195682
78.0244616506773
79.83156313301154
34.99835085794817
67.45824212484884
78.08349640827528
79.83474419854436
81.44528529354245
80.33520746509511
68.91591874123532
29.89351999682007
80.65391372280332
79.64848669296612
68.29878200602691
32.53144803545555
80.20006339662868
79.15356950458249
67.31949012096736
32.73650843137878
80.00694962704125
78.63361003239793
66.26126720772002
30.31049235056477
21.25643350078611
69.57109205404498
81.21955551101989
82.69882756652146
26.70704076087126
72.03708330131873
81.81856950836989
84.17814564452044
44.60557711884348
75.93336466744293
84.00260234059728
86.05761039546391
69.12563436097179
83.17650863658432
88.11227141712664
88.22800213474589
90.58586713808326
110.3361526257263
131.2201089265625
138.781493221838
91.16314592041014
104.0779473296956
117.6667258085355
125.1334535243453
90.44495470132094
98.10973140557304
104.7749508914097
108.8988657773512
89.06212423020945
92.49894249385039
92.43132403871633
90.85248475049549
149.6298167649957
142.2941636157324
108.570204116343
86.87753783415221
158.9295463397094
143.9096605196584
102.2236409909217
84.03131895889679
166.8279988794259
142.304476865268
94.89759805684719
82.1786983209148
171.9841626427471
133.8270048990287
88.76135215396354
81.04567244736256
80.16206701210616
81.63876568754357
94.59011646485575
166.1615996895033
80.12985188097558
81.91497438402185
101.3911530443527
168.30513879738
80.21144773618252
82.86178143837965
111.5167893915527
173.5826664774956
80.47426412592982
84.87598982302252
122.2114616276633
174.3410501978084
80.37994069366023
80.47775036419553
80.64122094092082
80.72356640334002
81.53719351025123
81.47645571402916
81.80013497531787
81.84379800728239
88.01431166228788
84.29191606487397
83.76658885421999
84.16796577867416
138.2030533990112
98.58224887086079
84.58047324287566
82.83470897732492
80.74696502667716
81.78523750981431
84.56516708584078
83.18870599076932
80.72834266049033
81.75403297247178
84.88986386334858
83.12140160126187
80.63564767050858
81.65752109350414
85.31190965740817
83.77404539824813
80.49509641364405
81.50970250704363
85.59187145715501
84.33815488341641
80.04021525176736
80.3789927093183
84.56792893856165
90.46589588915
80.10546502615297
80.66490161506748
85.18358428325513
87.43033391070668
80.2104470909743
80.99834921125583
85.62036037051581
86.24335989529938
80.34880759061473
81.29827588743392
85.7155648767302
85.12793345989544
96.532586141875
82.81984427401498
80.11580741702363
80.0112361146398
96.72619077200304
82.01582046046414
80.05847970576487
80.00241644114048
96.21842358754215
81.41975605671463
80.02802132947802
80.00109894810664
94.42257483384387
80.90474950548929
80.0087758059589
80.00013812957472
93.24364300565126
80.30499017374996
80.00073456060839
80.00008938852464
92.17699855534556
80.26210321068847
80.0006101187376
80.00000124377762
89.76263594426082
80.14996070581633
80.00002295831636
79.99999997069322
86.87462639017834
80.08692530788913
80.00001187558104
79.99999996659746
80.00000000000006
80.0000000561576
80.00465769375373
81.19481861134291
80
80.00000007337879
80.00735265806895
81.88313827942603
80.00000000017462
80.00000027084023
80.01545055748792
82.76568800415548
80.00000000217054
80.00000141205444
80.03584071653086
84.1323227183957
82.31560992331316
83.54451252833148
85.61270605723639
90.23771693658735
83.54451252726554
85.12127604635761
88.66780369624666
95.76261096709597
85.61270605734509
88.66780369480485
94.6226782760754
103.7996542370994
90.23771693606157
95.76261096683935
103.7996542385292
114.3302210664321
125.534211281907
116.2709958146044
112.1296148369191
103.8449867129237
123.5485695970328
120.85761291114
120.8113534496326
116.5580306365113
123.90761306374
123.0369354951144
122.5972486143616
121.022454403998
121.7205070531421
121.3137543458038
121.1825030486601
120.2105195231005
117.8116046140647
116.8470505939056
113.7253599620972
109.7065686558161
118.2155299671686
116.8847835701525
113.8755458249938
110.0826812643408
118.4328442007753
117.1158985336868
114.0139518004412
110.4766823873719
118.6666537414122
117.016799786478
114.0543285186194
108.4395010056712
83.43469614315751
72.86682312972944
71.96593013618872
72.60976670469827
76.32135330916772
69.99627036087088
71.14533513100051
72.04209474080024
70.38985712754523
69.86478322895132
71.70547812809184
72.59429651822504
61.03058306562862
67.55111557872057
70.78977938125763
71.82802612686184
73.21940279349378
73.91596879507266
74.5898320185597
75.71707141893494
72.74972838223783
73.57027804760908
74.40134457838023
75.63782312975944
73.12473088172884
73.8245506578441
74.69927365667789
75.63186411420435
72.49922579429445
73.36931198383859
74.41815819433218
75.69957768604782
77.04821626970389
95.16239932219122
137.9436280809747
174.5988490808992
77.3578757141063
101.6273401780633
143.3211670128871
164.9322487018387
77.68732578261118
104.0651453108461
144.8461890599474
162.7018405504644
78.02230058307045
107.9139602158941
148.1090912218712
160.766050725225
215.6835304799396
204.9186982527194
201.3116453787922
199.4069375335828
216.3059405287296
207.4645964045546
201.2680871176355
200.6780755155908
215.6090059027765
209.3817798838917
202.0008785723308
201.5768565198676
211.1027311905321
211.7487211803786
202.4589321558912
202.0476841940822
191.169454191216
179.6659859658273
168.0809147400326
155.3992174628618
192.8279884470607
181.0965099648193
169.7153685979268
156.0884844882453
194.1578284008662
182.6375645510368
171.1188531228094
157.0654905313075
195.5796905635794
184.4334178782016
174.4461538219531
159.1264082966435
145.1095966088397
134.917141466323
123.054306524053
105.9976794550806
145.3362833429213
135.7179809709518
124.0917201993862
113.9659827601018
145.8905193545182
136.0020343114939
124.9784011675897
118.2949087467811
147.3200820707047
138.3962451583378
127.5609795151151
131.5676167873877
64.92852788105087
15.9869238475769
3.197208811672313
1.763493672513803
49.41883681722089
10.20829878721671
2.964372623432165
2.358497871933922
34.11354264925107
6.747156475763628
3.025285413792925
2.738541857818213
19.15160030820567
3.622908747599017
2.923663049317719
3.046632129572729
4.063025274515835
6.749702421467009
9.2342506919041
13.26729558088415
4.683472948586672
7.463782210134408
10.23755077689945
14.17702707699569
5.105432383274285
7.703078421017389
10.71183803564993
14.72392932094309
5.56289666999971
8.356847472487084
12.00226952794596
15.60790324743215
16.4320060482093
23.19064999085451
28.9550503046369
35.8552148804039
15.90265632391861
22.07890388632716
28.60910691643396
35.56787216720037
15.35681197781987
21.04867018096603
27.01895456465973
36.1075974007967
14.23286194013938
18.63848365375621
23.52606240144188
37.68560433072142
37.78697288553902
37.06940579354179
35.61869107420619
33.5013987347866
32.69734611863006
33.94791903254664
33.75198150443551
32.82364112896858
28.25172333518606
31.86393519860896
32.05465783735023
31.32724009861225
22.47860315240104
26.37436583428638
28.22464532927538
29.62883051640552
30.76679258412659
31.53205653298516
32.13278870111993
32.42110505831236
31.57192186618661
31.97748436918547
32.54001371067115
32.99344801063526
32.90944576799298
33.53034026472965
34.2573467091179
34.68795330369201
32.99938230162092
33.84064055821697
34.95205724094438
35.66264753512681
32.42110505831544
32.99344801064122
34.6879533036958
35.66264753513543
32.1327887011269
32.54001371068262
34.25734670912322
34.9520572409616
31.53205653299949
31.97748436920111
33.53034026473311
33.84064055822954
30.76679258414667
31.5719218661982
32.90944576798881
32.99938230162143
33.50139873476913
35.61869107420199
37.06940579354787
37.78697288550542
32.82364112896907
33.75198150443841
33.94791903255238
32.69734611861299
31.32724009862624
32.05465783736481
31.86393519861956
28.25172333518155
29.62883051643059
28.22464532930236
26.37436583431626
22.47860315241494
37.68560433073921
23.52606240151453
18.63848365384099
14.23286194023476
36.10759740078719
27.01895456471093
21.04867018104096
15.35681197790958
35.56787216718275
28.60910691647542
22.0789038863944
15.902656324018
35.85521488037163
28.95505030464263
23.19064999091191
16.43200604830368
13.26729558096594
9.234250691953694
6.74970242146579
4.063025274498871
14.17702707708801
10.23755077696341
7.463782210162016
4.683472948587226
14.72392932103339
10.71183803571737
7.703078421053115
5.105432383278422
15.60790324752566
12.00226952802718
8.35684747253784
5.562896670015619
1.763493672512474
3.197208811630146
15.98692384749737
64.92852788111203
2.358497871934363
2.964372623422868
10.20829878720462
49.41883681722545
2.738541857818209
3.025285413781847
6.747156475774675
34.1135426492857
3.046632129575778
2.923663049311024
3.622908747610023
19.15160030823596
105.9976794552472
123.0543065240839
134.9171414663735
145.1095966088458
113.9659827602733
124.0917201994149
135.7179809710185
145.3362833430405
118.2949087469261
124.9784011676584
136.0020343115789
145.8905193546608
131.5676167875354
127.5609795152282
138.3962451585163
147.3200820709043
155.3992174628429
168.08091473997
179.6659859657139
191.1694541912459
156.0884844884998
169.7153685980684
181.0965099647343
192.827988447065
157.0654905315632
171.1188531230172
182.637564551023
194.157828400858
159.1264082967906
174.4461538218479
184.433417878144
195.5796905635962
199.4069375336215
201.3116453790129
204.91869825229
215.6835304795126
200.6780755156727
201.2680871178898
207.4645964040759
216.3059405283051
201.5768565200172
202.0008785724983
209.3817798833885
215.6090059023737
202.0476841942461
202.4589321559761
211.7487211798744
211.1027311901554
174.5988490805695
137.9436280807129
95.16239932221195
77.04821626991674
164.9322487015678
143.3211670126376
101.6273401780799
77.35787571430753
162.7018405501709
144.8461890597145
104.0651453108552
77.68732578277847
160.7660507249365
148.109091221625
107.9139602158733
78.02230058321832
75.71707141913618
74.58983201846475
73.91596879464321
73.21940279341618
75.63782312993857
74.40134457826262
73.57027804719307
72.74972838216895
75.6318641143345
74.69927365652721
73.82455065748964
73.12473088165179
75.69957768618123
74.41815819415899
73.36931198347862
72.49922579425089
72.60976670432272
71.96593013582172
72.86682312983395
83.43469614332692
72.04209474035574
71.14533513063679
69.99627036102417
76.32135330929533
72.59429651775768
71.70547812775243
69.86478322913568
70.38985712764075
71.82802612636996
70.78977938085772
67.55111557888033
61.03058306567357
109.7065686558389
113.7253599622325
116.8470505943257
117.8116046142712
110.0826812643401
113.8755458251195
116.8847835705673
118.2155299673861
110.4766823873645
114.0139518006416
117.1158985340908
118.4328442009456
108.4395010057531
114.0543285189183
117.0167997869168
118.666653741585
120.2105195228761
121.0224544037991
116.5580306363709
103.8449867132263
121.1825030484661
122.5972486141614
120.8113534493195
112.1296148368492
121.3137543456015
123.0369354949041
120.8576129107727
116.270995814082
121.7205070529363
123.9076130635383
123.5485695966248
125.5342112810444
57.10144722910665
72.51358871991809
78.76052451873412
79.94062809481352
56.42553430564814
71.08942694026152
78.32612421056854
79.90740265885628
55.3311515734434
70.07039622408847
77.93958121361602
79.86946396751519
52.00750163774197
68.80538937206688
77.59477112994745
79.84079459204767
79.85120194782196
77.50987104805702
65.04309633629772
42.76548582553067
79.8426815765373
77.42156701263073
65.55256419878943
43.77192412114784
79.83274826023901
77.34825308639364
66.25840419088077
45.41046589039956
79.82680189887117
77.34621009744752
67.59244922452298
48.44099926907588
79.84079459195004
79.86946396735745
79.90740265885533
79.94062809459552
77.59477112971649
77.93958121351343
78.32612421041679
78.76052451872137
68.80538937205523
70.07039622409515
71.08942694038389
72.51358871999241
52.00750163767217
55.33115157338825
56.42553430562096
57.10144722906932
)
;

boundaryField
{
    back
    {
        type            empty;
    }
    inlet
    {
        type            zeroGradient;
    }
    front
    {
        type            empty;
    }
    top
    {
        type            zeroGradient;
    }
    outlet
    {
        type            fixedValue;
        value           uniform 80;
    }
    bottom
    {
        type            zeroGradient;
    }
    wall
    {
        type            zeroGradient;
    }
}


// ************************************************************************* //
