/*--------------------------------*- C++ -*----------------------------------*\
  =========                 |
  \\      /  F ield         | OpenFOAM: The Open Source CFD Toolbox
   \\    /   O peration     | Website:  https://openfoam.org
    \\  /    A nd           | Version:  11
     \\/     M anipulation  |
\*---------------------------------------------------------------------------*/
FoamFile
{
    format      ascii;
    class       volScalarField;
    location    "0.2525";
    object      Ma;
}
// * * * * * * * * * * * * * * * * * * * * * * * * * * * * * * * * * * * * * //

dimensions      [0 0 0 0 0 0 0];

internalField   nonuniform List<scalar> 
880
(
1.11801663592382
1.118016635854602
1.118002099709411
1.112554333542794
1.11801663592382
1.118016635321575
1.117987256210951
1.109585175143304
1.118016635923705
1.118016635633597
1.117939983806028
1.105122476150028
1.118016635920279
1.118016637326181
1.117800173561634
1.089652386206924
1.118016635991577
1.118016635826754
1.118016635085619
1.11801630608385
1.118016676986912
1.118016186108299
1.118013120199859
1.118019800536871
1.117350314977221
1.116763070013144
1.115945415305015
1.116300146909797
1.055582522649211
1.022454713573922
1.004914376246777
0.999965905069263
1.118016134661038
1.118012823282726
1.118007739966101
1.117976606279519
1.117950572171053
1.11782945921501
1.117602002711652
1.117310472979887
1.110962499075197
1.10631327839268
1.100896740768328
1.09616015905583
0.9959857240658683
0.9889494275302163
0.9885125570217305
1.004382933515212
1.058137372373739
1.08753456057231
1.099425057736119
1.109103186489405
1.084368564765602
1.084874613283562
1.088845913521319
1.095403290100757
1.11552778037807
1.113456252421249
1.111627509425129
1.110618687317144
1.117834527288123
1.117565560183583
1.117171075018951
1.116753632987885
1.116361794190328
1.11594010027914
1.11570023430815
1.115642288561572
1.111099434355179
1.112978765857647
1.115714851241514
1.118662228540896
1.103458573886027
1.111230046367142
1.118649243597172
1.124615959723146
1.1177149194408
1.124933539413096
1.131447749140381
1.135515723194948
1.140591319283297
1.129270500449857
1.120410404524413
1.115767036789143
1.14317777561546
1.132020231545573
1.121619436294013
1.116018847854847
1.078824831121731
1.13082477580256
1.122777673304135
1.116478033574533
0.8211214624797685
1.107613422512121
1.122506577798845
1.116900306531236
1.117251194886075
1.119936767559946
1.060856623893957
0.6378605331968493
1.117433275407131
1.116084527645129
1.017520010244725
0.6498715634499987
1.117327519494724
1.110105653402887
0.9602157249202663
0.6466667415931558
1.116618003425752
1.100688461781539
0.9107682303345713
0.6623897666516558
0.6843370601139253
0.8701196433714814
1.084327683654142
1.115099032905542
0.7093975317997202
0.8398031741694664
1.062310025653301
1.111849246106124
0.7398337885363516
0.8418705452560665
1.034148563705039
1.106861388228279
0.7853992981548705
0.868126479987281
1.015366156293639
1.098563265152876
1.088268819840979
1.013650766039527
0.9206463079756191
0.8478907707350816
1.084700102081214
1.053860165571802
1.00363409532881
0.9292497095328309
1.096332370939291
1.096783963444575
1.092017782770034
1.035161997655648
1.09502539880476
1.11958631035962
1.165109617678506
1.157759524505523
1.097213202270766
1.147410708473857
1.225758929579402
1.34562321903548
1.106381799537198
1.166985063663136
1.261760879808905
1.549020552411033
1.114825473999798
1.167567922680762
1.263741112373336
1.661040247053484
1.119807688231949
1.156201437100446
1.239416349472852
1.405950898289284
1.11187130341122
1.217073564149562
1.147578972294921
1.121808202215086
0.9695905201396918
1.185571347483055
1.138728416765666
1.121070725461123
0.8630753856651092
1.150287195697059
1.130107195827007
1.119399500675744
0.7232650221435182
1.102420991646026
1.121397756311076
1.118683426974196
0.7023826358474607
1.067317638433648
1.113021471415225
1.118122350130589
0.7604904936290779
1.047829340303996
1.110415598958323
1.117822371017916
0.7667033352344735
1.044911968568328
1.111245147416098
1.117869901536076
0.8453494382607022
1.067888766512697
1.114850067224579
1.117960640704223
0.835627809524397
1.048747668711953
1.110458109545937
1.117701262727375
0.8345979942951764
1.045766430836972
1.110024504095737
1.117702591959518
0.805926955546414
1.040244017140302
1.109300238639737
1.117696479983288
0.7914307687380591
1.038390729606785
1.108974150444856
1.117696010920884
0.8453494382621985
1.067888766515773
1.114850067228707
1.117960640709378
0.7667033352346121
1.044911968570812
1.111245147417312
1.117869901538813
0.760490493629244
1.047829340305696
1.110415598959522
1.117822371019694
0.7023826358463567
1.067317638436162
1.113021471415861
1.118122350131036
1.121808202213817
1.147578972293051
1.217073564148796
1.111871303410153
1.121070725461384
1.138728416764772
1.185571347482371
0.9695905201373196
1.119399500674372
1.130107195826014
1.150287195701179
0.8630753856638738
1.118683426972979
1.121397756309019
1.102420991648918
0.7232650221426586
1.405950898288416
1.239416349472051
1.156201437100278
1.119807688231541
1.661040247054794
1.263741112373317
1.167567922678905
1.11482547400165
1.549020552412484
1.261760879808622
1.166985063663005
1.106381799539439
1.345623219035794
1.225758929581139
1.147410708477089
1.097213202269603
1.088268819839923
1.013650766040464
0.9206463079726147
0.8478907707350302
1.084700102081455
1.053860165569722
1.003634095327434
0.9292497095325027
1.09633237094107
1.096783963440024
1.092017782769881
1.035161997656115
1.095025398796186
1.119586310361408
1.165109617679155
1.157759524505662
0.7853992981545669
0.8681264799864448
1.015366156294775
1.098563265144514
0.7398337885361895
0.8418705452554516
1.034148563704386
1.106861388227476
0.7093975318002638
0.8398031741688902
1.062310025656359
1.11184924610359
0.6843370601145525
0.8701196433715874
1.084327683649427
1.115099032904983
1.117251194885493
1.119936767559264
1.060856623894234
0.6378605331966724
1.117433275402396
1.116084527644842
1.017520010247527
0.6498715634534964
1.117327519489092
1.110105653393493
0.9602157249180032
0.6466667415932829
1.116618003422545
1.100688461789104
0.9107682303355258
0.6623897666508802
1.116900306531474
1.116478033575423
1.116018847852466
1.115767036788919
1.122506577804858
1.122777673305024
1.121619436295409
1.120410404524438
1.107613422515006
1.13082477580225
1.132020231548603
1.129270500451719
0.8211214624822781
1.07882483112188
1.143177775615328
1.140591319283187
1.115642288559871
1.118662228539584
1.124615959722288
1.1355157231934
1.115700234309043
1.115714851239432
1.118649243596066
1.131447749140243
1.115940100278879
1.112978765856649
1.111230046369224
1.124933539416864
1.11636179419233
1.111099434355951
1.103458573885719
1.117714919440936
1.117834527288636
1.115527780381226
1.084368564764066
1.058137372372236
1.117565560186753
1.113456252422323
1.084874613282346
1.08753456057149
1.117171075016804
1.111627509426443
1.088845913523047
1.099425057739574
1.116753632989166
1.110618687317938
1.095403290100048
1.109103186492172
1.00438293351575
1.096160159055394
1.117310472983928
1.117976606277577
0.9885125570229938
1.100896740767477
1.117602002715862
1.118007739966791
0.9889494275290677
1.10631327839178
1.117829459220688
1.118012823284248
0.995985724067101
1.110962499076064
1.117950572174079
1.118016134657521
0.9999659050711007
1.11630014691002
1.118019800537045
1.11801630608186
1.004914376247738
1.115945415306238
1.118013120203119
1.118016635085367
1.022454713574883
1.116763070014232
1.118016186109816
1.118016635827363
1.05558252264968
1.117350314978383
1.118016676988352
1.118016635989403
1.118016635923821
1.118016635853776
1.118002099708797
1.112554333441607
1.11801663592382
1.11801663532381
1.117987256210847
1.10958517511745
1.118016635922931
1.118016635634866
1.117939983806235
1.105122476145339
1.118016635919153
1.118016637328461
1.117800173562406
1.089652386206562
1.10807902714973
1.10232321143339
1.08877599722878
1.04722279982532
1.102323211468816
1.09262049479265
1.06405979326485
0.9960331130653564
1.088775997249319
1.064059793278989
1.002878551393784
0.9008687645320624
1.047222799827395
0.9960331130695899
0.9008687645340931
0.787639820352952
0.755849919621304
0.7970167498965718
0.8740841428758906
0.9470369329903737
0.8120028135429458
0.8186823071311599
0.8511534887232942
0.8995917332301357
0.8088176698406004
0.8408749169719431
0.8737163924943149
0.8995858858401742
0.8413105061114694
0.8751209260708931
0.8977362784051186
0.9115689693656062
0.929371890786556
0.9364004730584727
0.9515922816242732
0.9813182858016902
0.9221690143604225
0.9364182622013008
0.9537826710734915
1.002807751501359
0.9066803109541448
0.9287867613480343
0.9505283778912853
1.065521890092917
0.8690267516946588
0.8913569969971299
0.9195831025125805
1.152809660840421
1.161149165768981
1.196697695470911
1.163665841928834
1.153494258990596
1.277447947309666
1.294222547332022
1.237057453539079
1.203133121718599
1.433312962224911
1.353165316289509
1.281661535702758
1.234880083753084
1.171513862864206
1.095207920224001
1.076364277850524
1.068003061105299
1.149114767252972
1.146348927450237
1.144508870174018
1.143547763054123
1.181507138060662
1.16419209951415
1.151181444174332
1.143220700831936
1.201751030942345
1.174119855175974
1.152522659789708
1.137153901952514
1.054517220504242
1.045243783984133
1.036139520989183
1.02130509889471
1.146157106864477
1.096393577311181
0.8481042012917304
0.5622667448373224
1.143164915491715
1.056220388411995
0.6848460074062744
0.3731447816283415
1.133277610129876
0.9855925378567066
0.5056799133545697
0.1616646478930827
1.018836516655383
0.79548147282377
0.3228659187954327
0.02597083810420082
0.4586711797124654
0.5426932298759838
0.587838061872373
0.6298819987790473
0.3834469008188837
0.5179072125238413
0.5834241693611364
0.6279105160581152
0.2439272099475701
0.4382260050415983
0.5519213816798921
0.6075329435482889
0.08619491627430316
0.2523525737127531
0.4024227961982973
0.4913673865288718
0.6440150253942517
0.6616867349235365
0.7045772925765469
0.7569049284869597
0.6486667712152081
0.6713608584136705
0.7129781326301975
0.7609689497980742
0.6399792646280644
0.6737942119869266
0.7159266774638814
0.7638660728088817
0.5529567760341366
0.6254116099440639
0.6992386182069814
0.754539340931897
0.8383687784306161
0.9092728129386028
1.013838836030078
1.127579523963094
0.8321989297474767
0.8980543971087028
0.9952913664317502
1.137347349845461
0.8206961966417593
0.8851033100612558
1.005954903073057
1.433881409258467
0.8114480985533514
0.8762501483482648
1.03114712476129
1.988664572683383
1.354212250895543
1.558266866010243
0.6551422475028545
0.9144323843159812
1.426475390115247
1.315125598453162
0.8568488994094129
1.253415034595104
1.462492215414703
0.9506648601561656
0.905656610402648
1.257474406098722
1.127688604860246
0.3857234074531551
1.030102344567506
1.22133423659526
0.6307591124709793
0.462277296229359
0.3434235915410823
0.2860418882564706
0.9238775964272747
0.6761758541753491
0.4851213771207294
0.2728620696507895
1.008892663208225
0.764799703616065
0.525346685016117
0.2185533600737468
0.9920501477233459
0.7597271105381934
0.5094090439688672
0.1948808684272157
0.05511749862935412
0.3228083027400036
0.4922796549834456
0.7053122210963479
0.1158707161203375
0.1514726672315922
0.3935184386045921
0.6566507548513577
0.1681817531379002
0.08417078646847348
0.2618240710777406
0.5617689462506916
0.1709227506239005
0.08355854690735681
0.1815967823109734
0.5450786723076341
0.7132642523839416
0.6779255645975638
0.6160343240196441
0.5439059004691782
0.8229666593808191
0.7867375315582316
0.674042574549362
0.5704601866512435
0.8495023498262142
0.7829462000985872
0.5560973050881757
0.3504680550787162
0.8218348430110023
0.5838145828800497
0.2830995273506888
0.09552739125445968
0.05721261800461146
0.07519169400547204
0.0778458166101051
0.07375934870021839
0.1633971910911427
0.1030112640668364
0.08758777677766426
0.08150013464366494
0.4474058305728857
0.332047616028963
0.2066452938798
0.09009443599718304
0.4773255176553242
0.4131571024992027
0.3396154282428359
0.2863767778772442
0.07375934870019484
0.08150013464348776
0.09009443599592969
0.2863767778764953
0.07784581661022051
0.08758777677695244
0.2066452938788332
0.3396154282427665
0.07519169400540021
0.1030112640660669
0.3320476160284668
0.4131571025001468
0.05721261800466755
0.1633971910911232
0.4474058305732223
0.477325517655951
0.543905900469175
0.6160343240193225
0.6779255645977603
0.7132642523844442
0.5704601866514309
0.6740425745492847
0.7867375315583592
0.8229666593809335
0.3504680550788941
0.5560973050882002
0.7829462000981297
0.8495023498259289
0.09552739125449972
0.2830995273503105
0.5838145828794549
0.8218348430107
0.5450786723075225
0.1815967823110486
0.08355854690644245
0.1709227506218727
0.5617689462505109
0.2618240710772497
0.08417078646796974
0.168181753136143
0.6566507548511838
0.3935184386036095
0.1514726672306435
0.11587071611958
0.7053122210962582
0.492279654982516
0.3228083027380637
0.05511749862645526
0.2860418882550039
0.3434235915414163
0.4622772962342648
0.6307591124776677
0.2728620696483741
0.4851213771196879
0.6761758541776589
0.9238775964317216
0.2185533600718459
0.5253466850140504
0.7647997036165084
1.008892663210836
0.1948808684257981
0.5094090439667618
0.7597271105377247
0.9920501477250488
0.9144323843245235
0.6551422475017322
1.558266866007471
1.354212250895241
1.253415034600302
0.8568488994168514
1.315125598450513
1.42647539011445
1.257474406102556
0.9056566104102476
0.9506648601533675
1.462492215414656
1.221334236598822
1.030102344574033
0.3857234074524464
1.127688604860341
1.127579523963326
1.013838836030024
0.9092728129381752
0.8383687784317605
1.137347349845402
0.995291366431542
0.8980543971085037
0.832198929748113
1.43388140925807
1.005954903072575
0.8851033100608726
0.8206961966417223
1.988664572682781
1.031147124760691
0.8762501483477554
0.8114480985526171
0.7569049284877664
0.704577292576786
0.6616867349242608
0.6440150253952983
0.7609689497986032
0.7129781326297251
0.6713608584135539
0.6486667712154935
0.7638660728086644
0.7159266774628518
0.6737942119861527
0.6399792646275494
0.754539340930937
0.6992386182054398
0.6254116099407678
0.5529567760296141
0.6298819987802228
0.5878380618747664
0.54269322987611
0.4586711797132079
0.6279105160596716
0.5834241693631559
0.5179072125239153
0.3834469008199332
0.6075329435493521
0.5519213816820343
0.4382260050419536
0.2439272099487419
0.4913673865294189
0.402422796200018
0.2523525737132794
0.08619491627495572
0.5622667448392856
0.8481042012927892
1.096393577310709
1.146157106864057
0.3731447816304798
0.6848460074078608
1.056220388412319
1.143164915490919
0.1616646478947545
0.5056799133562802
0.9855925378572895
1.133277610128643
0.02597083810452471
0.322865918796456
0.7954814728236402
1.01883651665301
1.14354776305207
1.144508870173932
1.146348927453369
1.14911476725318
1.143220700829544
1.151181444174755
1.164192099517005
1.181507138061197
1.137153901949882
1.152522659790378
1.174119855178874
1.201751030942939
1.021305098891561
1.036139520989649
1.045243783986347
1.0545172205042
1.153494258993843
1.16366584193236
1.196697695470059
1.161149165767661
1.203133121722243
1.237057453542446
1.294222547331146
1.277447947308235
1.234880083756925
1.281661535705676
1.353165316288178
1.4333129622235
1.068003061108895
1.07636427785335
1.095207920221663
1.171513862863053
0.9813182858020421
0.9515922816247723
0.9364004730569931
0.9293718907866412
1.002807751501676
0.9537826710732127
0.9364182621998727
0.9221690143603345
1.065521890093345
0.9505283778905712
0.9287867613466748
0.9066803109537237
1.152809660841304
0.9195831025134784
0.8913569969978373
0.8690267516971637
0.9115689693672805
0.8995858858403762
0.8995917332310417
0.9470369329905097
0.8977362784058928
0.8737163924940435
0.8511534887240814
0.8740841428756483
0.8751209260713405
0.8408749169720772
0.8186823071314424
0.7970167498968621
0.8413105061154816
0.8088176698443776
0.8120028135429479
0.7558499196223817
0.8284368651602543
1.056854037238143
1.112824870777245
1.117902761888997
0.8224849875864557
1.047624590379701
1.110907799392748
1.117806588477252
0.8188357953100086
1.0457671604375
1.109816590207429
1.117737912652135
0.7921904895897492
1.040621682084541
1.109117026293305
1.117707374936169
1.117701262725838
1.110458109544964
1.048747668711564
0.8356278095233104
1.117702591959236
1.110024504094754
1.045766430836614
0.8345979942951612
1.117696479983099
1.109300238642324
1.040244017139256
0.8059269555487777
1.117696010921142
1.108974150447271
1.038390729606316
0.7914307687391074
1.117707374937394
1.117737912650794
1.117806588476937
1.117902761892174
1.109117026295613
1.109816590207451
1.110907799392371
1.112824870778722
1.040621682085086
1.045767160438269
1.047624590380883
1.056854037239856
0.7921904895893851
0.8188357953094031
0.822484987586073
0.8284368651607921
)
;

boundaryField
{
    back
    {
        type            empty;
    }
    inlet
    {
        type            calculated;
        value           nonuniform List<scalar> 
16
(
1.11801663592382
1.11801663592382
1.118016635923714
1.118016635922174
1.118016635953953
1.118016635916421
1.118016636906796
1.11801656740796
1.118016567407264
1.118016636906713
1.118016635916374
1.118016635953747
1.11801663592382
1.11801663592382
1.118016635923595
1.118016635921991
)
;
    }
    front
    {
        type            empty;
    }
    top
    {
        type            calculated;
        value           uniform 0;
    }
    outlet
    {
        type            calculated;
        value           nonuniform List<scalar> 
16
(
1.117587562302743
1.117597784684735
1.117599085536448
1.117601571940435
1.117867717295803
1.117747348096247
1.117658276921953
1.11761721023406
1.117587562300823
1.11759778468437
1.117599085536555
1.117601571940779
1.117617210235103
1.117658276920298
1.117747348096188
1.117867717299138
)
;
    }
    bottom
    {
        type            calculated;
        value           uniform 0;
    }
    wall
    {
        type            calculated;
        value           uniform 0;
    }
}


// ************************************************************************* //
