/*--------------------------------*- C++ -*----------------------------------*\
  =========                 |
  \\      /  F ield         | OpenFOAM: The Open Source CFD Toolbox
   \\    /   O peration     | Website:  https://openfoam.org
    \\  /    A nd           | Version:  11
     \\/     M anipulation  |
\*---------------------------------------------------------------------------*/
FoamFile
{
    format      ascii;
    class       volScalarField;
    location    "0.2525";
    object      rho;
}
// * * * * * * * * * * * * * * * * * * * * * * * * * * * * * * * * * * * * * //

dimensions      [0 0 0 0 0 0 0];

internalField   nonuniform List<scalar> 
880
(
0.2239950333699092
0.2239950334537836
0.2239991241012938
0.2255010153719422
0.2239950333699093
0.2239950334106096
0.2240024572040297
0.2265214871972511
0.2239950333699116
0.2239950334866348
0.2240125498738922
0.228061167344546
0.2239950333715293
0.2239950339956065
0.2240397742446567
0.2305059694317063
0.2239950333400285
0.223995033336011
0.2239950331390791
0.2239951214237653
0.2239950377851435
0.2239950766401682
0.2239958861901264
0.223995555371785
0.2241109029579814
0.2242018745985462
0.2243717608501211
0.2243692505179014
0.2354288363690858
0.2403191532457073
0.24418256021666
0.2457717882625672
0.2239952341817826
0.2239963385931417
0.223997461645144
0.2240075137507227
0.2240062051241427
0.2240269447798634
0.2240641964174213
0.2241219668880273
0.2252928461646874
0.2261166527549004
0.2269758173557922
0.2281751616782298
0.2478732967667023
0.2510869926498046
0.2523869886183707
0.2526643259632581
0.2421261500901992
0.2367607888368078
0.2347735846835214
0.2329330648533715
0.2311244436329569
0.2321291005718582
0.2328824844125755
0.2331293844497872
0.2244545665920795
0.2248258494299238
0.2252488904644596
0.2256748236711929
0.2240405415553932
0.2241179321785097
0.2242393944775534
0.2243964227376065
0.2245502695604721
0.2246485709577782
0.2246759138695281
0.2246314971261154
0.2260093131506926
0.2262406581610447
0.2264344149174708
0.2265647008698638
0.233010404148502
0.2326265049072432
0.2322801283328254
0.2318026955048298
0.2316277327712329
0.2308087863016283
0.2305864444761747
0.230272216461156
0.2302970941880616
0.2314531856924195
0.2264631885702009
0.2245284873273301
0.2325432092925565
0.2309157433931647
0.2262008371261139
0.2244102291458637
0.2475620420478058
0.230973982540453
0.225696783775303
0.2242506728941637
0.3035198313978082
0.2349002174690043
0.2254642001167474
0.2241160878936189
0.2240419733453702
0.2252755419505694
0.2427936979720952
0.3568279905614725
0.2240476536015974
0.2252696054011609
0.25046235530311
0.3613710344639172
0.2241330854522202
0.2260437248682148
0.2625642278341398
0.3704132938813903
0.2243540685232164
0.2279359618171897
0.2761977937308915
0.3723319348565422
0.37181838350191
0.2929314234362717
0.2315572616565391
0.2248113894990899
0.3679475640663979
0.3092179231108624
0.2376271462266403
0.2257197458684489
0.3605259932624549
0.3216664290209769
0.2458250409561667
0.2272305874342706
0.3480759866746002
0.3249502350082765
0.2555013382403749
0.2296508479615691
0.2330239493645146
0.2622790300220643
0.3164833339885177
0.3289864366153871
0.2346322845919816
0.2562800428064727
0.2930832321096892
0.3054275024926282
0.2343298214550001
0.2488617901972905
0.27087914579803
0.2773156897011887
0.2322696803800389
0.2409138196656556
0.2506219024808983
0.2450076323342578
0.2320950502678041
0.236048391150013
0.2331811101905368
0.1996518424835633
0.229760072481225
0.2300813792470406
0.2200839830861939
0.1405894328172729
0.2275749109669189
0.2270832116046278
0.2114908397257693
0.09997583254129301
0.2260188175303216
0.2253175389900304
0.2035552898414613
0.09029102888519207
0.09447050068200476
0.1990507821463623
0.2235991322908825
0.2247459935784775
0.09176743843114028
0.1953421320275732
0.2228956225809422
0.2240624272720141
0.09278949199149193
0.193324709190102
0.2220461662588944
0.2239308731283649
0.08953480028502513
0.1902904982006894
0.2209524682157965
0.2238653295481045
0.1060033170225979
0.1944987232623312
0.2204433056490905
0.2238352909817609
0.1249643138681144
0.2004304194693433
0.2211241665417258
0.2238882796975897
0.1406900234143573
0.2048628651691075
0.2219050297911556
0.2239334152697673
0.1560033413109944
0.209367579909649
0.2228824822795217
0.2239670701575489
0.1372389285139693
0.20372760719757
0.221876471586639
0.2239069097371196
0.141492894548036
0.2032708361767642
0.2217142756303631
0.2239048806695864
0.1490490137866174
0.2029045023551389
0.2215099814505068
0.2239015679534334
0.1572868315557762
0.2027694326445111
0.2213850046453501
0.2239008308573358
0.1560033413107982
0.209367579909405
0.2228824822794966
0.2239670701566918
0.1406900234141863
0.2048628651687228
0.2219050297908157
0.2239334152690689
0.1249643138679579
0.2004304194690425
0.2211241665413153
0.2238882796970556
0.1060033170226823
0.194498723261929
0.2204433056490308
0.2238352909816323
0.2247459935787761
0.2235991322908949
0.1990507821462605
0.09447050068151223
0.2240624272721014
0.2228956225808885
0.1953421320273999
0.09176743843079908
0.2239308731287696
0.2220461662589035
0.1933247091892286
0.09278949199125278
0.2238653295483888
0.2209524682162665
0.1902904982002738
0.08953480028507013
0.09029102888480331
0.2035552898413128
0.2253175389897309
0.226018817530332
0.09997583254101125
0.2114908397257605
0.2270832116046309
0.2275749109664015
0.1405894328170188
0.2200839830862774
0.2300813792471774
0.2297600724807527
0.1996518424836586
0.2331811101903992
0.2360483911493488
0.2320950502677825
0.2330239493645012
0.2622790300246506
0.3164833339902038
0.3289864366153687
0.2346322845917044
0.2562800428062397
0.2930832321102538
0.305427502492943
0.2343298214547623
0.2488617901978053
0.2708791457981663
0.2773156897013798
0.2322696803801034
0.2409138196652238
0.2506219024810467
0.2450076323344898
0.3480759866743935
0.3249502350084525
0.2555013382410408
0.2296508479629813
0.3605259932623494
0.3216664290210403
0.2458250409564743
0.2272305874343486
0.3679475640662664
0.3092179231106781
0.2376271462256371
0.2257197458690217
0.3718183835017072
0.2929314234369263
0.2315572616580592
0.224811389499227
0.2240419733455116
0.2252755419504332
0.2427936979717671
0.3568279905606487
0.2240476536024563
0.2252696054020359
0.2504623553034661
0.3613710344637129
0.2241330854534649
0.2260437248685989
0.2625642278336777
0.370413293881143
0.2243540685237268
0.2279359618165284
0.2761977937306564
0.3723319348558408
0.2241160878935974
0.2242506728941586
0.2244102291463544
0.224528487327354
0.2254642001158393
0.2256967837749814
0.2262008371259822
0.2264631885699747
0.2349002174685561
0.2309739825404758
0.2309157433927083
0.2314531856921198
0.3035198313972754
0.2475620420478117
0.232543209292575
0.2302970941880856
0.2246314971263557
0.2265647008703166
0.2318026955053345
0.2302722164613976
0.2246759138693012
0.226434414917849
0.2322801283332263
0.2305864444761765
0.2246485709577286
0.226240658161147
0.2326265049071462
0.230808786300833
0.2245502695600586
0.2260093131503317
0.2330104041486918
0.2316277327710916
0.2240405415553205
0.2244545665913365
0.2311244436333004
0.2421261500904065
0.2241179321778946
0.2248258494296093
0.2321291005723915
0.2367607888367649
0.224239394477815
0.2252488904638962
0.2328824844123698
0.2347735846827702
0.2243964227372984
0.22567482367085
0.2331293844501139
0.2329330648527689
0.2526643259629689
0.2281751616783163
0.2241219668875545
0.2240075137512413
0.2523869886182032
0.2269758173560539
0.2240641964166869
0.2239974616451209
0.2510869926500925
0.2261166527550406
0.2240269447787834
0.2239963385927296
0.2478732967666879
0.2252928461644922
0.2240062051238428
0.2239952341825558
0.2457717882624281
0.2243692505180949
0.2239955553719302
0.2239951214244907
0.2441825602165118
0.2243717608499203
0.223995886189572
0.2239950331392048
0.2403191532455482
0.2242018745983451
0.2239950766398305
0.2239950333359033
0.235428836368927
0.2241109029577534
0.2239950377849758
0.2239950333408414
0.2239950333699092
0.2239950334540978
0.2239991241014249
0.2255010153675763
0.2239950333699093
0.223995033410108
0.2240024572039748
0.226521487197107
0.2239950333700648
0.2239950334863218
0.2240125498737737
0.2280611673443853
0.2239950333717961
0.2239950339951528
0.2240397742444623
0.2305059694314834
0.2270039634677908
0.2289361674932401
0.2323004158206503
0.2405244279661164
0.2289361674935432
0.2314542330495261
0.2377074271366318
0.2505446850270592
0.2323004158209761
0.2377074271364028
0.24867297000833
0.26526429433781
0.2405244279659605
0.2505446850269433
0.2652642943382756
0.2839401902910313
0.302715412419773
0.2866986668016141
0.2798715113691839
0.2650090398064801
0.2985990405200635
0.2941554941695592
0.2948699104139898
0.2873339665934348
0.2992867179299109
0.2978137445939544
0.297295465996417
0.2943854795559854
0.2959170320959575
0.2953493976960675
0.2952203063776255
0.2932451895061208
0.289503179233497
0.2881414335959888
0.2837789559155566
0.2776472664681272
0.2907282039305012
0.2882709193937619
0.2841455778380854
0.2783600065198108
0.2910487849083584
0.2887147406272904
0.2845645927895726
0.2790519815661853
0.2915212937980317
0.2887493916961775
0.2846804213918003
0.2756724762553145
0.2285686854076387
0.2080148805056064
0.207597871251868
0.2096131453796666
0.2135523539380956
0.2018209435119523
0.205359946474024
0.2080399689645791
0.2011298805498229
0.2015793477520078
0.2063405068540938
0.2089148358362742
0.1827245117536156
0.1970359772647315
0.2044001975369558
0.2072505084551976
0.2112955169526037
0.2133002220786151
0.2155082167234328
0.2179415094692046
0.209942388151486
0.2122357444747978
0.2147044752936973
0.2172324246713795
0.2104646026561277
0.2125176332176283
0.2140078369597764
0.2168049108178487
0.2090999209960974
0.211495456650361
0.2140061955326085
0.2168059385355818
0.2203715227717176
0.2378689163935366
0.3039182583681769
0.3659978040530041
0.2202222509132035
0.2440797257443871
0.3141509488947896
0.3514307047286825
0.2198204814579308
0.2467202561699625
0.3187725358916038
0.3422470162945134
0.2197202002932589
0.2495172563895649
0.3253440475578111
0.3425682073290953
0.4363813768046732
0.418336562766992
0.4116639922391901
0.4110115099343811
0.432752398162137
0.4190835565317563
0.4118836458358476
0.4111728396350427
0.4278210717493458
0.4183197535696195
0.4109590945589826
0.4098664973728665
0.4205543394320854
0.4196376991906101
0.4120526473039779
0.4102514029746104
0.4089891281762564
0.3951960812622722
0.3761088782597963
0.3586907103376817
0.4083255106323112
0.3966940683450738
0.3772937438449108
0.3599215847134488
0.4082880029903451
0.3982619500797936
0.3799046471094357
0.3605983362315385
0.4084921041333388
0.3994488502335402
0.3813932784264574
0.3682603901395316
0.3345499487664215
0.316184157056989
0.2917649237806061
0.2639899619162479
0.3380851413826267
0.3185653608372012
0.2929435728982977
0.2699338821411549
0.3424815160527528
0.3215125683610053
0.2936422324988646
0.2669289790630191
0.3483625056446419
0.3268200734893109
0.2944124619345218
0.3045998360939546
0.1713089873778264
0.04676729552427723
0.01457976380125704
0.01388343539334453
0.1348894913996998
0.03328798503977369
0.01764636577217781
0.01849506988447848
0.1020254154707076
0.02480131923319815
0.02027971415673405
0.02243926171017435
0.07247939816149265
0.0172704614412335
0.02125524941089303
0.02355010800191538
0.02073356243420652
0.02779653556384987
0.03492598544250411
0.04471959005473384
0.02550173282481944
0.03349200672304525
0.04114988723267938
0.05105291268879381
0.02922749862244513
0.03735460171254174
0.0460187211293944
0.05762672781241088
0.0309195570297135
0.03994534244489723
0.05106703897169233
0.06273588376234739
0.06209634140421601
0.08071212802661853
0.09545305593287974
0.1091448710419082
0.06409275203745443
0.07991766500730599
0.09486800929963085
0.1095848677072201
0.06636132963208891
0.08029074772177179
0.09232771581751165
0.1061358332321725
0.06412643300545132
0.07741885954705945
0.08699430120597598
0.1060211980722351
0.1072206453677187
0.104675173997977
0.1060767493434168
0.1038512354161027
0.09135117410536062
0.08907483262795964
0.09409840225024541
0.09449910017659595
0.07667607864285005
0.07559970562929899
0.08261809909041384
0.08515333035275582
0.06237068971117807
0.06817104777119296
0.07612596910292832
0.08292697916378935
0.09036233175247284
0.0959468650727035
0.09920616727989681
0.1005091025910562
0.08976976707333843
0.09500827881368487
0.09920523793607214
0.1013239509022788
0.09447359068291794
0.09645945075069394
0.09984901673868464
0.101796076777469
0.1000361996246592
0.09740163332928291
0.09778292762733959
0.0988287216698826
0.1005091025910464
0.1013239509022734
0.1017960767774621
0.09882872166987006
0.09920616727988509
0.09920523793607924
0.09984901673867649
0.09778292762730303
0.09594686507270103
0.09500827881369266
0.09645945075067099
0.09740163332921815
0.09036233175246294
0.08976976707331379
0.09447359068285788
0.1000361996245654
0.1038512354160603
0.1060767493434095
0.1046751739979217
0.107220645367574
0.09449910017651762
0.09409840225017144
0.08907483262786617
0.09135117410523359
0.08515333035270065
0.08261809909034613
0.07559970562926066
0.07667607864277991
0.08292697916375412
0.07612596910288498
0.06817104777116947
0.06237068971113733
0.1060211980721375
0.08699430120593531
0.07741885954705945
0.06412643300557863
0.1061358332320688
0.09232771581745831
0.08029074772176845
0.06636132963218992
0.1095848677070926
0.09486800929955479
0.07991766500731037
0.06409275203760928
0.1091448710417652
0.09545305593274558
0.08071212802657959
0.06209634140439752
0.04471959005496887
0.03492598544266774
0.027796535563891
0.02073356243420093
0.05105291268901203
0.04114988723285679
0.03349200672317097
0.02550173282488141
0.05762672781262229
0.04601872112958503
0.03735460171268676
0.0292274986225015
0.06273588376250951
0.0510670389719049
0.03994534244507874
0.03091955702978677
0.01388343539337132
0.01457976380118688
0.04676729552400354
0.1713089873778249
0.0184950698845408
0.01764636577220122
0.03328798503972529
0.1348894913997474
0.02243926171022098
0.02027971415673937
0.02480131923321595
0.1020254154707249
0.02355010800197529
0.02125524941092983
0.01727046144126407
0.07247939816151296
0.2639899619164157
0.2917649237806657
0.316184157056897
0.3345499487659875
0.269933882141321
0.2929435728983508
0.318565360837081
0.3380851413823542
0.2669289790632086
0.2936422324989217
0.3215125683608777
0.3424815160526141
0.3045998360941412
0.2944124619345815
0.3268200734891436
0.3483625056443511
0.3586907103370826
0.3761088782593658
0.3951960812618346
0.4089891281758751
0.3599215847133322
0.3772937438446869
0.3966940683447979
0.4083255106319352
0.3605983362318753
0.379904647109282
0.3982619500795229
0.40828800299001
0.3682603901382949
0.3813932784262477
0.3994488502333938
0.4084921041329115
0.4110115099338965
0.4116639922391895
0.4183365627663704
0.4363813768038272
0.411172839634468
0.411883645836083
0.4190835565310729
0.432752398161417
0.4098664973722687
0.410959094559402
0.4183197535688824
0.427821071748783
0.4102514029739755
0.4120526473044295
0.4196376991898247
0.4205543394316264
0.3659978040525751
0.3039182583680194
0.2378689163936581
0.2203715227718556
0.3514307047283344
0.3141509488946253
0.2440797257443885
0.2202222509133798
0.3422470162941871
0.318772535891393
0.2467202561698985
0.2198204814581009
0.3425682073288177
0.3253440475575759
0.2495172563894685
0.2197202002934368
0.2179415094695842
0.2155082167233652
0.2133002220779813
0.2112955169524907
0.2172324246717799
0.2147044752935397
0.212235744474191
0.2099423881513524
0.2168049108182627
0.2140078369596613
0.2125176332170546
0.2104646026559838
0.2168059385360163
0.2140061955324885
0.211495456649745
0.2090999209959692
0.2096131453790488
0.2075978712513052
0.2080148805056657
0.2285686854078898
0.208039968963864
0.2053599464734661
0.2018209435121762
0.2135523539383103
0.2089148358355329
0.2063405068535606
0.2015793477523608
0.2011298805499852
0.207250508454434
0.2044001975363302
0.197035977265088
0.1827245117537044
0.2776472664680584
0.283778955915641
0.2881414335964892
0.2895031792336104
0.2783600065197829
0.2841455778383259
0.2882709193942701
0.2907282039305997
0.2790519815661698
0.2845645927898885
0.2887147406278081
0.2910487849084705
0.2756724762554599
0.2846804213921728
0.2887493916967128
0.2915212937981472
0.293245189505749
0.294385479555746
0.287333966593312
0.265009039806717
0.2952203063773596
0.2972954659961854
0.2948699104137477
0.2798715113691504
0.2953493976957901
0.2978137445936652
0.2941554941693739
0.2866986668013212
0.2959170320956941
0.2992867179296111
0.2985990405198353
0.302715412419255
0.165737317384026
0.2095565048954602
0.2226061829931219
0.2239587018085286
0.1630115401388473
0.2077440359968486
0.2221262928973761
0.2239350502886554
0.1647361737998808
0.2062504930394845
0.2217365422805505
0.2239144608989433
0.1626694506850903
0.2043068144496422
0.2214666326481386
0.223904251051654
0.223906909737001
0.221876471586873
0.2037276071974304
0.1372389285140067
0.2239048806696636
0.2217142756304961
0.2032708361767185
0.1414928945480442
0.2239015679536995
0.221509981450119
0.2029045023551113
0.149049013786454
0.2239008308573224
0.221385004644989
0.2027694326444364
0.1572868315556517
0.2239042510513913
0.2239144608987739
0.2239350502885416
0.223958701807957
0.2214666326476429
0.2217365422803094
0.2221262928971253
0.2226061829931166
0.2043068144496853
0.2062504930394672
0.2077440359969086
0.2095565048954422
0.1626694506850757
0.1647361737998361
0.1630115401387582
0.1657373173838485
)
;

boundaryField
{
    back
    {
        type            empty;
    }
    inlet
    {
        type            calculated;
        value           nonuniform List<scalar> 
16
(
0.2239950333699092
0.2239950333699093
0.2239950333699116
0.2239950333715293
0.2239950333400285
0.223995033336011
0.2239950331390791
0.2239951214237653
0.2239951214244907
0.2239950331392048
0.2239950333359033
0.2239950333408414
0.2239950333699092
0.2239950333699093
0.2239950333700648
0.2239950333717961
)
;
    }
    front
    {
        type            empty;
    }
    top
    {
        type            calculated;
        value           nonuniform List<scalar> 
40
(
0.2239952341817826
0.2239963385931417
0.223997461645144
0.2240075137507227
0.2240405415553932
0.2241179321785097
0.2242393944775534
0.2243964227376065
0.224550269560472
0.2246485709577782
0.2246759138695281
0.2246314971261154
0.2245284873273301
0.2244102291458637
0.2242506728941637
0.2241160878936189
0.2240419733453702
0.2240476536015974
0.2241330854522202
0.2243540685232164
0.2248113894990899
0.2257197458684489
0.2272305874342706
0.2296508479615691
0.2330239493645146
0.2346322845919817
0.2343298214550001
0.2322696803800389
0.2320950502678041
0.229760072481225
0.2275749109669189
0.2260188175303216
0.2247459935784775
0.224062427272014
0.2239308731283649
0.2238653295481045
0.2238352909817609
0.2238882796975896
0.2239334152697673
0.2239670701575489
)
;
    }
    outlet
    {
        type            calculated;
        value           uniform 0.2239950333699093;
    }
    bottom
    {
        type            calculated;
        value           nonuniform List<scalar> 
40
(
0.2239670701566918
0.2239334152690689
0.2238882796970556
0.2238352909816323
0.2247459935787761
0.2240624272721014
0.2239308731287696
0.2238653295483888
0.226018817530332
0.2275749109664015
0.2297600724807527
0.2320950502677825
0.2330239493645012
0.2346322845917044
0.2343298214547623
0.2322696803801034
0.2296508479629813
0.2272305874343486
0.2257197458690217
0.224811389499227
0.2240419733455115
0.2240476536024563
0.2241330854534649
0.2243540685237268
0.2241160878935974
0.2242506728941586
0.2244102291463544
0.224528487327354
0.2246314971263557
0.2246759138693012
0.2246485709577286
0.2245502695600586
0.2240405415553205
0.2241179321778946
0.224239394477815
0.2243964227372984
0.2240075137512413
0.2239974616451209
0.2239963385927296
0.2239952341825558
)
;
    }
    wall
    {
        type            calculated;
        value           nonuniform List<scalar> 
104
(
0.302715412419773
0.2985990405200635
0.2992867179299109
0.2959170320959575
0.2915212937980317
0.2887493916961775
0.2846804213918003
0.2756724762553145
0.1827245117536156
0.1970359772647315
0.2044001975369558
0.2072505084551976
0.2090999209960974
0.211495456650361
0.2140061955326085
0.2168059385355818
0.2197202002932589
0.2495172563895649
0.3253440475578111
0.3425682073290953
0.4205543394320854
0.4196376991906101
0.4120526473039779
0.4102514029746104
0.4084921041333388
0.3994488502335402
0.3813932784264574
0.3682603901395316
0.3483625056446419
0.3268200734893109
0.2944124619345218
0.3045998360939546
0.07247939816149265
0.0172704614412335
0.02125524941089303
0.02355010800191538
0.0309195570297135
0.03994534244489723
0.05106703897169233
0.06273588376234739
0.06412643300545132
0.07741885954705945
0.08699430120597598
0.1060211980722352
0.06237068971117807
0.06817104777119296
0.07612596910292832
0.08292697916378935
0.09036233175247284
0.0959468650727035
0.09920616727989681
0.1005091025910562
0.1005091025910464
0.09920616727988509
0.09594686507270103
0.09036233175246294
0.08292697916375412
0.07612596910288498
0.06817104777116947
0.06237068971113732
0.1060211980721375
0.08699430120593531
0.07741885954705945
0.06412643300557863
0.06273588376250951
0.0510670389719049
0.03994534244507874
0.03091955702978677
0.02355010800197529
0.02125524941092983
0.01727046144126407
0.07247939816151296
0.3045998360941412
0.2944124619345815
0.3268200734891436
0.3483625056443511
0.3682603901382949
0.3813932784262477
0.3994488502333938
0.4084921041329115
0.4102514029739755
0.4120526473044295
0.4196376991898247
0.4205543394316264
0.3425682073288177
0.3253440475575759
0.2495172563894685
0.2197202002934368
0.2168059385360162
0.2140061955324885
0.211495456649745
0.2090999209959692
0.207250508454434
0.2044001975363302
0.197035977265088
0.1827245117537044
0.2756724762554599
0.2846804213921728
0.2887493916967128
0.2915212937981472
0.2959170320956941
0.2992867179296111
0.2985990405198353
0.302715412419255
)
;
    }
}


// ************************************************************************* //
