/*--------------------------------*- C++ -*----------------------------------*\
  =========                 |
  \\      /  F ield         | OpenFOAM: The Open Source CFD Toolbox
   \\    /   O peration     | Website:  https://openfoam.org
    \\  /    A nd           | Version:  11
     \\/     M anipulation  |
\*---------------------------------------------------------------------------*/
FoamFile
{
    format      ascii;
    class       volScalarField;
    location    "0.35923625";
    object      T;
}
// * * * * * * * * * * * * * * * * * * * * * * * * * * * * * * * * * * * * * //

dimensions      [0 0 0 1 0 0 0];

internalField   nonuniform List<scalar> 
880
(
500.0000000000027
500.000000292371
500.0240606785439
503.3407997542087
500.0000000004407
500.0000008570672
500.0298643565536
504.8871299056659
500.0000000016358
500.0000033381324
500.055341482284
506.7156484703685
500.0000000211684
500.0000146206476
500.114761725051
509.428397067107
499.9999999006574
500.000000075423
500.0000101662176
500.0001636969575
500.000067157803
500.0002570909238
500.001614427169
500.0023566107123
500.2633628455315
500.4347004900495
500.7186534957791
500.9607580794244
514.9178212459825
521.1125477650196
526.3742571358158
529.0291842649012
500.0004089507808
500.0033846872295
500.0128251293767
500.0397780678607
500.0227914494949
500.0985661350329
500.2005078048575
500.4220204073094
502.4155772021909
503.6983886824905
505.2861472053513
507.2307146325762
531.2572985159003
533.8983916203015
534.3925812745985
533.1640150854535
522.8401817487387
517.638897489894
515.4439804330972
513.9695447185404
511.0475066373434
512.6641726156403
513.5779384136389
513.7075569421092
501.1772363693815
502.0603060622262
503.0083134878934
503.7665766303147
500.1411464069848
500.3405985346473
500.641254514227
501.0639180833475
501.5574417883462
502.0498909032689
502.5355991745172
502.8872373685951
504.3928294383401
504.7490056431317
504.9504642304873
504.9005718972247
513.0678922029166
512.1692297802913
510.9866147290084
509.749117318443
512.2219230300697
511.0323376555424
510.2808463802039
509.5129923971962
508.9400025775558
508.8784204790827
504.7597747989819
503.0952985840097
519.1986638642231
508.0402789424021
504.3860263746093
503.0560661236539
571.3183760152051
510.4333346852468
503.9291929460929
502.6034217469756
620.3437543405151
523.8956327501296
504.7804991917528
502.4448752519506
502.3965310416782
506.0674053310807
539.6772553498333
637.4092082453608
501.5158491615375
508.5903078073301
556.3027752522705
635.1891400707443
501.8918294116058
514.4421420938687
576.6103392822987
636.1937794029864
503.3246079686174
524.8672947607537
594.7477351402612
633.4377924594427
628.3168095684991
604.8052428121131
539.8155122295012
506.4864321501071
621.8130923417455
607.4543992343332
554.9978732165604
512.1639208857923
614.498709142946
605.2839246211004
566.9945745809403
521.1590097053233
606.6428310028138
594.2587756491417
569.0866508896122
532.0894482946982
541.2919652997613
563.5993087630526
579.7592296534716
597.1536360471141
539.8327057910585
552.055887136381
562.8277748276836
582.2094039968071
535.8351485585456
540.3214209079243
544.5106098859148
560.5778560266125
530.6370883542561
529.8355384322357
525.3122926145861
530.4062928696676
526.752240924254
520.4504617177433
508.4952356393527
495.5317035061433
520.5910557779135
511.2779657821009
491.9682225280104
459.8351098189424
515.7629207826142
506.0172344560638
477.9304106167169
425.1203433381434
511.5881808582975
504.5831647878035
477.678335304833
399.8643789121201
410.5414197582213
486.8263950522692
503.2609292547678
507.7683589002647
477.9405044785576
493.0371539669597
502.4041466629773
505.1697798538914
517.2613839626428
495.7346270177549
500.8734851500676
503.3598596252671
530.172489038155
500.4061641033713
500.2272612813434
502.2904824531181
539.0029363533088
504.3270546765904
498.9655242416027
500.3929296859032
533.7936991309242
504.2973795791469
497.6634663461192
499.2219068086944
525.7948719333428
503.4849315117289
497.2753777589942
499.1942458089517
517.7067895612555
499.1155085988362
497.0794074581188
499.4039063629587
479.7735232904248
469.4022740007023
488.9355003133923
498.6805619029514
474.2556433941342
471.2942451581773
489.4246443359704
498.6804025728952
465.2302843847543
473.4182873052093
490.3269471052995
498.6945727814909
459.5023225237185
476.2501719957191
491.3790991326871
498.7839144084066
517.7067895613116
499.1155085984717
497.079407458421
499.4039063626971
525.7948719334133
503.4849315110613
497.2753777589157
499.1942458080308
533.7936991309564
504.2973795785325
497.6634663449638
499.2219068078184
539.002936353401
504.3270546756697
498.9655242413751
500.3929296854092
507.7683589004863
503.2609292550824
486.8263950524434
410.541419757257
505.1697798537547
502.4041466630276
493.0371539673692
477.9405044775535
503.3598596253369
500.873485150297
495.7346270169156
517.2613839624978
502.2904824530493
500.2272612817684
500.4061641027732
530.1724890384988
399.8643789145619
477.6783353048574
504.5831647879829
511.5881808584817
425.1203433380729
477.9304106167
506.0172344564879
515.7629207825144
459.8351098189522
491.9682225287793
511.2779657821603
520.5910557781533
495.5317035066528
508.4952356390727
520.4504617171056
526.7522409243777
541.2919652998596
563.5993087636596
579.7592296541144
597.1536360476005
539.8327057906005
552.0558871360491
562.8277748279004
582.2094039974073
535.8351485577995
540.3214209076419
544.5106098858741
560.5778560269655
530.63708835402
529.8355384317969
525.3122926142884
530.4062928701068
606.6428310031893
594.2587756496083
569.0866508899036
532.08944829564
614.4987091434787
605.2839246215599
566.9945745810452
521.1590097052489
621.8130923422699
607.4543992347387
554.9978732162397
512.1639208858602
628.3168095690179
604.805242812473
539.815512229939
506.4864321499901
502.3965310414871
506.0674053310223
539.6772553497051
637.4092082454831
501.5158491622754
508.5903078077113
556.3027752523717
635.1891400709613
501.8918294126016
514.44214209494
576.6103392827524
636.1937794029595
503.3246079686266
524.8672947606343
594.7477351408687
633.4377924596457
502.4448752517811
502.6034217467836
503.0560661242238
503.095298584157
504.7804991910427
503.9291929457468
504.3860263747159
504.7597747988116
523.8956327493817
510.4333346851858
508.0402789418557
508.8784204789427
620.3437543404312
571.3183760148048
519.1986638643745
508.9400025774254
502.8872373691086
504.9005718975775
509.7491173188174
509.5129923974958
502.5355991743232
504.9504642308139
510.9866147292139
510.280846380386
502.049890903265
504.7490056433423
512.1692297803573
511.0323376549261
501.5574417879205
504.3928294381095
513.067892203117
512.2219230302336
500.1411464064538
501.1772363690484
511.04750663775
522.8401817490903
500.3405985340672
502.0603060618104
512.6641726161558
517.6388974899079
500.6412545146973
503.0083134874481
513.5779384140595
515.4439804322556
501.0639180829077
503.7665766302505
513.7075569422897
513.9695447180941
533.1640150854877
507.2307146327967
500.4220204072173
500.0397780682056
534.3925812747036
505.2861472055069
500.200507804594
500.0128251292323
533.8983916206637
503.6983886823576
500.0985661338117
500.0033846868097
531.257298516123
502.4155772018406
500.0227914491138
500.0004089512954
529.0291842646649
500.9607580797688
500.0023566109205
500.0001636976896
526.3742571353256
500.7186534958159
500.0016144269149
500.0000101667052
521.1125477644034
500.4347004900035
500.0002570906437
500.0000000750825
514.9178212454932
500.2633628453701
500.0000671572221
499.999999901189
500.0000000001753
500.0000002925185
500.0240606784735
503.3407997539821
500.0000000005271
500.0000008567644
500.0298643566163
504.8871299056125
500.0000000018922
500.0000033379117
500.0553414823506
506.715648470856
500.0000000219067
500.0000146204789
500.1147617251418
509.4283970674076
506.2254255659015
508.9278508672147
513.249183395038
521.8955341486925
508.9278508676667
512.386741163417
518.7555148875373
531.3320575241195
513.2491833953294
518.7555148875899
528.8805681658442
544.0768087664449
521.8955341487915
531.3320575239494
544.0768087670186
560.2595080793438
577.2416192754332
564.2359291785916
557.3544494607394
544.9498440789079
575.4561246136271
571.5456293426832
570.3314321816132
564.6288463407037
575.3921732341894
574.3217429295398
573.7613704470342
572.0573425813012
571.9799588352118
571.5450622487629
571.6839738722877
570.9796861005455
567.8988587017988
565.55354087698
560.4612875643558
553.2864663691233
567.5583315864869
565.1532492376788
560.239503439483
553.9644441883815
567.574729864286
564.9924997064472
559.9824148517444
554.5583773189438
567.6370622134062
564.7358969710025
560.1859913297046
550.9724955205861
512.3813749494476
492.8099022723798
489.9499529533062
490.450321316032
501.8264815907236
488.70844133586
489.9704928506947
491.0967746656129
491.5798257151487
488.8778098686321
491.5593641307306
492.8374107446946
469.9267067076756
484.12335835974
489.9013199939463
491.5987611592928
490.7931867776121
491.8105035918687
493.3327574396977
494.8470106917642
491.0039088157717
491.480811962609
492.8627247703516
494.8616077814215
492.3164403056705
492.3386325138623
493.267331600721
494.7357327602742
491.2483087406095
491.4195054018217
492.7258577699843
494.8404166796668
505.0243173176347
567.6797335239266
639.3618940830937
664.543311235344
510.9450012766825
581.1660270038132
642.0079729188593
660.2510355270921
516.4242558353372
589.4970831014497
641.9780379169858
660.9493898027919
520.2334365987308
597.7648682356178
642.1826086370563
661.3623831148219
694.3007500113952
681.4452567143491
670.139920030639
656.8750683194365
702.7508854063666
690.0068093650067
676.8982164960936
662.5492843531968
708.7285417450024
697.4718407539149
683.0150180181761
668.0406443272013
706.6523151218313
701.2939255716128
687.1940617399353
671.8351499963547
643.6161039017095
633.0270783419282
623.2182341374969
618.9683211397613
648.7145823278673
637.1077480096357
625.9496328301487
621.0677485140316
653.8780178771906
640.6180940310785
629.5060732400653
623.1776905164055
658.2967037744166
643.6924864323787
632.9968254992391
625.59844806744
615.0674012339584
607.6462732421085
590.9805889308155
565.0079890484493
616.8448314356613
609.2347783407864
593.7784227043162
592.6504817254076
617.838973354115
610.154536807095
602.7703038834754
620.4156267300492
619.7334399216059
614.0057216035015
616.3505037299918
603.9811716506601
522.5289974461972
460.1974210829253
422.6670160806477
426.566874953763
512.0671588597132
421.9834259622613
305.5285398365392
252.9709694405556
468.7318188912565
368.1012269298892
252.1784250644691
231.8540392837762
368.007670495864
282.5859288930879
227.8297937079786
239.5912499877014
376.1242209770907
403.9271687877745
471.0877019397404
522.9244243943918
306.4932734477508
380.3611562272106
441.818903222917
491.707320732421
291.6674367507917
350.9021917599114
404.4013022622403
445.1310110342204
298.9377760281628
351.4328624470811
402.1234945477805
431.1499191787196
487.0604395965959
510.3456166429056
509.2794488000459
509.6868825623638
435.7732155568753
473.9286779382448
492.6748740477912
510.5670857854084
407.3530785900611
432.914214271854
470.5545715681189
514.174280383511
392.4920882032073
408.2738702093359
445.0625638304637
512.9338924667375
491.826078548536
470.6132906744579
459.3926007539534
459.70318445277
495.1782878218524
486.0219573178757
482.0170985173423
475.8952760726905
504.2370559799316
507.4084089427987
501.6103027873623
488.6176886727457
503.6015725037593
508.6045623313083
498.7249589658288
484.0920482795401
465.9311798227558
450.6272888008647
442.2371997476666
439.8954818733064
471.5290493278768
455.6886100502041
444.4202441702436
441.0563895811258
469.795402769329
461.2957151288395
452.6149454250954
448.998491543577
462.8006828299592
460.2204219148977
455.4796268222317
452.344972232414
439.8954818732706
441.0563895810957
448.9984915436011
452.3449722325058
442.2371997474982
444.4202441700942
452.6149454250933
455.4796268224871
450.627288800588
455.6886100499201
461.295715128742
460.2204219150887
465.9311798223322
471.5290493276821
469.7954027692417
462.8006828301119
459.7031844528955
459.3926007539763
470.6132906747637
491.8260785487568
475.895276072723
482.0170985174359
486.0219573181668
495.1782878220729
488.6176886725606
501.610302787214
507.4084089428675
504.2370559799962
484.0920482793142
498.7249589657388
508.6045623312352
503.6015725037272
512.9338924668356
445.0625638308839
408.2738702099476
392.4920882038155
514.1742803836156
470.5545715685709
432.914214272445
407.3530785907662
510.5670857855785
492.6748740481049
473.9286779387898
435.7732155577642
509.6868825625009
509.2794488002361
510.345616643405
487.0604395972506
522.9244243941857
471.0877019396839
403.9271687862611
376.1242209861179
491.7073207324121
441.818903223168
380.3611562265546
306.4932734481199
445.1310110345161
404.4013022628372
350.9021917596187
291.6674367505897
431.149919179107
402.1234945483251
351.432862447403
298.9377760281724
426.5668749755174
422.6670160825618
460.1974210829316
522.5289974465425
252.9709694440306
305.5285398364408
421.983425961924
512.0671588600338
231.8540392839863
252.1784250641279
368.1012269305552
468.7318188919326
239.5912499878579
227.8297937074304
282.5859288936923
368.007670496455
565.0079890488224
590.9805889312174
607.6462732426421
615.067401234249
592.650481725749
593.7784227045136
609.2347783410358
616.8448314361334
620.4156267303542
602.7703038834849
610.1545368069283
617.8389733543366
603.9811716514778
616.350503729952
614.0057216032735
619.7334399218645
618.9683211403656
623.2182341379067
633.0270783417692
643.6161039017469
621.0677485145532
625.949632830174
637.1077480093595
648.7145823275943
623.1776905166073
629.5060732402397
640.6180940306546
653.8780178769049
625.5984480678478
632.9968254994461
643.6924864322328
658.2967037740905
656.8750683192607
670.1399200302308
681.4452567140081
694.3007500111556
662.5492843529242
676.8982164960745
690.0068093649046
702.750885405961
668.0406443268573
683.0150180178855
697.4718407532849
708.7285417450369
671.8351499960303
687.1940617397485
701.2939255715368
706.6523151212723
664.54331123533
639.3618940828337
567.6797335238881
505.0243173180968
660.2510355269466
642.0079729185761
581.1660270037172
510.9450012772437
660.9493898025613
641.9780379166465
589.4970831012489
516.4242558359076
661.3623831150653
642.1826086367216
597.7648682353932
520.2334365992924
494.8470106924155
493.3327574395942
491.8105035911376
490.7931867771498
494.8616077820679
492.8627247702232
491.4808119616418
491.0039088153569
494.7357327609176
493.2673316003973
492.3386325128738
492.3164403051408
494.8404166803043
492.7258577696115
491.4195054007691
491.248308739813
490.4503213152416
489.9499529526823
492.8099022727789
512.3813749498171
491.0967746648562
489.9704928498471
488.7084413363837
501.8264815910122
492.8374107439215
491.5593641297609
488.8778098690845
491.5798257153609
491.5987611584885
489.9013199927826
484.1233583601136
469.9267067078951
553.2864663692883
560.4612875645828
565.5535408776426
567.8988587016541
553.9644441886063
560.2395034396164
565.1532492382842
567.5583315862674
554.5583773187543
559.9824148517523
564.9924997068846
567.5747298639924
550.9724955205951
560.1859913297902
564.7358969711753
567.6370622131791
570.9796860996349
572.0573425802006
564.6288463397721
544.9498440790254
571.6839738713199
573.7613704455143
570.3314321799137
557.3544494602457
571.5450622476684
574.3217429277863
571.5456293398527
564.2359291767356
571.9799588342764
575.3921732323225
575.4561246101957
577.2416192717642
505.1314528329711
497.2538146231433
496.8135855887142
499.4842291034427
485.4159985092721
492.0361685359318
495.3926671824693
499.3454122228338
470.3698465727338
486.3989783893739
493.9791522942447
499.1480467434015
460.1373098473386
480.4285038955126
492.4955525641732
498.9410846716842
498.6805619025234
488.9355003134219
469.4022740006333
479.7735232905101
498.6804025725183
489.424644336098
471.2942451580335
474.2556433944868
498.694572781473
490.3269471057122
473.4182873049152
465.2302843850636
498.7839144084095
491.3790991329006
476.2501719954914
459.5023225238619
498.9410846714196
499.148046743297
499.3454122229847
499.4842291035242
492.4955525639168
493.9791522940502
495.3926671819213
496.8135855885856
480.4285038957102
486.3989783896405
492.0361685364824
497.2538146235689
460.137309847161
470.3698465724822
485.4159985092805
505.1314528330568
)
;

boundaryField
{
    back
    {
        type            empty;
    }
    inlet
    {
        type            zeroGradient;
    }
    front
    {
        type            empty;
    }
    top
    {
        type            zeroGradient;
    }
    outlet
    {
        type            fixedValue;
        value           uniform 500;
    }
    bottom
    {
        type            zeroGradient;
    }
    wall
    {
        type            zeroGradient;
    }
}


// ************************************************************************* //
