/*--------------------------------*- C++ -*----------------------------------*\
  =========                 |
  \\      /  F ield         | OpenFOAM: The Open Source CFD Toolbox
   \\    /   O peration     | Website:  https://openfoam.org
    \\  /    A nd           | Version:  11
     \\/     M anipulation  |
\*---------------------------------------------------------------------------*/
FoamFile
{
    format      ascii;
    class       volScalarField;
    location    "0.05";
    object      p;
}
// * * * * * * * * * * * * * * * * * * * * * * * * * * * * * * * * * * * * * //

dimensions      [0 2 -2 0 0 0 0];

internalField   nonuniform List<scalar> 
880
(
80
80
80
80.00000013185701
80
80
79.99999999999991
80.00000700583097
80
79.99999999999999
80
80.00028206333299
80
80
79.99999999998096
80.00092891742142
80
80.00000000000001
79.99999999999994
80.00000000000007
79.99999999999999
80
79.99999999999983
80
79.99999999950759
79.99999999698234
80.00034115763859
79.99842591732865
80.19130324989911
81.05254638832983
81.98429046708482
82.36976692979772
80.00000003995292
80.00000005343385
80.00000006066895
80.00000002353568
80.00000285957231
80.00000408729761
80.00000472158067
80.00000211684569
80.00499537139967
80.00551141619218
80.00606878601695
80.00463185198899
82.58774297294569
82.83180865191655
82.94317322241616
83.14077307352878
83.13876592326322
82.22225319671264
81.11840318436016
80.32416171450762
80.01309251592762
80.01157788404602
80.00678189230698
80.0019643584736
80.0000150862674
80.00001373241584
80.00000805159981
80.00000223458908
80.000000222132
80.0000001848618
80.000000086676
80.00000001655704
80.0000000006644
79.99999999999648
80
80.00000000000001
80.0000002017659
80.00000000366614
80.00000000002113
79.9999999999914
80.00019528516513
80.00000403134484
79.99999992421377
79.99999996508825
80.03636153578975
80.00094953599692
79.99999557641672
79.99999618427418
79.99999907909385
79.9999999931898
79.99999999999999
80
79.99999790910095
79.9999998882098
79.9999999962801
79.99999999999999
80.000555968773
80.00003964839827
80.00000070152285
80.00000000516307
79.83385125436084
79.99259054366949
79.99998750338089
79.99999999340241
79.99999999951321
79.99999979018914
80.0008370732759
83.52028167684983
80.00000016336151
80.00001224081906
80.01838296828633
89.59366743153677
80.00000032548796
80.00002589637188
80.0329792374819
93.30131049885367
80.00000042070138
80.00003305627844
80.0398691042567
94.77229915060833
95.58960661362589
80.04626000283973
80.00004116396121
80.00000053891328
96.57647552834466
80.05496240476985
80.00005282212615
80.00000070639327
97.47907353920574
80.06376767946327
80.00006559882344
80.0000009091724
98.81726475544227
80.08085622285137
80.00009323350051
80.00000133632405
80.00000111004515
80.00007767070286
80.07869132308966
99.96742719823686
80.00000128596932
80.00008979297965
80.08644541292826
100.3216625905241
80.00000166506433
80.0001065614636
80.09206580656425
99.19822907948468
80.00000102685837
80.00007044830326
80.04717140617356
91.63880611099349
79.99990974662819
79.99888068062523
80.07853461559002
83.66198816363925
79.99999067932545
79.99697696828721
79.81753715150435
73.77144710708487
79.99999776453711
79.99805038991437
79.60008875400555
64.80092141672196
79.99999792730495
79.99770033221729
79.32837870592054
58.45908694695361
60.5214967075028
79.62654023549312
79.99893168135803
79.99999853762679
61.58766702360769
79.67227150045625
79.99910733755742
79.99999888638406
64.33241230870425
79.7851337212448
79.99947914427503
79.99999938346723
62.97911324648846
79.73592446800505
79.99936944156391
79.99999927620114
70.75274859835427
79.93432159661319
79.99987469197326
79.99999985300495
77.11534291499274
79.99182985718377
79.9999888202393
79.99999999012817
79.36689340944818
79.99864841524419
79.99999819227482
79.99999999839505
79.46011978110624
79.99784201336921
79.9999962457179
79.99999999410302
77.66609671598162
79.9736409437819
79.999895538101
79.99999987421859
77.66644758299901
79.97364099118346
79.99989553088153
79.99999987281123
77.66366485476144
79.97348226852297
79.99989482755015
79.99999985919511
77.73770998505294
79.97362086130897
79.99989460759851
79.99999983865226
79.46011978099662
79.99784201316004
79.99999624541682
79.99999999428285
79.36689340905443
79.99864841498517
79.9999981916484
79.99999999844314
77.11534291501097
79.99182985726556
79.99998882023893
79.99999999015603
70.7527485985911
79.93432159718547
79.99987469202038
79.9999998528493
79.99999853804994
79.99893168214849
79.62654023561632
60.5214967076901
79.99999888666107
79.99910733767328
79.67227150075848
61.58766702363481
79.99999938310178
79.99947914466119
79.78513372126859
64.33241230918364
79.99999927628315
79.99936944168569
79.73592446860144
62.97911324608653
58.45908694628178
79.32837870558167
79.99770033180739
79.99999792718533
64.80092141619869
79.60008875362398
79.99805038926321
79.99999776383181
73.77144710696096
79.81753715098797
79.99697696830643
79.99999067878942
83.66198816377663
80.07853461545169
79.99888068042755
79.99990974743589
80.00000110987672
80.00007767110006
80.07869132331882
99.96742719873869
80.0000012860676
80.00008979315035
80.08644541292848
100.3216625904884
80.00000166546123
80.00010656146196
80.09206580621758
99.19822907943909
80.00000102756816
80.00007044828635
80.04717140591244
91.63880611092789
98.81726475638494
80.0808562224297
80.00009323409785
80.00000133623682
97.4790735399983
80.06376768026711
80.00006559895593
80.00000090928719
96.57647552842045
80.05496240554936
80.0000528226504
80.00000070630571
95.58960661374329
80.04626000222765
80.00004116396839
80.00000053879926
79.99999999979285
79.9999997906251
80.00083707322669
83.52028167626642
80.00000016304513
80.00001224041793
80.01838296848611
89.59366743143768
80.00000032532876
80.00002589637272
80.03297923777995
93.30131049920828
80.00000042050918
80.00003305640156
80.03986910378762
94.77229915080639
79.99999999334011
80.00000000525036
80
80
79.99998750280018
80.00000070143443
79.99999999662118
80.00000000000001
79.99259054380278
80.00003964868151
79.99999988796091
79.99999999309398
79.83385125436456
80.00055596881781
79.99999790912152
79.99999907910188
79.99999999999991
79.9999999999937
79.99999996520721
79.99999618439109
80
79.99999999999827
79.99999992484381
79.99999557643744
79.99999999999652
80.0000000036674
80.00000403101805
80.00094953605863
80.00000000071064
80.00000020167971
80.00019528558373
80.03636153562842
80.00000022168913
80.00001508582228
80.01309251560708
83.13876592316635
80.00000018447876
80.00001373251462
80.01157788405072
82.22225319631391
80.00000008657334
80.00000805218193
80.0067818921805
81.11840318428476
80.00000001646903
80.0000022348535
80.00196435845943
80.32416171418376
83.14077307360499
80.00463185280834
80.00000211655623
80.00000002333879
82.94317322225753
80.00606878702894
80.00000472146435
80.00000006078631
82.83180865265594
80.00551141640044
80.00000408742709
80.0000000533138
82.58774297275076
80.00499536945343
80.00000285942319
80.00000004005592
82.36976693003599
79.99842591824743
80
80.00000000000007
81.98429046691072
80.00034115671384
80
79.99999999999999
81.05254638854558
79.9999999968701
80
79.99999999999999
80.19130324965121
79.99999999948517
80
79.99999999999989
80
79.99999999999997
80
80.00000014606896
80.00000000000003
80.00000000000001
79.99999999999999
80.00000700565266
80
80
80
80.0002820635695
80
80
79.99999999999355
80.00092891720979
79.99995879978427
79.99984147775477
80.00010267505012
80.06429277625193
79.99984149015543
79.99923867479031
79.99875068393028
80.16416403841727
80.00010267426089
79.99875068193941
80.07029916830872
82.53324725900654
80.06429277826517
80.16416403702065
82.53324726006095
97.85166225046018
127.4957145581024
105.0431813474688
94.32961700131087
85.07115292965828
125.7559278363417
119.2257336654682
114.7162931155457
103.4188096921553
123.7335112307147
123.1623191320021
122.468294161077
117.5517821716943
125.5681774583261
126.8317076792768
127.3264828398662
123.885086450802
126.2673229709346
126.6624249376964
126.8137594378394
130.3046796168647
129.8137374674106
130.1905222870854
130.2522170625674
135.731007488034
128.5938940275335
128.7887259327734
128.8191638225445
134.5491942377141
126.6602211211585
126.698093422616
126.7441360109915
127.9283107789504
110.6250781299229
93.41100838444525
84.89792221496867
81.41132961539442
102.7814866032314
81.82599521262044
81.09846225195547
80.84449208858594
85.22199489073036
76.02690046480707
80.65673748579378
81.43098398338421
73.14058614735573
77.17162512492686
80.23347296836482
80.32565101440329
80.18150533148652
80.0051813444007
79.99993927773639
79.99998715887362
80.18405220829702
80.00574152226743
79.99991938193335
79.99999558168861
80.37270912797729
80.01259026202246
79.99991920566679
79.99998597053218
79.94851563516166
79.98304843134726
79.9991939054451
79.9999790825385
79.99999836106474
79.99999919371039
80.00043408084809
85.26366213630702
79.99999964536823
79.99999954377479
80.00023947121967
93.44320091687584
79.99999966479017
79.99999978772844
80.0000796452977
101.0678913955718
79.99999960975484
79.99999989764876
80.00004052871235
100.7000152676823
169.0515582085003
191.9817623733038
205.7231708815842
210.4247236036324
199.5713272320622
201.5646938968647
212.891055595758
219.427072547184
203.9149003681125
197.9390351038287
206.245561682239
213.9005421895126
217.813268734988
204.6637109169867
210.5605291610551
218.4830118863704
211.1815757907405
211.6339717964453
211.9366760745456
212.2797147671486
220.317363016768
220.3878004255986
220.3403013234233
220.107124599209
215.2664393281762
215.3196933223789
215.2758130131122
214.9093671301304
220.3335313551006
220.4430909289187
220.4459967157612
220.1709394599735
213.4568985964221
212.2950071137242
200.5479563663236
165.3577691961094
221.2047085873701
220.0383644025327
207.7315159043908
181.0955438390713
215.3315709270642
213.8405540061674
204.1244392212148
185.7744356887684
219.8318308083872
217.643701378839
206.2615121334682
207.934594105695
95.5955696935313
33.16201305934428
12.40016519185815
8.378467332400085
86.3077873991322
20.4337446618846
8.304752764594264
5.530936059859045
55.42684463610457
14.02604531469778
8.182098086053005
5.845075705761883
29.5706692948527
4.023915470156849
7.167498412611294
6.809594558338517
8.805433959694353
8.878712861363784
9.334054931397072
7.787837366953996
5.043985153326199
5.220875446434905
6.485712057411181
5.75366797483111
5.46886763989084
5.983193723214075
7.322412973235137
6.849298745669714
6.528472290357832
7.219171182074256
8.354089504575171
6.424197949841759
33.87838756521801
55.78016507672713
66.02290380850721
68.32020753818634
25.58477241066448
45.46267773910466
55.79437150040648
65.14836036385113
19.4995708612857
40.47632098498036
50.47228182940319
64.81951482184193
9.835182150900428
25.98966654357409
42.56665042866363
56.94921035925902
56.6897183655547
46.95936360415908
46.37687270133857
38.9882022441876
41.30565146236194
18.3860205134889
22.67095396700272
31.29850144848486
32.32666301640234
13.18618079470379
6.374377308196963
11.6811819058809
17.65126943494421
4.551902139594531
5.724379406771748
6.227301492918274
6.933472402033117
6.640486034572469
4.758544660208026
2.934090653398628
17.2854296217191
17.35521872227482
12.21876708585464
6.520035722559611
28.10016920155659
20.58253015156936
12.72776881915276
9.908169969054933
30.54882153988882
23.54016659632739
19.00541148776204
17.98703898940017
2.934090653397658
6.520035722561461
9.908169969048823
17.98703898928442
4.758544660214751
12.21876708584731
12.72776881911576
19.00541148768403
6.640486034579784
17.35521872227147
20.58253015152355
23.54016659627533
6.933472402047665
17.2854296217281
28.10016920151175
30.54882153979123
38.9882022440786
46.37687270110391
46.95936360398436
56.68971836513804
31.29850144840811
22.6709539670763
18.38602051350922
41.30565146218092
11.68118190588813
6.374377308197282
13.1861807946575
32.32666301633262
6.227301492929155
5.724379406775438
4.551902139599634
17.65126943488742
56.94921035913835
42.56665042867444
25.98966654370003
9.835182150950565
64.81951482169059
50.47228182933773
40.47632098506904
19.49957086134809
65.14836036373592
55.79437150023467
45.46267773918774
25.58477241070125
68.32020753807475
66.02290380830939
55.78016507680056
33.87838756526622
7.787837366897549
9.3340549314974
8.878712861372675
8.805433959674893
5.753667974829575
6.485712057445165
5.220875446448329
5.043985153333372
6.849298745688568
7.322412973249783
5.983193723238747
5.468867639904868
6.424197949861749
8.354089504582706
7.21917118210644
6.528472290383252
8.378467332235269
12.40016519166781
33.16201305934162
95.5955696934836
5.530936059831756
8.304752764509047
20.43374466184622
86.30778739872945
5.845075705758008
8.182098085995175
14.02604531470472
55.42684463582933
6.809594558360914
7.167498412592078
4.023915470170533
29.570669294773
165.3577691958242
200.5479563663164
212.2950071137299
213.4568985968197
181.095543838714
207.7315159043683
220.0383644026784
221.2047085877296
185.7744356885327
204.1244392212262
213.840554006523
215.3315709275867
207.9345941055109
206.261512133583
217.6437013792288
219.8318308088504
212.2797147676588
211.9366760749293
211.6339717965715
211.181575790815
220.1071245992783
220.3403013238654
220.3878004259225
220.3173630165452
214.9093671303016
215.275813013572
215.3196933226498
215.2664393281379
220.1709394600344
220.4459967160888
220.4430909291971
220.333531355017
210.4247236038282
205.7231708818158
191.9817623732868
169.0515582083694
219.4270725472857
212.8910555960021
201.5646938967758
199.5713272319817
213.9005421894533
206.2455616825634
197.9390351036844
203.9149003679538
218.4830118863239
210.560529161346
204.6637109167671
217.8132687348445
85.26366213630378
80.00043408052042
79.99999919358731
79.99999836111844
93.44320091687209
80.00023947101069
79.99999954372062
79.99999964541318
101.0678913955752
80.00007964520567
79.99999978770668
79.99999966480894
100.7000152676751
80.00004052865083
79.99999989763762
79.99999960977502
79.99998715892352
79.99993927783999
80.00518134448038
80.1815053313163
79.99999558171976
79.99991938195485
80.00574152247987
80.18405220794322
79.99998597055624
79.99991920559802
80.0125902624347
80.37270912754117
79.99997908257731
79.99919390542881
79.98304843165623
79.94851563476539
81.41132961518905
84.89792221489931
93.41100838418704
110.625078129769
80.84449208844048
81.09846225194167
81.82599521246131
102.781486603446
81.43098398321078
80.6567374858094
76.02690046468193
85.22199489082811
80.32565101411024
80.233472968398
77.17162512483372
73.14058614742619
130.304679616764
126.8137594375284
126.662424937453
126.2673229712685
135.7310074878252
130.2522170623295
130.1905222868339
129.8137374677357
134.549194237558
128.8191638225135
128.7887259325954
128.5938940274998
127.9283107788188
126.7441360110124
126.6980934224948
126.6602211209192
123.8850864510008
117.5517821713504
103.4188096924908
85.07115292950861
127.3264828400182
122.4682941608249
114.7162931157163
94.32961700181005
126.831707679678
123.162319131724
119.2257336655896
105.0431813474752
125.568177458888
123.733511230434
125.755927836276
127.4957145583831
79.41120887692735
79.99621552239989
79.99998783588406
79.99999998507339
78.95710029331416
79.99068196553259
79.99996617023233
79.99999995814429
78.32448937426014
79.98194974267918
79.99993045937798
79.99999989142661
77.18708207157155
79.96983165278949
79.99988881517089
79.99999982343355
79.99999987447298
79.99989553797788
79.97364094371225
77.66609671576799
79.99999987300041
79.99989553120167
79.97364099083008
77.66644758293762
79.99999985895776
79.99989482785803
79.9734822684879
77.66366485464759
79.99999983789947
79.99989460798457
79.97362085995488
77.73770998489957
79.9999998233388
79.99999989128958
79.99999995736383
79.99999998419221
79.9998888152324
79.99993045937731
79.99996617009012
79.99998783545958
79.9698316531571
79.98194974222386
79.99068196597607
79.99621552205427
77.18708207112896
78.32448937384798
78.95710029332719
79.41120887696997
)
;

boundaryField
{
    back
    {
        type            empty;
    }
    inlet
    {
        type            zeroGradient;
    }
    front
    {
        type            empty;
    }
    top
    {
        type            zeroGradient;
    }
    outlet
    {
        type            fixedValue;
        value           uniform 80;
    }
    bottom
    {
        type            zeroGradient;
    }
    wall
    {
        type            zeroGradient;
    }
}


// ************************************************************************* //
