/*--------------------------------*- C++ -*----------------------------------*\
  =========                 |
  \\      /  F ield         | OpenFOAM: The Open Source CFD Toolbox
   \\    /   O peration     | Website:  https://openfoam.org
    \\  /    A nd           | Version:  11
     \\/     M anipulation  |
\*---------------------------------------------------------------------------*/
FoamFile
{
    format      ascii;
    class       volScalarField;
    location    "0.114";
    object      p;
}
// * * * * * * * * * * * * * * * * * * * * * * * * * * * * * * * * * * * * * //

dimensions      [0 2 -2 0 0 0 0];

internalField   nonuniform List<scalar> 
880
(
80
80
80.00000000002238
80.00031959882182
80
80
80.00000000039981
80.00129151754875
80
79.99999999999999
80.00000000667168
80.00692340384525
80
80
80.00000018301499
80.01525120550052
80
80.00000000000001
79.99999999999994
79.99999999942396
79.99999999999999
80
79.99999999999983
80
79.99999842004198
80.00000704595203
80.02915090202839
79.94980637102681
80.96503086477624
83.65971539062372
85.83540453966097
86.75688433115
80.00000529086644
80.00002490046639
80.00003150188017
80.0000200634925
80.0001083608186
80.00028877630027
80.00082081155318
80.00060985411609
80.05711089792001
80.12419018157607
80.21735144453424
80.22632319730009
87.80174274741198
89.18225049898967
90.56083548183372
92.33229114202634
91.6788794453488
89.09069232619211
87.11109657987558
85.8856560043308
80.39461500973854
80.76012457116288
80.95484807932851
80.86728855100904
80.00172251202626
80.00478486994709
80.00971504204364
80.01105792444213
80.00007547740114
80.00018680752032
80.00036161579926
80.00037483388803
80.00026882992326
80.00010730972396
80.00001763721743
80.00000071982547
80.00937215182181
80.00574296581834
80.001880017554
80.00025535626811
80.70532882294643
80.48413043697995
80.22520013460606
80.05594577005758
84.62864965165222
83.38504209596191
82.20851992401502
81.14345514252182
80.36741484887082
80.0064367554593
80.00001279409268
80.00000001208987
80.05623895452752
80.00048045790932
80.00000104554771
79.99999999610621
80.00012162956911
79.99967940711959
79.99999352759671
80.00000035409448
82.08526847047321
80.0106277062139
79.99976732371202
79.99997869417545
79.99996274645505
79.99988990271717
80.07139375720357
96.97513581211966
79.99999115487948
80.00075614939229
80.3821035049866
111.1709695689492
80.00008962163758
80.00206804461645
80.73635396868283
118.8774208692295
80.00026914102661
80.00630584807367
81.32564454280754
125.7146289658396
131.6352570995921
81.86576931873473
80.00867721062588
80.00039064804196
139.1685584112128
82.68520470164985
80.01641244014345
80.00070222605392
144.901794825991
83.23651886867417
80.01875626858576
80.00075699078137
151.4033977877774
84.1268200283335
80.03115950774911
80.00137685427926
80.00152866247234
80.03690292603723
85.20013921237924
157.6933947264936
80.00235153562812
80.05573055568006
86.56069045275488
159.199205127098
80.00437742975942
80.07691588287211
86.84946494842706
149.6558006368403
79.99987329705091
80.03126084960104
84.13359300321574
126.3150648159374
80.0080608162974
80.18039250429898
84.5064121188969
98.14422954389175
80.00982828434614
80.19799737772838
81.55399630546432
69.95838403633623
80.00108584985944
80.06903420889634
79.94087238849939
56.21787225329759
79.99840807871252
79.93632276439294
77.81861217668209
49.71693866750316
48.16856303892013
76.70302314819376
79.89683569509461
79.99903732980177
45.79675019663865
76.23109342438551
79.89303033595853
79.99936522231106
44.3196802535508
76.2009876703289
79.92974317830006
79.99975315213574
41.06779198450565
75.85948014694736
79.9317742610021
79.99976087619223
47.08795318245436
77.65236737119506
79.97608737914314
79.99991809084268
54.82655199915455
79.01192002126447
79.99361355830358
79.99998105024093
61.19714816240824
79.55348900907795
79.99780484651943
79.99999444625526
66.97573440452508
79.83707937833228
79.99937857489233
79.99999737243832
70.82185071847141
79.40364126907886
79.98842314613364
79.99991535728839
71.61019372157253
79.42640124741745
79.98851612672996
79.99991558755376
72.37216134561289
79.44452277617847
79.98831121279105
79.99991476497468
73.41992695257018
79.5201864152055
79.98787444448188
79.99991461876354
66.97573440437593
79.83707937787612
79.99937857435653
79.99999737314465
61.19714816201115
79.55348900865148
79.99780484500526
79.99999444624042
54.82655199884913
79.01192002164713
79.99361355823113
79.99998105042614
47.08795318262735
77.65236737221977
79.97608737913045
79.9999180904621
79.99903733053117
79.89683569623897
76.70302314865671
48.16856303878981
79.99936522266475
79.89303033651265
76.23109342500376
45.79675019694714
79.99975315123176
79.92974317938503
76.20098767004384
44.31968025366355
79.99976087651355
79.93177426124056
75.85948014827734
41.06779198420277
49.71693866676416
77.81861217565965
79.93632276341422
79.9984080783843
56.21787225225112
79.94087238768284
80.06903420792399
80.00108584807516
69.95838403624462
81.553996304552
80.19799737791178
80.00982828384403
98.14422954409082
84.50641211866898
80.18039250375097
80.00806081807146
80.00152866191361
80.03690292796638
85.20013921343956
157.6933947278555
80.00235153578318
80.05573055589359
86.56069045295267
159.1992051271534
80.00437743041098
80.07691588280545
86.84946494756025
149.6558006367545
79.99987329923709
80.03126084964578
84.13359300261754
126.3150648157937
151.4033977894789
84.12682002653429
80.03115950887569
80.0013768543338
144.9017948276277
83.23651887131525
80.01875626859884
80.00075699114078
139.1685584115241
82.68520470359967
80.01641244303482
80.00070222558172
131.6352571009183
81.8657693165041
80.00867721010263
80.00039064768943
79.99996274748108
79.99988990358398
80.07139375750745
96.97513581090334
79.99999115429134
80.00075614826916
80.38210350482878
111.1709695693731
80.0000896209561
80.00206804459332
80.73635396946361
118.8774208694969
80.00026914028419
80.00630584793718
81.3256445424023
125.7146289659051
79.99997869379216
80.00000035456338
79.99999999618375
80.00000001198745
79.99976732264591
79.99999352769267
80.00000104664882
80.00001279338127
80.01062770651697
79.99967940744298
80.00048045714462
80.00643675519905
82.08526847081814
80.00012162996666
80.056238954042
80.36741484904668
80.00000071879742
80.00025535643734
80.05594577067181
81.14345514285002
80.0000176370294
80.00188001718763
80.22520013617736
82.208519924226
80.00010731037348
80.00574296586501
80.48413043623997
83.38504209586051
80.00026883025278
80.00937215172262
80.70532882369972
84.62864965131597
80.00007547619232
80.00172251099009
80.39461500902162
91.67887944521063
80.00018680644669
80.00478487001627
80.76012457109125
89.09069232540149
80.00036161534318
80.00971504322216
80.9548480794888
87.11109657950247
80.00037483348632
80.01105792528378
80.86728855117541
85.8856560037003
92.33229114261377
80.22632319827899
80.00060985345979
80.00002006290124
90.56083548207431
80.21735144592955
80.0008208113984
80.00003150170825
89.18225050005171
80.12419018269634
80.00028877636649
80.00002490058856
87.80174274708676
80.05711089744131
80.00010836049685
80.00000529121239
86.75688433125495
79.94980637107886
80
79.99999999961972
85.83540453932109
80.02915089940407
80
79.99999999999999
83.6597153907541
80.00000704571021
80
79.99999999999999
80.96503086436442
79.99999841963009
80
79.99999999999989
80
79.99999999999997
79.99999999999982
80.00031959825185
80.00000000000003
80.00000000000001
80.00000000041214
80.00129151145435
80
80
80.0000000067342
80.00692340105849
80
80
80.00000018241202
80.01525120517147
80.00063404579552
80.00243515214784
80.01229861132894
80.2212298917218
80.00243518029855
80.00303460442647
80.01061503218335
80.84964429463375
80.01229859811198
80.01061499980888
80.32972664433956
85.35767379163158
80.22122987594101
80.84964428302463
85.35767383683708
103.1973805710886
133.2758704632494
112.3190668305404
100.9003440990591
89.72054885606059
128.1917503465827
123.7285892465773
121.3643994967065
112.2705878805986
125.3766356011646
123.8908132098961
123.624654790837
119.4946980348849
125.5246913510576
124.4918086452685
124.3811066920021
121.635472168039
123.4000623616475
123.8693126406611
124.8348842006793
127.3108882151443
124.7566888240871
125.0803300541159
125.9699248403003
128.6139361292359
125.2258504941906
125.3230744680237
126.1601492722047
128.2050382845548
125.7072222447895
125.3306297147824
126.1700006502
126.5480167376639
106.8763884882833
86.61000319370761
80.93712786250532
81.3853794504135
97.23099497624213
78.96616062783346
78.72939532186565
81.07324064568071
87.77096146120614
75.35060995843095
79.57935616158379
82.1055245865229
69.16749133763049
70.28763207927253
78.39996530311414
81.45179152519442
81.70510557154127
81.85343868016275
82.09714988048216
81.79230275328945
81.65959456666936
81.81275522729928
82.09006649841668
81.67085388729039
82.32450075270125
82.28339081304399
82.38281770528752
81.85967188719495
81.76007861415927
81.68282014187206
82.02788842484036
81.58141080467317
80.94361383620991
80.26385210849436
80.0143316421178
105.3209390409327
80.89024105952001
80.29713915965436
80.00567489188386
118.4603591564374
81.02560925175045
80.36617759368846
80.06329284133925
125.0221606134484
80.70798817240497
80.16550659535976
80.12143803930503
128.5646741366766
196.8518696105499
209.739577809856
210.4293286423477
209.6329485646128
218.7765838863714
219.5659290141974
214.9982640894366
212.001374926916
216.4609220003674
214.0721036565094
215.2689248381994
212.8209919494955
228.2463951779057
220.6421562390164
216.3995544108615
213.1144456887154
208.4774934256654
213.1858280184172
216.8014930683839
221.3190256482573
209.6943896764581
213.6876498007436
216.6197110926383
220.914466491438
209.7512235491447
213.2465814054114
216.4912148624639
220.8054178342339
209.938314477516
213.0430536497722
216.0831831722178
220.535683509435
221.2458016305926
214.1000134519156
197.0102956766495
164.08132056986
220.427998230856
213.9430602842727
196.8130544036138
173.4737251918727
220.809103376147
214.7969908906085
198.7647964909458
184.7515259915543
220.6781672132213
216.1260437772862
201.7298125430439
205.1443554439891
99.49191073951147
20.16598786210729
5.685611479296494
7.498611435350602
76.73227182151281
11.73429398867561
6.46515938845118
7.56232285683977
52.04955112101275
6.458348578065772
5.537459191495346
8.011799208554509
28.905851630956
3.172664737271318
6.260495192156536
8.187453411648967
9.688382328323732
10.68633942854175
11.01612942782807
9.849469799812809
9.478833540268345
10.04178893819715
9.752271338999725
8.807353720225629
9.650548748345901
9.780045067280408
9.413218799412263
9.135979608126528
9.492080795736261
9.204917579629585
9.005131943552241
10.43497864440905
20.71134383632931
29.17934191077504
35.98834130298008
46.01158165735863
19.99990242237461
28.38360642981428
33.87407956770705
44.29568760312505
17.93208556613813
27.22320983166211
33.89712571449963
42.83670190924951
14.33994801978738
22.68825114818061
29.87698041793916
40.22807784207241
32.4329075791244
20.98594287982433
9.912669102151199
8.59444758348323
29.55512174329962
17.23769571824561
6.97465002453233
11.28210614861953
23.43509334271151
10.29512010177552
5.712341021791762
14.91850981736131
15.2782856331522
5.318501140123729
8.542125338739812
15.77237304442644
17.8873943711435
16.85005907868111
15.23280161761095
15.37176203421031
16.74914014287948
14.55845561863707
13.59791121837178
13.34049751358377
16.67731586481993
16.21176437193972
16.53841663229667
16.83276350364662
19.43984967019687
27.68483659591912
27.76111727040745
27.70323916891294
15.37176203421343
13.3404975135804
16.83276350365732
27.7032391688984
15.23280161761946
13.59791121836775
16.53841663232189
27.76111727040022
16.8500590786776
14.55845561866116
16.21176437196734
27.68483659586373
17.88739437114453
16.74914014295448
16.67731586484506
19.43984967012413
8.594447583434054
9.912669102069904
20.985942879693
32.43290757887651
11.28210614859314
6.974650024503549
17.23769571821664
29.55512174312955
14.91850981739067
5.712341021782544
10.2951201017232
23.43509334268385
15.77237304443143
8.542125338752037
5.318501140109935
15.27828563310541
40.22807784196743
29.87698041782682
22.68825114792281
14.33994801955289
42.83670190917447
33.89712571444142
27.22320983145185
17.93208556586183
44.29568760304038
33.87407956767683
28.38360642966871
19.99990242211207
46.01158165726195
35.98834130290026
29.17934191059588
20.71134383611335
9.849469799691979
11.01612942789129
10.68633942857589
9.688382328256289
8.807353720177632
9.752271339058449
10.04178893822113
9.478833540214131
9.135979608083533
9.413218799475525
9.780045067309585
9.650548748286319
10.4349786443299
9.005131943586052
9.204917579666215
9.492080795671859
7.498611435212739
5.685611479160047
20.16598786189386
99.49191073939321
7.562322856728264
6.465159388321139
11.73429398856193
76.7322718210871
8.011799208425227
5.537459191386166
6.458348578016592
52.04955112079066
8.187453411504906
6.260495191979871
3.172664737192529
28.90585163084423
164.081320569628
197.0102956769306
214.100013452244
221.2458016316726
173.4737251917211
196.8130544039017
213.9430602847942
220.4279982322374
184.7515259914218
198.7647964911787
214.7969908913724
220.8091033774162
205.1443554438798
201.7298125434881
216.126043778093
220.678167214474
221.3190256497011
216.8014930688393
213.1858280181078
208.4774934278558
220.9144664924903
216.6197110927654
213.6876498005605
209.694389678526
220.8054178349095
216.4912148625118
213.2465814054983
209.751223551167
220.5356835102694
216.0831831721572
213.0430536498399
209.9383144799546
209.6329485670387
210.4293286401189
209.7395778106302
196.8518696088081
212.0013749294582
214.9982640865232
219.5659290151279
218.7765838844349
212.8209919517751
215.2689248344666
214.0721036564057
216.4609219971362
213.1144456904942
216.3995544074781
220.6421562389505
228.246395173279
105.3209390397761
80.0143316390015
80.26385210945465
80.94361383619329
118.4603591541128
80.00567488882896
80.29713916156751
80.89024105890908
125.0221606098929
80.06329283954979
80.36617759684476
81.02560925035701
128.5646741322916
80.12143803792266
80.16550660036505
80.70798816982351
81.79230275337599
82.09714988035692
81.85343867991773
81.7051055714428
81.67085388743206
82.09006649814272
81.8127552271373
81.65959456649522
81.85967188755765
82.38281770498047
82.28339081312083
82.32450075238991
81.58141080537619
82.02788842433854
81.6828201423243
81.76007861375025
81.38537944969977
80.93712786229231
86.61000319308677
106.8763884884253
81.07324064497351
78.72939532176358
78.96616062725474
97.23099497638775
82.10552458587091
79.57935616152497
75.35060995798754
87.77096146122999
81.45179152448391
78.39996530314892
70.28763207878517
69.16749133734231
127.3108882148584
124.8348841995743
123.869312641388
123.4000623635563
128.6139361283475
125.969924839551
125.080330055623
124.7566888256383
128.2050382834802
126.1601492715547
125.3230744693869
125.2258504953925
126.5480167369367
126.1700006495276
125.3306297159509
125.707222245313
121.6354721680538
119.4946980345352
112.2705878771403
89.72054885665251
124.3811066911769
123.6246547895595
121.3643994958948
100.9003440909224
124.4918086447394
123.8908132094596
123.7285892455878
112.3190668182976
125.5246913505932
125.376635600704
128.1917503422689
133.2758704600409
70.9867100375787
79.78801690503052
79.9982069273012
79.99999249760994
71.04105709819891
79.74589891926544
79.99720676219233
79.99998464813156
71.82462364946758
79.6986407192495
79.99559208358821
79.99997146784192
72.47512880975555
79.61388535475596
79.99095950807373
79.99993886623301
79.99991535777428
79.98842314641341
79.40364126833387
70.82185071730754
79.99991558799319
79.98851612745169
79.42640124645263
71.61019372151992
79.99991476426334
79.98831121333878
79.44452277586834
72.37216134516598
79.99991461680818
79.98787444525748
79.52018641393194
73.41992695212245
79.9999388655086
79.99997146706535
79.99998464573666
79.99999249526554
79.99095950842502
79.99559208357442
79.99720676192275
79.99820692652713
79.61388535434519
79.69864071828762
79.74589892000245
79.78801690474471
72.47512880954147
71.82462364854712
71.04105709764453
70.98671003803106
)
;

boundaryField
{
    back
    {
        type            empty;
    }
    inlet
    {
        type            zeroGradient;
    }
    front
    {
        type            empty;
    }
    top
    {
        type            zeroGradient;
    }
    outlet
    {
        type            fixedValue;
        value           uniform 80;
    }
    bottom
    {
        type            zeroGradient;
    }
    wall
    {
        type            zeroGradient;
    }
}


// ************************************************************************* //
