/*--------------------------------*- C++ -*----------------------------------*\
  =========                 |
  \\      /  F ield         | OpenFOAM: The Open Source CFD Toolbox
   \\    /   O peration     | Website:  https://openfoam.org
    \\  /    A nd           | Version:  11
     \\/     M anipulation  |
\*---------------------------------------------------------------------------*/
FoamFile
{
    format      ascii;
    class       surfaceScalarField;
    location    "0.22";
    object      phi;
}
// * * * * * * * * * * * * * * * * * * * * * * * * * * * * * * * * * * * * * //

dimensions      [0 3 -1 0 0 0 0];

internalField   nonuniform List<scalar> 
1652
(
1.706212168242967
0.5337381654508084
0
1.172474002964129
0.5337381645791788
7.920331057675867e-13
0.6387394735775997
0.5337134847289799
2.384759056894836e-13
0.5301613680843176
-7.636113963371827e-12
0.1053001336503457
1.706212168246046
1.067476330897714
1.172474002358105
1.067476330658112
0.6387437289450418
1.067404095696574
1.056082921637573
0.1070573642686313
1.706212168254435
1.601214496347368
1.172474003358338
1.601214497323883
0.6387540084659085
1.601030739653003
1.577742539036825
0.1085844346494871
1.706212168256783
2.134952661770605
1.172474004498683
2.134952653544008
0.638774992067585
2.134500999053478
2.098340091282621
0.1062115076103502
2.651191215611711
1.723711780202696
3.16742976988123
1.723711780070837
3.683668333298552
1.723711778150349
1.723711896526587
4.199905844210901
2.65119113786672
1.207473254973064
3.167429174677574
1.207473122117784
3.683656385183742
1.207473540916708
1.207480046485177
4.199881642711291
2.65076247341622
0.6906135291939232
3.167337942519869
0.6897869060491252
3.68419729453964
0.6888565278812165
0.6894575068349424
4.198784716128846
2.64489272366519
0.1228244006093998
3.26106163599214
0.04702928214062779
3.891858007617878
0.02262656284594483
4.528561359139182
0.01336256335298813
4.164906014718044
0.03499834886237896
4.129905661210874
0.03498547684832176
4.094902273444063
0.03500125436889479
0.03489856244933542
4.059889394117184
4.164948848896897
0.06985012433173149
4.130097727293198
0.06959529641106599
4.095543402764719
0.06904650585135025
0.068452100644391
4.061011018946243
4.17299004295929
0.08998341209216787
4.150647829141977
0.08288401043374255
4.132863277435272
0.07533592257607724
0.06829683538569503
4.116496223229917
4.577033362201287
0.008762399492348305
4.618766830394334
0.006857226728210097
4.662246468496316
0.007031561982058177
4.699679139118501
0.007652128413465464
4.671371880031532
0.09181263983879479
-0.06789367281761505
4.604143102211676
0.08558596295536186
-0.01724021109710416
4.542523331565986
0.07871607883714066
-0.009016306962156717
0.07078954274695798
4.496940840811054
-0.008545484609900872
4.181628591640892
0.006473168973989918
4.231910643504563
0.01258758916462466
4.267385164143037
0.01955247247334735
0.02579877109901951
4.289855511305034
4.06374760188505
0.0004171786898548024
4.069430271382089
0.001234136275778175
4.077836838580834
0.002578706844916012
0.00424259304792407
4.088153455608298
4.059880898655903
4.059969670403651
4.060378309278072
4.060754573206305
4.060921925786154
-0.005822521916946433
4.060815895631783
-0.006890398056832225
4.060262251130228
-0.007013008083063932
-0.00642851872279071
4.059696754216264
4.098744764436498
-0.02911512995791221
4.108189513335744
-0.03020229160061394
4.110746077141314
-0.02897581444189107
-0.02514074305985786
4.108195388227212
4.301827891647285
-0.06185521392576832
4.308269916757023
-0.05198557080407756
4.304789199907253
-0.04200128954710142
-0.03180043040244701
4.293346928454681
4.457974072885753
-0.006892970633542828
4.427672099306537
-0.00473415306750985
4.416376968970313
-0.002339885178516465
4.423196044251993
0.0008174353355448472
0.02434448586443749
4.415241279613811
0.003605646456552702
0.02063604471858826
4.275122168825937
0.00546721537500594
4.102557786403606
4.059269337807613
0.02048476593163429
4.401334213340517
-0.008888054224082842
0.01682279315135049
4.250549845343115
0.004358437432141704
4.094844275030509
4.059035272296309
0.01675667144526466
4.438370685088239
-0.119312526731188
0.008620397990615758
4.219681052933058
0.002619565194463935
4.083842179250121
4.059038806651375
0.05293927226690809
4.273364499310734
-0.1273991027242423
0.006164963889099984
4.194682893799887
0.001184051716199508
4.073163403321301
4.059163420903269
0.09275244933710997
3.96617454303629
0.1810669209850424
3.97227705131846
0.1879072381794337
4.068812327618343
4.061798066722997
0.13937834491395
0.09255067221471019
3.873193393200073
0.1777472646081997
3.877546753765911
0.1425041213853578
3.958638504386399
3.862527410833317
0.1029603261579232
0.09153468192657921
3.780398139160213
0.1679361652040525
3.7856835713872
0.07586652567621077
3.863334341431987
3.645284489084305
0.06521594662180052
0.08918293207903005
3.68792541126006
0.1493306386451312
3.696924173526134
0.01388553693048455
3.775163869913772
3.429689527968408
0.04295502876246249
0.05336820292714195
3.198425912576321
0.04526995172196735
-0.1135530556354433
3.675937345081273
-0.08390892560367647
3.611306344640281
3.59664497079006
0.1217673889353535
2.964390084964309
0.01387326980151649
-0.06082868829952082
3.566144105594781
-0.07448280543856567
3.527582735935187
3.506826238353406
0.1548959064744693
2.771402495808815
-0.01015434544282834
0.009268961961384159
3.420873824514668
-0.05838369658455334
3.444702945954031
3.41993614229422
0.1796531044470409
2.619903035079557
-0.02469177608129725
0.07238872247957939
3.309097588857551
-0.03540537043813841
3.347795014440727
3.335974006927147
0.02842517918503273
3.231403995768532
-0.0925402826567111
3.238058362768721
-0.1024928256802546
3.20191685892981
2.639160624142265
-0.0288572012443844
0.02244616914283737
3.121791665332401
-0.03461457330084605
3.119340489228735
-0.01564924320738592
3.140241286211092
2.688689324735582
0.02377334813305731
0.03988180999946145
3.00507034863766
0.03033788409012739
2.999600361368048
0.08516948800936519
3.076197583625341
2.743483556886103
0.1087157088819767
0.06418714534319891
2.875773150306004
0.09761373673063478
2.874456247293522
0.1872542782180318
2.973987986967734
2.751293427956968
0.2451258798974897
-0.2587556000566059
3.072581850499216
-0.5405337026674116
3.102870447293307
-0.7329078631046098
3.1825289702024
2.856155299103358
-0.7749924668016813
-0.2412822850805688
3.269157012123708
-0.4919263657539037
3.325005881688995
-0.6589583758014145
3.386233036926893
2.570760878859695
-0.2563059993279935
-0.2265488138517137
3.465260571493622
-0.4448794660996696
3.525882954551756
-0.5735951692141428
3.572343137609398
2.209296391804301
-0.03924292202013302
-0.2160555345453129
3.66156793221822
-0.4151871360508773
3.715809824225648
-0.4905706507056415
3.707509536235432
1.897060997791673
-0.02458768030675416
0.2047339296546897
1.796141913290314
-0.01117329306787831
0.1990841766770139
3.764483506559402
0.1020275639140887
3.814129574765704
3.755612863191957
0.1761417183645151
1.731108406766672
-0.008965799903797329
0.185187579604442
3.827583562556628
0.09644216563442087
3.901537705725763
3.852247962702404
0.1447586449166449
1.712824886511044
-0.007230249043212046
0.1765390755665409
3.878614110553851
0.1029682359451781
3.978435843727677
3.956212141592553
0.1029140395144842
1.755278322612798
-0.006800786732059305
0.1679056915074157
3.908048438935512
0.1024574495243155
4.056450727626761
4.060403635128452
-0.2660512925953283
2.214256723003631
0.01568848325799149
-0.07280848535705031
3.878749069770548
-0.004782370599046848
4.039898683243369
4.059266370163612
-0.2255163718325046
2.558617853297552
0.07598774504489317
-0.05132685073239573
3.830482855839946
-0.002647856475138433
4.038936209708418
4.059474692348227
-0.1553375902641522
2.714372404234245
0.106525225465706
-0.03137107850659737
3.825931221326443
-0.001251597270409688
4.047531487045185
4.059758205139079
-0.1180876738302854
0.1348433286421241
2.745392384517088
-0.02135422782590257
3.850734665197764
-0.0005629402724178778
4.049204013278478
4.059838979413934
0.4659146795473573
-0.03305195604459721
-0.01252237917335064
5.454303675378469e-12
1.151850324086096
-0.4590859953364319
-2.608135929449418e-12
1.712311682639789
-0.5212928331723146
1.680700023598547e-11
-0.5249057803116468
-1.3467449377913e-11
0.4633601765783701
-0.1866985980975984
-0.01300605032986893
1.147997561082202
-0.908872881997723
1.712345575287785
-1.041826041800748
-1.049787450710172
0.4533469696544609
-0.4541834302038046
-0.01449036220595575
1.142182817024677
-1.369422098899365
1.712289402331255
-1.561360376118497
-1.574665865288992
0.4456933637181921
-0.01828560162906706
-0.7962126878028413
1.137809071697643
-1.848892629833765
1.712246926482749
-2.081501545448056
-2.09956832790259
-0.1180876738290346
-2.714372404232276
0.1348433286418669
2.745392384514119
-0.021354227821478
-3.825931221330829
3.850734665195841
-0.0005629402699161012
-4.047531487040446
4.049204013272957
-4.059758205140373
4.059838979409968
-0.1553375902635257
-2.558617853293436
0.1065252254657832
-0.03137107850767451
-3.830482855847149
-0.001251597275047311
-4.038936209712175
-4.059474692350312
-0.2255163718333212
-2.214256722999328
0.07598774504460057
-0.05132685073677967
-3.878749069777876
-0.002647856476620136
-4.039898683246598
-4.059266370165587
-0.2660512925948475
-1.755278322606807
0.01568848325788352
-0.07280848536053153
-3.908048438942135
-0.004782370601687624
-4.056450727625574
-4.060403635128329
-0.1020275639086604
3.75561286322008
-3.66156793225359
-0.1990841766647508
3.814129574784914
-3.715809824249106
-0.2047339296490227
3.764483506534278
-3.70750953620106
1.796141913274073
-1.897060997769935
-0.01117329306802219
-0.09644216562751118
3.852247962719728
-0.1851875795910439
3.901537705740521
-0.1761417183590469
3.82758356254075
1.731108406755057
-0.008965799903873889
-0.1029682359381271
3.956212141601766
-0.1765390755516412
3.978435843734568
-0.1447586449110883
3.878614110547866
1.71282488650194
-0.00723024904306472
-0.1024574495173264
-0.1679056914917099
-0.1029140395093011
-0.006800786731843519
0.4905706507085709
-2.209296391786173
-0.02458768030669935
0.4151871360647015
-3.572343137587122
0.2160555345499415
-3.52588295456612
-3.465260571522127
0.5735951692188345
-2.570760878847261
-0.03924292201961151
0.4448794661137374
-3.386233036915611
0.2265488138578125
-3.325005881696007
-3.269157012130151
0.6589583758092223
-2.856155299100725
-0.2563059993270769
0.4919263657679336
-3.182528970197768
0.2412822850873775
-3.102870447295943
-3.072581850470062
0.7329078631121793
-2.751293427960105
-0.7749924668042701
0.5405337026789314
-2.973987986970049
0.2587556000645639
-2.874456247297002
-2.875773150272945
0.02842517918687115
3.231403995777812
-3.335974006939822
-0.09254028265112346
3.238058362772364
-3.347795014465389
-0.102492825675723
3.201916858922904
-3.30909758884372
2.639160624137491
-2.619903035073185
-0.02885720124534308
0.02244616914948416
3.121791665337369
-0.0346145732920291
3.119340489229677
-0.01564924320310024
3.140241286206828
2.688689324735047
0.02377334813411414
0.03988181000912983
3.005070348624777
0.03033788409779004
2.999600361375383
0.08516948801401669
3.076197583624113
2.743483556887349
0.1087157088831346
0.06418714534851766
0.09761373673603613
0.1872542782215496
0.245125879898099
0.17965310444755
-2.771402495800057
-0.0246917760830786
0.07238872248951833
-3.420873824516132
-0.03540537043371272
-3.44470294599535
-3.419936142299539
0.1548959064738196
-2.964390084952487
-0.01015434544280802
0.009268961962534017
-3.566144105586903
-0.05838369657915976
-3.527582735956893
-3.506826238359789
0.1217673889409778
-3.198425912574748
0.01387326980133285
-0.06082868828830468
-3.675937345065314
-0.07448280543734015
-3.611306344632385
-3.596644970797
0.05336820293274924
-3.429689527976594
0.04526995172217796
-0.1135530556182796
-3.775163869925998
-0.08390892559506397
-3.69692417354354
-3.687925411255741
0.09275244933745241
3.966174543036747
-4.059163420903483
0.1810669209856328
3.972277051322281
-4.073163403318245
0.1879072381789839
4.068812327620479
-4.194682893799803
4.061798066727962
-4.273364499312049
0.139378344913677
0.09255067221577318
3.873193393201324
0.1777472646107373
3.877546753765384
0.1425041213842266
3.958638504382065
3.862527410832548
0.102960326157555
0.09153468192414815
3.780398139164972
0.1679361651994433
3.785683571384857
0.075866525674541
3.863334341428983
3.645284489077585
0.06521594662163421
0.0891829320827196
0.1493306386523904
0.01388553693413341
0.04295502875968538
-4.059038806652305
-0.001184051714159473
-4.059035272298523
-0.002619565194782125
-4.059269337808562
-0.004358437431175144
-0.005467215375863921
-4.059696754216002
-4.083842179249817
-0.006164963889294883
-4.094844275030292
-0.00862039799212766
-4.102557786403816
-0.01682279315162349
-0.02063604471941677
-4.10819538822791
-4.219681052934066
-0.05293927226680251
-4.25054984534296
-0.01675667144523996
-4.275122168825267
-0.02048476593211918
-0.02434448586447163
-4.293346928456099
-4.438370685088236
-0.127399102724251
-4.401334213340534
-0.1193125267306731
-4.41524127961354
-0.008888054223997521
-4.423196044252598
0.003605646456506573
-0.006428518722410237
-4.060262251128474
-0.02514074305934899
-4.110746077142823
-0.03180043040148622
-4.304789199910739
-4.416376968969534
0.0008174353359859388
-0.00701300808341998
-4.060815895631069
-0.02897581444097291
-4.10818951333601
-0.04200128954681748
-4.308269916760301
-4.427672099305396
-0.00233988517821615
-0.006890398056683122
-4.060921925785949
-0.03020229160071597
-4.098744764435382
-0.05198557080445049
-4.301827891654549
-4.457974072885117
-0.004734153067768976
-0.00582252191725241
-4.060754573206302
-0.02911512995903248
-4.088153455605006
-0.06185521392565541
-4.289855511311657
-4.496940840808313
-0.006892970633552625
-0.000417178691515252
4.059880898650404
-4.059889394109108
-0.006473168978810118
4.063747601865235
-4.061011018923416
-0.09181263984270971
4.181628591651459
-4.116496223243097
4.671371880039281
-4.699679139128602
-0.06789367281712186
-0.001234136278192244
4.059969670397436
-0.01258758916842112
4.069430271368936
-0.08558596295878096
4.231910643515553
4.604143102217134
-0.01724021109718127
-0.002578706846547818
4.06037830927588
-0.01955247248093606
4.07783683857227
-0.07871607884186577
4.267385164152209
4.542523331568189
-0.0090163069628027
-0.004242593050369781
-0.02579877110619966
-0.07078954275036115
-0.008545484610330778
-0.0682968353888358
-4.662246468502274
0.007652128413317139
-0.06845210065879503
-4.132863277441492
-0.03489856245439582
-4.095543402752821
-4.094902273439557
-0.07533592258274563
-4.618766830395931
0.007031561981948653
-0.06904650586488376
-4.150647829140629
-0.03500125437005497
-4.130097727296402
-4.129905661209143
-0.08288401044063753
-4.577033362198176
0.00685722672810829
-0.06959529642259182
-4.172990042949323
-0.03498547684844977
-4.164948848914735
-4.164906014717005
-0.08998341209654204
-4.528561359135779
0.008762399492293238
-0.06985012434425719
-4.198784716112674
-0.03499834886559727
-4.199881642740319
-4.19990584420985
-0.6894575068338694
-3.891858007617472
0.01336256335332414
-1.207480046476975
-3.684197294526741
-1.723711896529356
-3.683656385202819
-3.68366833329678
-0.6888565278795377
-3.261061635994047
0.02262656284634224
-1.207473540909465
-3.167337942512837
-1.723711778150629
-3.167429174688796
-3.167429769880417
-0.6897869060486321
-2.644892723667377
0.04702928214040719
-1.207473122112998
-2.650762473413394
-1.723711780071647
-2.651191137872104
-2.651191215609822
-0.6906135291934878
-2.098340091284431
0.1228244006082873
-1.207473254970329
-2.134500999054812
-1.723711780206155
-2.134952653542164
-2.134952661771163
1.706212168246007
0.5337381654477527
1.172474002968465
0.5337381645766399
0.6387394735809194
0.5337134847313636
0.5301613680829687
0.1053001336481986
1.706212168246562
1.067476330894306
1.172474002358198
1.067476330656488
0.6387437289452175
1.067404095698835
1.056082921640942
0.1070573642649286
1.706212168253667
1.601214496343805
1.172474003356258
1.601214497321138
0.6387540084645307
1.601030739654583
1.577742539041175
0.1085844346476258
1.706212168253833
1.17247400449475
0.6387749920642426
0.1062115076086452
0.105084273203684
0.1050842732028786
0.1046534853220334
0.1069332568831857
0.1050822763886996
0.1074653266531284
0.1041176971978414
0.1063354932027823
0.106933256885658
0.1046534853224518
0.10660193914412
0.1066019391438515
0.1068822985947027
0.106370678333984
0.1002386933278212
0.109881055058445
0.1074653266553393
0.1050822763887734
0.1063706783356765
0.1068822985950049
0.1059379323552371
0.105937932354112
0.09683102434952208
0.1085578344424004
0.104117697199627
0.106335493202863
0.1002386933292898
0.109881055059083
0.09683102435091094
0.1085578344413445
0.09653369628239886
0.09653369628352493
-0.03952355263841756
0.1349308579979535
-0.06467706014958108
0.1323761478570498
-0.09327711606354283
0.1369659113274488
0.1342552344694242
-0.007498711546195802
0.1412080140634754
-0.01814034061267311
0.1417231465639331
-0.0298678608339733
0.1473456162547139
0.1499073836664684
-0.00329857702887465
0.1431522918766319
-0.01043224995580339
0.1474723424112171
-0.01674274461887609
0.1522856153632415
0.1542486311224608
-0.001617090029715995
0.1439347070317495
-0.006747644365776517
0.1517264777161799
-0.01040188927103552
0.1549414775708635
0.1560830775543829
0.1561776534025138
0.007820766656050304
0.1563950985925128
0.005970784080562452
0.1567743213117106
0.006528049642766931
0.00695490188702691
0.1577134870872294
0.1557248173005844
0.006275082647390018
0.1562315699109109
0.004995096000498245
0.1569379047240384
0.005891219078404453
0.003126849946895105
0.1609832078195239
0.1538713785845099
0.003393758660320045
0.1553205966577068
0.003030937137514123
0.1570470668379937
0.004177052441010187
-0.0107043465848079
0.1710768956903488
0.1466861172857013
0.1492420643081968
0.1534239489982992
0.1427085400724016
0.1454385418645456
-0.05490469294768943
0.1373117579295627
-0.008362019812614335
0.1365207626686158
-0.007028798158318861
-0.008027726515152572
0.1373733691066101
0.1487106808562773
-0.04199778592809134
0.1441535217073604
-0.002876094906740401
0.1422671123733291
-0.003850454822036109
-0.005412589078318292
0.1410641396092512
0.1548585954905164
-0.02523925386025283
0.1502928242240456
0.002756929770602629
0.1473251558482789
0.0004123786112861794
-0.001091822475916243
0.1443891263126098
0.1180671975414557
0.1219238652392746
0.1235664915025348
0.123813139235442
0.1385540246117139
-0.006610889059317088
0.1399151999433584
-0.00467042859600697
0.1416148705149967
-0.002447163427285792
4.503398585825602e-05
0.1439529330376924
0.1405165245699799
-0.004583313287393531
0.1404808208524657
-0.00315460481376334
0.14141371753926
-0.001824626189577544
-0.0002928604963943759
0.1433391967744768
0.1421434786629596
-0.0008946556209262491
0.1408323338610995
-0.0004617801945487054
0.1405753173947444
2.161544292411666e-05
8.325044243467916e-05
0.1418331097212858
0.124291911964986
0.1251992724508348
0.1268605444588616
0.1286030990873112
0.145832667655438
0.002991331561906813
0.1490422963292711
-0.01358679200850094
0.1526125390877174
-0.1283676493511908
-0.1031594785819676
0.1225482464323151
0.1450859379772599
0.002387336872062329
0.1442490855247918
-0.01526053286822426
0.1273877023580753
-0.1166736641125829
-0.06987693448820331
0.09007681520617375
0.1435831317714423
0.001832533900178068
0.1384884214650992
-0.0129160533916623
0.07995781663243193
-0.06335019598210745
-0.0416959057565921
0.04831008666979021
0.1317192795172089
0.115533789657872
0.04675841691027752
0.002011339480531421
0.1343180276928641
0.1234689274443553
0.1376603696224618
0.09638335670742826
0.1418253836830625
0.05705065905932749
0.03421889496591823
0.1450690686574932
0.1223035673281316
0.0877343630877182
0.1349298778099567
0.08072334076927024
0.1406958429539451
0.04723124811295787
0.02531854503853059
0.1443555560063877
0.0931455767124042
0.03958530671080984
0.1232828725150009
0.04770938740356001
0.134354098593455
0.03215057217673778
0.01570100194608182
0.1391185955500242
0.03871258906689308
0.08351985185073464
0.1117203000210917
0.1226919397495475
0.1467730876972365
0.03724604065637371
0.142190999020877
0.01658246960104459
0.1447204073733327
-0.007246437900168212
-0.02269221912339836
0.147943217062342
0.1472018220388122
0.02838567191623331
0.1458969622897592
0.01552324263787686
0.1462482593584631
-0.002207386832041691
-0.01650798841081447
0.1477384129819093
0.1450145167423739
0.01622323297481609
0.1466203084326128
0.01105204146097738
0.1485457921844537
0.0002570732309652435
-0.006961468081267075
0.1496206407512312
0.1331896335482511
0.1424613544305774
0.1466776451497564
0.1479697017661186
0.1475715451308039
-0.0200950306431702
0.1609391006219426
0.01712432288617838
0.1894642885885994
0.086333770340904
0.1917318538365383
0.2460388584888699
0.1484511602747836
-0.0121822965405104
0.1608728994448501
0.011326204685842
0.1853537955064823
0.06686248031986824
0.1304286934779876
0.2491408484230227
0.1512654134671514
-0.003019536489288766
0.1582383107895
0.01148960802248367
0.1846857632572743
0.04480060816173637
0.03634980365933776
0.2807518169422368
0.1538963528880593
0.1722960271192363
0.2211227747536181
0.2595467029519426
0.1199732858374488
-0.645948334343274
0.01323434433956457
-0.1488789420038119
-0.001377551809618034
-0.02343584806181996
-0.01873443700846852
-0.004968533312240191
0.08440097026452038
-0.4796600983848041
0.00367184836516199
-0.06764383014729598
-0.005298735454769183
-0.01325665167582109
-0.01257762625451836
-0.009313304264048345
0.04527600604510911
-0.2433768494815172
-0.0003547800026268404
-0.02180099104535644
-0.007745199533876293
-0.004809084133183528
-0.00641178097343436
-0.01158110558908458
0.01668958526143229
-0.004757949177517809
-0.008277962651079177
-0.01209639207986852
-0.004349946831881428
-0.01002620244258624
-0.003461030018346009
-0.007829399445132088
-0.003396448721254126
-0.004754339471139228
-0.00418196619470821
-0.003712827028447958
-0.009411581053571892
-0.007917594205281927
-0.008464928852891778
-0.006182960640817026
-0.007045264597634342
-0.00326041578673774
-0.001862248158865681
-0.006932158225381697
-0.01218213704289381
-0.004606688381577018
-0.01117279274910983
-0.003783484738648528
-0.008759098952899164
-0.002285487457829957
0.0002230312114836902
-0.008265267025673519
-0.01347774267169826
-0.01316517654534583
-0.01133114876508839
-0.007598192234605398
0.01714097209441222
-0.0001381820219996388
0.04454528820423748
0.05208469629659326
0.06934510636036524
0.08330404938891799
0.1129375146685993
0.09096933645143521
0.003539176209142944
-0.005826255502333552
0.03198727109282087
0.02803193363303348
0.06217186376524861
0.05519012389800672
0.08473124989529178
0.09047839928654455
-0.004451629518536622
-0.00529517102329212
0.01816359725567745
0.009941624384441697
0.04929783693537877
0.0265448376347929
0.05129219083145477
0.08315282461182731
-0.009150036101344475
0.004978454084318878
0.03485170970885674
0.08701875743629826
0.07937781382847375
-0.06320525199073901
0.07237647925098677
0.06480451325389713
-0.05392749245112515
0.06642880797868052
0.04907287180148771
-0.04872785588434336
0.06346578694642263
-0.03395897499087616
0.03126970417930668
0.05051073036943779
0.07705437861732659
-0.05025944184328443
0.0639280866835714
-0.04178472677271863
0.04948076027542602
-0.03577131638841882
-0.02149356391264024
0.03465543733261563
0.0668712614095763
-0.03390153053034832
0.05168862962978998
-0.02633636242323745
0.03357703011837014
-0.01805133070211656
-0.007029364787333289
0.01813391922243218
0.05312819259967427
0.02689628973473385
0.008418796743034099
0.0003919139270531086
-0.001606006300691062
0.0005435702476318562
-0.00185412502241878
-0.001488238712237487
-0.001294871706650165
-0.002469068369608605
-0.002769535839713663
-2.080974281781778e-14
0.01126029190432003
0.006293731084045007
0.006579999919721823
0.001666843873105034
0.002996640011692767
-0.0007328482393594224
-0.001759393657414794
-2.576411306520754e-14
0.02742346290747143
0.01164872799526447
0.01967135753486777
0.007321962591080151
0.01054052250037588
0.005712255591220027
0.005802314749955864
-1.671579541451251e-14
0.02381066774322938
0.01595783844214804
0.007783735891817349
4.579669976578771e-14
-0.002769535839723315
0.001294871706619072
-0.001759393657428367
-0.002996640011746765
0.0058023147499244
-0.01054052250039467
-0.007783735891696036
0.01252237917329424
-0.002469068369610045
0.001854125022385529
-0.0007328482393501347
-0.006579999919760972
0.005712255591250957
-0.01967135753488519
-0.01595783844208589
0.01300605032997722
-0.001488238712233896
0.001606006300668553
0.001666843873120841
-0.01126029190434375
0.007321962591156323
-0.02742346290751493
-0.02381066774328233
0.01449036220616644
0.000543570247638403
-0.0003919139270547461
0.006293731084055808
-0.01813391922245427
0.01164872799529439
-0.03465543733265478
-0.03126970417938325
0.01828560162916652
-0.04907287180152897
-0.03395897499087253
0.05051073036944798
-0.06480451325390447
-0.04872785588434796
0.06346578694643146
-0.07937781382844017
-0.05392749245113486
0.06642880797869258
-0.06320525199073887
-0.09096933645136844
0.07237647925100039
-0.04948076027541371
-0.02149356391264419
-0.06392808668353632
-0.03577131638841065
-0.07705437861728751
-0.0417847267727035
-0.05025944184328276
-0.09047839928648763
-0.03357703011836825
-0.007029364787335537
-0.05168862962978235
-0.01805133070210664
-0.06687126140955239
-0.02633636242322699
-0.03390153053034417
-0.08315282461178825
-0.008418796743021227
-0.02689628973470945
-0.05312819259963999
-0.08701875743625385
-0.03485170970883496
-0.05129219083141368
-0.004978454084311072
-0.02654483763475229
0.009150036101256122
-0.009941624384330341
0.005295171023268
0.007598192234554296
-0.04929783693535227
-0.08473124989520735
-0.01816359725561668
-0.05519012389799074
0.004451629518511482
-0.02803193363281208
0.005826255502352537
0.008265267025620453
-0.06217186376523212
-0.1129375146684437
-0.03198727109271476
-0.08330404938893143
-0.003539176209076414
-0.05208469629629804
0.0001381820220808239
0.006932158225380288
-0.06934510636036745
-0.04454528820412366
-0.01714097209428386
0.00371282702858116
0.003396448721380854
-0.004181966194485076
0.003461030018454875
-0.004754339470971904
0.00434994683195994
-0.007829399445165537
-0.01002620244268373
0.004968533312262005
0.007045264597719177
-0.00186224815871032
0.008464928852979597
-0.003260415786560694
0.009411581053662306
-0.006182960640819121
-0.007917594205359917
0.009313304264112039
0.008759098952962806
0.000223031211542643
0.01117279274918657
-0.002285487457696009
0.01218213704299335
-0.003783484738658506
-0.004606688381625975
0.0115811055891603
0.01133114876510127
0.01316517654544869
0.01347774267181605
0.01209639207995575
0.001377551809695149
-0.01873443700847562
-0.01323434433908422
-0.02343584806168611
-0.119973285836619
-0.1488789420033086
-0.6459483343448217
-0.2460388584892075
0.005298735454827801
-0.01257762625453078
-0.003671848364978721
-0.01325665167581096
-0.08440097026402262
-0.06764383014713786
-0.4796600983856297
-0.2491408484234499
0.007745199533936187
-0.006411780973429981
0.000354780002703039
-0.004809084133192063
-0.04527600604488327
-0.02180099104535613
-0.2433768494819634
-0.2807518169425128
0.008277962651135732
0.004757949177552217
-0.01668958526139962
-0.2595467029524123
-0.189464288589001
0.1917318538370242
-0.1609391006223352
0.08633377034190659
-0.1475715451308434
0.01712432288672927
-0.02009503064408513
-0.1479432170623999
-0.1853537955068824
0.1304286934782944
-0.1608728994452095
0.06686248032036235
-0.1484511602748622
0.01132620468603307
-0.01218229654136127
-0.1477384129818936
-0.1846857632576467
0.03634980365947987
-0.1582383107898407
0.04480060816195103
-0.1512654134672027
0.0114896080224417
-0.003019536489612951
-0.1496206407512233
-0.221122774754167
-0.1722960271196369
-0.1538963528883196
-0.1479697017660818
-0.1447204073737673
-0.02269221912484642
-0.142190999020613
-0.007246437900502167
-0.1467730876969393
0.0165824696004927
0.03724604065652215
-0.1450690686568289
-0.1462482593584118
-0.01650798841201317
-0.1458969622893827
-0.002207386832737801
-0.1472018220383727
0.01552324263753613
0.02838567191641594
-0.1443555560055696
-0.1485457921843345
-0.006961468081714162
-0.146620308432266
0.0002570732305132717
-0.1450145167418982
0.01105204146093552
0.01622323297502748
-0.1391185955491294
-0.1466776451494956
-0.1424613544301581
-0.1331896335472295
-0.1226919397480867
-0.1418253836829342
0.03421889496376018
-0.1376603696224819
0.05705065905905371
-0.1343180276930174
0.0963833567070933
0.1234689274442092
-0.1225482464325343
-0.1406958429538502
0.02531854503694497
-0.1349298778099815
0.04723124811268509
-0.1223035673283433
0.0807233407690584
0.08773436308761373
-0.09007681520638161
-0.1343540985933404
0.01570100194519852
-0.1232828725151007
0.03215057217642281
-0.09314557671270854
0.04770938740355612
0.03958530671084648
-0.04831008667005522
-0.1117203000209392
-0.08351985185095523
-0.03871258906715598
-0.002011339480666841
-0.1526125390878378
-0.1031594785820808
-0.149042296329313
-0.1283676493507747
-0.1458326676555179
-0.01358679200835172
0.002991331561880833
-0.1439529330378011
-0.1273877023583726
-0.06987693448822946
-0.1442490855248756
-0.1166736641123877
-0.1450859379773069
-0.01526053286807394
0.002387336872060664
-0.1433391967745861
-0.07995781663271059
-0.04169590575659321
-0.1384884214651759
-0.0633501959821251
-0.1435831317714563
-0.01291605339152979
0.001832533900227862
-0.1418331097213461
-0.04675841691037066
-0.1155337896579904
-0.1317192795171616
-0.1286030990872051
-0.1416148705149567
4.503398613994736e-05
-0.1399151999432644
-0.002447163426980203
-0.1385540246117024
-0.004670428596170617
-0.006610889059414343
-0.1373733691064496
-0.1414137175391915
-0.00029286049633101
-0.1404808208523352
-0.001824626189445705
-0.1405165245699111
-0.003154604813873113
-0.004583313287504637
-0.1410641396091477
-0.1405753173947276
8.325044241999646e-05
-0.1408323338610263
2.161544299641993e-05