/*--------------------------------*- C++ -*----------------------------------*\
  =========                 |
  \\      /  F ield         | OpenFOAM: The Open Source CFD Toolbox
   \\    /   O peration     | Website:  https://openfoam.org
    \\  /    A nd           | Version:  11
     \\/     M anipulation  |
\*---------------------------------------------------------------------------*/
FoamFile
{
    format      ascii;
    class       volScalarField;
    location    "8.7";
    object      p;
}
// * * * * * * * * * * * * * * * * * * * * * * * * * * * * * * * * * * * * * //

dimensions      [0 2 -2 0 0 0 0];

internalField   nonuniform List<scalar> 
4455
(
140.77816
140.8764
141.07145
141.38648
141.79935
142.37825
143.04894
144.33676
144.70629
140.72409
140.83525
141.04891
141.37574
141.82499
142.43554
143.24013
144.51965
145.41957
140.61783
140.7529
140.98937
141.3365
141.80605
142.4493
143.28271
144.6643
145.6567
140.46426
140.6319
140.8951
141.26378
141.74951
142.43191
143.3196
144.80062
146.01418
140.27298
140.47591
140.76798
141.15796
141.66248
142.38253
143.34588
144.93988
146.45697
140.05143
140.29091
140.61138
141.02045
141.54817
142.3095
143.34025
145.07462
146.88278
139.80739
140.08278
140.4297
140.8548
141.40216
142.20329
143.29924
145.199
147.3338
139.55086
139.85687
140.22723
140.66586
141.23043
142.06858
143.21943
145.29783
147.78933
139.2904
139.61947
140.00765
140.45811
141.03647
141.91098
143.11628
145.37305
148.26123
139.03305
138.78609
138.55767
138.35197
138.17176
138.01932
137.8973
137.80787
137.75508
139.37587
139.13038
138.89007
138.6595
138.44333
138.24539
138.06881
137.91599
137.7865
139.77361
139.52723
139.27724
139.02768
138.7824
138.54529
138.31885
138.10562
137.90467
140.22962
139.97968
139.72059
139.45566
139.1864
138.91654
138.64943
138.38889
138.13085
140.81819
140.57122
140.31132
140.04059
139.75786
139.46757
139.1749
138.88832
138.60141
141.72835
141.50659
141.25994
140.99083
140.69387
140.37759
140.04472
139.70755
139.36416
142.99468
142.84408
142.66534
142.44698
142.16335
141.83384
141.46922
141.09216
140.70855
145.44913
145.42352
145.27601
145.01924
144.65615
144.22558
143.74751
143.23587
142.68346
148.87107
149.32261
149.20439
148.6386
147.80631
146.85012
145.84709
144.82976
143.80705
137.74979
137.73031
137.68767
137.63255
137.56149
137.48011
137.3787
137.26519
137.12834
137.70768
137.63269
137.54031
137.43065
137.30315
137.15876
136.99638
136.81599
136.61561
137.77252
137.67211
137.56738
137.45309
137.32529
137.18198
137.02183
136.84442
136.64888
137.94246
137.81276
137.68952
137.55932
137.41401
137.25056
137.06746
136.86484
136.64265
138.38032
138.24331
138.12723
138.00694
137.8684
137.70809
137.52552
137.32241
137.10061
139.08254
138.91364
138.77623
138.63251
138.46592
138.27256
138.05258
137.81099
137.5542
140.39494
140.20728
140.05345
139.88019
139.6733
139.43379
139.16711
138.88116
138.58751
142.17239
141.72136
141.26785
140.7924
140.29208
139.77111
139.23941
138.71072
138.21332
142.89706
142.07987
141.26408
140.46608
139.69051
138.94434
138.23483
137.56664
136.96547
136.55275
136.15935
136.0409
136.26669
136.80373
137.52504
138.33283
139.19
140.08207
137.79358
137.44383
137.15555
136.9382
136.79526
136.7311
136.74806
136.87066
137.06133
138.30871
138.05269
137.80856
137.58194
137.37657
137.19634
137.04269
136.91785
136.82261
137.29252
137.03638
136.7776
136.51736
136.2565
135.99614
135.73721
135.48161
135.23029
136.86797
136.63036
136.38196
136.12306
135.85297
135.57191
135.2793
134.97587
134.66132
136.40499
136.15392
135.88548
135.59994
135.29698
134.97635
134.63714
134.27921
133.90147
136.43724
136.20946
135.96231
135.69513
135.40704
135.09721
134.76431
134.40739
134.02475
136.39609
136.15582
135.89464
135.61207
135.30832
134.98061
134.62805
134.24716
133.8373
136.95546
136.74596
136.5246
136.28959
136.04017
135.76577
135.46376
135.12853
134.76073
134.3568
133.91793
133.43949
132.92129
132.3576
131.74891
131.0861
130.37138
129.59399
133.39516
132.92237
132.41518
131.87193
131.28852
130.6672
130.00167
129.28974
128.52294
133.61575
133.17843
132.712
132.21346
131.68232
131.11473
130.50948
129.86075
129.1675
133.50404
133.08543
132.64588
132.18286
131.69647
131.18264
130.64118
130.06584
129.45595
134.33668
134.00114
133.65572
133.29803
132.92885
132.54334
132.1418
131.71664
131.26778
134.9853
134.74697
134.51665
134.29232
134.07461
133.85744
133.64054
133.41389
133.17677
136.75855
136.72413
136.7201
136.74163
136.78833
136.8512
136.92894
137.01024
137.09266
137.32382
137.64704
138.029
138.45996
138.93705
139.45111
139.99866
140.56947
141.15944
141.00197
141.94442
142.90995
143.89807
144.91488
145.95868
147.03452
148.13707
149.2693
150.42341
141.75511
137.16307
132.91613
130.78497
128.80306
128.42279
127.70386
128.75372
151.6008
142.35089
137.21687
132.63089
130.26783
128.10628
127.62524
126.82442
127.83921
152.79118
142.92664
137.24266
132.305
129.70347
127.35475
126.76572
125.88299
126.85222
153.98912
143.47495
137.23121
131.93571
129.09111
126.54691
125.84223
124.86688
125.77629
155.16689
143.96452
137.16526
131.50295
128.41515
125.66962
124.84446
123.77794
124.61404
156.31167
144.38565
137.03103
131.00134
127.67416
124.72138
123.77103
122.604
123.35047
157.32627
144.69115
136.806
130.41626
126.84978
123.68762
122.60996
121.34542
121.98694
158.17094
144.869
136.47054
129.73598
125.93768
122.5669
121.35867
119.98562
120.51627
158.61833
144.81787
135.98406
128.93733
124.91602
121.34417
120.00187
118.51896
118.95396
117.31202
116.94856
118.50817
119.99555
123.73426
127.96653
135.26985
144.4712
158.58598
115.64834
115.27424
116.84897
118.49409
122.31526
126.70253
134.04959
143.14822
155.68637
113.74262
113.45908
115.03805
116.83478
120.67618
125.15964
132.42197
141.362
153.15372
111.58397
111.4961
113.07282
115.01778
118.84618
123.40701
130.5777
139.41489
150.85666
109.1367
109.38103
110.96084
113.04564
116.86526
121.51088
128.60882
137.39329
148.52345
106.5569
107.11123
108.7016
110.93044
114.74435
119.48392
126.52762
135.2557
146.07263
103.79777
104.67964
106.2856
108.66493
112.48309
117.31361
124.31142
132.98539
143.52605
100.9054
102.09295
103.70517
106.25205
110.0738
114.98913
121.94865
130.55803
140.96257
97.797571
99.352016
100.95235
103.67837
107.50766
112.50002
119.42753
128.00343
138.37064
135.74201
125.30364
116.7542
109.84644
104.777
100.95355
98.031549
96.461631
94.518419
133.06657
122.48502
113.93042
107.03013
101.87647
98.070785
94.931534
93.412697
91.018428
130.34607
119.5189
110.96408
104.05592
98.811269
95.035773
91.667934
90.206496
87.353286
127.55997
116.42531
107.85397
100.92674
95.579774
91.842188
88.231764
86.835301
83.481666
124.70359
113.16825
104.60512
97.646784
92.193999
88.49538
84.64963
83.331644
79.468183
121.74228
109.77273
101.21617
94.216884
88.649479
84.992549
80.913252
79.668097
75.26951
118.67108
106.20348
97.694879
90.635182
84.969736
81.348455
77.053263
75.870255
70.95682
115.45549
102.49475
94.04648
86.909228
81.148876
77.553474
73.062693
71.935009
66.498826
112.09414
98.608274
90.273386
83.03127
77.198938
73.62751
68.986842
67.894868
62.025965
57.624788
63.711877
64.780407
69.48285
73.016927
78.861835
86.185975
94.300039
108.20021
53.39296
59.395155
60.490614
65.11999
68.596017
74.332463
81.710463
89.32584
103.47209
48.980414
54.99694
56.1596
60.635614
64.054715
69.64102
77.112842
84.283023
98.296394
44.455677
50.572159
51.817467
56.08953
59.441922
64.841903
72.444613
79.167184
92.690406
39.903618
46.13369
47.467267
51.514288
54.769059
59.951261
67.742565
74.18813
86.50709
35.598537
41.744856
43.163825
46.968104
50.095166
54.985174
63.047493
69.360637
79.553281
31.484555
37.433362
38.928144
42.478177
45.43359
49.937378
58.361633
65.035278
71.418979
27.728598
33.271994
34.815502
38.097994
40.859193
44.828956
53.635366
61.340929
62.089954
23.655784
29.31869
30.847155
33.854432
36.435002
39.689939
48.880647
58.703634
52.198235
19.866767
25.618846
27.006778
29.734609
32.088186
34.471968
43.498321
57.356421
45.445409
16.872619
22.21822
23.339077
25.692189
27.912456
29.657885
38.906796
57.117758
41.945088
14.605657
19.02242
19.919315
21.73179
23.960645
25.431806
35.601147
55.875482
43.601565
12.759031
16.036091
16.777122
17.714037
20.035682
20.882505
32.767174
53.634876
54.918032
11.276826
13.242596
13.904615
13.569459
15.99626
15.832879
29.97104
49.503818
52.381462
10.189764
10.640811
11.294467
9.3195736
11.784569
10.385579
26.752631
46.594156
48.072663
9.52186
8.2241721
8.9089828
5.0496959
7.3551654
4.6691921
23.595837
47.041231
48.31778
9.3227282
6.0244579
6.7615719
0.83572413
2.7691968
-1.0062447
21.035766
44.27328
46.18863
9.5016087
4.1044616
4.7943684
-3.2511793
-1.981956
-7.1310761
18.924634
42.088874
45.653615
45.364169
41.333373
17.35186
-12.117799
-6.4967901
-6.9291332
3.1429491
2.608786
10.047598
45.177391
40.879557
14.177726
-17.093325
-10.620464
-10.123031
1.7697854
1.5419932
11.038959
44.818859
39.87386
10.695345
-22.08399
-14.72225
-13.038518
0.72052397
0.89078902
12.428744
44.219615
37.926643
6.9304083
-26.726765
-18.749854
-15.710865
-0.06723378
0.62108478
14.210127
43.463905
36.127474
2.8735025
-31.333061
-22.728171
-18.117572
-0.56003438
0.73430353
16.293061
42.577304
34.247639
-1.4207482
-35.727039
-26.647348
-20.248589
-0.81950628
1.2145841
18.681727
41.76506
32.506088
-5.6954233
-40.062847
-30.499067
-22.042352
-0.7915032
2.0796646
21.296531
40.556553
30.736504
-9.8553079
-44.135624
-34.196149
-23.441228
-0.51618332
3.3288884
24.127014
39.925102
29.750642
-13.720839
-48.471041
-38.166272
-24.37719
0.071781002
5.0176298
27.437417
39.17183
26.301008
-19.10766
-54.476901
-42.817951
-24.843991
1.6741171
8.6415761
33.386773
36.863505
18.109006
-36.543375
-67.874161
-47.726915
-22.878336
5.8323557
15.233336
41.718652
34.941095
9.6827726
-45.340754
-77.774209
-49.477892
-18.514587
11.606765
23.185525
50.136435
33.888784
0.33960327
-61.936667
-86.983975
-48.14249
-11.82907
18.637144
31.945531
58.293945
31.089358
-9.2603344
-70.653424
-93.844257
-43.765891
-3.8346254
26.035211
41.023078
65.896782
26.756124
-18.759066
-85.027313
-98.740524
-36.838079
5.3816238
33.730475
50.121139
72.502767
21.819243
-27.900839
-93.563553
-100.29245
-27.509514
14.903615
41.301332
58.878887
78.09198
16.712971
-36.746824
-104.42818
-98.852673
-16.246446
24.51058
48.723903
67.131333
82.579591
11.731382
-46.051053
-109.91768
-92.139752
-3.591331
33.280398
55.617341
74.468042
85.973251
18.828473
-28.129265
-102.64289
-89.765151
-4.7073831
50.759325
71.716102
89.017753
105.28925
18.810153
-28.306885
-103.7974
-90.352792
-5.3955291
50.795287
71.227073
87.766103
104.42117
18.615691
-28.707062
-106.39411
-90.635261
-6.7794335
50.476693
70.885582
86.503208
103.35126
18.283539
-29.345219
-109.72969
-92.275333
-8.8036718
49.681322
70.080508
85.184295
102.23475
17.988617
-30.039203
-112.42655
-95.389945
-11.271042
48.518768
69.043346
83.832286
101.18819
17.557235
-30.960356
-115.22582
-99.757032
-14.613367
47.14452
67.615382
82.522492
100.21056
17.093432
-32.065899
-118.51627
-103.71983
-18.7431
45.347621
66.132768
81.21223
99.360889
16.668972
-33.436171
-120.92803
-106.83061
-21.439223
43.497591
64.590729
79.65569
98.727189
16.35817
-34.950332
-122.29842
-108.34209
-22.687688
41.716185
63.117236
79.027533
97.673119
11.710795
-46.12828
-110.03601
-92.151152
-3.5450784
33.295312
55.624284
74.474583
85.977987
16.696981
-36.818066
-104.55018
-98.877011
-16.207205
24.527926
48.732272
67.138535
82.584722
21.807824
-27.962731
-93.682997
-100.32898
-27.480285
14.921699
41.311062
58.886852
78.097665
26.747898
-18.812128
-85.144288
-98.789081
-36.819714
5.3987204
33.740997
50.12985
72.509148
31.083025
-9.303484
-70.762302
-93.9037
-43.759452
-3.8198739
26.045941
41.032238
65.9038
33.88329
0.30691386
-62.040332
-87.050497
-48.147385
-11.818593
18.646919
31.954748
58.301562
34.938274
9.6592361
-45.431047
-77.843022
-49.493114
-18.510229
11.614695
23.194004
50.144373
36.865009
18.094574
-36.629055
-67.943417
-47.750099
-22.880037
5.8371469
15.240346
41.726535
39.179038
26.294607
-19.175506
-54.542879
-42.846387
-24.85137
1.67554
8.6462913
33.394012
10.045677
2.6008495
3.1326729
-6.9482055
-6.525176
-12.158723
17.322236
41.345721
45.384283
11.038275
1.5352707
1.760221
-10.141852
-10.650032
-17.136851
14.143625
40.891892
45.196541
12.429254
0.88535467
0.71188809
-13.056784
-14.752779
-22.130188
10.657988
39.881024
44.836294
14.211782
0.61694664
-0.074818178
-15.728366
-18.781147
-26.776065
6.8895123
37.930551
44.234564
16.295769
0.73149679
-0.56645637
-18.134105
-22.760006
-31.386089
2.8284466
36.130586
43.47725
18.685422
1.2131331
-0.8247137
-20.26399
-26.679497
-35.783555
-1.4698627
34.248929
42.589152
21.301094
2.0795919
-0.79541492
-22.056452
-30.531261
-40.122698
-5.7482248
32.505994
41.775716
24.132348
3.3301687
-0.5187414
-23.453884
-34.228059
-44.198554
-9.9123821
30.734218
40.566409
27.443497
5.020229
0.07066247
-24.388
-38.197318
-48.53604
-13.783042
29.74863
39.935051
45.674667
42.100884
18.89731
-7.1692714
-2.0087557
-3.2702276
4.7834972
4.0955099
9.4985126
46.210377
44.279667
21.010325
-1.040818
2.744184
0.81695455
6.7502119
6.0148098
9.3185539
48.340628
47.051318
23.572097
4.6381096
7.3319426
5.0313656
8.8972552
8.2140603
9.5167664
48.095949
46.60397
26.730529
10.357837
11.763079
9.3018343
11.282437
10.63033
10.183577
52.398385
49.511838
29.950911
15.808165
15.976406
13.552453
13.89236
13.231894
11.269578
54.940764
53.642286
32.748926
20.860417
20.017308
17.697869
16.764758
16.025236
12.750908
43.623532
55.880625
35.584187
25.411863
23.943636
21.716525
19.906975
19.011478
14.596844
41.961956
57.120183
38.89082
29.639726
27.896702
25.677815
23.326879
22.207268
16.863294
45.4597
57.357201
43.484746
34.455759
32.073652
29.72109
26.994818
25.607953
19.857099
57.617955
63.705821
64.774625
69.478153
73.013507
78.861321
86.1894
94.306598
108.20611
53.385462
59.388384
60.483982
65.114383
68.591644
74.330921
81.713406
89.332779
103.4788
48.972336
54.989459
56.152065
60.629009
64.049251
69.638293
77.115044
84.290337
98.304009
44.447136
50.563949
51.809073
56.081875
59.435233
64.837801
72.445787
79.174645
92.699114
39.894561
46.124794
47.458111
51.505489
54.761019
59.945506
67.742379
74.195528
86.51694
35.589052
41.735341
43.153952
46.958201
50.085734
54.977556
63.04554
69.367532
79.56446
31.474716
37.423312
38.917591
42.467231
45.422745
49.927706
58.357468
65.041207
71.431943
27.718596
33.261519
34.804358
38.086102
40.847013
44.817147
53.62855
61.345215
62.104452
23.645927
29.307931
30.835547
33.841693
36.421638
39.675919
48.87076
58.705583
52.212856
112.09943
98.614406
90.277008
83.031504
77.196385
73.623591
68.981843
67.889512
62.019829
115.4603
102.50046
94.050143
86.909982
81.14707
77.550271
73.058415
71.9303
66.49338
118.6755
106.20877
97.698533
90.636342
84.968564
81.345874
77.049649
75.866177
70.952045
121.74632
109.77766
101.21975
94.218348
88.648845
84.990519
80.910239
79.664584
75.265354
124.70733
113.17283
104.6086
97.648461
92.193797
88.493863
84.647171
83.328678
79.464644
127.56344
116.42958
107.85734
100.92856
95.579931
91.841072
88.229782
86.832854
83.478676
130.34933
119.52284
110.96731
104.05782
98.811705
95.03502
91.666364
90.20443
87.350775
133.06963
122.48869
113.93352
107.03208
101.87712
98.070319
94.930324
93.410992
91.016365
135.74489
125.30706
116.75716
109.8484
104.77782
100.95334
98.030632
96.460303
94.516762
117.31224
116.94883
118.50869
119.99633
123.73545
127.96813
135.27181
144.47327
158.58789
115.64846
115.27444
116.84938
118.49484
122.31646
126.70419
134.05164
143.15036
155.68839
113.74261
113.45918
115.03837
116.83548
120.67738
125.16136
132.42411
141.36426
153.15583
111.58384
111.49605
113.07306
115.01842
118.84736
123.40878
130.57993
139.41726
150.85887
109.13641
109.38084
110.96101
113.04621
116.86643
121.5127
128.61117
137.3958
148.52574
106.55641
107.11089
108.70161
110.93092
114.74549
119.4858
126.53007
135.25834
146.07499
103.79705
104.67909
106.2854
108.66529
112.48419
117.31553
124.31399
132.98821
143.5285
100.9044
102.09218
103.70477
106.25226
110.07483
114.99108
121.95135
130.56102
140.96514
97.796257
99.35099
100.95172
103.67841
107.5086
112.50198
119.43036
128.00663
138.37335
118.95426
120.51664
121.98736
123.35092
124.61452
125.77679
126.85273
127.83973
128.75424
118.51929
119.98601
121.34587
122.60448
123.77844
124.86739
125.88352
126.82495
127.70439
120.00242
121.35922
122.61054
123.77163
124.84507
125.84285
126.76634
127.62586
128.4234
121.34495
122.56769
123.68841
124.72216
125.67039
126.54766
127.35549
128.107
128.80377
124.91718
125.93881
126.85088
127.67522
128.41618
129.09209
129.70443
130.26875
130.78586
128.93886
129.73744
130.41766
131.00267
131.50422
131.93693
132.30616
132.63201
132.91719
135.98593
136.47233
136.80771
137.03266
137.16681
137.2327
137.24408
137.21823
137.16436
144.81984
144.87091
144.69299
144.38741
143.96621
143.47658
142.9282
142.35239
141.75654
158.62022
158.17277
157.3281
156.31349
155.16867
153.99085
152.79286
151.60244
150.425
129.5945
128.52347
129.16811
129.45664
131.26863
133.17778
137.09389
141.16081
149.27084
130.3719
129.29028
129.86134
130.06652
131.71745
133.41485
137.01141
140.57078
148.13856
131.08661
130.0022
130.51006
130.64183
132.14258
133.64146
136.93006
139.9999
147.03596
131.7494
130.66772
131.1153
131.18327
132.54409
133.85831
136.85226
139.4523
145.96007
132.35808
131.28903
131.68287
131.69707
132.92957
134.07544
136.78933
138.93817
144.91622
132.92177
131.87243
132.21401
132.18345
133.29872
134.29311
136.74258
138.46102
143.89936
133.43995
132.41566
132.71252
132.64644
133.65638
134.5174
136.72101
138.03
142.91117
133.91838
132.92285
133.17894
133.08598
134.00178
134.74767
136.72498
137.64797
141.94558
134.35724
133.39562
133.61625
133.50456
134.33728
134.98597
136.75936
137.32469
141.00308
136.9558
136.39644
136.43761
136.40537
136.86838
137.29293
138.30918
137.79404
136.55334
136.74631
136.15618
136.20984
136.15431
136.63079
137.03681
138.05319
137.44433
136.16
136.52495
135.89502
135.96271
135.88589
136.3824
136.77806
137.80909
137.15609
136.0416
136.28995
135.61246
135.69554
135.60036
136.12353
136.51785
137.58251
136.93876
136.26744
136.04054
135.30872
135.40747
135.29742
135.85346
136.25701
137.37717
136.79586
136.80453
135.76616
134.98102
135.09765
134.9768
135.57242
135.99668
137.19698
136.73176
137.52592
135.46417
134.62848
134.76476
134.63761
135.27983
135.73778
137.04337
136.74876
138.33378
135.12894
134.2476
134.40785
134.2797
134.97642
135.48221
136.91857
136.87142
139.19101
134.76115
133.83775
134.02524
133.90198
134.6619
135.23092
136.82337
137.06215
140.08314
136.96601
138.21374
138.58795
137.55459
137.101
136.64302
136.64925
136.61595
137.12867
137.56713
138.71109
138.88157
137.81136
137.32279
136.86519
136.84477
136.81632
137.26551
138.23527
139.23975
139.16749
138.05293
137.52588
137.0678
137.02217
136.99671
137.37902
138.94474
139.77141
139.43415
138.27289
137.70843
137.25089
137.18232
137.15908
137.48042
139.69086
140.29235
139.67364
138.46623
137.86873
137.41433
137.32562
137.30346
137.5618
140.46639
140.79264
139.88052
138.63281
138.00727
137.55962
137.45341
137.43096
137.63285
141.26436
141.26806
140.05375
138.77651
138.12755
137.68982
137.56769
137.54061
137.68797
142.08013
141.72154
140.20757
138.91391
138.24361
137.81306
137.67242
137.63299
137.73061
142.89729
142.17254
140.39522
139.0828
138.38061
137.94274
137.77282
137.70797
137.75009
143.80722
142.68358
140.70881
139.36441
138.60169
138.13113
137.90496
137.78679
137.75537
144.82987
143.23597
141.09239
139.70779
138.88859
138.38916
138.1059
137.91627
137.80816
145.84713
143.74758
141.46943
140.04494
139.17515
138.64969
138.31912
138.06908
137.89759
146.8501
144.22563
141.83402
140.3778
139.4678
138.91678
138.54554
138.24566
138.01959
147.80623
144.65617
142.16352
140.69406
139.75808
139.18663
138.78264
138.44358
138.17202
148.63847
145.01925
142.44714
140.991
140.04079
139.45588
139.02791
138.65974
138.35222
149.20424
145.27601
142.66548
141.26009
140.3115
139.72078
139.27746
138.89029
138.55791
149.3225
145.42352
142.8442
141.50673
140.57139
139.97986
139.52742
139.13059
138.78632
148.87104
145.44913
142.99479
141.72847
140.81834
140.22978
139.77379
139.37607
139.03327
140.77818
140.87641
141.07146
141.38648
141.79936
142.37825
143.04894
144.33676
144.7063
140.72413
140.83529
141.04893
141.37576
141.82501
142.43556
143.24014
144.51965
145.41958
140.61789
140.75295
140.98942
141.33654
141.80608
142.44933
143.28272
144.66431
145.65672
140.46435
140.63197
140.89516
141.26384
141.74956
142.43196
143.31962
144.80063
146.0142
140.27309
140.47601
140.76806
141.15804
141.66254
142.38258
143.34592
144.93989
146.45702
140.05157
140.29103
140.61148
141.02054
141.54825
142.30957
143.3403
145.07463
146.88281
139.80755
140.08292
140.42982
140.85491
141.40226
142.20337
143.2993
145.19901
147.33384
139.55104
139.85703
140.22737
140.66599
141.23054
142.06867
143.21951
145.29784
147.78936
139.29059
139.61965
140.00781
140.45826
141.0366
141.91109
143.11637
145.37306
148.26125
147.58891
148.28491
148.98287
149.80522
150.74907
151.7677
152.86078
153.99194
155.06504
148.28491
148.92575
149.65459
150.5089
151.47189
152.49516
153.57322
154.68445
155.73419
148.98288
149.65459
150.42226
151.29656
152.25882
153.2737
154.33427
155.42879
156.49367
149.80523
150.5089
151.29657
152.16699
153.11347
154.11189
155.15645
156.24976
157.35889
150.7491
151.47192
152.25885
153.11349
154.03199
155.01158
156.04427
157.15158
158.33142
151.76776
152.49522
153.27376
154.11194
155.01162
155.98177
157.02177
158.17031
159.41869
152.86086
153.57331
154.33438
155.15656
156.04435
157.02183
158.07879
159.29628
160.66608
153.99211
154.68464
155.42899
156.24997
157.15177
158.17049
159.29646
160.5392
161.90689
155.06537
155.73453
156.49402
157.35927
158.33181
159.41906
160.66653
161.90724
163.67487
168.00132
164.6252
163.4352
161.6081
160.27476
159.00546
157.9358
157.00595
156.2493
158.08908
159.11444
159.0708
159.00302
158.66824
158.16825
157.59775
156.93896
156.25394
154.4926
155.02808
155.15452
155.37797
155.39982
155.34465
155.22172
154.99033
154.63016
152.117
152.431
152.40717
152.58667
152.59913
152.6293
152.59941
152.56303
152.40588
150.35454
150.53905
150.51919
150.59991
150.57618
150.575
150.54286
150.53279
150.4631
148.75508
148.87981
148.82546
148.91054
148.84735
148.87328
148.80375
148.79036
148.71898
147.33234
147.37354
147.3347
147.3581
147.31082
147.29557
147.24875
147.21465
147.16099
145.96046
145.95381
145.88247
145.89989
145.81678
145.81608
145.73932
145.71278
145.64323
144.65416
144.58641
144.51751
144.46332
144.38931
144.32943
144.27053
144.2175
144.15568
142.76238
141.3927
139.89865
138.17699
136.21486
133.66147
130.61162
126.93599
124.11838
142.84373
141.46437
139.9499
138.20104
136.15158
133.58359
130.40037
126.82123
123.34371
142.86509
141.4855
139.9267
138.15704
136.02188
133.42239
130.13489
126.44999
122.42037
142.94777
141.52834
139.99008
138.14894
136.01902
133.28488
129.92714
125.90964
121.42711
142.9724
141.58213
139.9895
138.18127
135.96696
133.22307
129.70763
125.42799
120.47414
143.07268
141.64674
140.06257
138.21712
135.99437
133.17869
129.59727
124.92548
119.61345
143.10996
141.72144
140.11405
138.31045
136.03221
133.26501
129.54576
124.73391
118.75885
143.19551
141.77417
140.17995
138.34049
136.09914
133.24651
129.5599
124.49217
120.10481
143.31161
141.91196
140.3197
138.53484
136.28459
133.57005
129.74207
124.79996
117.49485
124.65913
127.30758
130.48388
132.73953
134.24704
135.66166
137.03083
138.37738
139.66273
123.4992
126.45205
130.10681
132.4904
134.06562
135.55606
137.00746
138.39332
139.70486
122.1209
125.69015
129.80682
132.24299
133.84962
135.38615
136.88904
138.31531
139.65013
120.2769
124.86039
129.55982
132.06407
133.77891
135.38596
136.94374
138.38121
139.72382
117.95512
123.80158
129.06238
131.60334
133.41603
135.13231
136.76881
138.25862
139.63059
115.20416
123.67225
129.25891
131.67345
133.53496
135.26607
136.89816
138.36936
139.73156
109.64479
121.96216
128.61741
131.04936
133.11279
135.00096
136.72125
138.23456
139.62603
105.60652
122.44019
129.09792
131.26907
133.28635
135.15502
136.84688
138.33731
139.71158
94.95361
120.92069
128.68802
130.90765
133.0668
135.03195
136.76624
138.26613
139.65757
140.91465
142.13538
143.38671
144.65789
145.98822
147.35265
148.78906
150.30019
151.92352
140.95203
142.18332
143.42927
144.71303
146.04088
147.42406
148.86721
150.40012
152.02777
140.91597
142.1649
143.42657
144.72723
146.06597
147.46578
148.91795
150.46881
152.11085
140.97935
142.23543
143.49279
144.8001
146.13761
147.54596
149.00289
150.56758
152.21891
140.90685
142.18259
143.45826
144.77947
146.1303
147.5531
149.02755
150.61132
152.27924
140.993
142.26142
143.52794
144.8466
146.19405
147.61877
149.0925
150.68073
152.35237
140.91041
142.19899
143.48503
144.81835
146.17744
147.61262
149.09757
150.6985
152.38133
140.98604
142.26404
143.54352
144.87028
146.22723
147.65993
149.14498
150.74562
152.43016
140.9412
142.22968
143.5142
144.84942
146.20799
147.64704
149.13304
150.73992
152.42616
153.6597
155.53935
157.55919
159.72816
162.03172
164.49049
167.03906
169.7106
171.61879
153.78924
155.67962
157.7381
159.94875
162.33949
164.89948
167.6064
170.41044
172.47153
153.8989
155.81294
157.91185
160.16732
162.64377
165.30819
168.1614
171.06155
173.32663
154.0266
155.95619
158.0905
160.37805
162.92591
165.65635
168.63495
171.64605
174.17437
154.10702
156.05617
158.21981
160.5392
163.14396
165.93677
169.04749
172.1862
175.01657
154.19055
156.15053
158.33647
160.67756
163.33041
166.17084
169.41758
172.67649
175.84623
154.23518
156.20521
158.41197
160.76886
163.46368
166.33574
169.70918
173.09165
176.66898
154.287
156.25992
158.47771
160.84226
163.56806
166.4572
169.94871
173.40931
177.63605
154.28892
156.26805
158.4911
160.86746
163.59998
166.51703
170.06183
173.61159
177.77395
172.56746
165.41949
162.4576
159.34807
156.16205
153.072
150.09059
147.1966
144.35897
173.72924
166.23053
163.17693
159.93405
156.67281
153.50347
150.50785
147.56608
144.71556
174.82496
166.96828
163.84296
160.52434
157.18963
153.96617
150.94254
147.97926
145.11533
175.93945
167.64548
164.4334
160.99618
157.65038
154.35393
151.3341
148.31441
145.46106
177.10948
168.49328
165.14153
161.61473
158.19839
154.89179
151.82001
148.80873
145.91983
178.27251
169.05901
165.62105
161.99472
158.57164
155.17947
152.10969
149.03705
146.158
179.69574
170.12975
166.38259
162.69292
159.22096
155.79814
152.69744
149.61241
146.72443
180.43973
170.40637
166.60442
162.86032
159.38751
155.92092
152.81609
149.70584
146.81642
182.89862
172.04066
167.58866
163.71769
160.19786
156.67757
153.53248
150.39015
147.4878
141.51441
138.66284
135.78354
132.88217
129.93786
126.94762
123.89214
120.76261
117.55101
141.83531
138.98976
136.08424
133.19399
130.22683
127.24848
124.17254
121.05277
117.8219
142.23701
139.38879
136.49301
133.6007
130.6465
127.67076
124.61328
121.50579
118.29681
142.53963
139.70874
136.78547
133.90879
130.93797
127.97371
124.90894
121.8092
118.60276
143.00996
140.16073
137.24475
134.36689
131.39392
128.4451
125.36917
122.30451
119.07238
143.21162
140.37737
137.44527
134.5762
131.60093
128.65094
125.58883
122.51019
119.3196
143.76864
140.94016
137.99623
135.14367
132.15327
129.23409
126.14763
123.12393
119.87151
143.85038
141.02044
138.07925
135.2214
132.24181
129.30939
126.24617
123.19612
120.00606
144.504
141.6782
138.72573
135.88344
132.89407
129.98712
126.91333
123.90644
120.67096
113.86602
109.63151
105.33596
100.86259
96.346224
92.085751
88.053156
82.279513
74.804033
114.19102
110.04415
105.84249
101.49317
97.085174
92.997653
89.360261
84.361574
77.864424
114.70825
110.65103
106.56836
102.29756
98.092435
93.946085
90.57663
85.580741
80.388982
115.08892
111.1522
107.15812
102.99694
98.852859
94.815831
91.737011
88.567371
82.850125
115.62463
111.72741
107.91397
103.78469
99.815607
95.659552
92.925327
88.557671
90.917349
115.92132
112.20309
108.38755
104.43962
100.37286
96.358587
92.906877
92.51007
91.56178
116.57467
112.88483
109.34239
105.41285
101.60951
97.452619
94.282838
88.703339
112.51711
116.71824
113.18612
109.5661
105.8497
101.91171
97.87537
93.241835
90.995003
101.90385
117.51331
114.10254
110.77005
107.17414
103.61928
99.709566
97.241778
79.881495
139.93258
55.870956
42.761066
44.687694
41.932467
40.070978
44.155017
46.391486
47.010012
46.353994
57.112592
42.161019
44.86175
42.613277
43.073784
44.837395
46.625739
47.099339
46.472946
57.507222
41.359432
45.254394
42.513555
42.234315
45.05496
46.794614
47.169449
46.593977
55.861849
39.901127
45.983966
42.569523
43.925248
45.459672
46.931066
47.315056
46.706491
51.333171
38.053148
46.444648
42.783189
43.887564
45.852336
47.083673
47.436262
46.847666
46.16977
38.512405
47.71411
42.370264
44.549558
46.248542
47.181106
47.586737
46.976288
48.423684
50.140638
45.569672
43.122005
44.933246
46.537594
47.313728
47.714021
47.099125
47.99365
35.008494
46.426423
42.541974
45.229276
46.771488
47.377344
47.82097
47.18104
-26.289384
57.861013
43.776361
43.279699
46.060799
46.998211
47.505793
47.888038
47.22227
45.025798
43.556093
41.488665
39.164419
36.933623
33.508464
30.79048
21.697056
25.852937
45.263144
43.784421
41.633819
39.307685
36.834886
32.868248
29.746276
21.811758
27.134361
45.324786
43.716519
41.547623
39.051056
36.345111
32.030157
28.252106
22.10382
27.174246
45.415714
43.783902
41.475805
38.881219
35.909237
31.46636
27.371159
22.217171
29.103146
45.546821
43.826555
41.407473
38.706437
35.478807
30.981959
26.877174
24.253437
31.061555
45.638576
43.889116
41.362462
38.507634
35.105101
30.642311
26.891898
26.121915
32.967718
45.741712
43.901715
41.239199
38.212458
34.67632
30.256034
27.316496
28.327876
35.562963
45.794856
43.931567
41.192523
38.056355
34.425908
30.313562
27.509525
29.700138
36.57908
45.807964
43.806411
40.897213
37.537812
33.753719
29.773301
28.121393
32.163575
39.516147
26.270089
26.531525
26.85743
30.110038
32.744829
36.030979
35.2088
32.442567
29.76801
27.165831
26.158631
25.53098
28.883692
32.442981
36.094214
36.276609
34.505211
33.223339
28.093776
26.511415
26.200506
28.767859
32.181638
35.572312
36.693514
36.304875
35.976981
29.585439
26.199117
25.401533