/*--------------------------------*- C++ -*----------------------------------*\
  =========                 |
  \\      /  F ield         | OpenFOAM: The Open Source CFD Toolbox
   \\    /   O peration     | Website:  https://openfoam.org
    \\  /    A nd           | Version:  11
     \\/     M anipulation  |
\*---------------------------------------------------------------------------*/
FoamFile
{
    format      ascii;
    class       volScalarField;
    location    "0.1645";
    object      T;
}
// * * * * * * * * * * * * * * * * * * * * * * * * * * * * * * * * * * * * * //

dimensions      [0 0 0 1 0 0 0];

internalField   nonuniform List<scalar> 
880
(
300
300
300.0000000080092
300.0011208931584
300
300
300.0000000426094
300.0045297380023
300
300
300.0000003124545
300.0208326614515
300.0000000000001
300
300.0000041551269
300.0606032139827
300
300
299.9999999998997
299.9999999986555
300.0000000029061
299.9999999308455
300.0000012832644
299.9999860499508
299.9999635777022
300.0002680569878
300.0605831139753
299.9161495739185
301.8338087295302
306.1936577992296
309.9224689016118
311.4438787165181
300.0000090028354
300.0001379355508
300.0002064616253
300.0002137474788
300.0003841371497
300.0009679114148
300.0035464803317
300.0035236847643
300.1541336551587
300.3255131957354
300.5659708544561
300.7399098933287
313.2483791601732
315.1681671616361
316.9995711341077
319.2229075558611
318.4536584196013
315.4523206515452
312.765787022046
311.1830179959912
301.3249719981345
302.6537547723336
303.2654655264697
303.2959666065377
300.0108695842225
300.0393677561588
300.0800307699453
300.1089378564067
300.0006395600124
300.0020399404206
300.0052485677741
300.0074568428142
300.0073968410188
300.0061419168974
300.003976803981
300.0018341619005
300.1160944658803
300.1050776003966
300.0859685890509
300.0603214180949
303.0423051155935
302.5618282501172
302.032536711876
301.507857606922
310.1062450199217
308.751825079205
307.020299401806
305.3952932799769
304.0196382860303
301.0023221853912
300.031869064297
300.0004849160642
302.9088821228511
300.5475254188029
300.0103861467485
300.0000532072702
301.4675461289544
300.1509579689466
300.0012489001546
299.9999791674525
305.7938366515681
300.0808237932836
300.0002537458466
300.000057055908
299.9999327403586
299.9999942558645
300.244199749686
331.433743863318
300.0000808743317
300.004879360747
301.2635003985054
351.8846975787377
300.0005253970861
300.0123087528761
302.8204715558141
362.8147472829474
300.0020247288766
300.0421213739991
305.1517649406523
371.7940325296153
378.6852228356743
308.229192603965
300.0786569667843
300.0041310488279
385.7795261275772
312.0707985779177
300.1688715218804
300.0094132613371
392.342824755399
316.8600853657244
300.2867235728981
300.0136404061305
399.30793452082
322.1689281196765
300.4671290298575
300.0244315149079
300.0337403760393
300.70749983633
328.2998559409319
403.9568190187634
300.0547962545753
301.1268267898016
333.493786537051
403.4870485080616
300.1376933083985
301.3370974274749
330.1589071027728
390.0662974045291
299.9703971744952
300.8356189566961
320.8463142061784
365.8548142615459
300.1464949486035
301.7186097494921
318.2462036434398
342.9503526803323
300.1803101128592
301.8347601602356
310.3051287931577
320.6840756177043
300.0760563240587
301.2171174221197
307.7355379027402
310.7704505524123
300.006114374154
300.7586972884765
308.2957176110473
321.8307554606894
325.9570316183095
306.0501650291618
300.0805300705479
299.9894929969824
322.0458294749391
302.9765617194225
299.7871957223987
299.9785970333162
316.6107880960427
300.2762432328439
299.6390872976434
299.9825100761315
308.6361352944377
298.2411880032481
299.5815975940702
299.9925242639347
298.5925671595524
297.790646313859
299.7853600269101
299.9979932597199
284.943916556876
297.8857216829234
299.9353838674014
299.9995758006054
276.9176539341305
298.1671641246127
299.9706743211879
299.99985418603
276.9486145259681
299.1502463199235
299.9946222224647
299.9999428390542
301.7474156733981
299.1812560307215
299.8920221073641
299.9983496716889
300.1344258797581
299.1883956717785
299.893211077634
299.9982772228844
298.2437729825115
299.1338573795256
299.9063354350137
299.9982893691679
298.1509332415704
299.2130129628749
299.9032913271797
299.9979384332449
276.9486145254786
299.1502463192188
299.9946222208229
299.9999428424043
276.9176539337703
298.1671641248111
299.9706743180143
299.9998541850145
284.9439165562511
297.8857216843713
299.9353838679826
299.9995758013614
298.5925671595189
297.7906463158473
299.7853600270258
299.99799325865
299.9894929975909
300.0805300719872
306.0501650285701
325.9570316199189
299.9785970343355
299.7871957231045
302.9765617203357
322.0458294755931
299.98251007442
299.6390872996795
300.2762432318843
316.6107880961828
299.9925242645298
299.5815975952578
298.2411880057183
308.6361352939614
321.8307554564161
308.2957176092605
300.7586972857326
300.0061143731521
310.7704505512906
307.7355379012774
301.2171174212061
300.0760563208279
320.6840756182247
310.305128791845
301.8347601603535
300.1803101121845
342.950352680476
318.2462036430796
301.7186097481433
300.1464949541711
300.0337403751795
300.7074998395584
328.2998559418725
403.9568190195859
300.0547962545139
301.1268267931462
333.4937865381949
403.4870485081434
300.1376933026742
301.3370974276006
330.1589071027703
390.0662974047563
299.9703971859289
300.8356189572355
320.8463142055871
365.8548142615834
399.307934522364
322.1689281195639
300.4671290298662
300.0244315154339
392.3428247578271
316.8600853706542
300.2867235779872
300.0136404062383
385.7795261272582
312.070798577042
300.1688715241154
300.0094132601912
378.6852228363348
308.2291926018943
300.0786569600511
300.0041310476883
299.9999327427091
299.9999942562503
300.2441997496427
331.4337438618621
300.000080874309
300.0048793629164
301.2635003996328
351.8846975781112
300.0005253959636
300.0123087466121
302.8204715564745
362.8147472840424
300.0020247270617
300.0421213825479
305.15176494093
371.794032529895
300.0000570544952
299.9999791686303
300.0000532067656
300.0004849149467
300.0002537435007
300.0012489017281
300.0103861483061
300.0318690627148
300.0808237937967
300.1509579694272
300.5475254174537
301.0023221858352
305.7938366515491
301.4675461291747
302.9088821226536
304.0196382862165
300.0018341594385
300.0603214183757
301.5078576085086
305.3952932805902
300.003976804099
300.0859685887678
302.0325367137769
307.0202994019028
300.0061419183646
300.1050776007181
302.561828249384
308.7518250785765
300.0073968409007
300.1160944662376
303.042305116525
310.1062450194391
300.0006395578582
300.0108695825489
301.3249719993645
318.4536584197093
300.002039937874
300.0393677557479
302.6537547735808
315.4523206508844
300.0052485660238
300.0800307715618
303.2654655268584
312.7657870218127
300.0074568415257
300.1089378577769
303.295966606576
311.1830179952617
319.2229075566317
300.7399098964955
300.0035236837427
300.0002137463943
316.9995711344134
300.5659708569861
300.0035464795681
300.0002064552844
315.1681671627216
300.325513196734
300.0009679113837
300.0001379421673
313.2483791582214
300.1541336509591
300.0003841369279
300.0000090038467
311.4438787154158
299.9161495718821
299.9999860501371
299.9999999996017
309.9224689005259
300.0605831111215
300.0000012834366
299.999999999857
306.1936577994844
300.0002680563719
299.9999999309371
300
301.8338087299537
299.9999635769132
300.0000000029303
299.9999999999999
300
299.9999999999999
300.0000000086788
300.0011208982862
300.0000000000002
300
300.0000000429118
300.0045297407171
300
300
300.0000003125579
300.0208326647419
300
300.0000000000002
300.0000041534574
300.0606032117855
300.0032758022958
300.0119041202134
300.0392534650774
300.3909257382809
300.0119041286198
300.0192733082607
300.0671719441843
301.3459637163164
300.0392534692329
300.067171943827
300.5732362304728
307.4657164339742
300.3909256872985
301.3459636090269
307.4657163348604
327.7056130677532
356.323458378051
337.7430875696871
324.6220293621998
312.3040198097505
353.1496551860043
348.0936790911808
343.321469147037
334.5372353423704
350.8428590080442
348.7993058298686
346.5892467267182
342.8213690577081
349.7704890696528
348.6706987230593
347.8682571755575
345.7717080269214
346.9813532571073
346.6482576791424
346.840009802965
348.1425568112436
347.8609140103328
346.4800731284021
346.1911669347093
347.4002539091355
348.1085499923389
346.4432554397366
345.6311960525542
346.321935040721
348.3884198096579
346.4980790704879
345.5564161122236
341.4436476272037
330.5822959967776
310.845148115253
301.3470529639022
301.8390117999677
321.5979845514058
303.4978490799814
299.5900914150748
302.4073823802263
311.0058939493644
298.1940418662808
300.3022028960324
303.9185363413126
288.0089716678373
291.2986338498819
299.4198177551491
303.7257949978763
303.0233485206413
303.4805097673495
303.1935015301505
302.6524577491406
304.2858435084789
304.2606155479261
303.8264624803516
302.9974918236874
305.6308929885724
305.2796777691688
304.5903371941422
303.5622024876299
305.1361769364717
304.9710414615049
304.5311791644705
303.6012878604449
302.2804293076456
301.8474876580814
302.3153909283297
342.647738373357
302.3020289074099
301.9097359351518
303.1439572268944
359.8987204666614
302.5210838699813
302.1555881860725
304.4595851667902
369.7768512442975
302.3405829163298
302.1028477058525
307.1763841835172
377.1419454301779
418.0593549690303
426.3024591183168
426.3169507327341
426.758512396772
429.6844999216035
430.4417940373622
428.0197954145487
426.449490463779
430.8228357055167
429.7638882386876
428.4201073063219
426.3595195417874
436.8001727679983
432.3680210112303
429.7194072006122
426.4885203716782
425.2712756737435
424.619977182678
424.8956151757816
426.8162070749081
423.6760811345745
422.280099838535
422.017753162831
423.3362264475491
422.2423046161577
419.4036180987464
418.4666868177829
419.300064707971
422.5694169970693
418.5533232340534
416.8373610799265
417.3113571052285
427.4565972263368
424.3418093401597
412.5595206492505
394.10588459704
424.0896187665918
421.7191711974799
411.1669907082633
412.2930177881323
420.0396682582265
418.5958885161481
414.4951105640304
427.9416172205799
417.8081740008641
417.7041695993731
420.5965518388957
410.3190959111829
359.1990589475229
299.9460192320652
203.781796679251
187.9344465484999
351.835862416622
266.6223097110297
177.8471536407952
148.4075374216227
317.8553401988878
214.5198654723765
152.1420031114133
137.658332278895
242.4189052511074
142.6687640166516
147.479610626621
136.2635954159807
209.3296099881743
234.7091353630405
252.7554814926096
253.0904506631653
164.6087979386574
198.4405483277454
229.0933324656276
244.6203306357937
147.2096267003668
175.1312518811764
212.0407669199703
243.5980078932687
143.9638230879577
169.8664272179346
210.8946649087712
248.0641662343461
283.5281594807198
265.629825225971
250.5733876119803
246.8815212085045
284.5757459473641
271.787370523353
254.3786842647678
253.3932879282096
276.1932483133516
276.6152082884783
265.9089604808533
268.4017771926458
264.4961701768459
276.4615683369585
273.1648307412612
284.8485691136576
227.2794074029714
205.6716423062114
208.7754087661092
212.7709751495885
234.0314532174842
226.1140259730762
227.338526168192
209.8168374582166
237.7884865736372
235.717657318261
222.6219354544447
193.9746110888591
228.3023645320052
230.0044652091489
209.2298872776324
183.7687525582061
171.9683389961679
170.2414642776938
171.8430950161697
172.9588127890984
175.8373074664358
172.0240933965826
174.3515414479668
175.9888867797703
196.1840561123995
198.7149920132079
200.5907532175615
201.4287752421905
232.4150783219538
238.7405705199248
235.880154633436
234.3457419733659
172.9588127891842
175.9888867797156
201.4287752420539
234.3457419731749
171.8430950163418
174.3515414478702
200.5907532174904
235.8801546332663
170.2414642778463
172.0240933966813
198.7149920132413
238.7405705195722
171.9683389962915
175.837307466638
196.184056112618
232.4150783216071
212.7709751493748
208.7754087657089
205.6716423056235
227.2794074019383
209.8168374582411
227.338526168276
226.1140259732324
234.031453216724
193.9746110889797
222.6219354544287
235.7176573181353
237.788486573344
183.7687525582704
209.2298872776256
230.0044652091857
228.3023645319274
284.848569113296
273.1648307403668
276.4615683350994
264.4961701750163
268.4017771921992
265.9089604801879
276.6152082868338
276.1932483116607
253.3932879276969
254.3786842641317
271.7873705219797
284.5757459466203
246.8815212079568
250.5733876114644
265.6298252246939
283.5281594804823
253.0904506626678
252.75548149304
234.7091353640596
209.329609988344
244.6203306345624
229.0933324657196
198.4405483289029
164.6087979389558
243.5980078917574
212.0407669194474
175.1312518817345
147.20962670067
248.0641662325068
210.8946649078502
169.8664272180331
143.9638230881362
187.9344465471469
203.7817966781896
299.9460192319954
359.1990589474815
148.4075374211577
177.8471536396126
266.6223097103806
351.8358624159566
137.6583322785271
152.1420031098674
214.5198654720729
317.855340198847
136.2635954159124
147.4796106251649
142.6687640153753
242.4189052509445
394.1058845968981
412.5595206494432
424.3418093403016
427.4565972272827
412.2930177880835
411.1669907084871
421.7191711979455
424.0896187678443
427.9416172207178
414.4951105644446
418.595888517066
420.0396682598208
410.3190959113246
420.5965518396575
417.7041696005455
417.8081740026751
426.816207076776
424.8956151760894
424.6199771824691
425.2712756738181
423.3362264494207
422.0177531633768
422.2800998384274
423.6760811344226
419.3000647097504
418.4666868184638
419.4036180986837
422.2423046160575
417.3113571070541
416.837361080648
418.5533232339867
422.5694169970736
426.7585123973138
426.3169507333415
426.3024591177677
418.059354967938
426.4494904644596
428.0197954151272
430.4417940371341
429.684499921126
426.3595195424975
428.420107306818
429.7638882385092
430.8228357061765
426.4885203722804
429.7194072012924
432.3680210110026
436.8001727686498
342.647738371588
302.3153909278686
301.8474876584229
302.2804293082506
359.8987204653421
303.1439572260577
301.9097359355729
302.3020289081642
369.776851243069
304.4595851657878
302.155588187071
302.5210838707989
377.1419454292371
307.1763841816393
302.1028477071422
302.3405829174461
302.652457749489
303.1935015302645
303.4805097668861
303.0233485200678
302.9974918238956
303.8264624804961
304.260615547477
304.2858435078961
303.562202487831
304.5903371942261
305.2796777688041
305.6308929879973
303.6012878608759
304.5311791646363
304.971041461103
305.1361769360824
301.8390117990192
301.3470529632989
310.8451481150108
330.5822959975908
302.4073823789231
299.5900914143299
303.4978490795975
321.5979845523207
303.9185363397395
300.3022028954674
298.1940418657582
311.0058939498959
303.7257949960837
299.4198177544403
291.2986338491544
288.0089716678295
348.1425568122207
346.8400098032109
346.6482576804021
346.9813532558237
347.4002539097584
346.1911669343638
346.4800731295883
347.8609140084525
346.3219350407885
345.6311960522008
346.4432554408598
348.1085499912265
341.4436476274757
345.5564161121409
346.4980790711824
348.3884198084078
345.7717080260263
342.8213690551035
334.5372353341134
312.3040198268048
347.8682571744181
346.5892467241741
343.3214691396637
324.6220293505125
348.6706987231802
348.7993058285498
348.0936790884483
337.7430875579719
349.7704890708693
350.8428590090118
353.1496551873021
356.3234583682384
274.68038050577
298.5028184852142
299.9700423973536
299.9998130789444
274.2068993859864
298.4723851841251
299.967863822328
299.9997391452807
282.0080337782503
298.7826253178887
299.9650990121009
299.9996243441708
293.6288022505397
299.1087349194719
299.9405493947929
299.9989545372727
299.9983496726391
299.8920221083579
299.1812560295614
301.7474156741038
299.9982772241879
299.8932110790022
299.1883956700961
300.1344258790461
299.9982893665767
299.9063354366558
299.1338573784803
298.2437729808783
299.9979384283854
299.9032913289879
299.2130129597705
298.1509332400875
299.9989545348773
299.9996243401866
299.9997391379111
299.9998130732491
299.9405493960094
299.9650990125796
299.9678638221781
299.9700423955383
299.1087349192405
298.7826253156222
298.4723851846324
298.5028184843652
293.6288022489399
282.0080337767564
274.206899385788
274.6803805057341
)
;

boundaryField
{
    back
    {
        type            empty;
    }
    inlet
    {
        type            zeroGradient;
    }
    front
    {
        type            empty;
    }
    top
    {
        type            zeroGradient;
    }
    outlet
    {
        type            fixedValue;
        value           uniform 300;
    }
    bottom
    {
        type            zeroGradient;
    }
    wall
    {
        type            zeroGradient;
    }
}


// ************************************************************************* //
