/*--------------------------------*- C++ -*----------------------------------*\
  =========                 |
  \\      /  F ield         | OpenFOAM: The Open Source CFD Toolbox
   \\    /   O peration     | Website:  https://openfoam.org
    \\  /    A nd           | Version:  11
     \\/     M anipulation  |
\*---------------------------------------------------------------------------*/
FoamFile
{
    format      ascii;
    class       surfaceScalarField;
    location    "9.025";
    object      phi;
}
// * * * * * * * * * * * * * * * * * * * * * * * * * * * * * * * * * * * * * //

dimensions      [0 3 -1 0 0 0 0];

internalField   nonuniform List<scalar> 
8667
(
15.885056
1.9656082
-0.072886182
13.977797
2.0651241
-0.15786555
12.063345
2.1290151
-0.214563
10.148265
2.1265428
-0.21146274
8.2396825
2.1397415
-0.23115894
6.3404077
2.0828793
-0.18360456
4.4528076
2.0270871
-0.13948692
2.6207152
1.8053237
0.026768676
1.4917171
0.28781379
0.8411843
15.886476
3.8569104
13.97571
3.9758897
12.061546
4.0431798
10.142955
4.0451337
8.2348
4.0478963
6.3295803
3.9880991
4.448113
3.9085544
2.6226909
3.6307458
3.2845121
0.8298959
15.883898
5.7507902
13.977412
5.8823762
12.064645
5.9559462
10.143613
5.966166
8.2255509
5.9659584
6.3201433
5.8935066
4.4363763
5.7923214
2.6147267
5.4523954
5.0933161
0.8059226
15.884695
7.6438735
13.978853
7.7882181
12.063612
7.8711872
10.144177
7.8856011
8.2212172
7.888918
6.3124764
7.8022474
4.4197914
7.6850064
2.5965716
7.2756152
6.9024791
0.78740868
15.885044
9.5366051
13.981603
9.6916592
12.066954
9.7858363
10.147941
9.804614
8.2213182
9.8155411
6.3074021
9.7161635
4.4072376
9.5851709
2.5831933
9.0996595
8.6973263
0.78834598
15.886608
11.427775
13.987269
11.590998
12.07152
11.701585
10.149589
11.726545
8.2201243
11.745006
6.3002089
11.636079
4.3930813
11.492298
2.5596898
10.933051
10.494238
0.76277845
15.888693
13.31686
13.992342
13.487349
12.077628
13.616299
10.153771
13.650403
8.2215002
13.677277
6.295716
13.561863
4.3802795
13.407735
2.5447726
12.768558
12.288825
0.75018517
15.890747
15.203891
13.997585
15.380511
12.085973
15.527911
10.160559
15.575816
8.2243814
15.613455
6.2932629
15.492982
4.3669881
15.33401
2.5182968
14.617249
14.078706
0.72841617
15.893171
17.088498
14.002599
17.271084
12.094234
17.436276
10.16854
17.50151
8.2281649
17.55383
6.2905634
17.430583
4.3538895
17.270684
2.496368
16.474771
15.868744
0.70632997
18.909618
15.956657
20.727816
15.95958
22.54209
15.963511
24.353925
15.965945
26.162184
15.9695
27.96712
15.972845
29.770656
15.974244
31.566877
15.981559
15.979052
33.365604
19.101318
14.126423
20.92704
14.133858
22.747507
14.143043
24.561435
14.152017
26.371383
14.159552
28.172271
14.171957
29.969029
14.177487
31.761706
14.188882
14.191064
33.549693
19.288668
12.274032
21.135767
12.286759
22.98132
12.29749
24.820216
12.313121
26.657276
12.322492
28.487833
12.341399
30.316322
12.348999
32.14133
12.363874
12.371017
33.961378
19.378126
10.397415
21.252864
10.412021
23.128299
10.422056
25.001347
10.440073
26.871536
10.452303
28.740053
10.472882
30.601084
10.487967
32.455518
10.50944
10.526977
34.299557
19.44901
8.502235
21.352158
8.5088731
23.256971
8.5172422
25.168914
8.5281305
27.079002
8.5422146
28.998686
8.5531981
30.919434
8.5672195
32.85129
8.5775844
8.59651
34.781757
19.323486
6.6093321
21.231789
6.6005705
23.145644
6.6033866
25.075421
6.5983537
27.006957
6.6106785
28.947882
6.6122733
30.88321
6.6318916
32.821486
6.6393079
6.6618354
34.756161
19.167806
4.7122097
21.091128
4.6772489
23.032964
4.6615502
25.004687
4.626631
26.997067
4.6182979
29.010383
4.5989572
31.04014
4.602135
33.083915
4.5955326
4.6055693
35.140182
18.306431
2.8805495
20.199238
2.7844419
22.146294
2.7144946
24.134132
2.6387922
26.146111
2.6063196
28.18226
2.562808
30.230037
2.5543577
32.296495
2.5290748
2.5399909
34.362073
17.659771
1.0895222
19.653573
0.79063961
21.88683
0.48123816
24.190352
0.33526987
26.502022
0.2946491
28.827568
0.23726249
31.164088
0.21783779
33.503687
0.18947553
35.84765
0.19602826
33.271408
0.094195822
33.179077
0.092331375
33.096373
0.082703779
33.015789
0.080584403
32.945658
0.070131036
32.876283
0.069374757
32.817816
0.058467164
32.759232
0.058584278
0.0467058
32.712526
33.487525
0.1563641
33.427818
0.1520385
33.374755
0.13576641
33.323259
0.13208112
33.276053
0.11733709
33.233598
0.1118289
33.191784
0.10028193
33.158422
0.091946414
0.084252248
33.120875
33.907956
0.20978525
33.863691
0.19630411
33.813237
0.18622003
33.771393
0.1739249
33.722019
0.16671137
33.682294
0.15155414
33.634439
0.1481371
33.598671
0.12771464
0.12888398
33.554039
34.247006
0.26233636
34.200147
0.2431631
34.14887
0.23749738
34.102803
0.21999095
34.05355
0.21596477
34.008416
0.19668829
33.962784
0.19376918
33.918515
0.17198359
0.17089369
33.876505
34.719768
0.32432553
34.65898
0.30395159
34.599291
0.29718572
34.539676
0.27960621
34.480994
0.27464658
34.422614
0.25506847
34.365467
0.25091619
34.309186
0.2282652
0.22579937
34.25428
34.698677
0.3818092
34.645636
0.3569925
34.595118
0.3477034
34.548418
0.32630704
34.503628
0.31943663
34.461004
0.2976922
34.420887
0.29103273
34.37988
0.26927249
0.26334197
34.342337
35.093905
0.42808591
35.050871
0.40002667
35.011225
0.38734874
34.97189
0.36564231
34.934259
0.35706717
34.892658
0.33929323
34.850075
0.33361635
34.800175
0.31917233
0.31626883
34.747248
34.421265
0.36889423
34.476247
0.34504502
34.544153
0.31944297
34.602387
0.30740757
34.670403
0.28905181
34.722775
0.28692068
34.765545
0.29084679
34.777655
0.3070622
0.32970972
34.764214
36.055011
0.16153258
36.22618
0.17387652
36.36192
0.18370332
36.457085
0.21224195
36.4938
0.252337
36.467508
0.31321234
36.384899
0.37345589
36.225845
0.46611627
36.036314
0.51924135
35.921698
0.63077272
-0.51615705
35.651875
0.6007467
-0.33092338
35.310447
0.57342503
-0.23199744
34.943724
0.55166541
-0.18494225
34.571449
0.52546239
-0.15318745
34.196567
0.51690155
-0.1420194
33.818582
0.49266361
-0.11467925
33.43764
0.49130267
-0.11036041
0.47597151
33.059854
-0.098185134
34.829577
0.5654099
34.856696
0.57362759
34.849825
0.58029621
34.818695
0.58279471
34.760213
0.58394524
34.694209
0.58290508
34.602426
0.58444648
34.50682
0.58690852
0.5893575
34.393434
34.802411
0.51024677
34.855092
0.52094727
34.895844
0.53954346
34.930515
0.54812379
34.950025
0.5644358
34.961063
0.57186703
34.957811
0.58769817
34.949451
0.59526826
0.61176543
34.927043
34.421653
0.43093148
34.504465
0.43813469
34.580608
0.46340121
34.658972
0.46975918
34.728601
0.49480728
34.799787
0.50068089
34.861308
0.52617679
34.924346
0.53223014
0.55870071
34.977411
34.326197
0.35901477
34.401879
0.36245213
34.477095
0.38818528
34.556213
0.39064108
34.633685
0.41733537
34.715002
0.419364
34.793209
0.44796963
34.875163
0.45027673
0.48046936
34.953394
33.961197
0.27432251
34.050013
0.2736361
34.140215
0.29798398
34.234251
0.29660488
34.328856
0.32273001
34.428236
0.31998388
34.528206
0.34799998
34.63353
0.34495302
0.37543188
34.738567
33.649589
0.1787725
33.736207
0.18701815
33.833985
0.20020583
33.925498
0.20509176
34.026433
0.22179539
34.125655
0.22076165
34.230442
0.2432126
34.338423
0.23697219
0.26424435
34.449611
33.2219
0.077747628
33.319137
0.089781443
33.42489
0.09445223
33.527925
0.10205711
33.640962
0.10875836
33.750587
0.11113611
33.870943
0.12285736
33.988019
0.1198959
0.13599996
34.116263
32.790273
32.880055
32.974507
33.076564
33.185323
33.296459
33.419316
33.539212
33.675212
33.80648
-0.13126765
33.954034
-0.14755442
34.098356
-0.14432171
34.258766
-0.16041047
34.41588
-0.15711342
34.590826
-0.1749467
34.761744
-0.17091814
34.952177
-0.19043233
-0.18764124
35.139818
34.241436
-0.2564403
34.378488
-0.28460595
34.51204
-0.27787396
34.659528
-0.30789819
34.802509
-0.30009458
34.961045
-0.33348267
35.115627
-0.32550089
35.287639
-0.36244399
-0.35426603
35.454264
34.564999
-0.37182877
34.684988
-0.40459453
34.80806
-0.40094658
34.936991
-0.43682867
35.070289
-0.43339241
35.209587
-0.47278147
35.354076
-0.46998985
35.505864
-0.51423125
-0.51190469
35.663502
34.849308
-0.48256962
34.959464
-0.51475032
35.076126
-0.51760862
35.191859
-0.55256127
35.315492
-0.55702589
35.438246
-0.59553587
35.570246
-0.60198933
35.701432
-0.64541708
-0.65359479
35.843122
35.036694
-0.56586974
35.115751
-0.59380769
35.200716
-0.60257342
35.279899
-0.63174391
35.366252
-0.6433792
35.448289
-0.67757306
35.539642
-0.69334154
35.627952
-0.73372747
-0.75355064
35.727908
35.033188
-0.62164673
35.079431
-0.64005048
35.130879
-0.65402202
35.174914
-0.67577828
35.226517
-0.69498238
35.271384
-0.72243987
35.32419
-0.74614751
35.374296
-0.78383328
-0.81091864
35.431664
34.90386
-0.59846324
34.868029
-0.60422001
34.835124
-0.62111616
34.790382
-0.63103683
34.75133
-0.65593063
34.701455
-0.67256419
34.658311
-0.70300353
34.611139
-0.73666166
-0.76877195
34.568992
34.275524
-0.48055322
34.139037
-0.46773271
34.002645
-0.48472365
33.8468
-0.47519251
33.691502
-0.50063291
33.518462
-0.4995237
33.349733
-0.53427475
33.158158
-0.54508598
-0.59009378
32.979479
32.680388
-0.10108707
32.309832
-0.09717649
31.934408
-0.10929991
31.563487
-0.10427137
31.195449
-0.13259507
30.820384
-0.12445853
30.445617
-0.15950798
30.053033
-0.15250217
29.663441
-0.20050196
0.61658518
29.250656
-0.20380034
0.82088664
32.775178
0.86126806
34.528611
0.80217792
35.490754
0.70306899
35.827017
0.56147132
35.984719
0.395746
35.829228
0.20848031
35.64153
35.348298
0.66531245
28.849973
-0.26462871
0.85768617
32.582804
0.89377393
34.492523
0.82580279
35.558725
0.71260905
35.94021
0.55907911
36.138249
0.38631882
36.001988
0.20436722
35.823481
35.552666
0.71862763
28.411199
-0.27985436
0.92699849
32.374433
0.95839959
34.461122
0.88450346
35.632621
0.76948952
36.055224
0.61464862
36.29309
0.43402381
36.182613
0.22919827
36.028307
35.781864
0.77850553
28.012847
-0.38015336
0.97341948
32.179519
0.99604975
34.438492
0.91058199
35.718089
0.7798786
36.185928
0.61125803
36.461711
0.42289651
36.370974
0.22451152
36.226692
36.006375
0.85133593
27.560171
-0.39865988
1.0608799
31.969975
1.076789
34.422583
0.98224908
35.812629
0.84552516
36.322652
0.6729298
36.634306
0.4746855
36.569219
0.25092085
36.450456
36.257296
0.93788983
27.172379
-0.55009759
1.1215706
31.786295
1.1207214
34.423432
1.0094981
35.923852
0.8552055
36.476944
0.66692327
36.822588
0.46243726
36.773705
0.24733746
36.665556
36.504634
1.0401655
26.736186
-0.60397294
1.2288314
31.597629
1.2169924
34.435271
1.0954863
36.045358
0.93087107
36.64156
0.73458617
37.018873
0.5177052
36.990586
0.27416638
36.909095
36.7788
1.1483374
26.437839
-0.84998966
1.303109
31.442857
1.2688749
34.469505
1.1221871
36.192046
0.93693001
36.826817
0.72405631
37.231747
0.50059944
37.214042
0.26833419
37.14136
37.047134
1.3104072
26.023937
-0.89650596
1.43965
31.313614
1.3808416
34.528313
1.2198882
36.352999
1.0185504
37.028154
0.79621663
37.454081
0.56299307
37.447266
0.29906184
37.405291
37.346196
0.092952705
37.253243
0.23140677
37.266837
0.35655895
37.322114
0.47632183
37.334318
0.58784921
36.916627
0.68045389
36.260395
0.76951904
34.439248
0.8135643
31.269569
26.179963
0.65753895
0.074946679
37.178297
0.1855321
37.156252
0.31374739
37.193898
0.43981452
37.208251
0.53901199
36.81743
0.61109812
36.188308
0.6357915
34.414555
0.64019414
31.265166
26.244256
0.57590049
0.09974079
37.078556
0.23177482
37.024218
0.34724872
37.078425
0.44953754
37.105962
0.53414005
36.732827
0.59078076
36.131668
0.62185568
34.38348
0.59646448
31.290558
26.386635
0.45408589
0.081693031
36.996863
0.19162514
36.914286
0.31242574
36.957624
0.42606084
36.992327
0.49675521
36.662133
0.52632343
36.102099
0.50569412
34.404109
0.45011649
31.346135
26.519334
0.31741765
0.11059784
36.886265
0.24081739
36.784066
0.34887319
36.849568
0.43894009
36.90226
0.50314348
36.597929
0.53295912
36.072284
0.52895826
34.40811
0.43712407
31.437969
26.77965
0.17680831
0.099112218
36.787153
0.2177697
36.665409
0.3392168
36.728121
0.43833557
36.803141
0.48564379
36.550621
0.4867051
36.071223
0.43377344
34.461042
0.32719556
31.544547
26.902637
0.20420791
0.1279143
36.659238
0.26660801
36.526715
0.38055129
36.614178
0.46662888
36.717064
0.51137214
36.505878
0.51298892
36.069606
0.47626726
34.497763
0.36141409
31.6594
27.039632
0.22441938
0.12780985
36.531429
0.26038162
36.394143
0.39013763
36.484422
0.48935046
36.617851
0.51954597
36.475682
0.48801207
36.10114
0.39285637
34.592919
0.2791073
31.77315
27.009193
0.30954674
0.15834982
36.373079
0.31581418
36.236679
0.44144947
36.358786
0.53037003
36.52893
0.56795248
36.4381
0.54162479
36.127467
0.46058507
34.673959
0.33488543
31.898849
27.031571
0.31250745
-0.24876364
26.912637
0.36769697
-0.39413087
32.044216
-0.53156409
34.811392
-0.59395791
36.189861
-0.57439977
36.418542
-0.47409235
36.428623
-0.32955475
36.214249
-0.16770345
36.074827
36.205375
-0.31123512
26.931267
0.29260542
-0.5049042
32.237885
-0.62811209
34.9346
-0.67862423
36.240373
-0.64159522
36.381513
-0.53881053
36.325838
-0.39018656
36.065625
-0.20198434
35.886625
36.003391
-0.23322679
26.849475
0.31501848
-0.4679767
32.472635
-0.64334073
35.109964
-0.72644467
36.323477
-0.70768037
36.362748
-0.59305666
36.211214
-0.42425804
35.896826
-0.22193808
35.684305
35.781453
-0.33534397
26.95082
0.2339987
-0.6147817
32.752073
-0.7765098
35.271692
-0.84394117
36.390909
-0.79661108
36.315418
-0.66900292
36.083606
-0.48754277
35.715366
-0.25957253
35.456335
35.52188
-0.29922936
26.966501
0.283549
-0.60378751
33.056631
-0.82805358
35.495958
-0.92134883
36.484204
-0.88771726
36.281787
-0.74685975
35.942749
-0.54065052
35.509157
-0.28975645
35.205441
35.232124
-0.44837847
27.177761
0.23711844
-0.79259819
33.400851
-1.0057608
35.709121
-1.0740033
36.552446
-1.0006861
36.208469
-0.83433839
35.776401
-0.60610052
35.280919
-0.32716821
34.926509
34.904956
-0.45154517
27.339783
0.28952278
-0.8242438
33.77355
-1.0953189
35.980196
-1.1770826
36.63421
-1.115073
36.14646
-0.92985747
35.591186
-0.67180378
35.022865
-0.36428409
34.618989
34.540672
-0.6259323
27.674504
0.29121197
-1.0504999
34.198117
-1.317712
36.247408
-1.3688449
36.685343
-1.2495394
36.027154
-1.0264945
35.368141
-0.74238775
34.738758
-0.39979623
34.276397
34.140875
-0.67990547
28.027921
0.32648835
-1.1398349
34.658047
-1.4482701
36.555843
-1.4882575
36.72533
-1.3726957
35.911593
-1.1275924
35.123037
-0.80898968
34.420156
-0.43579614
33.903204
33.705079
0.59653188
33.108547
1.117755
33.381981
1.593495
33.944416
2.0164194
34.700113
2.3177355
35.610276
2.4052142
36.637852
2.1155621
36.845495
1.400657
35.372952
28.914228
0.51434997
0.63449234
32.474055
1.1889839
32.827489
1.7083828
33.425017
2.1621869
34.246309
2.4904355
35.282028
2.6563143
36.471973
2.3708618
37.130948
1.6224593
36.121354
29.971784
0.56490287
0.66676665
31.807288
1.2486873
32.245569
1.8066376
32.867066
2.3215193
33.731427
2.7328809
34.870666
2.99619
36.208664
2.8262106
37.300927
2.0342646
36.9133
31.428031
0.57801783
0.69308279
31.114206
1.3069232
31.631728
1.9071582
32.266831
2.4520905
33.186495
2.8852939
34.437463
3.2296772
35.86428
3.1655832
37.365021
2.5092965
37.569587
33.333266
0.60406146
0.71281973
30.401386
1.3517984
30.992749
1.9876785
31.630951
2.5963037
32.57787
3.1204699
33.913297
3.5512213
35.433529
3.667203
37.249039
3.1086874
38.128103
35.457772
0.98418092
0.7300438
29.671342
1.3884996
30.334294
2.0607454
30.958706
2.6936705
31.944944
3.2357456
33.371222
3.7667069
34.902568
4.0149905
37.000756
3.7312332
38.41186
37.686502
1.5025038
0.72423724
28.947105
1.4119663
29.646565
2.1101627
30.260509
2.8073399
31.247767
3.4343225
32.744239
4.0264051
34.310485
4.4072115
36.619949
4.3966847
38.422387
39.264947
2.8182391
0.73623967
28.210865
1.4250904
28.957714
2.1542924
29.531307
2.8687688
30.533291
3.5118671
32.101141
4.17535
33.647002
4.6535341
36.141765
5.010024
38.065897
40.718297
3.5566745
0.71415577
27.496709
1.4274799
28.24439
2.1652192
28.793568
2.9551093
29.743401
3.6968125
31.359437
4.4027955
32.941019
5.1000354
35.444526
5.9739233
37.192009
41.696425
4.9957956
-0.70610025
28.20281
-1.4249471
28.963236
-2.2218186
29.590439
-3.1572211
30.678803
-4.3425898
32.544806
-5.8509789
34.449408
-7.8537872
37.447334
-10.478748
39.81697
44.451302
-13.233627
-0.72601767
28.928827
-1.4262776
29.663496
-2.1924663
30.356628
-3.0694193
31.555756
-4.2621344
33.737521
-5.8929005
36.080174
-8.0385494
39.592983
-10.580125
42.358545
45.707605
-11.836427
-0.74702044
29.675848
-1.4111403
30.327616
-2.145159
31.090647
-3.0044133
32.41501
-4.1922755
34.925384
-5.8824947
37.770394
-8.1925278
41.903016
-10.330297
44.496314
41.719383
-6.3420746
-0.76736456
30.443212
-1.4179034
30.978155
-2.1097663
31.78251
-2.8953405
33.200585
-4.0988256
36.128869
-5.9099457
39.581514
-8.1682873
44.161357
-9.8139659
46.141992
32.988683
-1.0832664
-0.80336295
31.246575
-1.4210539
31.595846
-2.0713651
32.432821
-2.8263698
33.955589
-4.0001984
37.302697
-5.8262151
41.40753
-7.9284472
46.26359
-9.2524901
47.466035
23.715257
0.020936387
-0.83595173
32.082527
-1.4461409
32.206035
-2.0465354
33.033215
-2.7067758
34.61583
-3.8710474
38.466969
-5.7620678
43.298551
-7.7683332
48.269855
-8.5128866
48.210589
15.168596
0.033774389
-0.91122109
32.993748
-1.4752408
32.770055
-2.0329807
33.590955
-2.6459013
35.22875
-3.7527528
39.57382
-5.6103122
45.15611
-7.5597841
50.219327
-7.9239476
48.574752
7.3070156
-0.062367421
-0.95902868
33.952777
-1.5191615
33.330188
-2.0227779
34.094571
-2.5133978
35.71937
-3.6036873
40.66411
-5.4720434
47.024466
-7.3288221
52.076105
-6.3844569
47.630387
0.6806891
0.24186973
-1.0666676
35.019444
-1.5842638
33.847784
-2.036431
34.546739
-2.4726281
36.155567
-3.5147231
41.706205
-5.2397908
48.749534
-6.7180897
53.554404
-3.2849621
44.197259
-3.9992576
1.3949846
1.3478184
-6.2825776
0.93550162
3.0041868
42.540891
2.0253312
54.53326
1.0917019
49.683163
0.72521381
42.072693
0.86231794
36.018463
0.86509123
34.543965
0.73267382
33.980201
35.752118
1.423421
-8.1507946
0.44479612
2.7648483
41.199464
1.8382428
55.459865
1.0041693
50.517237
0.73801364
42.338849
0.93080533
35.825671
0.974281
34.50049
0.86156808
34.092914
36.613686
1.4244503
-9.4319431
-0.14330179
2.5935776
40.030336
1.7073589
56.346084
0.87657294
51.348023
0.67798073
42.537441
0.99626176
35.50739
1.084346
34.412405
0.92061482
34.256646
37.534301
1.3759544
-10.125644
-0.6822538
2.341944
39.064346
1.5182408
57.169787
0.79647536
52.069788
0.72663126
42.607285
1.0930569
35.140965
1.2224199
34.283042
1.061646
34.417419
38.595947
1.2922884
-10.816889
-0.60104243
2.1843323
38.172302
1.3946895
57.95943
0.68330318
52.781174
0.69627357
42.594314
1.2017173
34.635521
1.3672201
34.11754
1.1441554
34.640484
39.740102
1.159174
-11.781808
-0.19425575
1.9311884
37.400288
1.1928174
58.697801
0.59225089
53.381741
0.77172605
42.414839
1.3279365
34.07931
1.5253963
33.92008
1.301815
34.864065
41.041917
0.98065489
-13.311937
0.54947482
1.7790965
36.601846
1.0907937
59.386104
0.51433051
53.958204
0.77189148
42.157278
1.4711537
33.380048
1.7059694
33.685264
1.3747368
35.195298
42.416654
0.76995073
-15.083672
1.0017839
1.5195812
35.852216
0.86101616
60.044669
0.40804631
54.411174
0.88120889
41.684116
1.6269233
32.634334
1.8746068
33.437581
1.5092622
35.560642
43.925916
0.48440011
-16.678927
1.1108551
1.3095896
35.027026
0.7641249
60.590133
0.35460892
54.82069
0.91051056
41.128214
1.814246
31.730598
2.079566
33.172261
1.5797931
36.060415
45.505709
-0.98837823
-15.018069
-0.67247938
-5.3263838
39.365032
-6.9904921
62.254242
-5.1059024
52.9361
-0.99825701
37.020569
2.2533849
28.478956
3.6305847
31.795061
3.0614036
36.629596
48.567113
-1.8443023
-12.562645
-0.61112204
-6.3363008
43.85703
-7.4132569
63.331198
-4.4465429
49.969386
0.37050169
32.203524
4.1275523
24.721906
4.8819549
31.040658
3.2160686
38.295483
51.783182
-2.3249426
-9.324543
-0.91315927
-6.7428624
48.27495
-7.2477665
63.836102
-3.4963877
46.218007
2.0478931
26.659243
5.3424628
21.427336
5.4505202
30.932601
3.3452141
40.400789
55.128396
-2.7638284
-4.6332822
-1.9274324
-7.2969688
52.808091
-7.3949444
63.934077
-2.1319028
40.954966
4.2943523
20.232988
7.0975689
18.624119
6.2875676
31.742602
2.9718033
43.716553
58.100199
-3.4263852
1.4863101
-2.693207
-7.7403962
57.122102
-6.8595356
63.053217
-0.65147621
34.746906
6.1120379
13.469474
7.8703176
16.86584
6.0239095
33.58901
2.4962986
47.244164
60.596498
-3.8235972
8.3083374
-2.9984303
-8.2024337
61.500938
-6.6399314
61.490714
0.044618069
28.062357
6.7155017
6.7985906
8.6901543
14.891187
6.2436213
36.035543
1.9596422
51.528143
62.55614
-4.6495373
15.864835
-2.9069598
-8.4186095
65.27001
-5.987513
59.059618
0.34042971
21.734414
6.9147294
0.22429092
8.5570916
13.248825
5.0514683
39.541166
0.96896838
55.610643
63.525108
-4.9172574
22.325535
-1.5434427
-8.6693373
69.02209
-5.5603246
55.950605
1.5659545
14.608135
7.680967
-5.8907215
8.7572723
12.17252
4.7487183
43.54972
0.41198424
59.947377
63.937093
-5.8322908
-0.21513749
28.372963
-8.929147
72.118946
-3.8952383
50.916696
3.3003192
7.4125778
7.8129423
-10.403345
7.7189437
12.266518
2.6768735
48.59179
-0.90915754
63.533408
63.027935
-2.037629
-27.004746
0.6250478
28.417327
-1.492454
-58.195919
57.650744
2.0425722
-25.283787
21.748761
4.6216362
28.926257
-31.505321
6.243322
50.894844
-52.51653
6.8682296
57.113116
-57.738024
7.1270082
55.725414
-55.984193
7.9540778
20.904355
-21.731425
-16.000158
15.018625
-1.9971705
-25.64083
0.63325458
-1.5127251
-58.680364
1.738603
-28.535115
4.2495709
26.415289
5.9317971
49.212618
6.6168329
56.42808
7.1620292
55.180218
8.5523241
19.51406
-17.266527
-1.9342974
-24.351519
0.64498574
-1.4641474
-59.150514
1.5134903
-31.512753
3.931278
23.997501
5.6642829
47.479613
6.4465482
55.645815
7.3672281
54.259538
9.4339959
17.447292
-18.874572
-1.8462341
-23.157872
0.65258683
-1.3909373
-59.605811
1.301809
-34.2055
3.6859371
21.613373
5.4488206
45.716729
6.3203952
54.77424
7.6857713
52.894162
10.560369
14.572694
-20.862404
-1.7194253
-22.093831
0.65538472
-1.2500782
-60.075158
1.1198979
-36.575476
3.4491635
19.284108
5.2481413
43.917751
6.2625798
53.759802
8.1860777
50.970664
11.991133
10.767639
-23.271951
-1.5627646
-21.184099
0.65303196
-1.0130389
-60.624884
1.0595696
-38.648084
3.3096541
17.034023
5.1508975
42.076508
6.3317457
52.578954
8.9433737
48.359036
13.761696
5.949317
-26.10931
-1.4039572
-20.427551
0.64740904
-0.7902625
-61.238578
0.97692092
-40.415268
3.1936747
14.817269
5.1076028
40.16258
6.5019095
51.184647
9.9454834
44.915462
15.770928
0.12387283
-29.29578
-1.2664806
-19.825052
0.66398196
-0.61733247
-61.887726
0.88305513
-41.915655
3.1014358
12.598889
5.0956401
38.168376
6.7701323
49.510155
11.201418
40.484176
17.934373
-6.6090821
-32.734183
-1.1316521
0.63619149
-19.329592
-0.46966008
-62.549718
0.83264104
-43.217957
3.1042921
10.327238
5.1155486
36.157119
7.1767566
47.448947
12.765071
34.895862
20.191223
-14.035234
-36.27562
3.7751527
34.739628
-2.856637
-35.658144
0.62541747
14.739713
-11.58998
-6.2857181
-60.300226
67.211365
-8.3655178
-83.047999
85.1278
-7.6793238
-74.307232
73.621037
-5.2262016
-57.953636
55.500514
-2.5832257
-43.395055
40.752079
0.29131811
-33.3703
30.495756
-27.285421
27.576739
4.1687237
33.629822
-3.0589182
1.8571525
17.051284
-4.771199
-53.671875
-7.5782634
-80.240935
-7.8955965
-73.989899
-6.114115
-59.735117
-3.8824137
-45.626756
-0.82929796
-36.423415
-28.114719
4.1510633
32.599776
-3.1210169
2.1234651
19.078882
-4.2092327
-47.339176
-7.1081043
-77.342063
-7.3579531
-73.74005
-5.6904494
-61.402621
-3.4368387
-47.880367
-0.94475177
-38.915502
-29.05947
4.2760611
31.473142
-3.1494273
2.8134475
20.541496
-2.9526743
-41.573055
-6.3751376
-73.9196
-7.4679308
-72.647257
-6.4158001
-62.454752
-4.2179142
-50.078253
-1.6255026
-41.507914
-30.684973
4.2548759
29.976486
-2.7582193
3.0677319
21.72864
-2.290561
-36.214761
-5.6203282
-70.589832
-6.5678027
-71.699782
-5.84103
-63.181525
-4.3320928
-51.58719
-2.2843597
-43.555647
-32.969333
4.1915949
27.238266
-1.453375
3.535291
22.384944
-1.1156427
-31.563828
-4.776899
-66.928576
-6.4368552
-70.039826
-5.9447769
-63.673603
-4.3109865
-53.22098
-2.4164
-45.450234
-35.385733
3.9419407
23.220368
0.075959135
3.753049
22.573836
-0.35059964
-27.460179
-3.7581021
-63.521074
-5.3382432
-68.459685
-5.4168214
-63.595025
-4.2774249
-54.360377
-2.3969224
-47.330736
-37.782655
3.7196236
19.336802
0.16394342
4.2388911
22.054569
0.82306914
-24.044357
-2.7742978
-59.923707
-4.9310338
-66.302949
-5.2377052
-63.288353
-4.1257416
-55.47234
-2.1522993
-49.304178
-39.934954
3.1754559
16.520614
-0.35926678
4.5205487
20.709476
1.8277921
-21.3516
-1.4957267
-56.600188
-3.5640732
-64.234602
-4.3813752
-62.471051
-3.8670957
-55.98662
-2.3575295
-50.813745
-42.292484
-0.010528707
44.082533
-44.072004
-0.57006378
48.553056
-47.993521
-1.398363
50.173616
-49.345317
-2.6142894
52.620962
-51.405036
-3.9816779
52.585619
-51.218231
-5.0074276
49.158413
-48.132664
-3.6867195
34.73762
-36.058328
-0.63320149
0.63642626
-3.6899441
-11.465218
10.297362
0.53465397
0.061142603
44.02139
-0.41913247
49.033331
-1.2507823
51.005266
-2.4962774
53.866457
-3.8755487
53.964891
-4.8996989
50.182564
-3.3096013
33.147522
-0.3630644
-2.3101106
-12.415165
0.58688323
0.1029463
43.918444
-0.34301486
49.479292
-1.1378966
51.800148
-2.366371
55.094932
-3.7863471
55.384867
-4.7843261
51.180543
-2.9790659
31.342262
-0.11608182
-5.1730944
-13.183165
0.65191823
0.16597526
43.752469
-0.19581089
49.841078
-0.98039569
52.584732
-2.2361996
56.350736
-3.6612631
56.80993
-4.6215731
52.140853
-2.7374199
29.458109
0.035614461
-7.9461286
-13.822215
0.67466425
0.20325647
43.549212
-0.12216362
50.166498
-0.86475654
53.327325
-2.0935942
57.579573
-3.5528812
58.269217
-4.492606
53.080578
-2.6226613
27.588165
0.079424006
-10.648214
-14.431514
0.68872259
0.26314286
43.28607
0.024024423
50.405617
-0.70782197
54.059172
-1.9556752
58.827427
-3.4085401
59.722082
-4.321397
53.993434
-2.6310322
25.8978
0.018108977
-13.297355
-15.082524
0.66912
0.28867956
42.99739
0.0887093
50.605587
-0.58925946
54.73714
-1.8107086
60.048876
-3.3038799
61.215254
-4.201398
54.890952
-2.6177034
24.314105
-0.041927401
-15.87313
-15.682772
0.55832183
0.34768349
42.649706
0.21472345
50.738547
-0.43922836
55.391092
-1.6613143
61.270962
-3.1373826
62.691322
-4.0134813
55.767051
-2.5186436
22.819268
-0.030230578
-18.361543
-16.393419
0.68041771
0.35722273
0.28202494
-0.31350248
-1.5135921
-3.0568723
-3.8900093
-2.4223422
-0.074408397
0.05278619
1.6611075
7.8264611
0.80979389
6.9224248
-8.9512615
8.6111475
-37.74705
7.1686995
-46.690216
5.1727648
-49.222296
3.242401
-49.474672
1.769672
-47.872588
0.57635481
-46.800203
-43.495649
2.6274916
4.6347316
0.56423796
7.9012001
-14.22497
8.774459
-38.620309
7.1743672
-45.090124
5.2000086
-47.247938
3.3412162
-47.615879
1.9034993
-46.434871
0.65868685
-45.555391
-42.836963
3.3981566
0.57678773
0.65978723
8.6864971
-19.51331
8.8359168
-38.769729
7.2039417
-43.458149
5.311006
-45.355002
3.4721412
-45.777015
2.0023493
-44.965079
0.71977824
-44.27282
-42.117184
5.021434
-5.0865778
0.64193156
9.3765195
-23.868396
8.8315779
-38.224787
7.1659541
-41.792525
5.3285476
-43.517595
3.5597552
-44.008222
2.114623
-43.519947
0.80731192
-42.965509
-41.309872
7.329907
-12.410658
-0.0058265731
9.6119443
-26.150433
8.7109009
-37.323744
7.1496401
-40.231264
5.4022982
-41.770254
3.655897
-42.261821
2.1977898
-42.06184
0.86392922
-41.631648
-40.445943
8.2576281
-20.162802
-0.50548383
9.6097589
-27.502564
8.6241758
-36.338161
7.0956128
-38.702701
5.4067272
-40.081368
3.7395878
-40.594681
2.2911365
-40.613388
0.94908706
-40.289599
-39.496856
8.878469
-26.313095
-2.7281767
9.6356018
-28.259697
8.5103026
-35.212862
7.0606582
-37.253057
5.4604828
-38.481192
3.8162245
-38.950423
2.3614254
-39.158589
1.0078151
-38.935988
-38.489041
9.4297503
-27.971216
-7.7716287
9.5301627
-28.360109
8.3968567
-34.079556
6.9626284
-35.818828
5.4354859
-36.95405
3.8675169
-37.382454
2.4188613
-37.709934
1.0753286
-37.592456
-37.413712
9.6158433
-27.81154
-9.7755198
9.3753103
-28.119576
8.2896126
-32.993858
6.9071363
-34.436352
5.4565427
-35.503456
3.9152469
-35.841158
2.4727312
-36.267418
1.1246462
-36.244371
-36.289066
0.15183175
39.693485
-39.845316
0.28776949
38.640457
-38.776394
0.40012569
38.109868
-38.222224
0.48614154
37.243511
-37.329527
0.52738627
36.229711
-36.270955
0.53700142
34.348245
-34.35786
0.52770373
32.219827
-32.21053
0.48539404
28.499845
-28.457536
24.748774
-24.735699
0.47231859
0.2142715
39.479213
0.37316193
38.481566
0.48375953
37.99927
0.55944996
37.167821
0.57211948
36.217041
0.54547775
34.374886
0.50397635
32.261329
0.44058797
28.563234
24.828502
0.36085954
0.26691692
39.212296
0.46372256
38.284761
0.62862934
37.834364
0.74616098
37.050289
0.78493562
36.178267
0.77709081
34.382731
0.75002187
32.288398
0.68708689
28.626169
24.993242
0.52234764
0.32995479
38.882341
0.55578041
38.058935
0.71848104
37.671663
0.83595556
36.932815
0.86948449
36.144738
0.83184553
34.42037
0.78101023
32.339233
0.70408123
28.703098
25.276319
0.42100412
0.39236679
38.489975
0.66678919
37.784513
0.8897078
37.448744
1.0531724
36.76935
1.1200632
36.077847
1.0988569
34.441577
1.0564428
32.381647
1.0370014
28.722539
25.728265
0.58505539
0.45565612
38.034319
0.76405695
37.476112
0.9897616
37.22304
1.1600301
36.599082
1.2324013
36.005476
1.1893069
34.484671
1.1222122
32.448742
1.1335478
28.711203
26.330101
0.53171132
0.52293045
37.511388
0.88550401
37.113538
1.1757306
36.932813
1.3952787
36.379534
1.5143917
35.886363
1.4959804
34.503082
1.379623
32.565099
1.5116654
28.579161
27.030851
0.81091601
0.57612606
36.935262
0.98203337
36.707631
1.2762052
36.638641
1.5048312
36.150908
1.651838
35.739356
1.6443219
34.510598
1.4634545
32.745967
1.6718304
28.370785
27.646951
1.0557304
0.64619594
1.1094561
1.4806796
1.7904291
2.0263286
2.1005748
1.8526836
2.103892
1.9393031
-0.026563016
-24.900428
0.19129294
0.075372301
-28.559471
0.1077165
-32.242874
0.11466537
-34.364809
0.076510397
-36.2328
0.05485687
-37.307874
0.033942389
-38.20131
0.019564331
-38.762016
-39.825752
-0.097560852
-25.082214
0.27934682
0.0084905525
-28.665523
0.057799893
-32.292183
0.094952545
-34.401961
0.092774831
-36.230623
0.10261295
-37.317712
0.090556737
-38.189253
0.068001925
-38.739462
-39.75775
0.0069199831
-25.28142
0.19228537