/*--------------------------------*- C++ -*----------------------------------*\
  =========                 |
  \\      /  F ield         | OpenFOAM: The Open Source CFD Toolbox
   \\    /   O peration     | Website:  https://openfoam.org
    \\  /    A nd           | Version:  11
     \\/     M anipulation  |
\*---------------------------------------------------------------------------*/
FoamFile
{
    format      ascii;
    class       volVectorField;
    location    "8.7";
    object      U;
}
// * * * * * * * * * * * * * * * * * * * * * * * * * * * * * * * * * * * * * //

dimensions      [0 1 -1 0 0 0 0];

internalField   nonuniform List<vector> 
5472
(
(10.028743 2.4848913 1.7188206e-18)
(10.198028 2.4857246 -1.7897977e-18)
(10.387566 2.5236515 -1.8116084e-18)
(10.574719 2.4630247 -1.8456355e-18)
(10.741532 2.457312 5.7296392e-18)
(10.92676 2.3952151 -3.2976916e-20)
(11.087443 2.3511838 -3.0285395e-18)
(11.236934 2.2625408 1.0557617e-18)
(11.41423 2.1888577 0)
(11.5554 2.0874001 0)
(11.691063 1.9825329 0)
(11.832789 1.8672767 -3.3267796e-18)
(11.918322 1.7311551 1.7095348e-18)
(12.049905 1.6037089 -2.0799214e-20)
(12.127089 1.4467497 1.1601928e-18)
(12.206863 1.3071703 -5.9603707e-19)
(12.285298 1.1513802 -8.9424451e-19)
(12.327352 1.0013846 3.0581997e-19)
(12.387802 0.86346024 0)
(10.029828 2.2864658 -1.5699707e-18)
(10.183056 2.3074121 3.2420169e-18)
(10.350042 2.3110371 -1.6742111e-18)
(10.522434 2.2814609 -1.6883862e-18)
(10.699475 2.2798729 2.1881387e-20)
(10.871642 2.2110258 0)
(10.990927 2.1891783 1.8172781e-18)
(11.189437 2.1051397 -3.7169867e-18)
(11.341067 2.036513 4.798046e-18)
(11.468446 1.9554654 9.8067433e-19)
(11.621034 1.852405 0)
(11.725377 1.7549373 2.0412737e-18)
(11.857506 1.6292127 0)
(11.957086 1.5067053 5.1947835e-19)
(12.047132 1.3786114 -5.3464783e-19)
(12.142077 1.2398813 0)
(12.202627 1.1119361 0)
(12.269097 0.97701289 -2.6975094e-19)
(12.297369 0.83865124 0)
(10.030322 2.1177633 0)
(10.176517 2.1491609 1.4744734e-18)
(10.329218 2.1720997 1.5122309e-18)
(10.489509 2.1561198 0)
(10.643408 2.1620203 -1.7603783e-20)
(10.771264 2.1233571 -2.4429053e-20)
(10.950266 2.1036469 -1.6723244e-18)
(11.1188 2.0272714 0)
(11.234735 1.9901137 -1.7238421e-18)
(11.388538 1.9064508 -4.4169864e-18)
(11.510436 1.8248149 1.1793402e-20)
(11.640702 1.7295251 -9.003727e-19)
(11.770133 1.6097331 -9.278907e-19)
(11.860064 1.5033881 1.9021202e-18)
(11.979151 1.3724317 1.4368054e-18)
(12.048757 1.2441665 4.8492498e-19)
(12.122551 1.1226561 2.4258545e-19)
(12.18544 0.98165596 -3.666558e-19)
(12.212701 0.84909982 1.2229352e-19)
(10.034657 1.9582445 0)
(10.145723 1.9824619 -1.33084e-18)
(10.326508 1.9863848 -1.3634551e-18)
(10.459516 2.0018539 2.7825448e-18)
(10.585883 2.0119718 -1.4604842e-18)
(10.767322 1.9648644 0)
(10.901974 1.9557856 -1.5098416e-18)
(11.032017 1.8908074 1.5256189e-18)
(11.178781 1.8590322 -1.5797204e-18)
(11.311833 1.7765216 -1.7308149e-20)
(11.448995 1.7088794 -1.6374811e-18)
(11.577412 1.6136386 0)
(11.690786 1.5164446 0)
(11.790131 1.4105228 -8.4652175e-19)
(11.883856 1.2920849 -8.5567234e-19)
(11.950259 1.1763316 0)
(12.023598 1.0531263 -2.1798106e-19)
(12.080716 0.92607947 1.1034192e-19)
(12.116163 0.8017198 2.1991473e-19)
(10.007252 1.7810968 0)
(10.176156 1.8150488 0)
(10.278025 1.8656556 0)
(10.38966 1.8928759 -2.5181312e-18)
(10.554895 1.8769064 1.3105372e-18)
(10.6649 1.8760906 -3.9734427e-18)
(10.790838 1.8642165 5.4387075e-18)
(10.939684 1.812597 -2.7761502e-18)
(11.081531 1.7900904 3.28994e-21)
(11.219647 1.7176017 1.4350454e-18)
(11.355499 1.6694406 1.459798e-18)
(11.470683 1.5712313 -2.9823261e-18)
(11.584571 1.5006452 2.2736238e-18)
(11.682616 1.3920207 -7.6952352e-19)
(11.782394 1.2933511 0)
(11.870929 1.1678506 7.836799e-19)
(11.947417 1.0567461 -3.9398273e-19)
(12.010221 0.93175534 1.9625519e-19)
(12.052054 0.81100239 -1.9554092e-19)
(10.043216 1.6387319 0)
(10.168016 1.6837363 -4.342732e-18)
(10.244754 1.7140173 2.2403719e-18)
(10.414404 1.7263282 2.2885602e-18)
(10.509346 1.7514367 1.167811e-18)
(10.626443 1.7389385 -1.1884997e-18)
(10.785208 1.7204133 2.466603e-18)
(10.90686 1.7013126 1.2430097e-18)
(11.060908 1.6697063 2.5339095e-18)
(11.162561 1.6151149 -2.5953275e-18)
(11.29837 1.5679524 1.5855412e-20)
(11.393488 1.488769 2.6812288e-18)
(11.525028 1.4172167 0)
(11.618481 1.3042466 -6.9036821e-19)
(11.730306 1.2212206 6.9060901e-19)
(11.80522 1.0940063 -1.7432619e-18)
(11.878228 1.0047226 7.0081808e-19)
(11.934313 0.87384324 -1.7562212e-19)
(11.980233 0.76873139 3.4601089e-22)
(10.017422 1.5041052 3.8411612e-18)
(10.15027 1.5401736 3.9198308e-18)
(10.238422 1.591537 0)
(10.367063 1.614326 -6.0392902e-21)
(10.438497 1.6152093 -4.2143495e-18)
(10.592251 1.6281551 4.3299547e-18)
(10.692016 1.6315526 0)
(10.821944 1.6095246 -1.1291779e-18)
(10.942845 1.5824205 -4.5714005e-18)
(11.051249 1.5524204 2.3451979e-18)
(11.204323 1.4971353 1.1784093e-18)
(11.301008 1.4364716 -1.2088616e-18)
(11.447521 1.3550027 0)
(11.518365 1.2772412 6.116474e-19)
(11.642917 1.184348 0)
(11.701398 1.0816118 -6.2226674e-19)
(11.799531 0.98780639 9.4180487e-19)
(11.846072 0.86684745 8.0571081e-22)
(11.910845 0.76508943 -8.2037857e-22)
(10.065275 1.3694795 1.7191558e-18)
(10.176255 1.4057305 -3.5243485e-18)
(10.236259 1.4608744 -3.5965764e-18)
(10.364582 1.4742069 3.707595e-18)
(10.439667 1.5117892 -1.9042759e-18)
(10.576563 1.5182213 -1.9331055e-18)
(10.650792 1.5072132 0)
(10.800933 1.5159515 3.0132391e-18)
(10.892285 1.4813494 -1.2557549e-20)
(11.046358 1.4523444 -3.1288862e-18)
(11.153437 1.4056277 3.1999924e-18)
(11.258567 1.3561572 0)
(11.383092 1.2881488 0)
(11.450664 1.2185912 1.0944753e-18)
(11.575206 1.1168349 -5.609557e-19)
(11.617071 1.0327034 -1.1148025e-18)
(11.735691 0.927586 2.8217544e-19)
(11.745414 0.82960089 2.8379966e-19)
(11.851548 0.71530227 6.94916e-20)
(10.043481 1.2453672 -1.5406785e-18)
(10.127947 1.2808896 4.7315373e-18)
(10.194706 1.3213159 -4.8755616e-18)
(10.306539 1.3507474 3.3197427e-18)
(10.368739 1.386371 0)
(10.499181 1.3858676 1.7281369e-18)
(10.579731 1.4138062 -1.7829112e-18)
(10.730963 1.3981599 0)
(10.807612 1.3896226 9.1374249e-19)
(10.957615 1.3725297 -1.8876449e-18)
(11.031807 1.3252115 -9.444025e-19)
(11.178012 1.2944252 -8.6076573e-21)
(11.263076 1.2196256 -2.9189726e-18)
(11.3849 1.1667511 5.010957e-19)
(11.476418 1.0753156 -4.8793544e-19)
(11.568091 0.99549028 9.9643019e-19)
(11.651908 0.89072224 -4.9681876e-19)
(11.699199 0.80610801 2.5351916e-19)
(11.779882 0.68371853 2.4910262e-19)
(10.084047 1.1194477 -2.7745027e-18)
(10.155323 1.1625926 0)
(10.238593 1.2268877 1.4497518e-18)
(10.33227 1.2407609 -4.4449008e-18)
(10.407537 1.2720548 1.529976e-18)
(10.515297 1.2821481 -1.5559143e-18)
(10.57872 1.304204 1.5772596e-18)
(10.707667 1.3047562 -1.6228677e-18)
(10.783004 1.3118277 0)
(10.926729 1.2825709 8.3104042e-19)
(10.995625 1.2526892 0)
(11.138474 1.2083464 8.5277649e-19)
(11.19519 1.1503903 1.5274394e-23)
(11.328245 1.1028207 -4.3391961e-19)
(11.373456 1.0124867 4.3721595e-19)
(11.486309 0.95744345 4.4007603e-19)
(11.523054 0.8515347 -2.4744168e-21)
(11.611929 0.77559392 -6.6499537e-19)
(11.64877 0.65695031 0)
(10.071837 0.99320543 0)
(10.119325 1.045487 1.2671345e-18)
(10.198235 1.0835467 0)
(10.259904 1.1277257 1.3175982e-18)
(10.328114 1.1700256 -4.0749288e-18)
(10.420152 1.1781169 4.1670391e-18)
(10.497546 1.2048964 -1.3993389e-18)
(10.618233 1.1974607 4.3378365e-18)
(10.689596 1.2149908 0)
(10.82469 1.1902939 7.4527771e-19)
(10.897061 1.1791478 0)
(11.038333 1.1356179 -1.5166677e-18)
(11.104073 1.1000149 3.0771777e-18)
(11.24126 1.0344474 -7.1139237e-21)
(11.29707 0.97035318 -3.9156742e-19)
(11.427862 0.89193865 0)
(11.47304 0.80228727 0)
(11.581721 0.72046115 0)
(11.61025 0.61690109 -4.9162342e-20)
(10.093039 0.90035935 4.4058349e-18)
(10.142101 0.95725151 -5.6666837e-18)
(10.219262 0.99926831 2.3082491e-18)
(10.274445 1.0228231 -6.9465619e-21)
(10.365773 1.0497276 0)
(10.428724 1.0813646 -2.4620036e-18)
(10.522951 1.1044155 1.2716122e-18)
(10.601747 1.11564 -1.2789418e-18)
(10.686773 1.124803 0)
(10.803986 1.1117702 -6.5875261e-19)
(10.874478 1.1055474 1.3324435e-18)
(10.997544 1.0617329 -1.1970457e-20)
(11.061348 1.0384191 -1.3713381e-18)
(11.177591 0.97343543 -2.745011e-18)
(11.228984 0.92913496 2.4210729e-18)
(11.337487 0.84289475 -1.3883721e-18)
(11.372944 0.78026495 8.7225199e-19)
(11.475262 0.68298762 1.7469231e-19)
(11.495417 0.60403202 4.3149946e-20)
(10.06429 0.77538092 -6.8901466e-18)
(10.11752 0.83735709 4.0409306e-18)
(10.179351 0.86774911 0)
(10.227645 0.91472655 -5.2586062e-18)
(10.294617 0.9456453 4.3191491e-18)
(10.353856 0.97340494 1.0996924e-18)
(10.449002 1.0038696 3.3513394e-18)
(10.513127 1.0238551 -2.285404e-18)
(10.623911 1.0284522 -2.8823796e-18)
(10.70844 1.0233623 1.7666678e-18)
(10.80685 1.0092169 2.3630759e-18)
(10.910831 0.98660958 -3.6014821e-18)
(11.003973 0.96195556 2.4181544e-18)
(11.114107 0.91149899 -6.157027e-19)
(11.184345 0.8698914 3.0274832e-19)
(11.291532 0.78460956 -3.8033963e-21)
(11.333392 0.72822255 -7.6996795e-19)
(11.426927 0.62622901 -1.532163e-19)
(11.449119 0.56318084 -3.8448355e-20)
(10.092735 0.69239525 2.6353745e-18)
(10.145179 0.74019736 3.5793847e-18)
(10.193233 0.78875334 -3.6747325e-18)
(10.243554 0.82922047 9.3709689e-19)
(10.305008 0.85368706 -2.8574369e-18)
(10.36272 0.88425205 2.9365503e-18)
(10.442293 0.90708903 9.8756907e-19)
(10.504481 0.94065707 -5.0470323e-18)
(10.601355 0.95269714 3.5819639e-18)
(10.663379 0.96074581 -1.5660867e-18)
(10.755904 0.94322114 0)
(10.83216 0.92106447 -5.3149919e-19)
(10.933384 0.88891822 -1.6006129e-18)
(11.009545 0.85923177 5.4733138e-19)
(11.112905 0.81175068 1.6244148e-18)
(11.191454 0.75414725 5.4041495e-19)
(11.265281 0.68974464 -1.0859713e-18)
(11.342484 0.60310739 2.7323979e-19)
(11.385465 0.53423458 3.0453285e-19)
(10.057639 0.58037334 -3.8875752e-18)
(10.096394 0.62943215 3.1920965e-18)
(10.13681 0.68286349 0)
(10.190848 0.72418675 -8.3065592e-19)
(10.246419 0.75837404 3.3836837e-18)
(10.315763 0.78008487 -6.9088406e-18)
(10.386248 0.80277172 9.003466e-19)
(10.460728 0.83298082 3.5878212e-18)
(10.555201 0.85102188 2.7210975e-18)
(10.63411 0.87151954 -4.5943494e-19)
(10.732721 0.86075467 0)
(10.808615 0.85173948 2.3317348e-18)
(10.897406 0.81952589 -9.5026422e-19)
(10.966705 0.78993182 9.4804888e-19)
(11.069329 0.73696506 -1.4319353e-18)
(11.125965 0.69078561 -2.3950929e-19)
(11.217908 0.62152993 0)
(11.267267 0.55954531 0)
(11.330723 0.48466918 -2.9864571e-20)
(10.094151 0.49993974 6.7443388e-19)
(10.135335 0.54439874 -6.3660348e-18)
(10.17471 0.59213542 2.8798587e-18)
(10.214824 0.63296215 -3.6849363e-18)
(10.255232 0.67872957 -7.4984195e-19)
(10.302615 0.71012932 0)
(10.355128 0.7370273 -3.8740761e-18)
(10.422698 0.75243844 2.3757001e-18)
(10.491742 0.7696706 -8.0045725e-19)
(10.569916 0.79038992 -1.4740888e-21)
(10.655475 0.79061111 0)
(10.743275 0.79006227 0)
(10.832269 0.76658762 -4.1416036e-19)
(10.912687 0.73994064 -4.1628814e-19)
(11.001053 0.69314796 2.0892166e-19)
(11.062485 0.65386845 1.2582822e-18)
(11.148596 0.58235201 -8.4357497e-19)
(11.197331 0.52973866 1.0545882e-19)
(11.267435 0.44974319 2.6090749e-20)
(10.053611 0.41427684 4.2838777e-18)
(10.084882 0.45865558 -4.3866919e-18)
(10.123827 0.49452515 0)
(10.172637 0.53149227 6.5063988e-19)
(10.224138 0.57100185 0)
(10.280266 0.60714482 6.7477218e-19)
(10.34614 0.64199868 6.8569299e-19)
(10.410099 0.66577017 0)
(10.472739 0.68512381 3.5125251e-18)
(10.544329 0.69627311 -2.5027402e-18)
(10.613897 0.70036472 1.7952227e-18)
(10.697868 0.70125504 -1.4559717e-18)
(10.773511 0.69147382 1.455975e-18)
(10.862489 0.66768136 -9.3655154e-21)
(10.936582 0.62936143 -1.4776851e-18)
(11.013876 0.58972994 -1.8399557e-19)
(11.081064 0.52842351 -1.8519537e-19)
(11.1394 0.48025518 -9.2040947e-20)
(11.195237 0.40851408 0)
(10.09841 0.33030426 4.8798678e-18)
(10.108256 0.38923617 0)
(10.145123 0.42098936 0)
(10.160619 0.46560713 5.7474662e-19)
(10.197547 0.49365207 0)
(10.240146 0.53052038 -5.9417683e-19)
(10.294701 0.56628465 -6.0308658e-19)
(10.355325 0.59545105 -2.4416877e-18)
(10.421922 0.61735237 2.4845642e-18)
(10.488787 0.63237083 0)
(10.558386 0.63970264 -2.8375282e-18)
(10.637495 0.6408618 2.2375673e-18)
(10.714005 0.63365394 1.2784199e-18)
(10.802156 0.61274416 -2.5766289e-18)
(10.873125 0.58218533 2.5849628e-18)
(10.957862 0.5443982 -1.9441487e-18)
(11.017672 0.49299057 6.4860054e-19)
(11.086578 0.44373421 0)
(11.13638 0.37883887 0)
(10.054402 0.26376477 7.6709777e-18)
(10.08276 0.30167911 -3.9138202e-18)
(10.120302 0.3364084 3.9773918e-18)
(10.141806 0.37680434 -4.5644455e-18)
(10.192705 0.40738724 -4.114821e-18)
(10.223064 0.44659909 4.1932194e-18)
(10.275384 0.47064661 2.1191702e-18)
(10.328163 0.50650744 -9.420803e-21)
(10.388126 0.52547358 -2.1820337e-18)
(10.45381 0.54650085 0)
(10.523815 0.55352782 0)
(10.59877 0.55627083 2.7890933e-19)
(10.673395 0.55444884 0)
(10.751228 0.5394718 1.1255899e-18)
(10.825227 0.5144173 -1.135135e-18)
(10.900106 0.48193805 -5.6559713e-19)
(10.9607 0.43996027 7.0996978e-19)
(11.028236 0.39420632 -3.5397175e-19)
(11.07103 0.33807911 2.8271036e-19)
(10.050013 0.20296922 0)
(10.078058 0.23997999 0)
(10.095748 0.27088218 3.5059112e-18)
(10.12678 0.30814237 -3.5728188e-18)
(10.164013 0.34165021 4.0738752e-18)
(10.19806 0.38054526 -4.1455242e-18)
(10.254146 0.41129257 0)
(10.301069 0.44195459 4.723778e-19)
(10.359627 0.46207092 1.9052072e-18)
(10.412767 0.48519309 -1.9325693e-18)
(10.479676 0.49476936 1.9391414e-18)
(10.546284 0.50412405 -1.0598376e-20)
(10.622728 0.49864795 -3.9347078e-18)
(10.697171 0.48460291 1.9802767e-18)
(10.771623 0.46272612 0)
(10.844916 0.43335527 -9.8914139e-19)
(10.908206 0.39410497 1.5508514e-18)
(10.976065 0.3536103 -6.8198576e-19)
(11.027033 0.30084932 2.4710016e-19)
(10.047322 0.14682772 1.157005e-17)
(10.071875 0.17361284 -6.0810619e-18)
(10.081793 0.20304168 0)
(10.112928 0.22878007 -3.923647e-19)
(10.133779 0.2593456 -3.9811208e-19)
(10.178414 0.29087975 4.0364838e-19)
(10.218932 0.32553296 0)
(10.274512 0.35594718 -4.1347245e-19)
(10.326327 0.38106424 3.3379123e-18)
(10.386604 0.40215006 -3.382589e-18)
(10.448903 0.41541937 0)
(10.510876 0.42513512 0)
(10.586396 0.42667182 2.1522854e-19)
(10.652349 0.41829209 1.0800038e-19)
(10.726247 0.40132603 -1.0824869e-19)
(10.791201 0.37729461 0)
(10.853698 0.34508628 -4.8604639e-19)
(10.911363 0.30872371 4.3333793e-19)
(10.961734 0.26455376 0)
(10.035891 0.099830883 -1.0509196e-17)
(10.049913 0.12749268 1.1026324e-17)
(10.070056 0.15139059 -9.0832553e-21)
(10.093051 0.18149489 -5.1728289e-18)
(10.117575 0.20627437 0)
(10.150905 0.23537714 2.8283587e-18)
(10.187404 0.26385831 -5.9121613e-18)
(10.234089 0.28947463 2.902821e-18)
(10.280411 0.31673779 0)
(10.343289 0.33644196 -2.9446023e-18)
(10.397389 0.35591645 2.9782802e-18)
(10.47336 0.36160017 1.4906645e-18)
(10.53651 0.36563023 -1.5039094e-18)
(10.612657 0.35786433 1.3136673e-18)
(10.680153 0.34325691 -1.4178723e-18)
(10.751641 0.32132642 0)
(10.816302 0.29275779 -4.7239958e-20)
(10.876117 0.25903349 -1.4098429e-19)
(10.930259 0.2175898 1.9974867e-19)
(10.036434 0.066869149 2.8896927e-19)
(10.049755 0.081114126 -5.8732893e-19)
(10.065231 0.095783008 4.7645061e-18)
(10.083215 0.11625762 2.9372937e-19)
(10.107162 0.14236095 -3.1675587e-19)
(10.132587 0.16725236 -4.9668139e-18)
(10.172846 0.19536413 1.5670092e-19)
(10.206932 0.22164421 2.6884884e-18)
(10.256635 0.24142126 -2.5614802e-18)
(10.305809 0.26444996 -1.6119166e-19)
(10.361136 0.280282 0)
(10.428984 0.29383838 2.765162e-18)
(10.48814 0.30019456 -2.7876002e-18)
(10.564483 0.2983352 -1.2274896e-18)
(10.626668 0.29109676 8.8314834e-20)
(10.699346 0.27274244 1.9742318e-18)
(10.75736 0.25561061 -6.1764811e-19)
(10.81982 0.22582133 -6.1497369e-20)
(10.871051 0.19851849 -1.019821e-20)
(10.016605 0.045907821 0)
(10.028928 0.056925141 2.5774733e-19)
(10.039356 0.06808547 4.1790907e-18)
(10.054151 0.081795046 -4.6383377e-18)
(10.072464 0.098403472 4.4202401e-18)
(10.101412 0.11849182 -4.3449778e-18)
(10.136106 0.13935011 1.3714386e-19)
(10.178318 0.16054472 -1.3825471e-19)
(10.227863 0.17949848 2.0881381e-18)
(10.277287 0.19705282 -2.1111837e-18)
(10.33953 0.21175407 2.1143808e-18)
(10.400938 0.22122376 -2.3465732e-18)
(10.47111 0.22568046 0)
(10.538842 0.22279942 1.1392402e-18)
(10.606348 0.21367416 -1.2886998e-18)
(10.673379 0.19947958 5.7053001e-19)
(10.732225 0.17926602 -5.3676935e-19)
(10.790128 0.15333669 -2.4918472e-19)
(10.837479 0.1242146 2.8902408e-19)
(10.018921 0.024038904 -5.578108e-21)
(10.027827 0.031178607 -7.2366937e-18)
(10.041131 0.037129892 1.1454219e-19)
(10.054852 0.048391034 -8.6596255e-23)
(10.069626 0.055367732 1.1723551e-19)
(10.092208 0.070722985 0)
(10.114133 0.085852254 3.8260406e-18)
(10.150356 0.1045661 -3.9903284e-18)
(10.187286 0.12187261 1.2156998e-19)
(10.231932 0.13911703 -1.8952375e-18)
(10.286462 0.15482218 4.0023484e-18)
(10.343391 0.16733368 -3.9572743e-18)
(10.413044 0.17764852 1.9888497e-18)
(10.483448 0.18221925 0)
(10.555984 0.18332238 -9.6113146e-19)
(10.626293 0.17616506 9.9630719e-19)
(10.68923 0.16864085 -1.5467334e-20)
(10.748953 0.15022896 2.7854261e-23)
(10.799886 0.13142529 -3.8517644e-21)
(10.006146 0.012145152 6.3044887e-18)
(10.013125 0.015085669 -6.3326558e-18)
(10.022025 0.020181805 6.3171105e-18)
(10.033708 0.025168284 1.0133994e-19)
(10.049709 0.02957521 0)
(10.068424 0.035772885 0)
(10.094383 0.04235594 -5.2096432e-20)
(10.127993 0.049312034 -3.3100745e-18)
(10.167549 0.057058175 3.4487038e-18)
(10.217602 0.063170032 3.3768462e-18)
(10.271611 0.069516488 -1.6421382e-18)
(10.333836 0.073494687 -1.8026369e-18)
(10.401395 0.073785178 0)
(10.470716 0.072518365 2.6992444e-20)
(10.544515 0.069833482 2.6943404e-20)
(10.613258 0.06597449 8.4674873e-19)
(10.678172 0.059384444 -8.7616526e-19)
(10.734831 0.046020439 1.9438497e-19)
(10.784438 0.032572459 -2.1432588e-19)
(10.005588 0.0030674142 -4.2467063e-20)
(10.009641 0.004700199 5.4805395e-18)
(10.016548 0.0071555219 -4.0195619e-21)
(10.026536 0.010534358 -5.6996276e-21)
(10.039964 0.014736158 -5.6693958e-18)
(10.057725 0.019490139 0)
(10.081123 0.024669177 2.8356461e-18)
(10.111211 0.02993667 -2.8631693e-18)
(10.148699 0.0349682 -4.5600945e-20)
(10.193655 0.039465073 -2.291479e-20)
(10.245784 0.043088015 -2.3004792e-20)
(10.305216 0.046172989 2.3069675e-20)
(10.365145 0.049770505 0)
(10.427583 0.05522527 1.4615702e-18)
(10.492566 0.060799494 -1.4971083e-18)
(10.557362 0.063196942 -7.3387379e-19)
(10.634428 0.073427554 7.4803514e-19)
(10.691699 0.060870843 3.7768199e-19)
(10.747785 0.066189678 -3.7152792e-19)
(12.409728 0.72200617 -1.4672872e-19)
(12.439526 0.59242315 -5.8716007e-19)
(12.437299 0.46901537 5.7435461e-19)
(12.447174 0.34551415 0)
(12.409188 0.23549408 -1.0741246e-18)
(12.401014 0.13539137 -2.0708672e-18)
(12.348569 0.039182014 0)
(12.316874 -0.048691428 -2.1028431e-20)
(12.239194 -0.12971884 3.5334784e-18)
(12.190266 -0.20364969 1.6954623e-18)
(12.111707 -0.25881074 -1.588156e-18)
(12.050836 -0.31998337 3.0314477e-18)
(11.976258 -0.3405168 -2.8298612e-18)
(11.911035 -0.38419952 0)
(11.852763 -0.39374792 1.2900065e-18)
(11.75121 -0.39622955 -1.2072051e-18)
(11.669266 -0.36710886 -2.3424143e-18)
(11.544888 -0.31053623 2.1998069e-18)
(11.440062 -0.22469263 -1.0579399e-18)
(12.333179 0.6950596 -1.2673095e-19)
(12.350678 0.55768397 7.5748452e-19)
(12.342715 0.41071015 -4.9615015e-19)
(12.354235 0.29794243 0)
(12.323471 0.16671609 -9.417833e-19)
(12.302147 0.07370883 2.7043635e-18)
(12.274494 -0.024104044 0)
(12.248792 -0.094823811 0)
(12.191104 -0.16747072 0)
(12.139755 -0.22764504 0)
(12.059637 -0.27438724 2.8392673e-18)
(11.983255 -0.3120771 -4.046999e-18)
(11.903151 -0.3244151 -3.88076e-18)
(11.824242 -0.33352785 2.4223981e-18)
(11.772394 -0.30602764 -2.3222155e-18)
(11.705148 -0.26517805 2.2347275e-18)
(11.659168 -0.20497858 2.385787e-21)
(11.613637 -0.10045705 -2.0101778e-18)
(11.549182 -0.0099847141 1.9572822e-18)
(12.261444 0.72067168 0)
(12.270607 0.56346872 -4.400928e-19)
(12.271419 0.44123706 -8.6341574e-19)
(12.279248 0.30900781 -4.4755648e-21)
(12.233599 0.18716366 -7.2807203e-21)
(12.226007 0.077068148 1.6006176e-18)
(12.167785 -0.021605573 -3.0494545e-18)
(12.147305 -0.10315942 1.4532027e-18)
(12.103225 -0.17104055 1.7887299e-20)
(12.055083 -0.22801843 0)
(11.998527 -0.27043642 3.8298627e-18)
(11.944414 -0.29584056 1.4644936e-20)
(11.882839 -0.29889848 2.3143719e-18)
(11.816046 -0.29200599 2.225084e-18)
(11.761091 -0.2488311 3.1695188e-18)
(11.734771 -0.20330893 -3.9952383e-18)
(11.711366 -0.1034032 -3.6809409e-20)
(11.713109 -0.011662519 3.6627981e-18)
(11.730193 0.12894495 1.8087532e-18)
(12.168234 0.66398234 3.8146613e-19)
(12.169923 0.51889438 -7.6083665e-19)
(12.19874 0.39543895 1.1213869e-18)
(12.174638 0.25891079 0)
(12.164329 0.15317573 2.1428302e-18)
(12.120025 0.042939835 -3.4600254e-18)
(12.075318 -0.049261977 2.6792013e-18)
(12.034093 -0.12692108 -2.2875695e-21)
(11.990099 -0.18667106 1.7461158e-20)
(11.937325 -0.23929633 -1.1962653e-18)
(11.897654 -0.2673078 0)
(11.85821 -0.28424994 -1.0797822e-18)
(11.827546 -0.27321203 1.0607067e-18)
(11.807795 -0.2507345 -1.9746781e-18)
(11.798107 -0.20551499 0)
(11.7981 -0.14993533 0)
(11.829592 -0.0642923 -1.7317421e-18)
(11.875226 0.020115282 0)
(11.996483 0.16533245 1.6182096e-18)
(12.099986 0.67683799 3.2989724e-19)
(12.110724 0.53695309 -3.2784258e-19)
(12.140797 0.40138839 3.5854334e-21)
(12.112043 0.27106792 -6.3712606e-19)
(12.118555 0.15954643 6.1371132e-19)
(12.058479 0.046870663 -6.7070868e-22)
(12.034746 -0.039112675 -1.1688945e-18)
(11.974178 -0.10852843 0)
(11.933455 -0.16502078 -2.189912e-18)
(11.889554 -0.20471991 1.0468018e-18)
(11.855145 -0.22667313 0)
(11.823421 -0.23454429 0)
(11.820371 -0.22861628 -1.8245667e-18)
(11.825165 -0.20947036 -1.7737865e-18)
(11.851725 -0.18097624 1.7065429e-18)
(11.905183 -0.12335883 3.2782237e-18)
(12.008187 -0.083523136 1.5854441e-18)
(12.108315 -0.019150144 -1.4819763e-18)
(12.327842 0.044614118 1.5230486e-20)
(12.015157 0.62217194 0)
(12.049897 0.49552483 2.8517794e-19)
(12.049007 0.34754261 -1.404004e-18)
(12.042071 0.2403991 5.526494e-19)
(12.02466 0.12200186 1.6252682e-18)
(11.985199 0.028611263 -1.0649378e-18)
(11.960669 -0.06045958 -2.0705405e-18)
(11.909546 -0.11558617 1.9855427e-18)
(11.86892 -0.18110143 -9.8420612e-19)
(11.844082 -0.19632875 1.8527043e-18)
(11.813336 -0.22695778 0)
(11.810349 -0.22877397 0)
(11.823702 -0.23037836 -1.613646e-18)
(11.855315 -0.2039103 4.7341366e-18)
(11.909613 -0.20999993 -6.0614242e-18)
(12.010454 -0.1617298 2.8882438e-18)
(12.116717 -0.21285277 -5.5446077e-18)
(12.318004 -0.18408039 1.3093942e-18)
(12.489886 -0.28285246 2.5076437e-18)
(11.94865 0.62033132 6.1948063e-20)
(11.990774 0.4963583 2.4764407e-19)
(11.993936 0.34508512 -4.8539555e-19)
(12.001563 0.24128807 0)
(11.971538 0.10649042 -9.4698051e-19)
(11.956971 0.028316793 2.769651e-18)
(11.906769 -0.063282097 -1.7914256e-18)
(11.879209 -0.1084839 8.8011651e-19)
(11.836519 -0.17243846 -1.7101027e-18)
(11.825386 -0.19083668 4.9315975e-18)
(11.811517 -0.23244272 -3.1024864e-18)
(11.821148 -0.23362424 0)
(11.846781 -0.25578873 1.4416454e-18)
(11.915154 -0.24011539 2.8072223e-18)
(11.975172 -0.2958728 -4.0234115e-18)
(12.123798 -0.29548599 3.8534835e-18)
(12.198307 -0.42236016 -3.6646021e-18)
(12.431638 -0.47957341 -2.3143716e-18)
(12.50063 -0.7161506 -1.0869199e-18)
(11.837715 0.59230002 1.6021966e-19)
(11.924608 0.45211678 2.1310253e-19)
(11.883901 0.32103208 -4.2036401e-19)
(11.921432 0.20621029 0)
(11.86333 0.086361675 1.637636e-18)
(11.876533 0.0068757743 -8.0695888e-19)
(11.810666 -0.077085874 0)
(11.820137 -0.12952775 -1.5327276e-18)
(11.775249 -0.18989691 7.4890861e-19)
(11.787796 -0.21205816 0)
(11.782871 -0.2613241 -1.3867923e-18)
(11.817537 -0.26943219 1.3335545e-18)
(11.841095 -0.32369059 1.2895455e-18)
(11.94062 -0.34624496 -2.486588e-18)
(11.979771 -0.4455803 2.373197e-18)
(12.149927 -0.51919199 -1.1373032e-18)
(12.165065 -0.67783389 -1.0785026e-18)
(12.368657 -0.84622099 -1.0236319e-18)
(12.313965 -1.1288789 -9.7347144e-19)
(11.790193 0.58205421 3.685943e-19)
(11.863072 0.42481451 -1.8279696e-19)
(11.834549 0.31569343 0)
(11.883147 0.17758512 0)
(11.81875 0.084490852 -1.4222541e-18)
(11.84248 -0.0070944017 1.3975194e-18)
(11.771258 -0.08747889 0)
(11.790927 -0.14439872 6.6710662e-19)
(11.749674 -0.20723823 -6.4991546e-19)
(11.779031 -0.24017248 0)
(11.76868 -0.29933867 1.2195023e-18)
(11.827141 -0.33197835 4.4185711e-21)
(11.832279 -0.41452505 2.0650668e-21)
(11.942343 -0.48310787 0)
(11.938339 -0.61562995 -4.1960174e-18)
(12.080064 -0.74566055 4.0100573e-18)
(12.046184 -0.94812056 4.7791104e-18)
(12.148565 -1.1538937 -6.3590963e-18)
(11.988517 -1.4423374 4.3364422e-18)
(11.717237 0.56629668 0)
(11.738545 0.38990427 1.4344997e-21)
(11.7634 0.29673788 0)
(11.773979 0.14537042 0)
(11.752396 0.074334754 6.1435799e-19)
(11.755572 -0.044828203 5.2977675e-21)
(11.710014 -0.10140533 -6.0008279e-19)
(11.722948 -0.17918158 -1.766019e-18)
(11.687788 -0.2397487 2.2668734e-18)
(11.729662 -0.28515079 0)
(11.71478 -0.3601057 -1.0766307e-18)
(11.793971 -0.42465908 -6.2414482e-18)
(11.775408 -0.52703926 2.9986607e-18)
(11.878582 -0.64833584 0)
(11.837036 -0.78665723 -3.6995884e-18)
(11.920909 -0.97593657 4.427773e-18)
(11.80999 -1.1657073 -3.3827359e-18)
(11.830803 -1.3792442 4.0406527e-18)
(11.591875 -1.6255165 0)
(11.696192 0.52570561 -2.7502673e-19)
(11.700184 0.36943983 1.3782238e-19)
(11.74274 0.27330025 0)
(11.720257 0.12197569 -1.0858274e-18)
(11.727057 0.054523372 1.6034072e-18)
(11.713429 -0.070515096 -5.2615613e-19)
(11.69538 -0.11980163 -1.5712499e-18)
(11.691481 -0.22009403 3.5728112e-18)
(11.674643 -0.2678292 -1.9827868e-18)
(11.70528 -0.35673784 0)
(11.686454 -0.42714584 9.405076e-19)
(11.750732 -0.54129061 5.4773241e-18)
(11.703738 -0.64527482 -3.5157125e-18)
(11.777642 -0.80781041 0)
(11.677641 -0.94081471 0)
(11.688797 -1.1552024 -1.5644857e-18)
(11.516794 -1.2994438 7.5105247e-19)
(11.457873 -1.5074028 -2.1576032e-18)
(11.166064 -1.6421768 0)
(11.599728 0.48919882 -2.3748654e-19)
(11.59935 0.35776593 7.1163823e-19)
(11.665655 0.2434106 -7.0691213e-19)
(11.619327 0.10425461 0)
(11.655697 0.021234586 1.4008817e-18)
(11.612656 -0.094413582 -1.8259167e-18)
(11.628365 -0.15091573 0)
(11.606554 -0.2596112 8.8967235e-19)
(11.618374 -0.31467145 8.7039741e-19)
(11.622279 -0.43187867 0)
(11.620321 -0.50001193 0)
(11.635086 -0.65204781 -7.9783031e-19)
(11.5882 -0.73962862 -2.3165824e-18)
(11.575184 -0.9474007 -2.9602428e-21)
(11.462789 -1.035508 2.1518763e-18)
(11.402732 -1.256653 1.3819921e-18)
(11.192863 -1.3395007 -6.638561e-19)
(11.080216 -1.5055791 1.27554e-18)
(10.769683 -1.5542647 0)
(11.547737 0.44055742 0)
(11.546123 0.34627787 -8.1957305e-19)
(11.626855 0.20291584 1.6282502e-18)
(11.575618 0.086796823 -1.2132861e-18)
(11.62657 -0.01671551 0)
(11.571476 -0.12309417 0)
(11.601242 -0.20005742 0)
(11.551096 -0.30547769 -7.6911264e-19)
(11.576653 -0.38002016 -7.5437556e-19)
(11.535968 -0.49946987 0)
(11.54158 -0.58327001 -7.1976113e-19)
(11.488383 -0.74245356 -6.9881206e-19)
(11.444855 -0.83490337 -6.7554396e-19)
(11.340269 -1.0334578 2.6169076e-18)
(11.21883 -1.0873274 -2.527058e-18)
(11.068145 -1.2853682 -6.0895839e-19)
(10.857394 -1.2809252 3.534962e-18)
(10.690934 -1.4225393 -5.6770996e-18)
(10.364985 -1.3711345 3.2876865e-18)
(11.46647 0.41435618 -4.4388809e-20)
(11.48586 0.3230064 8.8590364e-20)
(11.547622 0.15755038 8.8026434e-19)
(11.51731 0.076460777 -2.10314e-18)
(11.558244 -0.058165417 1.0358197e-18)
(11.503861 -0.13600641 0)
(11.542951 -0.23825932 0)
(11.476696 -0.3396442 6.7082966e-19)
(11.500497 -0.4313133 -2.6347858e-18)
(11.433248 -0.549392 -6.5503087e-19)
(11.427618 -0.64951832 6.1753259e-19)
(11.324416 -0.79960409 3.0443002e-18)
(11.253726 -0.87858614 5.925279e-19)
(11.093955 -1.0430968 0)
(10.967545 -1.0666695 1.6687551e-18)
(10.771874 -1.2106376 0)
(10.591884 -1.1404333 -3.132456e-18)
(10.373582 -1.2406367 9.0687194e-18)
(10.090109 -1.0952216 -7.8015569e-18)
(11.374847 0.39182078 7.629818e-20)
(11.43534 0.27365872 -7.5900299e-20)
(11.464295 0.13378815 0)
(11.461453 0.045848516 -9.1082674e-19)
(11.47566 -0.10305055 2.9112864e-19)
(11.435838 -0.16779957 1.1848304e-18)
(11.45618 -0.2996465 0)
(11.382901 -0.37261482 -2.9068209e-18)
(11.399141 -0.49798129 1.7039291e-18)
(11.300541 -0.60032652 -1.4655216e-21)
(11.271617 -0.7080595 0)
(11.124199 -0.81813952 0)
(11.039443 -0.89828489 -5.1706714e-19)
(10.823325 -1.0098849 0)
(10.696008 -1.0022298 2.9196456e-21)
(10.454558 -1.0710271 9.5029481e-19)
(10.319129 -0.95805115 -2.7639816e-18)
(10.088475 -0.99083415 7.1326516e-18)
(9.9035528 -0.77078595 -3.4552701e-18)
(11.307701 0.366876 2.3036179e-19)
(11.392027 0.23243312 -1.9696898e-19)
(11.397242 0.12562702 0)
(11.43508 0.0050004912 0)
(11.414496 -0.11664406 0)
(11.407123 -0.19479541 0)
(11.381134 -0.33318478 -2.0429981e-18)
(11.327638 -0.39356098 2.0031394e-18)
(11.295492 -0.54637942 2.4740872e-18)
(11.187231 -0.60342208 -9.6696973e-19)
(11.138534 -0.72500235 0)
(10.964082 -0.79614729 3.7159037e-18)
(10.858762 -0.86139023 -6.7875243e-18)
(10.624839 -0.89531948 3.5234053e-18)
(10.499592 -0.86700518 -4.2934389e-18)
(10.229496 -0.85487019 2.502066e-18)
(10.123558 -0.72893142 -8.1044202e-19)
(9.8996499 -0.69712013 -7.8829307e-19)
(9.7956424 -0.44401128 7.6310272e-19)
(11.243953 0.32893934 2.2677525e-19)
(11.311603 0.19385211 -7.3634548e-19)
(11.317814 0.096143371 4.5091007e-19)
(11.348147 -0.040822415 -9.0168221e-19)
(11.308439 -0.13337958 8.9228726e-19)
(11.321448 -0.24490906 0)
(11.258758 -0.35143107 -4.4091285e-19)
(11.224397 -0.4374173 1.7435805e-18)
(11.128847 -0.56393722 -1.7103383e-18)
(11.036396 -0.60540417 -4.2051944e-19)
(10.920215 -0.73256589 -3.3086206e-18)
(10.750704 -0.7359835 3.2300662e-18)
(10.632823 -0.78332979 -3.9456124e-19)
(10.410088 -0.74384408 2.3170374e-18)
(10.302872 -0.69492205 -2.2535257e-18)
(10.068566 -0.61708826 0)
(10.00852 -0.48314051 -5.7165082e-18)
(9.8012774 -0.38071069 6.2438689e-18)
(9.783749 -0.11097859 0)
(11.205487 0.29532266 -3.906661e-19)
(11.26014 0.16945019 3.9035722e-19)
(11.287028 0.070153801 -7.7929751e-19)