/*--------------------------------*- C++ -*----------------------------------*\
  =========                 |
  \\      /  F ield         | OpenFOAM: The Open Source CFD Toolbox
   \\    /   O peration     | Website:  https://openfoam.org
    \\  /    A nd           | Version:  11
     \\/     M anipulation  |
\*---------------------------------------------------------------------------*/
FoamFile
{
    format      ascii;
    class       surfaceScalarField;
    location    "3.9";
    object      phi;
}
// * * * * * * * * * * * * * * * * * * * * * * * * * * * * * * * * * * * * * //

dimensions      [0 3 -1 0 0 0 0];

internalField   nonuniform List<scalar> 
8667
(
1.5884138
0.18936392
4.4168955e-08
1.3984615
0.18995185
4.6821501e-07
1.2071033
0.19135777
4.2191112e-07
1.0166521
0.19044961
1.5507623e-06
0.8247261
0.19192405
1.993099e-06
0.63543878
0.18928421
3.1189352e-06
0.4444327
0.19100243
3.6469905e-06
0.26027804
0.18414932
5.3438129e-06
0.181308
7.6913427e-06
0.07896235
1.5885678
0.37857395
1.3981764
0.38034327
1.2070334
0.38250072
1.0159129
0.38157015
0.82454509
0.38329184
0.63400652
0.37982278
0.44406292
0.38094603
0.26033275
0.36787948
0.36413918
0.077501572
1.5885123
0.56783948
1.3981879
0.57066765
1.2068975
0.57379115
1.0155585
0.57290909
0.82363788
0.57521249
0.63336672
0.57009394
0.4430092
0.57130354
0.25900447
0.55188422
0.54765995
0.075483702
1.5884299
0.75718734
1.3983917
0.76070593
1.2068393
0.76534353
1.0155446
0.76420376
0.82308773
0.76766937
0.63226629
0.76091538
0.44153633
0.7620335
0.25712116
0.73629939
0.73124106
0.073540043
1.5884643
0.94650068
1.3985228
0.95064737
1.2071024
0.95676396
1.0155602
0.95574592
0.82299478
0.96023481
0.63149199
0.95241817
0.44048598
0.95303951
0.25551254
0.92127283
0.91456458
0.072189031
1.5885107
1.1357678
1.3988031
1.1403549
1.2074801
1.148087
1.015743
1.147483
0.82299453
1.1529833
0.63058858
1.1448241
0.4388165
1.1448116
0.25321113
1.1068782
1.0976856
0.070090123
1.5885839
1.3249616
1.3989776
1.3299613
1.2079596
1.339105
1.0160116
1.339431
0.82304849
1.3459464
0.63037434
1.3374983
0.43791782
1.3372681
0.25106864
1.2937274
1.2810205
0.067733772
1.5888052
1.5139343
1.3992217
1.5195448
1.2085277
1.529799
1.0166041
1.5313545
0.82310435
1.5394462
0.62962863
1.530974
0.43633517
1.5305616
0.24855791
1.4815046
1.4640765
0.065501849
1.589031
1.702681
1.399662
1.7089138
1.2089707
1.7204902
1.0172211
1.7231042
0.82365996
1.7330073
0.62986273
1.7247712
0.43546407
1.7249602
0.24593846
1.6710302
1.6483904
0.061624558
1.8850604
1.5953985
2.0672413
1.5955968
2.2491083
1.5959114
2.4307931
1.5960932
2.6121658
1.5964033
2.793257
1.5966868
2.9741803
1.5968547
3.1544847
1.5974736
1.5973002
3.3349625
1.8920017
1.4123106
2.0748106
1.4127879
2.2574213
1.4133008
2.4396364
1.4138781
2.62172
1.4143197
2.8033177
1.4150891
2.9848405
1.4153319
3.1657945
1.4165195
1.4164404
3.3466543
1.9054957
1.2273052
2.0901745
1.2281091
2.274587
1.2288883
2.4584257
1.2300394
2.6420198
1.2307256
2.8249795
1.2321295
3.0076197
1.2326917
3.1900175
1.2341217
1.234484
3.3719739
1.9097204
1.040689
2.0960819
1.0417475
2.2826667
1.0423036
2.4689561
1.0437499
2.6552431
1.0444386
2.8412545
1.046118
3.027096
1.0468502
3.2126464
1.0485713
1.0493103
3.3978201
1.9220161
0.85168026
2.1112314
0.85253221
2.3007271
0.85280782
2.4904771
0.85399998
2.6802149
0.8547008
2.8702029
0.85612998
3.0597917
0.85726141
3.2495042
0.85885888
0.86034512
3.4384693
1.9147896
0.66166193
2.1060549
0.66126689
2.2979001
0.66096264
2.4909773
0.66092277
2.6842154
0.66146266
2.8785514
0.66179398
3.072746
0.6630668
3.2679388
0.66366613
0.66525234
3.4630316
1.915865
0.47075716
2.1093943
0.46773763
2.3038406
0.46651633
2.5013855
0.46337787
2.699664
0.46318412
2.9001745
0.46128354
3.1009307
0.46231059
3.3032611
0.46133572
0.46311112
3.5054023
1.8594619
0.28232551
2.0542792
0.27292031
2.2530373
0.26775828
2.4563848
0.26003031
2.6616576
0.25791134
2.8698693
0.25307185
3.0790183
0.25316162
3.2902122
0.2501418
0.25173321
3.5015901
1.8393915
0.091324443
2.0499235
0.062388313
2.274485
0.043196746
2.5050435
0.029471816
2.7382861
0.024668797
2.9717662
0.019591732
3.2072729
0.017654932
3.4409998
0.016414878
3.6769172
0.015815778
3.3240532
0.010909343
3.3137161
0.010337011
3.3035131
0.010203039
3.2940888
0.0094242598
3.2847514
0.0093374292
3.2763333
0.0084181247
3.2679269
0.0084063869
3.2605594
0.007367544
0.0074117083
3.2531477
3.3383044
0.019259198
3.3306805
0.017960976
3.3231947
0.017688784
3.3164265
0.01619246
3.3097656
0.015998338
3.3039234
0.01426033
3.2981671
0.014162681
3.2933643
0.012170394
0.01222526
3.2885507
3.3648269
0.026406242
3.3581533
0.024634522
3.3517631
0.02407905
3.3457512
0.022204368
3.3400771
0.021672425
3.3348119
0.019525474
3.3299447
0.019029886
3.3255678
0.016547333
0.01616555
3.3216275
3.3925108
0.031715534
3.3876804
0.029464984
3.3831775
0.028581875
3.3789787
0.026403232
3.3750904
0.025560706
3.3715193
0.023096554
3.3682516
0.022297618
3.3653001
0.019498784
0.018837371
3.3626283
3.433415
0.036769852
3.4287178
0.034162215
3.4242772
0.033022457
3.4201486
0.030531817
3.4162453
0.029464029
3.4126535
0.026688342
3.409262
0.025689097
3.4061564
0.022604446
0.021785195
3.4032085
3.4603435
0.039457956
3.4580159
0.036489729
3.4560219
0.035016453
3.4540871
0.032466677
3.4524524
0.031098681
3.4506916
0.028449208
3.4491229
0.027257745
3.4470624
0.024664988
0.02369272
3.4451549
3.5037631
0.041097157
3.5020534
0.038199365
3.5005834
0.036486507
3.4989193
0.034130789
3.4973153
0.03270268
3.4950999
0.030664552
3.4926852
0.02967249
3.4892259
0.028124312
0.027485612
3.485433
3.5109602
0.031727042
3.5196021
0.029557433
3.5289897
0.027098894
3.5371138
0.026006744
3.5452217
0.024594811
3.5511668
0.024719453
3.5558604
0.024978805
3.5571975
0.026787238
0.029477369
3.5552058
3.6948908
0.013753494
3.7100068
0.014441373
3.7206365
0.01646921
3.7280065
0.018636792
3.7291021
0.023499208
3.72481
0.029011555
3.7134169
0.036371893
3.6948107
0.045393449
3.6725442
0.05174385
3.6559936
0.068203923
-0.051653349
3.626005
0.065419896
-0.035431267
3.5892195
0.062790461
-0.026005016
3.5505779
0.06087771
-0.022236074
3.5093949
0.058646914
-0.017463902
3.4683733
0.056794989
-0.015773397
3.4263281
0.055055505
-0.013010341
3.3858021
0.054093629
-0.013567627
0.052820833
3.3448466
-0.011865271
3.5621086
0.061301065
3.5650412
0.062487334
3.5645772
0.063254487
3.5613979
0.064056925
3.5556027
0.064442201
3.5473119
0.065085713
3.5367093
0.065658155
3.5243188
0.066484159
0.067091127
3.5100485
3.4925593
0.05417472
3.4991986
0.055848021
3.5043486
0.058104496
3.5087035
0.05970203
3.5112917
0.06185401
3.5130662
0.063311184
3.5132617
0.065462691
3.5127273
0.067018564
0.069276805
3.5105416
3.4551113
0.044218292
3.4653296
0.045629664
3.4746069
0.048827184
3.4841114
0.050197614
3.4925203
0.053445118
3.5009997
0.054831711
3.5082864
0.058176057
3.5156548
0.059650177
0.063148681
3.5217829
3.4127529
0.034673924
3.4226996
0.035682947
3.4324963
0.039030468
3.4426795
0.040014492
3.4525683
0.043556232
3.4628519
0.044548165
3.4727112
0.048316781
3.4830037
0.049357591
0.053388755
3.4927637
3.3729955
0.024306744
3.3837932
0.024885208
3.3948311
0.027992566
3.4063186
0.02852706
3.4179469
0.031927928
3.4300655
0.032429501
3.4422309
0.036151416
3.4549624
0.036626033
0.040697129
3.4676541
3.3307676
0.015166609
3.3404777
0.015175093
3.3506032
0.017867058
3.3613387
0.017791625
3.3724489
0.020817699
3.3842542
0.020624201
3.3964327
0.023972896
3.4094029
0.023655897
0.027402271
3.4226977
3.2972642
0.0064531284
3.3063446
0.006094702
3.3161213
0.0080903642
3.3262085
0.0077043681
3.337332
0.0096942593
3.3485313
0.0094248605
3.3613549
0.011149335
3.3738571
0.011153645
0.013218585
3.3880408
3.2596008
3.2656955
3.2737858
3.2814902
3.2911845
3.3006093
3.3117587
3.3229123
3.3361309
3.3487612
-0.012630307
3.3642683
-0.015507099
3.3789951
-0.014726841
3.3966799
-0.017684715
3.4138187
-0.017138884
3.4338935
-0.020074747
3.4537344
-0.019840947
3.476931
-0.023196507
-0.022227358
3.4991583
3.4023753
-0.026964785
3.4180249
-0.031156689
3.4339213
-0.030623296
3.451545
-0.035308359
3.4690891
-0.034683012
3.4889767
-0.039962319
3.5083942
-0.03925848
3.5303782
-0.045180462
-0.0444094
3.5525602
3.4368992
-0.041166284
3.4513649
-0.045622338
3.4668716
-0.046129992
3.4826161
-0.051052912
3.4995735
-0.051640392
3.5167414
-0.057130238
3.5353137
-0.05783071
3.5541256
-0.063992387
-0.064810924
3.5745271
3.4810187
-0.054530936
3.494268
-0.058871595
3.5083255
-0.060187557
3.5222004
-0.064927748
3.5370493
-0.066489355
3.5516708
-0.071751708
3.5674602
-0.073620098
3.5830186
-0.079550764
-0.081754482
3.5999621
3.5030685
-0.064835716
3.5127478
-0.06855092
3.5231026
-0.070542394
3.5327484
-0.074573543
3.5432461
-0.076987056
3.5529952
-0.081500783
3.5637762
-0.084401079
3.5738153
-0.08958987
-0.093024847
3.5850856
3.5280138
-0.071066685
3.5329498
-0.073486892
3.5381076
-0.075700137
3.5419541
-0.078420082
3.5462185
-0.081251491
3.5492244
-0.084506645
3.5528843
-0.088061023
3.5553589
-0.092064412
-0.09640554
3.5587396
3.5078905
-0.068415539
3.5038533
-0.069449689
3.4994744
-0.07132128
3.4939362
-0.072881909
3.4880723
-0.075387529
3.4813023
-0.077736625
3.474267
-0.081025717
3.4665852
-0.084382649
-0.088529904
3.4587096
3.4943697
-0.052736766
3.4772181
-0.05229811
3.4587027
-0.052805862
3.4389836
-0.053162827
3.4179779
-0.054381855
3.3957688
-0.055527474
3.3724543
-0.057711247
3.3480868
-0.060015127
-0.063119838
3.3226767
3.3055476
-0.013437836
3.2651489
-0.011899373
3.226515
-0.014171963
3.1859673
-0.012615167
3.1472901
-0.015704596
3.1058947
-0.014132117
3.0663026
-0.018119121
3.0229186
-0.016631084
2.9817261
-0.021927368
0.066672236
2.9355812
-0.020527335
0.093018696
3.2963303
0.10136234
3.4503659
0.099078779
3.5610231
0.08850963
3.5956548
0.071772678
3.6166991
0.05114776
3.595152
0.026767004
3.576941
3.5259253
0.070854098
2.8922987
-0.02757159
0.097994412
3.2691899
0.10640784
3.4419525
0.10306589
3.5643651
0.091053915
3.6076668
0.072703314
3.6350497
0.050350302
3.617505
0.026195098
3.6010962
3.5521204
0.075978719
2.8426688
-0.026348869
0.10409428
3.2410744
0.11279785
3.4332489
0.11019341
3.5669695
0.098801079
3.6190591
0.080584745
3.653266
0.057723971
3.6403658
0.029807202
3.6290129
3.5819276
0.081852008
2.7968714
-0.036054535
0.10996973
3.2129567
0.11851556
3.4247031
0.1147183
3.5707668
0.10165957
3.6321178
0.081564587
3.673361
0.056944598
3.6649858
0.029748315
3.6562092
3.6116759
0.089178847
2.7435019
-0.035809393
0.11806029
3.1840752
0.12662601
3.4161374
0.12314546
3.5742473
0.11057558
3.6446877
0.090514525
3.6934221
0.06538911
3.6901112
0.034839025
3.6867593
3.646515
0.096860115
2.6971805
-0.050538727
0.1248949
3.1560404
0.13292243
3.4081098
0.12805416
3.5791156
0.11367813
3.6590638
0.091472218
3.715628
0.064313841
3.7172696
0.033954285
3.7171189
3.6804692
0.10647826
2.6435573
-0.052855069
0.13519485
3.1273238
0.14302399
3.4002807
0.13809816
3.5840414
0.12392666
3.6732352
0.10154833
3.7380063
0.073613106
3.7452048
0.039355785
3.7513762
3.719825
0.11646555
2.6039194
-0.076827684
0.14291296
3.1008764
0.14969903
3.3934946
0.14318313
3.5905573
0.12706944
3.6893489
0.10236851
3.7627072
0.072553403
3.7750199
0.039267301
3.7846623
3.7590923
0.13081086
2.55125
-0.078141437
0.1563054
3.0753819
0.16266817
3.3871319
0.15580313
3.5974224
0.1395746
3.7055775
0.11423576
3.7880461
0.082913725
3.8063419
0.044507407
3.8230686
3.8035997
-0.0061153067
3.809715
-0.003361828
3.8203151
0.0010426125
3.8019375
0.010577111
3.7785116
0.02297481
3.6931798
0.040730597
3.5796666
0.059729395
3.3681331
0.077227697
3.0578836
2.5694107
0.059067054
-0.0093061668
3.8190212
-0.011116075
3.822125
-0.0090040585
3.7998255
-0.00033533097
3.7698428
0.010987761
3.6818567
0.027388848
3.5632655
0.043678222
3.3518437
0.05804984
3.043512
2.572933
0.054527522
-0.0090008568
3.8280221
-0.0091602314
3.8222844
-0.0066043551
3.7972696
0.0013081899
3.7619303
0.011255789
3.6719091
0.026526894
3.5479944
0.04234886
3.3360217
0.057264093
3.0285967
2.5781193
0.052077758
-0.011597672
3.8396197
-0.0159529
3.8266396
-0.016702069
3.7980188
-0.010497065
3.7557253
-0.0012751321
3.6626871
0.013077501
3.5336418
0.027537161
3.3215621
0.039674498
3.0164594
2.5839074
0.033886469
-0.011707635
3.8513274
-0.013924782
3.8288568
-0.01319956
3.7972936
-0.0074565073
3.7499822
0.00050359533
3.654727
0.013990231
3.5201551
0.027963572
3.3075887
0.040462962
3.00396
2.5853657
0.039004595
-0.014323528
3.8656509
-0.021044112
3.8355774
-0.02372533
3.7999748
-0.019197673
3.7454546
-0.01167742
3.6472068
0.00066898389
3.5078087
0.013654318
3.2946034
0.025195202
2.9924191
2.5834199
0.027141002
-0.013881618
3.8795325
-0.017708901
3.8394046
-0.018879769
3.8011456
-0.014947105
3.7415219
-0.0085153252
3.640775
0.0030860026
3.4962074
0.015662608
3.2820268
0.028098513
2.9799832
2.5778746
0.03364383
-0.016680277
3.8962128
-0.024541515
3.8472659
-0.029009986
3.8056141
-0.026225277
3.7387372
-0.020440255
3.63499
-0.010025488
3.4857926
0.0022985378
3.2697028
0.014681036
2.9676007
2.5694154
0.023140276
-0.015726045
3.9119388
-0.020539839
3.8520797
-0.023070996
3.8081453
-0.02057852
3.7362447
-0.015599692
3.6300112
-0.0056776163
3.4758705
0.0062034332
3.2578217
0.019156614
2.9546476
2.5581328
0.030439171
-0.0071032625
2.5441256
0.021110511
0.0063757918
2.9411685
0.018133255
3.2460642
0.02691834
3.4670855
0.030929006
3.6260005
0.032318796
3.7348549
0.026653132
3.8138109
0.0179678
3.860765
3.9299066
-0.012829825
2.5282253
0.028730127
0.00063458845
2.9277041
0.01179189
3.2349069
0.020139236
3.4587381
0.023651795
3.6224879
0.025506761
3.733
0.021635108
3.8176826
0.016103108
3.866297
3.9460097
-0.0020192703
2.5101609
0.020083671
0.012312895
2.9133719
0.023255667
3.2239642
0.030400098
3.4515937
0.032919784
3.6199683
0.033266972
3.7326528
0.026479066
3.8244705
0.017940106
3.874836
3.9639499
-0.00878433
2.4910365
0.027908734
0.004797276
2.8997903
0.014908621
3.2138528
0.021679039
3.4448233
0.023902097
3.6177452
0.024831105
3.7317238
0.020726631
3.828575
0.015478409
3.8800842
3.9794283
0.00075293309
2.4706538
0.019629734
0.015402277
2.885141
0.025057546
3.2041976
0.030438511
3.4394423
0.031606105
3.6165776
0.031045425
3.7322845
0.023807777
3.8358126
0.015857202
3.8880348
3.9952855
-0.0071391574
2.450248
0.027544938
0.0060065899
2.8719952
0.014560074
3.1956441
0.019617537
3.4343848
0.020743462
3.6154517
0.020580588
3.7324473
0.017142733
3.8392505
0.013262773
3.8919147
4.0085482
0.0010776736
2.4295034
0.019666952
0.015295695
2.8577772
0.02297413
3.1879656
0.026435446
3.4309235
0.026401832
3.6154853
0.025258734
3.7335904
0.01992882
3.8445804
0.013355246
3.8984883
4.0219035
-0.0082473646
2.4103396
0.027411162
0.0037859081
2.8457439
0.010244098
3.1815074
0.01348181
3.4276858
0.013676242
3.6152909
0.013154024
3.7341127
0.011716123
3.8460183
0.009412467
3.900792
4.0313159
-0.0016511575
2.3921941
0.019796613
0.011483509
2.8326093
0.016667832
3.1763231
0.017940279
3.4264134
0.016985347
3.6162458
0.015627537
3.7354705
0.012468337
3.8491775
0.0080403524
3.9052199
4.0393563
0.010683966
4.0286723
0.02321383
3.8926901
0.034083319
3.838308
0.041938575
3.7276152
0.045694085
3.6124903
0.046894929
3.4252125
0.046113885
3.1771042
0.044576497
2.8341467
2.3915324
0.045238219
0.014385226
4.0142871
0.025973029
3.8811023
0.035387608
3.8288934
0.043422177
3.7195806
0.046829562
3.6090829
0.045540064
3.426502
0.042296381
3.1803478
0.041055427
2.8353876
2.3964997
0.036088095
0.021006564
3.9932805
0.038875348
3.8632335
0.052885632
3.8148831
0.063263891
3.7092024
0.068455496
3.6038913
0.068849541
3.426108
0.065699877
3.1834975
0.061424121
2.8396634
2.4092718
0.048652022
0.024945481
3.9683351
0.042720774
3.8454582
0.056704315
3.8008996
0.068065448
3.6978412
0.073568828
3.5983879
0.071887994
3.4277888
0.066737847
3.1886477
0.064020288
2.8423809
2.4313747
0.04191738
0.031840824
3.9364942
0.056314995
3.820984
0.07570329
3.7815113
0.090093311
3.6834512
0.098034084
3.5904471
0.098544826
3.4272781
0.09309765
3.1940948
0.089845582
2.845633
2.4709498
0.05027056
0.035271687
3.9012226
0.060399563
3.7958562
0.08117857
3.7607323
0.09717692
3.6674529
0.10642018
3.5812039
0.10580803
3.4278902
0.098300442
3.2016024
0.10124026
2.8426932
2.5316429
0.040547161
0.042698239
3.8585243
0.074907235
3.7636472
0.10132948
3.7343101
0.12062532
3.648157
0.13308724
3.5687419
0.13647767
3.4244998
0.12500283
3.2130773
0.13227549
2.8354205
2.6058886
0.058029722
0.04644831
3.812076
0.079128991
3.7309665
0.10759043
3.7058486
0.12908162
3.6266658
0.14383075
3.5539928
0.14779255
3.420538
0.13320767
3.2276622
0.15146127
2.8171669
2.6904088
0.066941064
0.05400933
3.7580667
0.094516127
3.6904597
0.12919052
3.6711742
0.1560858
3.5997706
0.17835652
3.5317221
0.1895898
3.4093047
0.17079816
3.2464538
0.1898523
2.7981128
2.7165405
0.16372061
-0.13099657
3.8890632
-0.27361286
3.833076
-0.41972581
3.8172872
-0.57052394
3.7505687
-0.71215305
3.6733512
-0.84069748
3.5378491
-0.93707491
3.3428312
-0.96350858
2.8245464
2.7074421
-0.9544101
-0.12625078
4.015314
-0.26935501
3.9761802
-0.41625446
3.9641866
-0.57058263
3.9048969
-0.71973951
3.8225081
-0.85097985
3.6690895
-0.94813489
3.4399863
-0.94432056
2.8207321
2.4883441
-0.72522256
-0.12296124
4.1382753
-0.26812115
4.1213401
-0.41449299
4.1105585
-0.57504828
4.0654521
-0.72807964
3.9755394
-0.8660031
3.8070129
-0.95409053
3.5280737
-0.88607669
2.7527183
1.8204835
-0.21821616
-0.11754227
4.2558175
-0.26257815
4.266376
-0.40962586
4.2576062
-0.5732243
4.2290506
-0.73278143
4.1350966
-0.87466888
3.9489004
-0.9487162
3.602121
-0.82438079
2.6283829
1.0526006
-0.056497902
-0.11366858
4.3694861
-0.25883549
4.4115429
-0.40556187
4.4043325
-0.57525977
4.3987485
-0.73929566
4.2991325
-0.8870308
4.0966355
-0.94407405
3.6591643
-0.71850153
2.4028103
0.34449154
-0.010392433
-0.1066729
4.476159
-0.25039693
4.5552669
-0.3987346
4.5526702
-0.57195342
4.5719673
-0.74324379
4.4704228
-0.89308396
4.2464757
-0.90794598
3.6740263
-0.47005878
1.9649232
-0.19697253
0.071405279
-0.10192202
4.578081
-0.24503594
4.6983808
-0.39306966
4.700704
-0.57176934
4.750667
-0.74672892
4.6453824
-0.89026069
4.3900075
-0.83193526
3.6157008
-0.32870249
1.4616904
-0.59151819
0.065843171
-0.094396131
4.6724772
-0.23508832
4.839073
-0.38506866
4.8506843
-0.56665491
4.9322532
-0.74442729
4.8231548
-0.88411447
4.5296946
-0.75466062
3.486247
-0.26213124
0.96916101
-0.92110399
0.067454559
-0.090364451
4.7628416
-0.22908914
4.9777977
-0.37751897
4.9991141
-0.56394339
5.1186777
-0.74384036
5.0030518
-0.86533838
4.6511927
-0.64479686
3.2657055
-0.15843467
0.48279881
-1.1618291
0.082290466
0.053425439
-1.2634608
0.048206273
0.3251175
0.21110675
0.50804315
3.0827798
0.42797414
4.7312617
0.31052185
5.1205041
0.19122436
5.2379751
0.10315863
5.0871799
0.028324589
5.0526318
4.7911662
0.026923523
-1.343976
0.05359164
0.28509244
-0.047062171
0.49478676
2.8730855
0.41946183
4.8065866
0.29915711
5.2408088
0.17957756
5.3575547
0.095677445
5.17108
0.024568111
5.1237411
4.8157343
0.023142299
-1.4212995
0.054181237
0.27172724
-0.29564711
0.47760648
2.6672063
0.41294957
4.8712435
0.2912861
5.3624722
0.17076611
5.4780747
0.086990133
5.2548559
0.018794852
5.1919364
4.8345292
0.037430462
-1.5136236
0.054893628
0.28429636
-0.54251301
0.46296179
2.4885408
0.40206843
4.9321369
0.27894658
5.4855941
0.15922069
5.5978006
0.080043879
5.3340328
0.015433171
5.2565471
4.8499623
0.046785979
-1.6158961
0.055486511
0.28912241
-0.78484944
0.44947562
2.3281876
0.39459203
4.9870205
0.2703318
5.6098543
0.15026256
5.7178698
0.07116549
5.4131298
0.0096241402
5.3180884
4.8595865
0.051463258
-1.7216486
0.054289272
0.28960055
-1.0229867
0.43606595
2.1817222
0.38152011
5.0415663
0.25649129
5.7348831
0.13866237
5.8356987
0.064133214
5.487659
0.0063121375
5.3759095
4.8658986
0.054674906
-1.8200152
0.043691655
0.28440892
-1.2527207
0.42194696
2.0441842
0.3735338
5.0899795
0.24748457
5.8609324
0.12979019
5.9533931
0.05518693
5.5622622
0.0010166661
5.4300798
4.8669153
0.052876908
-1.9242795
0.051387425
0.27678841
-1.4766323
0.40579602
1.9151766
0.35619524
5.1395803
0.23168562
5.985442
0.11861189
6.0664668
0.048152336
5.6327218
-0.0019360831
5.4801682
4.8649792
0.055304196
-1.9819641
0.0023803321
0.26426165
-1.6855897
0.38942051
1.7900177
0.35038124
5.1786195
0.22442891
6.1113943
0.10975116
6.1811446
0.039404292
5.7030687
-0.0061189718
5.5256915
4.8588602
0.39350178
-2.3314013
-0.04406451
0.48095765
-1.7730456
0.24873055
2.0222448
-0.011394866
5.4387449
-0.18822372
6.2882232
-0.25017355
6.2430944
-0.22590679
5.6788019
-0.16898329
5.468768
4.6898769
0.41246861
-2.7455972
0.0017272984
0.42192742
-1.7825044
0.14457241
2.2995998
-0.097913283
5.6812306
-0.27618184
6.4664917
-0.31895462
6.2858672
-0.27426576
5.6341131
-0.19157304
5.3860752
4.4983039
0.41153362
-3.0333739
-0.123757
0.37916692
-1.7501377
0.052876307
2.6258904
-0.21312772
5.9472347
-0.33335006
6.5867141
-0.335724
6.2882411
-0.27624749
5.5746365
-0.17291472
5.2827425
4.3253892
0.40770127
-3.1888802
-0.25219491
0.32903712
-1.6714735
-0.024133836
2.9790614
-0.27124411
6.1943449
-0.39118329
6.7066533
-0.37917046
6.2762283
-0.29475101
5.4902171
-0.16503865
5.1530301
4.1603505
0.37759055
-3.2066173
-0.35985344
0.25533053
-1.5492135
-0.12618115
3.3605731
-0.36740148
6.4355653
-0.42546018
6.7647119
-0.37390291
6.224671
-0.26910804
5.3854222
-0.12673364
5.0106557
4.0336169
0.33167833
-3.139369
-0.39892669
0.17809558
-1.3956308
-0.18944712
3.7281158
-0.40432771
6.6504459
-0.45841958
6.8188038
-0.39886474
6.1651162
-0.27526901
5.2618265
-0.11769781
4.8530845
3.9159191
0.27222478
-3.0041733
-0.40742047
0.086089035
-1.209495
-0.27926666
4.0934715
-0.48302857
6.8542078
-0.4755168
6.8112921
-0.37514538
6.0647448
-0.2366514
5.1233325
-0.08158378
4.6980169
3.8343353
0.22039919
-2.8550415
-0.36953103
0.027382139
-1.016478
-0.31755631
4.4384099
-0.49568663
7.0323381
-0.48057724
6.7961827
-0.38150433
5.9656719
-0.23923764
4.9810658
-0.083289494
4.5420687
3.7510458
0.15092159
-0.25789725
-2.7480658
-0.07684254
-0.78871385
-0.42130759
4.782875
-0.57460105
7.1856315
-0.48665043
6.708232
-0.3469522
5.8259736
-0.19848001
4.8325936
-0.052876195
4.3964649
3.6981696
-0.33669853
0.25793063
0.078362256
0.00040564567
-0.65752904
0.3204644
0.00036611277
-0.81319616
0.15587733
-0.0002102031
-0.67258599
-0.13996378
-0.00064639601
-0.4284921
-0.24397081
-0.00012308757
0.00017886545
-0.42863904
-3.1918679e-05
0.36151041
-0.36126333
-6.8207852e-05
0.69798874
-0.33647531
-3.0249296e-06
-0.35625747
1.5714692e-05
-0.33334523
0.51250409
0.078771769
-0.64682695
0.63394612
-0.77864747
0.28769784
-0.60908621
-0.30952504
-0.30964181
-0.54341521
0.13450501
-0.87278587
0.45622429
-0.68298262
0.79803495
-0.67828597
-0.70699678
-0.32725018
0.75918571
0.080568562
-0.6243172
0.93101314
-0.72006011
0.38344076
-0.50544874
-0.52413641
-0.1633764
-0.88548755
0.28905471
-1.325217
0.60878999
-1.0027179
0.98028352
-1.0497795
-1.0673646
-0.31516562
0.99216931
0.082182013
-0.59279341
1.2086409
-0.65075317
0.44140052
-0.3860998
-0.78878978
-0.023067528
-1.2485198
0.40916066
-1.7574452
0.76302289
-1.3565801
1.1713153
-1.4580719
-1.4009258
-0.30736369
1.2160841
0.083448915
-0.56679467
1.4680719
-0.58232313
0.45692898
-0.26128296
-1.1098299
0.12723763
-1.6370404
0.55290094
-2.1831085
0.92257184
-1.726251
1.3152493
-1.8507495
-1.7013332
-0.29533043
1.4286233
0.08279121
-0.54282175
1.7155632
-0.51802956
0.43213679
-0.13611628
-1.4917432
0.28538296
-2.0585397
0.71147506
-2.6092006
1.0842835
-2.0990595
1.450309
-2.216775
-1.9644579
-0.28668086
1.6325214
0.082782733
-0.50702886
1.9359112
-0.42858572
0.35369364
0.010682376
-1.9310113
0.45225815
-2.5001154
0.86138068
-3.0183231
1.2221835
-2.4598623
1.5503254
-2.5449169
-2.2041548
-0.27142088
1.8211767
0.082765604
-0.44803026
2.1125206
-0.30794485
0.21360824
0.15174245
-2.3906986
0.60545142
-2.9538244
0.9976205
-3.4104922
1.3501785
-2.8124203
1.6360258
-2.8307642
-2.4144661
-0.25985361
0.084590573
1.9964397
-0.3735009
2.2261679
-0.1605108
0.00061813227
0.28895141
-2.8401608
0.75266135
-3.4175343
1.128513
-3.7863438
1.4537129
-3.1376202
1.7124243
-3.0894756
-2.6061302
0.15098566
2.8555125
-0.25798477
-2.7485133
-0.076843786
1.0164678
-0.78863833
-0.42136339
-4.4388121
4.7833317
-0.57463878
-7.0325288
7.1858042
-0.48667488
-6.7963027
6.7083388
-0.34696413
-5.9656964
5.8259856
-0.19848118
-4.9810402
4.8325573
-0.052875314
-4.5420283
4.3964224
-3.7510064
3.6981311
0.22047703
3.0046276
-0.36959215
0.027410664
1.2095341
-0.3175945
-4.0938069
-0.49571985
-6.8544034
-0.4806106
-6.8114119
-0.38152285
-6.0647841
-0.23924127
-5.1233218
-0.083287935
-4.6979816
-3.8342943
0.2722933
3.1397961
-0.40746185
0.086122032
1.3957054
-0.27929658
-3.7283883
-0.48306521
-6.6506348
-0.4755451
-6.818932
-0.3751657
-6.1651635
-0.23665892
-5.2618286
-0.081583421
-4.8530571
-3.9158777
0.33176165
3.2070062
-0.39897169
0.17815105
1.549316
-0.18946547
-3.3607718
-0.40436247
-6.4357378
-0.45845642
-6.7648381
-0.39888948
-6.2247305
-0.27528125
-5.3854368
-0.11769989
-5.0106385
-4.0335776
0.37766562
3.1892399
-0.35989939
0.25538315
1.6715985
-0.12619098
-2.9791977
-0.36742973
-6.1944991
-0.42548754
-6.7067803
-0.37392746
-6.2762906
-0.26912368
-5.4902406
-0.12674012
-5.153022
-4.1603177
0.40777726
3.0336647
-0.25220201
0.32909006
1.7502857
-0.024134533
-2.6259731
-0.27126909
-5.9473645
-0.39121401
-6.5868354
-0.37919379
-6.2883108
-0.29476615
-5.5746682
-0.16504632
-5.2827419
-4.3253641
0.41159882
2.7457472
-0.12368132
0.37921604
1.7826684
0.052880278
-2.2996373
-0.21314719
-5.681337
-0.3333736
-6.4666089
-0.33574542
-6.285939
-0.27626359
-5.63415
-0.17292487
-5.3860806
-4.4982889
0.41251934
2.3314665
0.001761382
0.42198106
1.7732067
0.14458416
-2.0222404
-0.097926498
-5.4388264
-0.27620778
-6.2883277
-0.31897497
-6.2431718
-0.27427914
-5.6788459
-0.19158064
-5.4687791
-4.6898696
0.39353697
1.9819876
-0.044058103
0.48100599
1.6857377
0.24874594
-1.7899803
-0.011398741
-5.1786817
-0.18823816
-6.1114883
-0.25019313
-6.1812168
-0.22592089
-5.7031181
-0.16899041
-5.5257096
-4.85886
-0.028322388
4.7911826
-4.7628602
-0.10315675
5.0526664
-4.977832
-0.1912249
5.0872195
-4.9991514
-0.31052439
5.2380245
-5.118725
-0.42798048
5.1205553
-5.0030992
-0.50805155
4.7312904
-4.6512194
-0.3251138
3.0827194
-3.2656572
-0.053416202
0.21100865
-0.48270625
-1.2634562
1.1618283
0.048211735
-0.024565248
4.8157479
-0.095674248
5.1237754
-0.17957716
5.1711224
-0.29915959
5.3576069
-0.41946864
5.2408644
-0.49479422
4.806616
-0.28509169
2.8730169
-0.026918105
-0.047164939
-1.3439706
0.053596272
-0.018792538
4.8345404
-0.086986667
5.1919695
-0.17076519
5.2549009
-0.29128786
5.4781296
-0.41295571
5.3625322
-0.47761437
4.8712747
-0.27173654
2.6671391
-0.023143661
-0.29575782
-1.4213
0.054185759
-0.01543107
4.8499715
-0.080039789
5.2565782
-0.1592185
5.3340796
-0.27894782
5.5978589
-0.40207469
5.4856591
-0.46297091
4.9321709
-0.28430986
2.488478
-0.037436545
-0.54263113
-1.5136316
0.054895026
-0.0096221917
4.8595937
-0.07116105
5.3181171
-0.15025988
5.4131785
-0.27033223
5.7179312
-0.39459751
5.6099244
-0.4494853
4.9870587
-0.28913506
2.3281278
-0.046793158
-0.78497303
-1.6159071
0.055482364
-0.0063106018
4.8659043
-0.06412922
5.3759357
-0.1386587
5.487708
-0.25649074
5.8357633
-0.38152552
5.7349592
-0.43607602
5.0416092
-0.28961449
2.1816663
-0.051470752
-1.0231168
-1.7216636
0.054285798
-0.0010151524
4.8669194
-0.055183158
5.4301037
-0.12978642
5.5623112
-0.24748303
5.9534599
-0.37353835
5.8610145
-0.42195736
5.0900282
-0.28442396
2.0441329
-0.054683897
-1.2528568
-1.8200319
0.043684368
0.0019383831
4.8649811
-0.048147563
5.4801897
-0.11860738
5.632771
-0.23168456
6.0665371
-0.3561998
5.9855297
-0.40580613
5.1396345
-0.27680501
1.9151318
-0.05288693
-1.4767749
-1.9242985
0.0513797
0.0061210639
-0.039398831
-0.1097459
-0.22442565
-0.35038418
-0.38943134
-0.26427991
-0.055317148
0.0023719548
0.15841512
0.92111158
0.082301555
0.64478999
-0.96908112
0.86534909
-3.4862163
0.74385013
-4.5297204
0.56394883
-4.8231979
0.3775212
-4.9322973
0.22908893
-4.8507191
0.090363008
-4.8391061
-4.6724972
0.2621215
0.59152603
0.067464045
0.75466094
-1.4616206
0.8841254
-3.6156807
0.74443598
-4.390031
0.56665969
-4.6454216
0.38507124
-4.7507089
0.23508929
-4.7007371
0.094395783
-4.6984126
-4.5781015
0.32869605
0.19698374
0.065846239
0.83193704
-1.9648615
0.89027117
-3.6740149
0.74673768
-4.2464975
0.57177463
-4.4704586
0.39307246
-4.5720067
0.24503727
-4.5527019
0.10192199
-4.5552973
-4.4761795
0.47005249
-0.34447783
0.071409088
0.90795046
-2.4027595
0.89309403
-3.6591584
0.74325231
-4.0966558
0.57195848
-4.2991648
0.39873657
-4.3987848
0.25039853
-4.4043639
0.10667364
-4.4115724
-4.3695058
0.71849626
-1.0525833
-0.010390832
0.94408012
-2.6283434
0.88704032
-3.6021186
0.73930424
-3.9489197
0.57526545
-4.135126
0.40556439
-4.2290838
0.25883651
-4.257636
0.11366864
-4.2664046
-4.2558372
0.82437861
-1.8204661
-0.056495749
0.94872241
-2.7526872
0.87467845
-3.5280747
0.73279003
-3.8070313
0.57322979
-3.9755657
0.40962891
-4.0654829
0.26257925
-4.1105864
0.11754186
-4.1213672
-4.1382953
0.88607528
-2.4883286
-0.21821278
0.9540973
-2.8207092
0.86601248
-3.4399899
0.72808786
-3.6691067
0.575054
-3.8225319
0.41449636
-3.9049252
0.26812236
-3.9642124
0.12296053
-3.9762053
-4.0153348
0.94432147
-2.7074299
-0.72522023
0.94814186
-2.8245296
0.85098828
-3.3428363
0.71974735
-3.5378657
0.57058875
-3.6733733
0.41625819
-3.7505947
0.26935654
-3.8173107
0.12625029
-3.8330991
-3.8890845
0.96351039
-2.7165303
-0.95440995
0.93708195
-2.7981011
0.84070568
-3.24646
0.71216089
-3.409321
0.57052956
-3.5317419
0.41972833
-3.5997935
0.27361344
-3.6711958
0.13099658
-3.6904822
-3.7580879
0.010683281
4.0286917
-4.039375
0.023212688
3.8927085
-3.9052379
0.034081839
3.8383245
-3.8491937
0.04193597
3.7276297
-3.7354838
0.04569062
3.6125018
-3.6162564
0.046891307
3.42522
-3.4264207
0.046111069
3.1771082
-3.176328
0.044575225
2.8341491
-2.8326132
2.3915419
-2.3922052
0.045238448
0.014384643
4.0143071
0.025971974
3.8811212
0.035385693
3.8289108
0.043418976
3.7195964
0.04682574
3.609095
0.045536036
3.4265097
0.042293034
3.1803512
0.041054464
2.8353877
2.3965079
0.036088486
0.021006078
3.993301
0.038874899
3.8632523
0.052884198
3.8149015
0.06326112
3.7092195