/*--------------------------------*- C++ -*----------------------------------*\
  =========                 |
  \\      /  F ield         | OpenFOAM: The Open Source CFD Toolbox
   \\    /   O peration     | Website:  https://openfoam.org
    \\  /    A nd           | Version:  11
     \\/     M anipulation  |
\*---------------------------------------------------------------------------*/
FoamFile
{
    format      ascii;
    class       volScalarField;
    location    "0.0365";
    object      rho;
}
// * * * * * * * * * * * * * * * * * * * * * * * * * * * * * * * * * * * * * //

dimensions      [0 0 0 0 0 0 0];

internalField   nonuniform List<scalar> 
880
(
0.3733250556165154
0.3733250556165154
0.3733250556165154
0.3733250554732341
0.3733250556165154
0.3733250556165154
0.3733250556165152
0.373325055230267
0.3733250556165154
0.3733250556165153
0.3733250556165154
0.3733252069499804
0.3733250556165154
0.3733250556165154
0.3733250556165154
0.3733258871250089
0.3733250556165154
0.3733250556165155
0.3733250556165152
0.3733250556165154
0.3733250556165154
0.3733250556165154
0.3733250556165151
0.3733250556165154
0.3733250556165154
0.3733250556159104
0.3733251104234364
0.37332467021731
0.3735813635634503
0.3746808244880234
0.3756049080134872
0.3757315636761514
0.3733250556231993
0.3733250556249577
0.3733250556257362
0.3733250556193758
0.3733250564075286
0.3733250566650291
0.3733250567879753
0.3733250560683471
0.3733271328478677
0.3733273538967117
0.373327538413328
0.3733268088425459
0.3758777702801123
0.3760904023660731
0.3761910382878922
0.3762847465671734
0.3767851452564588
0.3753430041360277
0.3739376590520812
0.3733935504534333
0.3733311164215012
0.3733293339252119
0.3733265620661777
0.3733252452701729
0.3733250600588427
0.3733250589274786
0.3733250568105324
0.373325055760779
0.3733250556601429
0.3733250556464996
0.3733250556246682
0.3733250556169804
0.3733250556165152
0.3733250556165152
0.3733250556165154
0.3733250556165155
0.3733250556207641
0.3733250556165155
0.3733250556165154
0.3733250556165155
0.3733250617355368
0.3733250555876929
0.3733250555945909
0.373325055612213
0.3733267077307757
0.3733250298788963
0.3733250452365542
0.3733250543732869
0.3733250555957336
0.3733250556165154
0.3733250556165154
0.3733250556165154
0.3733250522798722
0.3733250555288681
0.3733250556148683
0.3733250556165153
0.3733266948007241
0.3733251014082992
0.3733250556736256
0.3733250556167102
0.372371949684798
0.3733224202710178
0.3733250531580425
0.373325055615482
0.3733250556165152
0.3733250556998614
0.3733256892096435
0.375737786122252
0.373325055636102
0.373325058333364
0.3733317404508214
0.3825038460534642
0.3733250556461941
0.3733250596932977
0.373334315093402
0.3845068741943728
0.3733250556537212
0.3733250606243179
0.3733357083879255
0.3851403372228067
0.3857687583156468
0.3733373638545757
0.3733250618203339
0.3733250556641077
0.3865047619722801
0.3733394533226773
0.3733250634247611
0.373325055677888
0.3872777597504394
0.3733418932839142
0.3733250654258486
0.3733250556959956
0.3883579703712722
0.3733457396207492
0.3733250688916003
0.3733250557289522
0.3733250556932293
0.3733250648202088
0.3733418743614826
0.3879579158530433
0.3733250556964215
0.3733250651541444
0.3733417906336208
0.3872021859037025
0.3733250557996764
0.3733250660438359
0.3733419090905757
0.3861722411098552
0.3733250554978942
0.3733250616474297
0.373334061548283
0.3801184643445796
0.3733250539661453
0.3733226633258628
0.3732275049705764
0.3723072001174459
0.3733250550885381
0.3733240192701858
0.3729220249668572
0.3465835050611839
0.3733250551799322
0.3733239953320659
0.3727108913791943
0.3216187616049343
0.3733250553103413
0.3733240150044463
0.3725564108532896
0.311798673427418
0.3254489904949714
0.3729525156552719
0.3733244459965547
0.3733250552607381
0.328088411392551
0.3729914989114259
0.3733245641755044
0.373325055383009
0.3334457486312015
0.3730863352105745
0.3733247325805875
0.3733250555079819
0.3263970058224536
0.3730129105984865
0.3733246588852518
0.3733250554150146
0.3573829328577396
0.3732761230421105
0.3733250011517067
0.3733250555915842
0.3713368555125602
0.373322479866974
0.3733250535306591
0.373325055617438
0.3731102520072805
0.3733247353862159
0.373325055318937
0.3733250556165151
0.3727872404328626
0.3733238302355838
0.3733250541381166
0.3733250556130525
0.3695914754793156
0.3733050641606315
0.3733250217887114
0.3733250558349043
0.3695992662804239
0.3733050884963648
0.3733250216884347
0.3733250558320395
0.3696055870319646
0.3733050657327555
0.3733250206146291
0.3733250557990533
0.3696547562278716
0.3733052170279076
0.3733250188585572
0.3733250557356075
0.3727872404325682
0.3733238302352138
0.3733250541376236
0.3733250556133011
0.3731102520065769
0.3733247353857574
0.3733250553179083
0.3733250556165151
0.3713368555123005
0.3733224798670083
0.3733250535306148
0.3733250556175159
0.3573829328583848
0.3732761230430648
0.3733250011517891
0.3733250555913675
0.3733250552615903
0.3733244459977159
0.3729525156557245
0.3254489904955736
0.3733250553833776
0.3733245641757245
0.3729914989118461
0.3280884113924633
0.3733250555073047
0.3733247325812325
0.3730863352105697
0.3334457486321431
0.3733250554152107
0.3733246588853624
0.373012910599668
0.3263970058216019
0.3117986734260468
0.3725564108528145
0.373324015004095
0.3733250553102192
0.3216187616036231
0.3727108913785266
0.3733239953309498
0.3733250551788238
0.3465835050607391
0.3729220249659036
0.3733240192701517
0.3733250550874402
0.3723072001177036
0.3732275049702228
0.3733226633254625
0.3733250539674674
0.3733250556930627
0.3733250648207447
0.3733418743620215
0.3879579158538923
0.3733250556965536
0.3733250651543256
0.3733417906336205
0.3872021859033971
0.3733250558003223
0.3733250660438577
0.3733419090899189
0.3861722411097205
0.3733250554990367
0.3733250616474224
0.3733340615478064
0.3801184643445609
0.388357970372929
0.3733457396200218
0.3733250688924601
0.3733250557288335
0.3872777597519156
0.3733418932847867
0.3733250654261551
0.3733250556961615
0.3865047619726142
0.3733394533240317
0.3733250634254647
0.3733250556777714
0.3857687583159917
0.3733373638540904
0.3733250618204223
0.3733250556639528
0.3733250556165154
0.373325055700475
0.3733256892095785
0.3757377861209786
0.3733250556356964
0.3733250583328126
0.3733317404512362
0.382503846053606
0.3733250556460193
0.373325059693312
0.3733343150936305
0.3845068741949517
0.3733250556535104
0.3733250606245039
0.3733357083870147
0.3851403372231352
0.3733250556154487
0.3733250556167553
0.3733250556165154
0.3733250556165154
0.3733250531570086
0.3733250556734315
0.3733250556154262
0.3733250556165153
0.3733224202711543
0.3733251014089483
0.3733250555284116
0.3733250556165151
0.3723719496847401
0.3733266948007755
0.3733250522799088
0.3733250555957305
0.3733250556165152
0.3733250556165154
0.3733250556122626
0.3733250543734578
0.3733250556165154
0.3733250556165153
0.3733250555954584
0.3733250452365753
0.3733250556165154
0.3733250556165154
0.3733250555873665
0.3733250298789819
0.3733250556165154
0.3733250556206364
0.3733250617360577
0.3733267077305958
0.3733250556595514
0.3733250600579985
0.373331116420893
0.3767851452562262
0.3733250556459262
0.373325058927823
0.3733293339253307
0.3753430041351928
0.3733250556245911
0.3733250568116465
0.3733265620659132
0.3739376590520017
0.3733250556169453
0.3733250557611217
0.3733252452702659
0.3733935504528626
0.3762847465674539
0.3733268088435074
0.3733250560678263
0.3733250556191943
0.3761910382875505
0.3733275384150222
0.3733250567877433
0.3733250556258864
0.376090402367036
0.3733273538974491
0.3733250566651765
0.3733250556248401
0.3758777702799105
0.3733271328456678
0.3733250564073701
0.3733250556232958
0.3757315636766248
0.3733246702176556
0.3733250556165154
0.3733250556165154
0.3756049080131991
0.3733251104223299
0.3733250556165154
0.3733250556165154
0.3746808244885781
0.3733250556158726
0.3733250556165154
0.3733250556165153
0.373581363563235
0.3733250556165154
0.3733250556165154
0.3733250556165151
0.3733250556165154
0.3733250556165154
0.3733250556165154
0.3733250555293819
0.3733250556165152
0.3733250556165155
0.3733250556165153
0.3733250552273094
0.3733250556165154
0.3733250556165154
0.3733250556165154
0.3733252069508667
0.3733250556165154
0.3733250556165154
0.3733250556165151
0.3733258871247918
0.3733250224655195
0.3733246740294681
0.3733230231390969
0.3734205602145799
0.3733246740348743
0.373321293015656
0.3733135036984269
0.3733707772536821
0.3733230231397235
0.3733135036983208
0.3734005859105456
0.3788746591898107
0.3734205602152956
0.373370777254255
0.3788746591900793
0.4214013761609686
0.5069615207051624
0.4383633399313398
0.4099906882133075
0.3841782174449145
0.5138207195169
0.4896454382568894
0.4739705567516292
0.4297342533849077
0.5182417141829267
0.5150068275662978
0.5075837437904911
0.4675233854858947
0.5230987624425351
0.5258885011399189
0.5193181153350013
0.477682471886471
0.4817687403479178
0.4832534175757617
0.4838376813310263
0.4974983912491126
0.5215196120080136
0.5217361250223966
0.5219578700857244
0.54450413416396
0.5280675007869228
0.5281417242622941
0.5283100714174799
0.5444909117962352
0.5243900335932422
0.5240582901479726
0.5240324664695531
0.5384916954140697
0.4536064024040496
0.4054393321126365
0.3806279498160549
0.3739212695625249
0.4601556039979278
0.40220657333889
0.37873708593501
0.3737834384835396
0.4038419857534661
0.3754304954183014
0.3769088650132087
0.3739161090684228
0.3510276297577778
0.3580814042018645
0.3697341350588343
0.3728931485425689
0.3733305174823718
0.3733240974433676
0.3733249042790107
0.3733250489918912
0.3733213094909829
0.37332389240214
0.3733250469671019
0.3733250550876456
0.3733235200635193
0.3733242737596769
0.3733250687143722
0.3733250558579114
0.3732769309060544
0.3733206335747161
0.3733248394131934
0.3733250529285514
0.3733250554382077
0.3733250557590861
0.3733252661538234
0.3579189985267856
0.3733250555112403
0.3733250556507852
0.373325142615435
0.369078143712023
0.3733250555888256
0.3733250556263868
0.3733250726992878
0.3997804331002389
0.3733250556108966
0.3733250556240834
0.3733250603700821
0.4437570512678575
0.5514815539283094
0.6645396003833962
0.6864595875458963
0.688907091365791
0.6613021297529407
0.732707361705169
0.7591655056102035
0.7625696693413139
0.6880779116003257
0.730721167875555
0.7618716870527078
0.7665012618151632
0.7144801598756726
0.7018374707795388
0.723631282233937
0.7293742114664279
0.6894981031894153
0.6901886496582885
0.6909824171141938
0.6918738170947327
0.7626682362659839
0.7626785836041404
0.7627301898626783
0.7621795905871889
0.7666831839931522
0.7666372915701971
0.766592995557153
0.7660828773324811
0.7297894117982239
0.7298501537869726
0.7298640335524492
0.7293013872174574
0.67997920992113
0.6697393227804462
0.6513499360265774
0.564498378650419
0.7607744256697239
0.7576810512371924
0.7415655227503617
0.6733472578143381
0.7685017790748541
0.7669570803071959
0.7411451046001175
0.6779470800534733
0.7319156705062273
0.73080062662092
0.7065353471587521
0.7029299695545691
0.3723961753864602
0.1893007762965161
0.09039052600726186
0.0743500357115095
0.352881203269723
0.1258023855225009
0.07177738927625668
0.0612788211054539
0.269660674775642
0.08149810895487125
0.06686712629877702
0.06069462115027312
0.1819559536234537
0.03680371222766562
0.05585247692795264
0.05724322804133867
0.07370156915027662
0.07470022677599279
0.07761987116271947
0.06861360615522386
0.06075177114431303
0.06174608356905968
0.06698593154774145
0.0612376892929847
0.05913913202163983
0.06110932685526055
0.0693940840171646
0.06293836561079415
0.05418407892358567
0.05607082447942544
0.06684039908977633
0.05364175194761996
0.2120285945833257
0.3251589318428878
0.360831317658967
0.3510247902216462
0.1630269444067319
0.2740515244197151
0.3323178402403331
0.3424515410816761
0.1372628640305678
0.237917497661952
0.3049800663116752
0.3415602808678981
0.08732270822770667
0.1989235387542073
0.2788327953199703
0.3347873706105114
0.3385725658395328
0.3091181207830887
0.2653804237046111
0.2131452813862716
0.2648302840727288
0.2395427630906773
0.2251694716368917
0.1688684358865253
0.197749415694202
0.1256005265941851
0.1624980707871814
0.1571278545894362
0.161031558098239
0.0854355033858589
0.08259485721428768
0.09024165372890397
0.07370664578833358
0.0506133232673471
0.04573291638122185
0.04514776711766375
0.104306183948686
0.0745374781586097
0.06986207908943495
0.06878991964405362
0.1241339153938781
0.1126821131063128
0.1108863959932385
0.110312105669033
0.1865661706592111
0.1820259735537127
0.1807474976857571
0.1802162302025155
0.04514776711762793
0.06878991964420153
0.110312105668952
0.1802162302022049
0.04573291638112235
0.06986207908966852
0.1108863959931532
0.1807474976852408
0.05061332326723488
0.07453747815865629
0.1126821131060603
0.1820259735543206
0.07370664578855485
0.1043061839484766
0.124133915393643
0.1865661706586531
0.2131452813861024
0.2653804237040056
0.3091181207825843
0.3385725658386708
0.1688684358863721
0.2251694716368826
0.2395427630909843
0.2648302840722374
0.1571278545893503
0.1624980707872934
0.1256005265940896
0.1977494156939802
0.09024165372903407
0.08259485721424133
0.08543550338586275
0.1610315580980677
0.3347873706100075
0.2788327953195776
0.1989235387543305
0.08732270822770447
0.3415602808677033
0.3049800663114799
0.2379174976620083
0.1372628640306779
0.3424515410815968
0.3323178402400436
0.2740515244196863
0.1630269444069009
0.3510247902214497
0.3608313176585967
0.3251589318428258
0.2120285945835284
0.06861360615509879
0.07761987116284845
0.07470022677592629
0.07370156915018079
0.06123768929290281
0.06698593154772635
0.06174608356896875
0.06075177114420555
0.06293836561079794
0.06939408401724603
0.06110932685537392
0.05913913202170007
0.05364175194772649
0.06684039908997186
0.05607082447969114
0.05418407892372623
0.07435003571089502
0.09039052600660719
0.1893007762963335
0.3723961753862949
0.06127882110526464
0.07177738927601317
0.1258023855223384
0.3528812032687911
0.06069462115036058
0.06686712629866863
0.08149810895491523
0.2696606747749759
0.05724322804153846
0.05585247692801322
0.03680371222765171
0.1819559536232947
0.5644983786495299
0.6513499360264464
0.6697393227799929
0.6799792099210784
0.6733472578136599
0.7415655227502929
0.7576810512372998
0.7607744256700498
0.6779470800529227
0.7411451045998819
0.7669570803073555
0.7685017790746735
0.7029299695542998
0.7065353471587336
0.7308006266210815
0.7319156705063151
0.6918738170943394
0.6909824171151341
0.6901886496587851
0.6894981031892253
0.7621795905865147
0.7627301898633788
0.762678583604659
0.7626682362657862
0.766082877331693
0.7665929955575019
0.7666372915703471
0.7666831839928455
0.7293013872171843
0.7298640335527794
0.7298501537870339
0.7297894117980886
0.6889070913655472
0.686459587546295
0.6645396003835624
0.5514815539289454
0.7625696693410929
0.7591655056106391
0.7327073617049177
0.6613021297533692
0.7665012618149243
0.7618716870531111
0.7307211678753114
0.6880779116003658
0.7293742114662873
0.7236312822344596
0.701837470778962
0.7144801598756301
0.357918998526787
0.3733252661536374
0.3733250557589359
0.3733250554382325
0.3690781437121406
0.3733251426153241
0.373325055650713
0.3733250555112692
0.3997804331004038
0.373325072699247
0.3733250556263621
0.3733250555887937
0.4437570512678731
0.3733250603700659
0.3733250556240687
0.3733250556108732
0.3733250489919273
0.373324904279113
0.3733240974434025
0.3733305174823227
0.3733250550876268
0.3733250469669828
0.3733238924023555
0.3733213094907997
0.3733250558578771
0.3733250687142869
0.3733242737601211
0.3733235200632264
0.3733250529285436
0.3733248394132042
0.3733206335751275
0.3732769309061659
0.3739212695622978
0.3806279498159274
0.4054393321122176
0.4536064024038448
0.3737834384833018
0.3787370859349838
0.4022065733386984
0.460155603998109
0.3739161090681588
0.376908865013235
0.3754304954182115
0.4038419857537981
0.3728931485418082
0.3697341350589999
0.3580814042016199
0.3510276297578541
0.4974983912488574
0.4838376813304364
0.4832534175751027
0.481768740348525
0.544504134163599
0.521957870085401
0.5217361250218967
0.5215196120085448
0.5444909117957889
0.5283100714169505
0.528141724261205
0.5280675007870973
0.5384916954138145
0.5240324664693301
0.5240582901475113
0.5243900335933146
0.4776824718865395
0.4675233854852143
0.4297342533855587
0.3841782174453545
0.5193181153353091
0.5075837437900834
0.4739705567517645
0.409990688213424
0.5258885011405922
0.5150068275654274
0.4896454382567945
0.4383633399311292
0.5230987624435031
0.5182417141828789
0.513820719516735
0.5069615207053439
0.3726193123095786
0.3733221087266517
0.373325050658726
0.3733250556368918
0.3715137827463462
0.3733164381765455
0.3733250406828617
0.3733250556843016
0.3698199637050466
0.3733080039081092
0.3733250246335759
0.3733250556746137
0.3680909662432272
0.3733007899741702
0.3733250130579405
0.3733250556845846
0.3733250558352849
0.3733250217884628
0.3733050641607016
0.3695914754792677
0.3733250558323196
0.3733250216890144
0.3733050884956099
0.3695992662806389
0.3733250557987393
0.373325020615151
0.3733050657328578
0.3696055870314759
0.3733250557345169
0.3733250188591813
0.3733052170255284
0.3696547562276825
0.3733250556844188
0.3733250556744845
0.373325055683174
0.3733250556355999
0.3733250130580911
0.3733250246335689
0.3733250406826195
0.3733250506579818
0.3733007899749964
0.3733080039071547
0.3733164381774523
0.3733221087260364
0.3680909662423359
0.3698199637042136
0.3715137827464419
0.3726193123097539
)
;

boundaryField
{
    back
    {
        type            empty;
    }
    inlet
    {
        type            calculated;
        value           nonuniform List<scalar> 
16
(
0.3733250556165154
0.3733250556165154
0.3733250556165154
0.3733250556165154
0.3733250556165154
0.3733250556165155
0.3733250556165152
0.3733250556165154
0.3733250556165154
0.3733250556165154
0.3733250556165154
0.3733250556165151
0.3733250556165154
0.3733250556165152
0.3733250556165154
0.3733250556165154
)
;
    }
    front
    {
        type            empty;
    }
    top
    {
        type            calculated;
        value           nonuniform List<scalar> 
40
(
0.3733250556231994
0.3733250556249577
0.3733250556257362
0.3733250556193758
0.3733250556601429
0.3733250556464996
0.3733250556246682
0.3733250556169804
0.3733250556165152
0.3733250556165152
0.3733250556165154
0.3733250556165155
0.3733250556165154
0.3733250556165154
0.3733250556167102
0.373325055615482
0.3733250556165152
0.373325055636102
0.3733250556461941
0.3733250556537211
0.3733250556641077
0.373325055677888
0.3733250556959956
0.3733250557289522
0.3733250556932293
0.3733250556964216
0.3733250557996763
0.3733250554978942
0.3733250539661453
0.373325055088538
0.3733250551799322
0.3733250553103413
0.3733250552607381
0.373325055383009
0.3733250555079819
0.3733250554150145
0.3733250555915842
0.373325055617438
0.3733250556165151
0.3733250556130525
)
;
    }
    outlet
    {
        type            calculated;
        value           uniform 0.3733250556165154;
    }
    bottom
    {
        type            calculated;
        value           nonuniform List<scalar> 
40
(
0.3733250556133011
0.3733250556165151
0.3733250556175159
0.3733250555913675
0.3733250552615903
0.3733250553833776
0.3733250555073047
0.3733250554152107
0.3733250553102192
0.3733250551788238
0.3733250550874402
0.3733250539674674
0.3733250556930627
0.3733250556965536
0.3733250558003223
0.3733250554990367
0.3733250557288335
0.3733250556961615
0.3733250556777714
0.3733250556639528
0.3733250556165154
0.3733250556356964
0.3733250556460193
0.3733250556535104
0.3733250556154487
0.3733250556167554
0.3733250556165154
0.3733250556165154
0.3733250556165152
0.3733250556165154
0.3733250556165154
0.3733250556165154
0.3733250556595514
0.3733250556459262
0.3733250556245912
0.3733250556169453
0.3733250556191943
0.3733250556258864
0.3733250556248401
0.3733250556232958
)
;
    }
    wall
    {
        type            calculated;
        value           nonuniform List<scalar> 
104
(
0.5069615207051624
0.5138207195169
0.5182417141829267
0.5230987624425351
0.5243900335932422
0.5240582901479726
0.5240324664695531
0.5384916954140697
0.3510276297577778
0.3580814042018645
0.3697341350588343
0.3728931485425689
0.3732769309060544
0.3733206335747161
0.3733248394131934
0.3733250529285514
0.3733250556108966
0.3733250556240834
0.3733250603700822
0.4437570512678575
0.7144801598756726
0.7018374707795388
0.723631282233937
0.7293742114664279
0.7297894117982239
0.7298501537869726
0.7298640335524492
0.7293013872174574
0.7319156705062273
0.73080062662092
0.7065353471587521
0.7029299695545691
0.1819559536234537
0.03680371222766562
0.05585247692795264
0.05724322804133867
0.05418407892358567
0.05607082447942544
0.06684039908977633
0.05364175194761995
0.08732270822770667
0.1989235387542073
0.2788327953199703
0.3347873706105114
0.161031558098239
0.0854355033858589
0.08259485721428768
0.09024165372890397
0.07370664578833358
0.0506133232673471
0.04573291638122185
0.04514776711766375
0.04514776711762793
0.04573291638112235
0.05061332326723488
0.07370664578855485
0.09024165372903407
0.08259485721424133
0.08543550338586275
0.1610315580980677
0.3347873706100075
0.2788327953195776
0.1989235387543305
0.08732270822770447
0.05364175194772649
0.06684039908997186
0.05607082447969114
0.05418407892372623
0.05724322804153847
0.05585247692801322
0.03680371222765172
0.1819559536232947
0.7029299695542998
0.7065353471587336
0.7308006266210815
0.7319156705063151
0.7293013872171843
0.7298640335527794
0.7298501537870339
0.7297894117980886
0.7293742114662873
0.7236312822344596
0.701837470778962
0.7144801598756301
0.4437570512678731
0.3733250603700659
0.3733250556240687
0.3733250556108732
0.3733250529285436
0.3733248394132041
0.3733206335751275
0.3732769309061659
0.3728931485418082
0.3697341350589999
0.3580814042016199
0.3510276297578541
0.5384916954138145
0.5240324664693301
0.5240582901475113
0.5243900335933146
0.5230987624435031
0.5182417141828789
0.513820719516735
0.5069615207053439
)
;
    }
}


// ************************************************************************* //
