/*--------------------------------*- C++ -*----------------------------------*\
  =========                 |
  \\      /  F ield         | OpenFOAM: The Open Source CFD Toolbox
   \\    /   O peration     | Website:  https://openfoam.org
    \\  /    A nd           | Version:  11
     \\/     M anipulation  |
\*---------------------------------------------------------------------------*/
FoamFile
{
    format      ascii;
    class       volScalarField;
    location    "16.7";
    object      p;
}
// * * * * * * * * * * * * * * * * * * * * * * * * * * * * * * * * * * * * * //

dimensions      [0 2 -2 0 0 0 0];

internalField   nonuniform List<scalar> 
5472
(
101.14409
99.079667
97.025363
94.98197
92.976761
91.013322
89.105019
87.283897
85.561868
83.937564
82.433116
81.059631
79.769957
78.677928
77.673472
76.912279
76.321686
75.937919
75.684723
101.78012
99.879143
97.957602
96.047652
94.144207
92.277639
90.443425
88.660808
86.976146
85.386483
83.88853
82.505456
81.244448
80.136112
79.133955
78.347969
77.694997
77.1991
76.83674
102.35149
100.6156
98.838875
97.063476
95.278074
93.488956
91.717838
90.006247
88.354804
86.795745
85.313926
83.944625
82.700445
81.563795
80.575602
79.75261
79.076584
78.572891
78.261406
102.85015
101.25729
99.666426
98.027161
96.344357
94.644285
92.946028
91.302585
89.697986
88.155119
86.717833
85.36669
84.087391
82.956233
81.97693
81.127149
80.45013
79.939742
79.595211
103.27909
101.85175
100.39118
98.872525
97.302794
95.706503
94.109131
92.524137
90.960794
89.481097
88.071306
86.714377
85.462046
84.324571
83.329905
82.482357
81.80591
81.267472
80.904406
103.66066
102.38474
101.04036
99.639553
98.18307
96.687642
95.174061
93.661575
92.179631
90.733298
89.334728
88.030517
86.792896
85.65529
84.673247
83.816725
83.133274
82.59516
82.239067
103.9796
102.82526
101.6009
100.32368
98.975839
97.585545
96.159429
94.726679
93.308197
91.912631
90.562837
89.274019
88.047298
86.941635
85.960429
85.106391
84.41387
83.866095
83.474653
104.2531
103.19373
102.07937
100.92903
99.701544
98.406023
97.060983
95.713651
94.373643
93.038468
91.728954
90.467959
89.272048
88.17825
87.201389
86.366678
85.67455
85.131327
84.73538
104.47994
103.50255
102.49635
101.44297
100.30953
99.122381
97.886783
96.624928
95.351243
94.081993
92.82679
91.604544
90.438569
89.36629
88.401553
87.572265
86.879971
86.3409
85.931626
104.65316
103.77584
102.88334
101.92404
100.88562
99.775886
98.621526
97.446816
96.249752
95.048654
93.842214
92.660328
91.542194
90.499699
89.560198
88.742368
88.056203
87.518809
87.111128
104.76587
103.99862
103.1903
102.31191
101.38307
100.37047
99.30724
98.210053
97.094541
95.958697
94.800783
93.662771
92.574334
91.561117
90.64652
89.844064
89.176485
88.640176
88.232656
104.8861
104.20923
103.47318
102.6665
101.79532
100.86378
99.89684
98.890125
97.855051
96.776964
95.693936
94.607507
93.561896
92.59018
91.696982
90.905473
90.243652
89.712015
89.316735
104.95448
104.35391
103.70085
103.00307
102.21444
101.34936
100.44089
99.500619
98.5379
97.52394
96.494696
95.460712
94.471115
93.53753
92.678256
91.911432
91.266028
90.73541
90.335236
105.03501
104.47365
103.87111
103.22798
102.52135
101.76217
100.93764
100.06749
99.167224
98.226797
97.253284
96.268615
95.314942
94.417431
93.594336
92.851271
92.222313
91.703592
91.313442
105.09155
104.61275
104.08229
103.48174
102.81976
102.11266
101.34897
100.55536
99.723576
98.849677
97.936543
97.014905
96.10791
95.252903
94.458853
93.739181
93.12686
92.619987
92.24426
105.09526
104.65168
104.19671
103.68179
103.0913
102.4411
101.74487
101.00958
100.23266
99.410187
98.549457
97.684117
96.821762
96.010788
95.249906
94.557595
93.963435
93.471397
93.100554
105.14929
104.75953
104.33064
103.83757
103.2963
102.70397
102.07759
101.4092
100.69289
99.919991
99.11793
98.301526
97.489678
96.719799
95.989759
95.326356
94.750156
94.279819
93.920841
105.15521
104.82729
104.45023
104.01283
103.51458
102.96273
102.37868
101.7603
101.09396
100.37246
99.620513
98.849483
98.088939
97.352008
96.659498
96.02075
95.464492
95.012565
94.66854
105.18794
104.88223
104.53773
104.14322
103.69191
103.18973
102.65313
102.08241
101.4634
100.79469
100.08717
99.363516
98.642178
97.940135
97.276099
96.660175
96.126633
95.682845
95.352975
105.23472
104.96509
104.6529
104.28352
103.8569
103.39232
102.89366
102.35812
101.78007
101.15329
100.4921
99.814184
99.132718
98.471303
97.833957
97.245925
96.733415
96.300103
95.97014
105.25381
105.016
104.74
104.4087
104.02346
103.59903
103.13597
102.634
102.09011
101.4947
100.8663
100.22106
99.568471
98.936384
98.329226
97.772708
97.290149
96.886251
96.569775
105.32512
105.0991
104.83624
104.52602
104.1635
103.76452
103.33573
102.87248
102.36491
101.80775
101.21645
100.59686
99.967043
99.340293
98.730525
98.175351
97.691783
97.29649
97.007506
105.36645
105.18029
104.952
104.6702
104.33584
103.95993
103.54609
103.09671
102.6097
102.08477
101.531
100.95482
100.37562
99.80382
99.237958
98.709676
98.23493
97.827605
97.510072
105.4043
105.24385
105.04331
104.79466
104.49686
104.15403
103.76759
103.33543
102.85619
102.32398
101.75404
101.15625
100.5502
99.954292
99.386295
98.873309
98.425666
98.068173
97.79678
105.47323
105.33224
105.15443
104.93333
104.66265
104.34798
103.99668
103.61026
103.18292
102.71275
102.20192
101.65498
101.08874
100.50302
99.911262
99.36278
98.868909
98.464476
98.147459
105.50767
105.40814
105.26503
105.07076
104.81842
104.5091
104.14457
103.73192
103.26965
102.76577
102.22396
101.65284
101.0665
100.49551
99.957746
99.436093
98.981353
98.601409
98.30468
105.54523
105.50549
105.4222
105.29451
105.11898
104.88783
104.59781
104.2451
103.83213
103.3619
102.8359
102.26493
101.64435
100.98588
100.33897
99.73887
99.219489
98.788477
98.457953
75.418144
75.451538
75.567103
75.931115
76.363963
76.946651
77.621897
78.359639
79.09425
79.933377
80.731581
81.594122
82.422106
83.22381
84.040054
84.749788
85.402358
85.959294
86.332933
76.723429
76.770676
76.936562
77.32687
77.818635
78.4464
79.167614
79.961499
80.798595
81.721769
82.595582
83.531093
84.389293
85.260796
86.07344
86.80871
87.471151
88.018134
88.413276
78.064095
78.083909
78.301776
78.673276
79.251475
79.911213
80.706757
81.560497
82.510783
83.467297
84.433954
85.400495
86.337749
87.238683
88.09975
88.864378
89.573909
90.180198
90.659763
79.38176
79.408006
79.611387
80.037438
80.651646
81.365363
82.223674
83.154546
84.160166
85.158644
86.177382
87.177701
88.158622
89.095466
89.998241
90.810628
91.596098
92.287389
92.920226
80.689828
80.687383
80.941116
81.39491
82.014877
82.813027
83.711678
84.699716
85.724148
86.780929
87.829779
88.869154
89.884472
90.869091
91.804922
92.698758
93.551405
94.354285
95.122981
81.962257
81.97203
82.248368
82.697755
83.372448
84.220483
85.162625
86.199629
87.258913
88.364134
89.434203
90.511571
91.568117
92.583533
93.58601
94.545408
95.487162
96.41421
97.280567
83.212497
83.244653
83.479712
83.989278
84.711595
85.592688
86.580931
87.643596
88.742971
89.874015
90.97463
92.101164
93.183639
94.253872
95.315192
96.335541
97.360792
98.352543
99.293302
84.457312
84.472306
84.730872
85.27745
86.004191
86.932062
87.946977
89.044033
90.184193
91.336151
92.480132
93.634433
94.744053
95.870202
96.955154
98.032758
99.088622
100.10513
101.04498
85.652876
85.642714
85.926719
86.496112
87.263235
88.215486
89.259418
90.395137
91.555769
92.737302
93.909867
95.080471
96.225557
97.369915
98.471646
99.561363
100.58451
101.58258
102.46423
86.828672
86.802673
87.12805
87.692055
88.495941
89.460365
90.536822
91.698775
92.883342
94.081622
95.271033
96.456636
97.610932
98.750536
99.835587
100.87528
101.85648
102.76256
103.52864
87.934549
87.91906
88.239107
88.790334
89.65817
90.630411
91.757611
92.931573
94.134283
95.342431
96.538906
97.716676
98.857473
99.957845
100.98932
101.96035
102.82853
103.58267
104.19911
89.01546
89.020628
89.322673
89.929207
90.786553
91.779346
92.92833
94.097377
95.321401
96.522181
97.702876
98.852179
99.951006
100.9909
101.94124
102.78711
103.51032
104.10082
104.53309
90.035382
90.047797
90.358053
90.993376
91.842162
92.866056
94.01353
95.19465
96.413989
97.579493
98.744098
99.847833
100.88161
101.82392
102.65466
103.37352
103.95041
104.40184
104.72517
91.012589
91.025694
91.349456
91.998034
92.843253
93.893533
95.030663
96.211007
97.397131
98.542803
99.666885
100.68802
101.64027
102.46898
103.17638
103.75655
104.21384
104.5805
104.84409
91.957748
91.958147
92.282615
92.931503
93.789723
94.854275
95.971597
97.144092
98.292805
99.396753
100.43957
101.38434
102.2437
102.95117
103.55033
104.00327
104.37325
104.66194
104.87311
92.819151
92.820371
93.1583
93.810842
94.686255
95.736867
96.829636
97.975195
99.0718
100.11703
101.08496
101.94601
102.68398
103.27874
103.7707
104.11458
104.39756
104.57898
104.67566
93.639341
93.629096
93.978027
94.631996
95.512938
96.534718
97.617008
98.723658
99.755383
100.73891
101.62038
102.37945
102.995
103.49064
103.85797
104.09598
104.25735
104.2575
104.1901
94.391529
94.383612
94.744448
95.389628
96.259481
97.250825
98.309914
99.354515
100.32459
101.23516
102.01474
102.66512
103.17088
103.55777
103.78931
103.9044
103.91433
103.8137
103.63853
95.080498
95.085451
95.438432
96.071471
96.938095
97.915197
98.940625
99.916277
100.82369
101.64646
102.32116
102.86156
103.2549
103.51978
103.62952
103.64692
103.57269
103.45472
103.31663
95.70056
95.714921
96.056977
96.691518
97.532814
98.469579
99.444406
100.35727
101.21157
101.9317
102.51011
102.9434
103.23958
103.40245
103.4408
103.41767
103.35396
103.29648
103.25756
96.286487
96.283176
96.625305
97.258081
98.088508
99.016696
99.926281
100.77922
101.54137
102.16252
102.65903
102.99231
103.20217
103.29723
103.31518
103.29956
103.28186
103.28386
103.27979
96.76033
96.773372
97.115295
97.725418
98.522586
99.400558
100.27029
101.0876
101.77298
102.32337
102.73969
103.00063
103.15611
103.22556
103.25507
103.2767
103.29102
103.30865
103.30632
97.217211
97.221327
97.560305
98.19072
99.012327
99.872104
100.69143
101.39803
102.00313
102.48442
102.81609
103.02391
103.13927
103.18963
103.22849
103.25793
103.25911
103.23813
103.16392
97.546365
97.564163
97.89646
98.50175
99.266404
100.09396
100.88072
101.59038
102.16434
102.59003
102.87907
103.05187
103.15764
103.22837
103.26824
103.23857
103.17472
103.0483
102.81847
97.859498
97.876141
98.249573
98.92109
99.740653
100.55321
101.28738
101.905
102.39834
102.74991
102.96567
103.07635
103.12386
103.12325
103.05378
102.9421
102.77045
102.49622
102.15183
98.036603
98.05141
98.413877
99.053427
99.831745
100.636
101.37762
102.01782
102.50106
102.8253
103.03636
103.16328
103.19938
103.14943
103.00697
102.77258
102.42354
101.99266
101.54743
98.163834
98.2131
98.708634
99.489493
100.36464
101.20168
101.91195
102.44672
102.80579
103.00665
103.08101
103.04566
102.89441
102.66018
102.34926
101.96501
101.54533
101.13232
100.75634
86.560005
86.639794
86.484387
86.09927
85.515482
84.602623
83.38511
81.918538
80.096791
77.79796
75.212721
72.27895
69.015928
65.881349
62.880871
60.519324
59.271575
59.521175
61.996541
88.682246
88.803229
88.72599
88.488667
88.115868
87.498143
86.615005
85.591709
84.351311
82.663843
80.869118
78.909405
76.820939
74.605888
72.504938
70.983794
70.268669
70.936136
72.883895
91.035874
91.244505
91.280352
91.160065
90.906738
90.428214
89.820326
89.177641
88.164625
87.025726
85.842994
84.305986
82.730954
81.109678
79.667666
78.543612
77.796661
77.901834
79.238311
93.427147
93.777895
93.925743
93.894714
93.778033
93.483183
93.129371
92.719302
92.067312
91.275803
90.186004
89.07432
87.80431
86.117555
84.581032
83.175908
82.004349
81.540284
81.752318
95.780372
96.259844
96.48977
96.589963
96.589785
96.442856
96.361186
96.105074
95.599252
94.895151
93.976139
92.774726
91.087624
89.314203
87.491299
85.24676
82.933986
80.94761
79.56692
98.070805
98.614676
98.904865
99.057414
99.122412
99.141571
99.128987
98.90741
98.483729
97.778172
96.735853
95.260249
93.569872
91.476194
88.580647
85.286742
82.004068
78.795541
75.839497
100.13183
100.70342
100.98619
101.16988
101.3068
101.43814
101.49729
101.34902
100.89241
100.15465
99.088661
97.548416
95.457263
92.326514
88.28262
83.823994
78.858537
73.54887
68.207743
101.87265
102.43074
102.7091
102.95307
103.17541
103.42229
103.51954
103.39168
103.01363
102.31636
101.06145
99.195251
96.162555
91.567604
85.866599
79.352337
71.814545
63.163979
53.499071
103.24428
103.73929
104.0355
104.32094
104.62313
104.90714
105.03051
104.97426
104.6234
103.74814
102.27147
100.07895
96.369551
91.365489
85.609906
78.767443
70.405542
60.50373
48.957272
104.20298
104.60818
104.89537
105.15978
105.45514
105.67155
105.76451
105.67328
105.21766
104.33914
102.93179
100.89716
97.640823
93.285169
88.227669
82.256559
75.193159
66.992658
57.69504
104.70111
105.02142
105.25719
105.45082
105.65069
105.74458
105.73901
105.5565
105.08182
104.3643
103.10702
102.13218
99.586659
96.247006
92.194805
87.409552
81.965533
76.047946
69.799858
104.9105
105.1771
105.35585
105.49097
105.61788
105.64811
105.56199
105.37008
105.17495
104.74984
103.90671
102.59561
100.67888
98.082634
94.99338
91.445589
87.567714
83.704311
80.100745
105.04593
105.28827
105.44195
105.59305
105.72298
105.77561
105.78899
105.59644
105.25157
104.63093
103.82974
102.2668
100.195
97.734011
95.110938
92.534837
90.040506
87.785865
86.165425
105.138
105.33229
105.44918
105.58386
105.6113
105.49871
105.20176
104.86492
104.59896
103.67035
101.9127
99.578951
96.887664
94.126434
91.702556
89.800671
88.401607
87.354945
86.694162
105.09595
105.224
105.37081
105.47956
105.4524
105.25741
104.64022
103.76736
101.76019
99.321694
96.511621
93.285302
89.998613
86.975893
84.96468
83.89777
83.537876
84.058792
85.286655
104.7089
104.8084
104.98034
105.07265
104.9982
104.74011
103.9991
103.06058
99.94422
95.130992
89.558388
84.002203
78.912214
74.526518
71.00773
69.421412
70.531499
73.693329
77.705338
104.02312
104.05693
104.15769
104.13615
103.97582
103.66732
103.07172
102.03154
99.652255
95.634631
89.629765
82.099932
71.922769
63.891002
56.750808
52.24101
51.901376
55.75124
62.762881
103.3247
103.28682
103.25006
103.0696
102.68507
102.09548
101.17149
99.769131
97.466043
93.628095
88.175922
81.413118
73.822013
66.645995
60.956716
57.894257
58.322382
62.213161
68.704632
103.13123
103.09134
103.01284
102.83293
102.49951
102.04774
101.41947
100.51251
99.153385
97.168356
94.377772
90.844409
86.851099
82.783372
79.128872
76.465589
75.417263
76.278534
78.815625
103.24151
103.26246
103.27417
103.19889
103.07061
102.87619
102.64241
102.23451
101.63313
100.81103
99.606494
98.031736
96.077231
93.775148
91.468681
89.4602
87.812965
86.881484
86.881655
103.39523
103.51233
103.5549
103.56051
103.60968
103.65183
103.67533
103.58993
103.37905
103.02028
102.47277
101.6149
100.40632
99.085534
97.755998
96.201113
94.517031
92.995839
91.550246
103.43955
103.54254
103.60408
103.7263
103.84726
103.97613
104.07349
104.07801
104.1281
103.95648
103.15731
102.09576
101.19947
100.01001
98.078117
95.443188
92.495517
89.447066
86.396337
103.19744
103.26578
103.37342
103.52396
103.66259
103.78196
103.93475
103.98603
103.92939
103.72152
103.33148
102.76905
102.08248
100.79348
99.104004
96.775252
93.859944
90.453645
87.017069
102.6146
102.67415
102.84996
102.96275
103.07919
103.18433
103.28483
103.27081
103.14133
103.04308
101.75825
100.94529
100.45947
99.517843
98.360341
96.995341
95.417243
93.767297
92.340079
101.8223
101.88499
102.00455
102.07806
102.14285
102.16447
102.19899
102.21317
102.02613
102.16615
101.67451
99.899212
97.473299
95.650743
94.619583
94.142624
94.124445
94.605412
95.56505
101.14164
101.06373
101.06135
101.05149
100.99949
100.91968
100.83857
100.6873
100.52084
99.923094
98.948423
98.402079
97.872403
97.039015
95.973175
95.295686
95.158143
95.478811
96.179923
100.42519
100.38869
100.34365
100.2662
100.16115
100.04042
99.891967
99.670049
99.419763
99.048328
98.331215
97.723487
97.323249
96.907702
96.53766
96.372305
96.527999
97.025423
97.79625
67.072133
74.168024
82.25315
90.832257
99.431104
106.94417
113.39224
118.54895
121.59142
122.08237
120.32993
117.56754
114.48882
111.18241
108.06821
105.00613
102.08015
99.509113
96.929187
76.428386
81.382519
87.465541
94.37629
101.51179
108.12364
114.01256
118.50186
120.85055
121.27986
120.85121
118.86561
116.48037
113.67759
110.84321
108.14478
105.45724
103.0363
100.62311
81.651462
85.03644
89.497439
94.916506
100.88914
106.88027
112.33739
116.52315
118.82254
119.54161
119.53523
118.22972
116.81677
114.90678
112.67421
110.48
108.20221
106.05811
103.88918
82.494935
84.306188
87.525847
91.947107
97.043825
102.30709
107.45854
111.91303
114.893
116.68317
117.56681
117.09276
116.1641
114.91551
113.3607
111.64064
109.80484
107.99574
106.13884
79.068462
80.044283
82.335746
85.257323
89.118679
94.0528
99.555573
104.73605
108.99958
112.33199
114.10186
114.78753
114.68266
114.05058
112.95576
111.68675
110.25287
108.80687
107.28074
73.522461
72.154914
71.854638
73.169736
76.373784
81.110602
87.14877
93.826029
99.976731
104.99803
108.52876
110.60324
111.59981
112.04599
111.6814
110.89778
109.85604
108.77217
107.63025
63.164491
58.810386
55.734624
55.260254
57.619104
62.612991
69.884835
78.721138
87.370506
95.104218
101.41546
105.43028
107.7846
109.30058
109.61158
109.38804
108.77148
108.00757
107.28728
43.256956
33.423601
26.004201
24.015759
27.844183
36.285793
47.470628
60.170977
72.465415
83.782981
93.375422
100.55137
103.04833
105.7097
106.76171
107.13176
106.97426
106.58815
106.20693
35.825284
22.145963
7.880133
2.9789439
6.3282742
17.204449
31.814246
48.540265
64.527054
77.631122
87.625423
94.102498
98.432112
101.51546
103.33947
104.35935
104.71374
104.75246
104.71897
47.656832
37.672077
29.521122
25.949397
27.50043
33.693918
43.440239
54.909687
66.379887
76.427413
84.550403
90.672094
95.2461
98.446478
100.59583
101.98137
102.71162
103.03497
103.30765
63.671746
58.368265
54.878621
54.169949
56.341861
60.372253
65.898619
72.41583
78.813431
84.579762
89.39651
93.209925
96.131177
98.341418
99.970392
101.12526
101.84604
102.19341
102.49779
76.811292
74.390828
73.417956
73.900761
75.668663
78.59734
81.841602
85.382095
88.817703
91.920354
94.549982
96.660123
98.267687
99.584534
100.60897
101.38305
101.90267
102.18188
102.40193
85.333771
84.880459
84.491801
84.556892
85.679423
87.796173
90.095878
92.352565
94.478355
96.290835
97.842225
99.11122
100.06282
100.86523
101.50514
102.02339
102.36774
102.54798
102.64641
86.856059
87.863818
89.118799
90.450155
91.968428
93.679559
95.234977
96.543583
97.900832
99.061571
100.05434
100.89547
101.4862
101.97954
102.37209
102.69168
102.94537
103.06892
103.05769
86.796458
88.640426
90.646758
92.483296
94.19866
96.014324
97.619493
98.742214
99.793375
100.72844
101.44795
102.05384
102.50038
102.82533
103.11287
103.29619
103.45332
103.56389
103.52069
81.784854
85.738681
89.207411
92.06452
94.438383
96.621791
98.498616
99.822084
100.79482
101.66954
102.38951
102.91323
103.28386
103.51291
103.69338
103.83205
103.91045
103.94287
103.85031
70.90998
78.70662
85.357361
90.404094
93.841189
96.454503
99.145639
101.20126
102.18531
102.81536
103.38249
103.82051
104.10765
104.26774
104.34501
104.36625
104.38726
104.34952
104.21245
75.843175
82.53026
88.553907
93.454779
97.116012
99.89006
101.45344
101.95821
102.54829
103.55345
104.48542
104.80502
104.87402
104.90698
104.89185
104.80659
104.75583
104.69278
104.52394
82.339935
86.29204
90.275978
93.915094
96.977444
99.595859
101.85407
103.66439
104.69138
103.17731
103.82687
104.4634
104.90011
105.07105
105.04991
104.97571
104.85484
104.78094
104.65216
87.693585
89.030733
90.778657
92.741561
94.678628
96.608709
98.386665
99.857615
101.20907
102.66471
104.27383
104.67932
104.95341
105.08532
105.05702
104.95178
104.78166
104.62834
104.51908
90.323836
89.678219
89.751165
90.309546
91.130074
92.275054
93.510516
95.081961
98.268264
101.47944
103.39465
103.83924
104.29094
104.4005
104.41888
104.36102
104.23458
104.07606
103.97681
83.67255
81.788387
81.421555
82.904328
85.638201
89.012047
92.655834
96.165461
99.004861
100.99051
102.44299
103.1021
103.30874
103.42361
103.49258
103.51182
103.47439
103.39844
103.36416
84.072124
82.082593
81.340596
81.556592
83.103239
86.133232
89.870976
93.694999
97.02048
99.453625
100.91666
101.74135
102.21707
102.53419
102.71176
102.82412
102.85263
102.859
102.89734
91.401936
91.263661
92.125902
93.876107
95.828544
97.543059
99.100089
100.5033
101.47915
102.03812
102.36811
102.52264
102.58303
102.64865
102.65207
102.68365
102.66283
102.61101
102.62415
96.808825
98.088929
99.433133
100.74283
101.88531
102.62094
103.01901
103.19819
103.13795
102.93352
102.77222
102.69112
102.6229
102.58092
102.54529
102.50639
102.46331
102.41588
102.39589
97.183257
98.296986
99.198384
99.813498
100.40653
101.02401
101.43695
101.8865
102.49828
102.74003
102.75001
102.6867
102.54814
102.38842
102.27715
102.18746
102.0868
101.91529
101.79721
98.757476
99.754555
100.63504
101.32446
101.8371
102.20991
102.57393
102.94725
103.01285
102.70826
102.43376
102.19201
101.95038
101.76701
101.60982
101.50968
101.43033
101.30133
101.18473
94.620397
92.40949
90.279114
88.370119
86.521904
84.868032
83.320714
81.900389
80.679624
79.558263
78.604676
77.74925
77.01631
76.412297
75.934389
75.583641
75.360026
75.300003
75.379027
98.26199
95.969713
93.738163
91.698521
89.735079
87.911898
86.189163
84.576767
83.129133
81.806377
80.638185
79.593009
78.687438
77.944306
77.352955
76.92906
76.655052
76.570177
76.647468
101.58695
99.300749
97.016867
94.868564
92.794928
90.817497
88.943
87.171826
85.534654
84.023856
82.675227
81.462835
80.393991
79.507305
78.805737
78.295178
77.968972
77.849106
77.932967
104.05545
101.92433
99.737273
97.578793
95.486895
93.430505
91.466112
89.584286
87.819245
86.175109
84.663586
83.308112
82.11007
81.090683
80.279559
79.67843
79.287189
79.122384
79.207198
105.54509
103.70402
101.75706
99.737556
97.720331
95.696617
93.713071
91.793753
89.936346
88.201695
86.578149
85.099401
83.792775
82.664833
81.73607
81.051494
80.611313
80.397794
80.462894
106.28642
104.78033
103.13735
101.37174
99.522628
97.629709
95.694837
93.790123
91.913066
90.118174
88.422987
86.844696
85.429275
84.209753
83.192124
82.414939
81.916497
81.677007
81.719012
106.39278
105.30962
104.0172
102.54147
100.91706
99.203191
97.405234
95.5579
93.711882
91.892049
90.158194
88.516246
87.019032
85.708769
84.621143
83.769693
83.199337
82.926399
82.963431
105.87835
105.2803
104.39334
103.26055
101.93042
100.42494
98.813158
97.094679
95.324891
93.524802
91.781252
90.106737
88.550798
87.168381
86.004746
85.100277
84.490785
84.154873
84.189433
104.86393
104.72082
104.30272
103.53257
102.55013
101.30985
99.901885
98.363893
96.722618
94.997459
93.269743
91.595388
90.004713
88.567799
87.346593
86.372048
85.739952
85.369172
85.377301
103.72438
103.90296
103.85272
103.45339
102.81766
101.88074
100.71783
99.375784
97.887645
96.288665
94.621388
92.963817
91.372175
89.902126
88.64774
87.619733
86.948066
86.573202
86.532373
102.92059
103.16559
103.27072
103.16365
102.80368
102.16396
101.28471
100.16087
98.843956
97.387345
95.821731
94.21373
92.6445
91.161426
89.871411
88.816852
88.082049
87.716775
87.658534
102.64457
102.7432
102.83574
102.8523
102.65525
102.24817
101.6169
100.72695
99.619111
98.315921
96.865082
95.334501
93.809535
92.350031
91.029326
89.966323
89.187928
88.817834
88.759695
102.71507
102.67278
102.67131
102.6664
102.52422
102.25234
101.78267
101.10437
100.20294
99.084054
97.764808
96.32306
94.857167
93.452261
92.129811
91.051453
90.246549
89.843571
89.804162
102.97411
102.8557
102.75467
102.66085
102.50369
102.27569
101.8952
101.36283
100.62098
99.687093
98.529535
97.199878
95.797357
94.443144
93.153028
92.076746
91.270999
90.824103
90.8041
103.33683
103.14438
102.96729
102.80454
102.59776
102.36725
102.02173
101.56644
100.94358
100.16631
99.158509
97.957275
96.638328
95.349557
94.094843
93.02401
92.24911
91.774386
91.730096
103.66392
103.48346
103.26091
103.03591
102.7787
102.52525
102.18609
101.77377
101.23719
100.56331
99.67383
98.597555
97.382028
96.155505
94.962033
93.89394
93.135379
92.683453
92.608327
103.95139
103.78051
103.56388
103.31843
103.02965
102.73853
102.39226
101.99923
101.51775
100.90756
100.12398
99.143471
98.056385
96.876702
95.754065
94.723948
93.941756
93.525003
93.437164
104.21119
104.03803
103.81697
103.57895
103.29455
102.98518
102.63218
102.23998
101.78927
101.20309
100.51283
99.608058
98.634735
97.530086
96.443883
95.480735
94.694872
94.284952
94.211238
104.41072
104.25927
104.03934
103.80321
103.54224
103.24466
102.90051
102.49833
102.07118
101.50533
100.86582
100.0566
99.136979
98.138616
97.084321
96.156701
95.411583
94.985022
94.926951
104.41332
104.34487
104.18315
103.96823
103.7376
103.45471
103.14227
102.75356
102.31805
101.79189
101.16553
100.44649
99.564636
98.636274
97.650121
96.742754
96.039829
95.620167
95.572218
104.10853
104.17321
104.1535
104.03969
103.87797
103.63509
103.35072
103.00518
102.58104
102.10864
101.50537
100.82465
100.00077
99.101677
98.187476
97.307154
96.629566
96.219653
96.166207
103.60996
103.79991
103.94944
103.9709
103.90205
103.74786
103.50296
103.19623
102.79858
102.3249
101.76371
101.10118
100.34417
99.482101
98.60161
97.766471
97.099486
96.71311
96.661119
103.11669
103.31844
103.54265
103.70673
103.75345
103.71934
103.58479
103.35676
103.03315
102.62178
102.12338
101.49477
100.7594
99.9202
99.040049
98.23826
97.58608
97.194044
97.14408
102.78904
103.01024
103.22772
103.45442
103.61517
103.67327
103.62721
103.45928
103.1846
102.78666
102.2865
101.68234
100.97228
100.1784
99.339516
98.540784
97.914419
97.536073
97.476297
102.46589
102.68639
102.88599
103.068
103.25234
103.39845
103.47361
103.44172
103.29075
103.00994
102.60724
102.07905
101.41467
100.62409
99.770946
98.948374
98.293354
97.893478
97.824507
102.0713
102.42392
102.72594
103.00623
103.22828
103.39165
103.49769
103.51878
103.4211
103.17587
102.75618
102.18812
101.52653
100.76198
99.904575
99.087055
98.459187
98.076888
97.987797
101.52372
101.75828
102.04405
102.35386
102.66168
102.93301
103.16232
103.3242
103.37357
103.33221
103.12974
102.69348
102.06777
101.30698
100.43079
99.510058
98.75716
98.268369
98.166583
75.693313
76.137507
76.67525
77.396505
78.2545
79.316728
80.486499
81.797749
83.26128
84.842257
86.505163
88.272836
90.117131
92.026313
93.996352
96.02072
98.068836
100.12904
102.18441
76.927101
77.357418
77.948301
78.722464
79.609421
80.6683
81.843127
83.145758
84.599893
86.158135
87.795252
89.522727
91.313133
93.152736
95.048142
96.963355
98.853701
100.76888
102.68437
78.209527
78.661074
79.244086
80.021417
80.936638
81.992904
83.180112
84.478017
85.90888
87.446577
89.06415
90.749726
92.47626
94.246396
96.037528
97.820623
99.58651
101.38663
103.15184
79.488236
79.939589
80.540468
81.306001
82.239124
83.297949
84.481782
85.784193
87.198568
88.709412
90.293707
91.933861
93.589625
95.273424
96.959627
98.640019
100.30979
101.95012
103.5473
80.763068
81.195829
81.823492
82.596941
83.517506
84.58199
85.754132
87.042672
88.436294
89.918639
91.461528
93.054236
94.64642
96.237365
97.815047
99.373571
100.93889
102.45285
103.90055
82.026796
82.477634
83.088602
83.866755
84.774087
85.826778
86.989856
88.267204
89.626576
91.081921
92.582136
94.112813
95.643307
97.130267
98.603327
100.05451
101.48606
102.85939
104.17825
83.254387
83.711822
84.319076
85.093335
86.00532
87.050988
88.192794
89.443281
90.779655
92.183518
93.637548
95.099349
96.551371
97.953732
99.327759
100.6411
101.93407
103.22335
104.44444
84.480493
84.928458
85.544702
86.302092
87.201589
88.231633
89.350338
90.564174
91.882684
93.232693
94.624963
96.008938
97.370282
98.679953
99.946387
101.17877
102.38196
103.53053
104.61205
85.674505
86.108657
86.719852
87.470257
88.354404
89.358234
90.467746
91.647279
92.912542
94.213657
95.547181
96.855791
98.137142
99.36575
100.53541
101.65758
102.73511
103.78239
104.76438
86.834172
87.260983
87.865927
88.588906
89.467752
90.44932
91.529829
92.675016
93.886458
95.128787
96.390452
97.642392
98.835431
99.958324
101.01922
102.0663
103.061
104.00407
104.89358
87.967822
88.378658
88.959449
89.68177
90.541034
91.498487
92.538804
93.641914
94.800086
95.994614
97.174751
98.342185
99.450941
100.50542
101.49165
102.4253
103.31937
104.18225
104.97659
89.052673
89.458874
90.024446
90.736088
91.55904
92.482754
93.486377
94.558144
95.657413
96.789544
97.898025
98.9893
100.02545
100.98775
101.88536
102.73765
103.54901
104.31999
105.04461
90.091266
90.490203
91.028983
91.700656
92.502181
93.415423
94.381224
95.411108
96.453591
97.516517
98.560088
99.567464
100.52197
101.40666
102.23994
103.01827
103.75041
104.43834
105.07688
91.085145
91.473694
91.990867
92.660326
93.437956
94.308744
95.235098
96.201014
97.181982
98.168351
99.141371
100.07803
100.96963
101.79137
102.55865
103.26755
103.92336
104.53073
105.09297
92.011716
92.393669
92.896738
93.534449
94.278729
95.105374
95.99964
96.915325
97.850498
98.778781
99.695832
100.5738
101.39314
102.13276
102.81729
103.45342
104.04798
104.60314
105.11634
92.89126
93.262235
93.757112
94.363315
95.085901
95.872144
96.729473
97.600902
98.476292
99.340357
100.17892
100.97697
101.72683
102.41454
103.05177
103.63926
104.16899
104.66707
105.12972
93.720785
94.073485
94.549428
95.1325
95.813775
96.568689
97.379431
98.204261
99.022504
99.822692
100.60024
101.35219
102.05649
102.7007
103.27987
103.80076
104.26916
104.71067
105.11774
94.486223
94.829329
95.285199
95.845827
96.498893
97.216981
97.981681
98.761252
99.533805
100.28651
101.00659
101.7033
102.35228
102.93436
103.44898
103.91544
104.34536
104.75265
105.1236
95.193618
95.52616
95.963234
96.500034
97.122289
97.800442
98.524749
99.26502
99.987742
100.69066
101.3537
101.99016
102.58906
103.1298
103.61486
104.05296
104.44906
104.81202
105.14234
95.831697
96.15349
96.575673
97.089444
97.684014
98.333796
99.024092
99.722337
100.39648
101.05001
101.67383
102.27041
102.83015
103.33216
103.77812
104.17889
104.53679
104.85875
105.15488
96.418584
96.727497
97.135598
97.632575
98.205082
98.832219
99.47313
100.1268
100.76522
101.37823
101.96673
102.52567
103.04345
103.50851
103.91832
104.28048
104.61276
104.92047
105.19359
96.915623
97.214812
97.610953