/*--------------------------------*- C++ -*----------------------------------*\
  =========                 |
  \\      /  F ield         | OpenFOAM: The Open Source CFD Toolbox
   \\    /   O peration     | Website:  https://openfoam.org
    \\  /    A nd           | Version:  11
     \\/     M anipulation  |
\*---------------------------------------------------------------------------*/
FoamFile
{
    format      ascii;
    class       volVectorField;
    location    "16.7";
    object      U;
}
// * * * * * * * * * * * * * * * * * * * * * * * * * * * * * * * * * * * * * //

dimensions      [0 1 -1 0 0 0 0];

internalField   nonuniform List<vector> 
5472
(
(10.570154 2.6915556 1.6042758e-18)
(10.775563 2.6732707 -1.6704979e-18)
(10.980757 2.650887 -1.6780086e-18)
(11.186339 2.5941266 -1.7022462e-18)
(11.406695 2.5354824 5.2763391e-18)
(11.573324 2.4525062 -3.8054622e-20)
(11.788987 2.3540146 -2.7754357e-18)
(11.976798 2.238146 9.693882e-19)
(12.13339 2.121283 0)
(12.32194 1.9687222 0)
(12.448015 1.8307005 0)
(12.631272 1.6486682 -2.9646495e-18)
(12.707171 1.4921979 1.5231824e-18)
(12.877873 1.3017387 -2.5840302e-20)
(12.944246 1.103761 1.0204974e-18)
(13.05834 0.9202792 -5.258189e-19)
(13.114338 0.67326915 -7.8436117e-19)
(13.167193 0.50123737 2.7058796e-19)
(13.230123 0.24491842 0)
(10.521896 2.4580423 -1.4703465e-18)
(10.699676 2.4505964 3.0307291e-18)
(10.913498 2.421217 -1.5621811e-18)
(11.111869 2.387872 -1.5635391e-18)
(11.287165 2.3361756 2.6568676e-20)
(11.476327 2.2544615 0)
(11.681847 2.1817997 1.663538e-18)
(11.849927 2.0702296 -3.38608e-18)
(12.007396 1.9649439 4.3696982e-18)
(12.18441 1.8393564 8.9080858e-19)
(12.339424 1.6841351 0)
(12.468813 1.5504684 1.8390896e-18)
(12.610511 1.3838345 0)
(12.750678 1.1994777 4.6198319e-19)
(12.817695 1.033413 -4.7752772e-19)
(12.958697 0.82293187 0)
(12.978547 0.64944169 0)
(13.086798 0.42585521 -2.3790416e-19)
(13.09865 0.27032627 0)
(10.512082 2.2749564 0)
(10.715187 2.2846642 1.383983e-18)
(10.905704 2.274779 1.4149552e-18)
(11.058836 2.249083 0)
(11.240455 2.2046345 -2.1779767e-20)
(11.427224 2.1511224 -2.8535874e-20)
(11.599804 2.0716928 -1.5407382e-18)
(11.734663 2.0021223 0)
(11.92796 1.8915483 -1.5708454e-18)
(12.089944 1.7738225 -4.0141671e-18)
(12.204048 1.6584216 1.3657895e-20)
(12.385092 1.5122549 -8.0770109e-19)
(12.506451 1.3453421 -8.3412153e-19)
(12.617535 1.206472 1.7105304e-18)
(12.729734 1.0235897 1.2856109e-18)
(12.81302 0.84893597 4.3335118e-19)
(12.874179 0.6579457 2.1586749e-19)
(12.955557 0.4639332 -3.2608144e-19)
(12.953147 0.27403983 1.0864417e-19)
(10.501944 2.0964701 0)
(10.662325 2.102893 -1.2491539e-18)
(10.785102 2.0969897 -1.2757341e-18)
(10.955251 2.0722428 2.595515e-18)
(11.122883 2.0350051 -1.3672581e-18)
(11.288212 1.9892864 0)
(11.440787 1.9326676 -1.3961961e-18)
(11.636929 1.8452582 1.4020348e-18)
(11.800718 1.7489616 -1.4518222e-18)
(11.942958 1.6612392 -2.226206e-20)
(12.11775 1.5205272 -1.4953689e-18)
(12.26286 1.386143 0)
(12.371028 1.2522951 0)
(12.507375 1.1001846 -7.6151603e-19)
(12.587748 0.93128628 -7.6755388e-19)
(12.685465 0.7687853 0)
(12.756454 0.58695688 -1.9500284e-19)
(12.808123 0.39105596 9.8843943e-20)
(12.861167 0.21342714 1.966179e-19)
(10.488472 1.9402372 0)
(10.612019 1.9391052 0)
(10.771879 1.9302278 0)
(10.927269 1.9243789 -2.3559964e-18)
(11.075462 1.9059547 1.2265641e-18)
(11.237065 1.8778458 -3.6953529e-18)
(11.408344 1.8140257 5.0436116e-18)
(11.574427 1.7664461 -2.5659102e-18)
(11.713935 1.6879993 2.7723889e-21)
(11.885327 1.5911304 1.3146202e-18)
(12.013545 1.4799485 1.332836e-18)
(12.140116 1.3746253 -2.7199585e-18)
(12.262872 1.2316234 2.0675408e-18)
(12.379775 1.0905813 -6.984556e-19)
(12.474347 0.94246168 0)
(12.570078 0.77323763 7.0818955e-19)
(12.640297 0.60026149 -3.5546322e-19)
(12.704374 0.41251776 1.7621296e-19)
(12.75057 0.23612987 -1.751045e-19)
(10.426268 1.7808496 0)
(10.569995 1.767076 -4.1036603e-18)
(10.690874 1.7884843 2.117164e-18)
(10.833664 1.7737384 2.15662e-18)
(10.973121 1.7577834 1.0922531e-18)
(11.141465 1.7345182 -1.1075766e-18)
(11.280493 1.6903246 2.2988078e-18)
(11.445679 1.6344232 1.1512768e-18)
(11.579914 1.5580187 2.3392692e-18)
(11.73514 1.4758918 -2.394895e-18)
(11.848394 1.3740065 1.8344501e-20)
(11.996415 1.2629879 2.4546527e-18)
(12.109386 1.1286266 0)
(12.239992 1.0133405 -6.2977545e-19)
(12.328475 0.84643561 6.2630865e-19)
(12.428889 0.70290046 -1.5781806e-18)
(12.493247 0.52801163 6.3335838e-19)
(12.556398 0.35658094 -1.585107e-19)
(12.593813 0.17933186 4.4736649e-22)
(10.457535 1.6150521 3.6474614e-18)
(10.564056 1.6305214 3.7122945e-18)
(10.686766 1.6516529 0)
(10.827935 1.6394023 -6.2281481e-21)
(10.9591 1.6411689 -3.9629911e-18)
(11.102732 1.6125875 4.0649225e-18)
(11.234877 1.5775974 0)
(11.380406 1.5387298 -1.0524926e-18)
(11.499958 1.4769812 -4.2392435e-18)
(11.652548 1.4076272 2.1752016e-18)
(11.764673 1.313577 1.0855864e-18)
(11.925361 1.2054116 -1.1136517e-18)
(12.021657 1.0969064 0)
(12.166639 0.9687113 5.5801973e-19)
(12.228753 0.83776997 0)
(12.341697 0.69093233 -5.6592177e-19)
(12.388591 0.52370825 8.5584315e-19)
(12.469731 0.36505664 1.1213144e-21)
(12.489522 0.18243949 -1.0611658e-21)
(10.399372 1.4716431 1.6361947e-18)
(10.505085 1.4935398 -3.3445209e-18)
(10.627814 1.5099504 -3.4020946e-18)
(10.737811 1.5058422 3.502428e-18)
(10.854324 1.5099655 -1.7965087e-18)
(10.981926 1.4876263 -1.81282e-18)
(11.102624 1.4742594 0)
(11.244859 1.4228777 2.8100564e-18)
(11.373792 1.3757747 -1.4418694e-20)
(11.521276 1.3032901 -2.9045276e-18)
(11.644434 1.2225257 2.9684757e-18)
(11.78093 1.1240802 0)
(11.874842 1.0121249 0)
(12.005259 0.90170482 1.003587e-18)
(12.069461 0.77372877 -5.1531812e-19)
(12.191632 0.63244645 -1.0191361e-18)
(12.221221 0.47583676 2.5807067e-19)
(12.319993 0.31258539 2.5993789e-19)
(12.324642 0.14571179 6.3096791e-20)
(10.428992 1.3249274 -1.4683473e-18)
(10.527306 1.365697 4.4943939e-18)
(10.629536 1.3716321 -4.6316884e-18)
(10.727793 1.3775811 3.1428542e-18)
(10.832647 1.3858408 0)
(10.939411 1.3761462 1.6256284e-18)
(11.06329 1.3591646 -1.6760601e-18)
(11.197182 1.316174 0)
(11.316525 1.2774525 8.5273205e-19)
(11.442893 1.2190364 -1.7636523e-18)
(11.552237 1.156841 -8.7616265e-19)
(11.680943 1.0649858 -1.0589113e-20)
(11.786312 0.97258254 -2.6987096e-18)
(11.91279 0.85105414 4.6481606e-19)
(11.997533 0.74172567 -4.476421e-19)
(12.106247 0.59999664 9.154503e-19)
(12.1519 0.46197066 -4.5499706e-19)
(12.22767 0.30183937 2.3341147e-19)
(12.235853 0.14484472 2.2780963e-19)
(10.371656 1.2090581 -2.6495175e-18)
(10.44471 1.2597177 0)
(10.533672 1.2523815 1.3774913e-18)
(10.619909 1.2765508 -4.2124477e-18)
(10.73137 1.275317 1.4504599e-18)
(10.848612 1.2651288 -1.4708161e-18)
(10.9724 1.2545275 1.4837563e-18)
(11.084883 1.2196463 -1.5263136e-18)
(11.199118 1.1902605 0)
(11.318736 1.1290562 7.7584763e-19)
(11.437202 1.0683577 0)
(11.560273 0.9834112 7.9144742e-19)
(11.665153 0.89117194 -4.7315859e-22)
(11.771316 0.78647841 -4.0086948e-19)
(11.853424 0.6842326 4.0270688e-19)
(11.953329 0.55383034 4.0509436e-19)
(12.010217 0.43131904 -2.827952e-21)
(12.086933 0.26752024 -6.1079394e-19)
(12.110326 0.13105286 0)
(10.374324 1.0962786 0)
(10.462549 1.1231711 1.2100437e-18)
(10.542587 1.1258543 0)
(10.631868 1.1478712 1.2485573e-18)
(10.71785 1.1470405 -3.8656988e-18)
(10.810395 1.1665846 3.9455249e-18)
(10.918124 1.1488139 -1.3164204e-18)
(11.02583 1.1317623 4.0887346e-18)
(11.143067 1.0953799 0)
(11.256464 1.0497047 6.995889e-19)
(11.375282 1.0030814 0)
(11.487351 0.92626566 -1.4125953e-18)
(11.594516 0.84595092 2.8627063e-18)
(11.689642 0.7385394 -8.4434722e-21)
(11.77885 0.63328165 -3.6324215e-19)
(11.858588 0.50900838 0)
(11.924419 0.38891287 0)
(11.97922 0.24388596 0)
(12.012081 0.10962073 -4.5372284e-20)
(10.319753 1.0102106 4.2157018e-18)
(10.410083 1.0197957 -5.4172301e-18)
(10.471433 1.0459479 2.2006472e-18)
(10.56556 1.0611111 -9.0779012e-21)
(10.654275 1.0559553 0)
(10.749255 1.0652696 -2.3306684e-18)
(10.839792 1.0450903 1.2062236e-18)
(10.933862 1.0368643 -1.2054189e-18)
(11.032317 0.99593338 0)
(11.140106 0.96590651 -6.1812627e-19)
(11.246163 0.91626798 1.2474829e-18)
(11.354871 0.85722698 -1.4251856e-20)
(11.469063 0.78450233 -1.2808127e-18)
(11.554208 0.69477984 -2.5539991e-18)
(11.650181 0.59666887 2.2504069e-18)
(11.72247 0.4797231 -1.2883315e-18)
(11.79569 0.3652552 8.0891043e-19)
(11.845526 0.22547761 1.619524e-19)
(11.887783 0.10046166 3.9822468e-20)
(10.338815 0.89321146 -6.6071112e-18)
(10.411999 0.89777557 3.8694762e-18)
(10.453196 0.93204619 0)
(10.539898 0.93447234 -5.0094567e-18)
(10.597798 0.96416019 4.1162077e-18)
(10.697063 0.97478659 1.0454026e-18)
(10.785365 0.97004034 3.1743237e-18)
(10.89186 0.95793636 -2.1634146e-18)
(10.984489 0.91764851 -2.7187376e-18)
(11.092831 0.88537275 1.6656499e-18)
(11.188872 0.83280395 2.2179497e-18)
(11.294417 0.78251834 -3.377875e-18)
(11.390967 0.71177832 2.2624834e-18)
(11.470224 0.63358178 -5.7695949e-19)
(11.563198 0.53577048 2.8139016e-19)
(11.625178 0.43411181 -4.3868879e-21)
(11.69314 0.31770393 -7.1579539e-19)
(11.735206 0.19701805 -1.4199143e-19)
(11.777028 0.076262243 -3.5716223e-20)
(10.293044 0.81537522 2.5330018e-18)
(10.367197 0.83481765 3.4280011e-18)
(10.429517 0.85537125 -3.5192148e-18)
(10.517957 0.84312572 8.9581717e-19)
(10.569593 0.86836656 -2.7199452e-18)
(10.663938 0.86198487 2.7986796e-18)
(10.733255 0.87619037 9.3684907e-19)
(10.830829 0.8675967 -4.78369e-18)
(10.909085 0.85132535 3.386464e-18)
(11.002768 0.82278517 -1.4809352e-18)
(11.091921 0.78143286 0)
(11.192108 0.73001229 -5.0006884e-19)
(11.28223 0.66891494 -1.5007912e-18)
(11.370015 0.59877618 5.1470573e-19)
(11.450924 0.50330096 1.5191208e-18)
(11.520813 0.41359446 5.0406807e-19)
(11.582856 0.29960036 -1.0123661e-18)
(11.62553 0.18819245 2.5479549e-19)
(11.66409 0.074470123 2.8340466e-19)
(10.303585 0.69638785 -3.7351254e-18)
(10.34407 0.7266813 3.065827e-18)
(10.391283 0.75541582 0)
(10.461105 0.77207525 -7.9406246e-19)
(10.519214 0.78762226 3.2286544e-18)
(10.609265 0.78079596 -6.5834839e-18)
(10.668601 0.79314002 8.6304772e-19)
(10.758904 0.78080561 3.4106532e-18)
(10.831431 0.77098791 2.5796824e-18)
(10.928853 0.7352107 -4.350087e-19)
(11.012723 0.70677767 0)
(11.102924 0.65628483 2.1943017e-18)
(11.18385 0.60378271 -8.9530978e-19)
(11.268027 0.53505187 8.9030439e-19)
(11.339272 0.44937709 -1.3426436e-18)
(11.411176 0.36359496 -2.2441313e-19)
(11.46602 0.26020348 0)
(11.512082 0.15731447 0)
(11.540876 0.054014928 -2.7908719e-20)
(10.288759 0.63841318 6.4309025e-19)
(10.324671 0.66435729 -6.1204772e-18)
(10.389965 0.66071484 2.761667e-18)
(10.426457 0.68515868 -3.5330507e-18)
(10.493271 0.69690352 -7.1645395e-19)
(10.557526 0.71146881 0)
(10.61904 0.7180432 -3.6875956e-18)
(10.70825 0.70835703 2.2626681e-18)
(10.77896 0.70106136 -7.6068851e-19)
(10.873442 0.67466466 -2.0684508e-21)
(10.949596 0.65296146 0)
(11.04494 0.60619701 0)
(11.123462 0.56156785 -3.8977633e-19)
(11.205422 0.49733557 -3.9118019e-19)
(11.272712 0.42055781 1.960203e-19)
(11.337832 0.33706431 1.1800193e-18)
(11.388298 0.24257673 -7.9097676e-19)
(11.429262 0.14483024 9.8872809e-20)
(11.457025 0.051500069 2.438187e-20)
(10.25729 0.56376384 4.121731e-18)
(10.290846 0.59202998 -4.2229515e-18)
(10.346128 0.59260843 0)
(10.387619 0.61649596 6.2367989e-19)
(10.461397 0.61054371 0)
(10.505854 0.63321549 6.4528716e-19)
(10.581182 0.62720641 6.5473602e-19)
(10.634425 0.63420447 0)
(10.709703 0.61931514 3.337977e-18)
(10.780732 0.60555371 -2.3790214e-18)
(10.860976 0.57980269 1.7000032e-18)
(10.94359 0.5404641 -1.378268e-18)
(11.0158 0.50466243 1.3737193e-18)
(11.094638 0.44385051 -1.0729563e-20)
(11.157246 0.38058636 -1.3923064e-18)
(11.219495 0.30096405 -1.7281406e-19)
(11.268511 0.21667616 -1.7415311e-19)
(11.303385 0.12343896 -8.6292494e-20)
(11.333135 0.035866444 0)
(10.231808 0.49077151 4.7135937e-18)
(10.273891 0.51526812 0)
(10.30921 0.53167783 0)
(10.356435 0.55249538 5.5217492e-19)
(10.416336 0.5584208 0)
(10.465696 0.57322393 -5.6821223e-19)
(10.541045 0.56905171 -5.7585767e-19)
(10.590928 0.57472391 -2.3279626e-18)
(10.67655 0.55764531 2.3688502e-18)
(10.735914 0.55255126 0)
(10.829254 0.51666587 -2.6907902e-18)
(10.890351 0.49658612 2.1218362e-18)
(10.976106 0.44600974 1.2084865e-18)
(11.039646 0.40415261 -2.4339949e-18)
(11.10722 0.33876692 2.4388181e-18)
(11.16151 0.26932743 -1.832439e-18)
(11.213169 0.19239007 6.1058482e-19)
(11.244503 0.10590307 0)
(11.270708 0.027168026 0)
(10.196389 0.41589046 7.4035052e-18)
(10.244919 0.43367199 -3.7736231e-18)
(10.280521 0.44974862 3.8261019e-18)
(10.337894 0.46308352 -4.390207e-18)
(10.378431 0.4773302 -3.9460677e-18)
(10.434785 0.49387414 4.0212586e-18)
(10.489368 0.49540259 2.0261896e-18)
(10.544494 0.50190573 -1.1980512e-20)
(10.60753 0.49321318 -2.0832829e-18)
(10.667948 0.48738399 0)
(10.742683 0.46423101 0)
(10.801135 0.4403596 2.6447268e-19)
(10.881439 0.39932283 0)
(10.93271 0.36355835 1.0645746e-18)
(11.004878 0.30276512 -1.0736267e-18)
(11.048184 0.24485256 -5.3376492e-19)
(11.098231 0.16691192 6.6982345e-19)
(11.124047 0.094333254 -3.3377208e-19)
(11.148277 0.013003251 2.6651958e-19)
(10.174009 0.35231907 0)
(10.206372 0.37582651 0)
(10.235477 0.39429732 3.3757922e-18)
(10.28586 0.41161117 -3.440221e-18)
(10.330074 0.4254498 3.9115095e-18)
(10.396873 0.43379472 -3.9796699e-18)
(10.445624 0.43705508 0)
(10.513255 0.4411233 4.5218794e-19)
(10.565507 0.43556727 1.8182571e-18)
(10.639386 0.42889448 -1.8443747e-18)
(10.699527 0.41147787 1.8445901e-18)
(10.768489 0.38880889 -1.2667298e-20)
(10.833965 0.35290876 -3.7352221e-18)
(10.890592 0.31944971 1.8786537e-18)
(10.955431 0.26757685 0)
(10.99975 0.21802292 -9.3528859e-19)
(11.044007 0.14972556 1.4661475e-18)
(11.065389 0.082723246 -6.4443766e-19)
(11.086895 0.0054316528 2.3341407e-19)
(10.156979 0.28349414 1.1179367e-17)
(10.188106 0.30097246 -5.8714793e-18)
(10.220932 0.31783745 0)
(10.260363 0.33569495 -3.7801867e-19)
(10.302289 0.35175934 -3.826625e-19)
(10.347897 0.36645562 3.8742378e-19)
(10.395368 0.3717042 0)
(10.451066 0.37946708 -3.9579958e-19)
(10.502361 0.37607037 3.1900341e-18)
(10.568779 0.37181979 -3.2327378e-18)
(10.623304 0.36098482 0)
(10.693367 0.33700681 0)
(10.746437 0.31070073 2.0470237e-19)
(10.81175 0.2733516 1.0258576e-19)
(10.861539 0.23435571 -1.0270087e-19)
(10.91738 0.18841021 0)
(10.950871 0.13493866 -4.6012316e-19)
(10.983485 0.079233733 4.1026294e-19)
(10.99553 0.014787123 0)
(10.108961 0.2221982 -1.0167417e-17)
(10.138665 0.24507361 1.0650198e-17)
(10.175915 0.2629578 -1.4326805e-20)
(10.216193 0.27899895 -4.9892416e-18)
(10.265652 0.29445922 0)
(10.315113 0.30392737 2.7168999e-18)
(10.368356 0.31171138 -5.6757378e-18)
(10.41747 0.31845235 2.7849596e-18)
(10.474416 0.32008595 0)
(10.532365 0.3205591 -2.8132498e-18)
(10.592269 0.30893722 2.8454312e-18)
(10.65368 0.29414707 1.4200358e-18)
(10.708887 0.26705823 -1.432399e-18)
(10.763339 0.2327322 1.2477585e-18)
(10.813699 0.19242446 -1.3469847e-18)
(10.860201 0.14999037 0)
(10.892775 0.10137015 -4.4818542e-20)
(10.925851 0.047848755 -1.335462e-19)
(10.932283 -0.0027070536 1.8928068e-19)
(10.085401 0.15575067 2.7937892e-19)
(10.115097 0.17427674 -5.6760609e-19)
(10.138487 0.19633241 4.5988964e-18)
(10.176708 0.21374497 2.7802065e-19)
(10.215573 0.23324009 -3.1139537e-19)
(10.263824 0.24469026 -4.7823785e-18)
(10.312985 0.25090414 1.5050768e-19)
(10.367115 0.25640839 2.578462e-18)
(10.422705 0.25643058 -2.4564703e-18)
(10.481717 0.26007062 -1.5431499e-19)
(10.539698 0.25754505 0)
(10.59879 0.24908923 2.6369749e-18)
(10.658164 0.23637596 -2.6580436e-18)
(10.706184 0.21112316 -1.1682198e-18)
(10.759584 0.18155347 8.5094067e-20)
(10.795781 0.14714311 1.8767653e-18)
(10.833613 0.10517852 -5.869335e-19)
(10.856781 0.065724264 -5.8348867e-20)
(10.869844 0.016488319 -9.6725493e-21)
(10.060227 0.10295713 0)
(10.08634 0.11904065 2.4914171e-19)
(10.114884 0.13695229 4.0359573e-18)
(10.15196 0.15517804 -4.4791895e-18)
(10.188428 0.17129754 4.2597324e-18)
(10.235565 0.18601227 -4.1872823e-18)
(10.27858 0.19515783 1.3198787e-19)
(10.331181 0.20076752 -1.3275571e-19)
(10.38168 0.20034782 2.0016319e-18)
(10.439494 0.19817716 -2.0240993e-18)
(10.497555 0.19148021 2.0201222e-18)
(10.558017 0.17967411 -2.2420354e-18)
(10.614345 0.16415614 0)
(10.668017 0.14114773 1.083871e-18)
(10.713756 0.11567455 -1.2260906e-18)
(10.750875 0.08567494 5.4196595e-19)
(10.783094 0.052108355 -5.0987233e-19)
(10.799766 0.019558857 -2.3670412e-19)
(10.813335 -0.016408145 2.7455694e-19)
(10.037659 0.051018713 -8.0103409e-21)
(10.051687 0.066415595 -7.0005744e-18)
(10.074003 0.084368734 1.1074244e-19)
(10.104723 0.097383437 -1.4734389e-22)
(10.14086 0.11493313 1.1308547e-19)
(10.186702 0.12634906 0)
(10.233446 0.13951752 3.6818659e-18)
(10.283871 0.14913923 -3.8398096e-18)
(10.337161 0.15498909 1.1670585e-19)
(10.390671 0.16376714 -1.816797e-18)
(10.446715 0.16299854 3.8339724e-18)
(10.506577 0.1649071 -3.7856873e-18)
(10.560176 0.15740882 1.9013815e-18)
(10.618882 0.14714236 0)
(10.666403 0.13008722 -9.1578059e-19)
(10.710512 0.10722203 9.492448e-19)
(10.744456 0.082127847 -1.4687333e-20)
(10.765052 0.05127959 4.0859995e-23)
(10.777919 0.020924324 -3.6618127e-21)
(10.018423 0.022075786 6.0977069e-18)
(10.031531 0.030483059 -6.1247557e-18)
(10.051301 0.038047842 6.1096869e-18)
(10.075535 0.04740691 9.7911949e-20)
(10.110779 0.055430123 0)
(10.152235 0.061153073 0)
(10.200198 0.065631807 -5.0115827e-20)
(10.253943 0.066320944 -3.1821901e-18)
(10.310292 0.066165774 3.3154294e-18)
(10.369215 0.064352032 3.2365884e-18)
(10.429814 0.059567043 -1.5765506e-18)
(10.488141 0.055177591 -1.7250002e-18)
(10.546321 0.047460328 0)
(10.600043 0.040033923 2.5758588e-20)
(10.644179 0.031271478 2.5678471e-20)
(10.684477 0.020732648 8.0607538e-19)
(10.712137 0.0094252454 -8.3411432e-19)
(10.729856 -0.0059050361 1.849993e-19)
(10.73873 -0.020185248 -2.0397858e-19)
(10.007023 0.00695443 -4.107103e-20)
(10.015317 0.010198744 5.3026606e-18)
(10.029814 0.015259202 -5.3719229e-21)
(10.050925 0.021584037 -7.8117101e-21)
(10.079126 0.02860798 -5.4812969e-18)
(10.114616 0.035939474 0)
(10.157194 0.043220691 2.734645e-18)
(10.206143 0.050234993 -2.7611851e-18)
(10.260415 0.056267039 -4.3844519e-20)
(10.319023 0.061091633 -2.1999545e-20)
(10.380502 0.064240433 -2.2050586e-20)
(10.443633 0.065292444 2.2080256e-20)
(10.503819 0.064931609 0)
(10.56146 0.063757863 1.3940776e-18)
(10.614539 0.060295371 -1.4265845e-18)
(10.660477 0.057277389 -6.9820106e-19)
(10.699154 0.046396855 7.1245e-19)
(10.722487 0.039737146 3.5954198e-19)
(10.742597 0.026603649 -3.5312902e-19)
(13.228033 0.062288033 -1.2832184e-19)
(13.306286 -0.15576116 -5.1309634e-19)
(13.248775 -0.35777831 5.0184632e-19)
(13.281735 -0.54973058 0)
(13.257999 -0.71585771 -9.3704003e-19)
(13.192069 -0.92325113 -1.817692e-18)
(13.1531 -1.0953703 0)
(13.044379 -1.2608743 -2.4253473e-20)
(13.045121 -1.4371465 3.1099214e-18)
(12.916637 -1.5662447 1.4893412e-18)
(12.9089 -1.7631328 -1.3997465e-18)
(12.771242 -1.8747796 2.6464593e-18)
(12.720892 -2.0877078 -2.4757343e-18)
(12.610508 -2.1963412 0)
(12.528417 -2.4017568 1.1195862e-18)
(12.435806 -2.5324336 -1.034145e-18)
(12.368746 -2.7349422 -1.9779879e-18)
(12.281789 -2.8876638 1.8563692e-18)
(12.222806 -3.0999376 -8.7046639e-19)
(13.133689 0.020225397 -1.114239e-19)
(13.14319 -0.15499755 6.6703944e-19)
(13.131932 -0.3865037 -4.3731333e-19)
(13.110564 -0.59419602 0)
(13.06725 -0.7767551 -8.3174023e-19)
(13.039672 -0.99341961 2.3918652e-18)
(12.956195 -1.1505183 0)
(12.901797 -1.356768 0)
(12.823291 -1.4913793 0)
(12.742849 -1.67933 0)
(12.675246 -1.8092029 2.498779e-18)
(12.571081 -1.9970458 -3.5712318e-18)
(12.49103 -2.1198792 -3.4039963e-18)
(12.373003 -2.3006171 2.1216655e-18)
(12.267104 -2.4230041 -2.0170808e-18)
(12.135572 -2.6028591 1.9313539e-18)
(12.047411 -2.7504124 -1.5214194e-20)
(11.929875 -2.8950095 -1.7060779e-18)
(11.81472 -3.1184943 1.6399021e-18)
(13.040801 0.040281753 0)
(12.987291 -0.1251294 -3.9113907e-19)
(13.036425 -0.39568096 -7.6573307e-19)
(12.955177 -0.5474812 -4.4956812e-21)
(12.964008 -0.79091433 -8.7767997e-21)
(12.864369 -0.94120662 1.4264738e-18)
(12.826767 -1.1728045 -2.7109486e-18)
(12.720959 -1.3120334 1.2888944e-18)
(12.637434 -1.5201307 1.9118849e-20)
(12.538707 -1.6490159 0)
(12.433556 -1.8457066 3.3921002e-18)
(12.346097 -1.9702635 1.073728e-20)
(12.207052 -2.1438665 2.0412486e-18)
(12.135084 -2.2739415 1.9593332e-18)
(11.95557 -2.4273894 2.7585525e-18)
(11.865891 -2.5905988 -3.4651886e-18)
(11.696697 -2.7213037 -1.3475462e-20)
(11.605028 -2.8922617 3.1374361e-18)
(11.417402 -3.0581155 1.5196619e-18)
(12.885962 -0.0043924954 3.4012796e-19)
(12.891815 -0.20747123 -6.7930902e-19)
(12.894696 -0.43731957 1.0005664e-18)
(12.84154 -0.62648983 0)
(12.80466 -0.85541329 1.9116947e-18)
(12.720709 -1.0117445 -3.0890005e-18)
(12.662398 -1.2366222 2.3943813e-18)
(12.532176 -1.3613553 -5.049348e-21)
(12.455953 -1.5718682 2.1180675e-20)
(12.313885 -1.6747405 -1.0710169e-18)
(12.225016 -1.8818006 0)
(12.069686 -1.9692611 -9.5792135e-19)
(11.958351 -2.1598187 9.5016997e-19)
(11.825255 -2.2439233 -1.7389051e-18)
(11.654135 -2.4353448 0)
(11.52932 -2.5226109 0)
(11.321066 -2.7050203 -1.499101e-18)
(11.216586 -2.8014029 0)
(10.980605 -2.9925051 1.3658398e-18)
(12.771861 0.018517504 2.9563451e-19)
(12.792491 -0.17114835 -2.9382397e-19)
(12.747842 -0.40146493 4.7288935e-21)
(12.723865 -0.61132821 -5.7039331e-19)
(12.642167 -0.80753466 5.4941697e-19)
(12.586128 -0.99302378 -2.9469313e-21)
(12.471977 -1.188742 -1.0499629e-18)
(12.381414 -1.3420676 0)
(12.259399 -1.5289906 -1.9677046e-18)
(12.138858 -1.6529555 9.3721902e-19)
(12.005107 -1.830938 0)
(11.870551 -1.9279013 0)
(11.699647 -2.0894879 -1.6462718e-18)
(11.571788 -2.1922142 -1.6032854e-18)
(11.381042 -2.319116 1.5313958e-18)
(11.223239 -2.4373949 2.9104695e-18)
(11.010242 -2.5526993 1.4214904e-18)
(10.838746 -2.6640148 -1.2961485e-18)
(10.573426 -2.806583 -2.895359e-20)
(12.630912 -0.030242952 0)
(12.632775 -0.22037952 2.574481e-19)
(12.611246 -0.47258528 -1.2645146e-18)
(12.572297 -0.6420386 4.9913661e-19)
(12.506352 -0.87091652 1.4657379e-18)
(12.419525 -1.0436441 -9.6567613e-19)
(12.316022 -1.2268826 -1.8706212e-18)
(12.20381 -1.3854669 1.7938276e-18)
(12.060848 -1.5374308 -8.9189786e-19)
(11.929562 -1.6771458 1.6740849e-18)
(11.758243 -1.8071649 0)
(11.633852 -1.9149447 0)
(11.41124 -2.0433387 -1.5073525e-18)
(11.298947 -2.1303626 4.2976648e-18)
(11.041676 -2.236973 -5.4612315e-18)
(10.913854 -2.3333 2.6152737e-18)
(10.641247 -2.406721 -5.0467984e-18)
(10.481646 -2.5006785 1.2083841e-18)
(10.210367 -2.5443056 2.3111882e-18)
(12.547535 0.0047598627 5.6184102e-20)
(12.525364 -0.22597388 2.2463954e-19)
(12.531791 -0.4317078 -4.3924243e-19)
(12.455241 -0.64207983 0)
(12.396048 -0.84757017 -8.6015724e-19)
(12.278887 -1.0154132 2.5138351e-18)
(12.177681 -1.2043637 -1.6259768e-18)
(12.035334 -1.3463773 8.0216413e-19)
(11.90594 -1.4973798 -1.5551153e-18)
(11.739412 -1.6282457 4.4968192e-18)
(11.588023 -1.7333435 -2.8713148e-18)
(11.406972 -1.8520815 0)
(11.202494 -1.9379945 1.3281383e-18)
(11.032772 -2.0260209 2.5917347e-18)
(10.780457 -2.0981207 -3.6897382e-18)
(10.601126 -2.1630356 3.5914246e-18)
(10.316118 -2.2030633 -3.4399675e-18)
(10.115586 -2.2440357 -2.2289121e-18)
(9.7802111 -2.2615754 -1.0820228e-18)
(12.40385 -0.047138111 1.4576652e-19)
(12.348387 -0.25506144 1.9371416e-19)
(12.372807 -0.46100668 -3.8214782e-19)
(12.26197 -0.67467616 0)
(12.230464 -0.85698052 1.4910823e-18)
(12.073978 -1.050866 -7.3829449e-19)
(11.998118 -1.1997958 0)
(11.816321 -1.3543318 -1.4018142e-18)
(11.696786 -1.4766175 6.8775024e-19)
(11.487083 -1.5991429 0)
(11.358399 -1.6844829 -1.2939952e-18)
(11.126348 -1.7840761 1.2513511e-18)
(10.971989 -1.8366291 1.2080236e-18)
(10.724582 -1.912801 -2.3261457e-18)
(10.5249 -1.9264931 2.2164747e-18)
(10.301187 -1.9721627 -1.0640203e-18)
(10.046801 -1.9397421 -1.0417303e-18)
(9.8207826 -1.9455583 -1.0032474e-18)
(9.4993031 -1.8903001 -9.65611e-19)
(12.298139 -0.036052119 3.3649984e-19)
(12.241852 -0.24929175 -1.6661343e-19)
(12.27582 -0.45801827 0)
(12.148916 -0.66752585 0)
(12.127603 -0.84540497 -1.3013008e-18)
(11.952202 -1.0299058 1.2819798e-18)
(11.876258 -1.1673293 0)
(11.666082 -1.3165387 6.1194616e-19)
(11.552275 -1.4138886 -5.975094e-19)
(11.30875 -1.5349586 0)
(11.169439 -1.5885603 1.1306747e-18)
(10.906262 -1.6807569 1.6422447e-20)
(10.745412 -1.6940378 1.5965575e-20)
(10.464206 -1.7446903 0)
(10.268978 -1.7147369 -4.0220364e-18)
(9.9745651 -1.7310659 3.8417168e-18)
(9.798308 -1.624279 4.6711409e-18)
(9.5168774 -1.6167465 -6.3004242e-18)
(9.2956496 -1.4418656 4.3144891e-18)
(12.163368 -0.069295304 0)
(12.125727 -0.25456554 1.9103722e-21)
(12.129185 -0.48010697 0)
(12.006298 -0.66768022 0)
(11.962514 -0.85360685 5.6348898e-19)
(11.775482 -1.0200185 7.5749316e-21)
(11.697426 -1.146724 -5.5516416e-19)
(11.471825 -1.2805457 -1.6353792e-18)
(11.358692 -1.3618308 2.1078028e-18)
(11.113166 -1.4601394 0)
(10.976965 -1.4900897 -1.0154676e-18)
(10.704515 -1.5569448 -5.9097474e-18)
(10.546539 -1.5237582 2.8424636e-18)
(10.270411 -1.5533423 0)
(10.089895 -1.4603841 -3.5962165e-18)
(9.8090923 -1.4472058 4.3132245e-18)
(9.616403 -1.2804777 -3.3611644e-18)
(9.3322925 -1.2278048 4.0302721e-18)
(9.1987621 -0.9696259 0)
(12.04362 -0.07107497 -2.5319987e-19)
(12.013624 -0.2541471 1.2713766e-19)
(11.999771 -0.48544729 0)
(11.887598 -0.64466341 -1.0018205e-18)
(11.816705 -0.85075766 1.4813877e-18)
(11.634353 -0.97152278 -4.8565733e-19)
(11.53003 -1.1183331 -1.4634863e-18)
(11.284423 -1.2088992 3.3283106e-18)
(11.163758 -1.2943024 -1.8527515e-18)
(10.897126 -1.3554167 0)
(10.756648 -1.3757527 8.8540055e-19)
(10.469473 -1.3888483 5.2334616e-18)
(10.31298 -1.3461652 -3.3632786e-18)
(10.023603 -1.3225428 0)
(9.8856616 -1.1997004 0)
(9.6203651 -1.1292264 -1.5435257e-18)
(9.5046457 -0.91750626 7.4994018e-19)
(9.265383 -0.82136324 -2.1681001e-18)
(9.1854275 -0.5157312 0)
(11.898314 -0.071884439 -2.1950288e-19)
(11.901929 -0.26749545 6.578513e-19)
(11.853513 -0.47261585 -6.542253e-19)
(11.765917 -0.636438 0)
(11.660196 -0.83045388 1.3031077e-18)
(11.504522 -0.93056666 -1.696191e-18)
(11.376895 -1.076287 0)
(11.153814 -1.125078 8.3634352e-19)
(11.006201 -1.2235112 8.2282177e-19)
(10.752213 -1.2241615 0)
(10.613156 -1.2369694 0)
(10.341015 -1.1965574 -7.6304995e-19)
(10.198997 -1.1430176 -2.2573499e-18)
(9.9020598 -1.0509536 -2.872073e-20)
(9.7847689 -0.91979538 2.1079667e-18)
(9.5256196 -0.78481259 1.3723552e-18)
(9.4738209 -0.57982803 -6.628413e-19)
(9.2724468 -0.42237033 1.2824094e-18)
(9.3073159 -0.12475698 0)
(11.77933 -0.083516767 0)
(11.786257 -0.27552738 -7.6052464e-19)
(11.71961 -0.46419252 1.5110995e-18)
(11.647278 -0.6375818 -1.1281433e-18)
(11.500216 -0.79813832 0)
(11.359453 -0.90330514 0)
(11.187819 -1.0205543 0)
(10.993487 -1.0502737 -7.227594e-19)
(10.802373 -1.1289975 -7.1265615e-19)
(10.56537 -1.0863089 0)
(10.410178 -1.0998603 -6.9440944e-19)
(10.162233 -0.99803208 -6.7928916e-19)
(10.045524 -0.92487092 -6.5740398e-19)
(9.8024148 -0.78225884 2.5856153e-18)
(9.7357077 -0.64453245 -2.4986737e-18)
(9.5181896 -0.46351029 -6.0633365e-19)
(9.5198157 -0.26315256 3.5460291e-18)
(9.3716334 -0.078618577 -5.6938033e-18)
(9.4645384 0.1960769 3.3138204e-18)
(11.667465 -0.077194756 -4.1353674e-20)
(11.673187 -0.27679933 8.2584978e-20)
(11.601858 -0.44518001 8.2032915e-19)
(11.524455 -0.60943552 -1.9658167e-18)
(11.371638 -0.74058899 9.6729013e-19)
(11.242087 -0.85057399 0)
(11.047735 -0.9283268 0)
(10.892038 -0.95801919 6.3769548e-19)
(10.680568 -0.99316553 -2.5220167e-18)
(10.481707 -0.93641044 -6.483325e-19)
(10.282437 -0.91827722 5.7761152e-19)
(10.074343 -0.7733611 2.9580416e-18)
(9.9475643 -0.70930684 5.8310584e-19)
(9.7598146 -0.51642944 0)
(9.727932 -0.38294427 1.6572722e-18)
(9.5798999 -0.15936076 0)
(9.6402177 0.011288434 -3.1343136e-18)
(9.5468505 0.22712491 9.0786236e-18)
(9.7129422 0.48260777 -7.816431e-18)
(11.55201 -0.08933818 7.1193104e-20)
(11.538873 -0.2786134 -7.0754236e-20)
(11.469751 -0.43319995 0)
(11.380455 -0.59315374 -8.5557314e-19)
(11.231573 -0.70254526 2.6894004e-19)
(11.084232 -0.81213639 1.1169095e-18)
(10.883201 -0.85643711 0)
(10.737623 -0.88090995 -2.7767508e-18)
(10.523173 -0.86061544 1.6266687e-18)
(10.37475 -0.7933028 -4.2919791e-21)
(10.17882 -0.72682812 0)
(10.038595 -0.58609098 0)
(9.9037189 -0.4948687 -5.0879298e-19)
(9.7963043 -0.26818412 0)
(9.7671062 -0.1457248 2.822207e-21)
(9.6981288 0.10823821 9.4560839e-19)
(9.796608 0.2343262 -2.7600007e-18)
(9.7857768 0.4866144 7.1219164e-18)
(10.051185 0.65594171 -3.4496217e-18)
(11.475105 -0.088598367 2.1569922e-19)
(11.448349 -0.2638697 -1.8429244e-19)
(11.390241 -0.40644039 0)
(11.289836 -0.54747519 0)
(11.150139 -0.64015842 0)
(10.988685 -0.73470841 0)
(10.794955 -0.74901947 -1.9513207e-18)
(10.626201 -0.76863384 1.9147717e-18)
(10.416395 -0.70625766 2.3919761e-18)
(10.286015 -0.64395369 -9.3232171e-19)
(10.101606 -0.53901805 0)
(10.01577 -0.40751281 3.6598683e-18)
(9.9006734 -0.2626827 -6.6984114e-18)
(9.8846225 -0.056952974 3.4843281e-18)
(9.8648563 0.067133572 -4.2666977e-18)
(9.9154957 0.30258517 2.4851757e-18)
(10.029124 0.38133025 -8.0719571e-19)
(10.132574 0.61584354 -7.8246807e-19)
(10.448177 0.65431549 7.614188e-19)
(11.349352 -0.093686448 2.1288658e-19)
(11.318099 -0.25570975 -6.9174697e-19)
(11.25345 -0.39727973 4.2386411e-19)
(11.138242 -0.52031648 -8.5235953e-19)
(11.018174 -0.60111161 8.4345252e-19)
(10.856216 -0.66613489 0)
(10.690965 -0.65696232 -4.2243711e-19)
(10.518724 -0.65395578 1.6826389e-18)
(10.355205 -0.56640935 -1.6505233e-18)
(10.233544 -0.50292779 -4.0882497e-19)
(10.084368 -0.36202463 -3.2478614e-18)
(10.027212 -0.23529367 3.1707147e-18)
(9.949442 -0.063174836 -3.8961518e-19)
(9.9921916 0.09077424 2.2967756e-18)
(10.00416 0.22478502 -2.232756e-18)
(10.153512 0.38537906 0)
(10.265998 0.43094947 -5.6622486e-18)
(10.497326 0.55595641 6.1896535e-18)
(10.698046 0.41564317 0)
(11.283558 -0.091240462 -3.6770749e-19)
(11.254978 -0.23150612 3.6742383e-19)
(11.174745 -0.35814371 -7.3653213e-19)
(11.046308 -0.4677359 7.3120888e-19)