/*--------------------------------*- C++ -*----------------------------------*\
  =========                 |
  \\      /  F ield         | OpenFOAM: The Open Source CFD Toolbox
   \\    /   O peration     | Website:  https://openfoam.org
    \\  /    A nd           | Version:  11
     \\/     M anipulation  |
\*---------------------------------------------------------------------------*/
FoamFile
{
    format      ascii;
    class       volScalarField;
    location    "0.156";
    object      p;
}
// * * * * * * * * * * * * * * * * * * * * * * * * * * * * * * * * * * * * * //

dimensions      [0 2 -2 0 0 0 0];

internalField   nonuniform List<scalar> 
880
(
80
80
80.00000000372138
80.00088356271512
80
80
80.00000002075934
80.00352188146185
80
79.99999999999999
80.0000001618574
80.0176001556363
80
80
80.00000265443747
80.0519758629014
80
80.00000000000001
79.99999999999994
79.9999999989296
79.99999999999999
80
79.99999999999983
80
79.99997544782039
80.00007859094538
80.04191157952638
79.94881915320543
81.54173738961086
84.98820571848916
87.50502405034315
88.50910825467248
80.00000789230998
80.00009870921158
80.00015734664132
80.00015041044195
80.00027740974753
80.00067247190167
80.00236776417681
80.0024483456539
80.10556586312988
80.21446686623469
80.37840061296137
80.50453765428806
89.78241503979913
91.41527360180645
93.01347898549923
95.01837246969782
94.40684697629999
91.47941532323635
88.94482687642251
87.8424141484378
80.92880026984064
81.87035317090306
82.27334957241588
82.33213821000406
80.0073739164837
80.02685270266393
80.05504863946753
80.07455744068861
80.00045137007336
80.00140957439739
80.00351381016182
80.004775469126
80.00457108213845
80.00361966273111
80.00212328236765
80.00081824912978
80.07753292480838
80.06952243806666
80.05528844550381
80.03548219831319
82.13485025645235
81.83600997245935
81.48540425896347
81.08872281237066
87.34095208987158
86.51026483116402
85.41927721892861
84.29460133455036
83.18248338804706
80.66582872757925
80.0152247824722
80.00014863222718
82.166830528538
80.29304458238612
80.00339799583689
80.00000945650879
80.90906540442359
80.05007493266191
80.00021339113174
79.99999272388261
84.13325456291369
80.04804132798276
80.00004186078904
80.00002487930284
79.99993857458949
79.99997703775587
80.17903920165996
104.7309248432462
80.00004476294438
80.00356262367605
80.91722437435968
123.5343800221701
80.000371809481
80.00882294416179
81.92784920476406
134.4582983004733
80.00144895563443
80.02793743301314
83.438602009154
143.9451875681853
150.483727077338
85.33305413320021
80.0488406124225
80.00281145503202
157.849299225192
87.69339767250804
80.10093939338695
80.00623350258458
165.0940462728906
90.66611204734318
80.16166543724103
80.00851146357186
174.4610281500889
93.98967526824292
80.25170666418268
80.0150633281675
80.02019717741624
80.3793638931194
98.38483984048439
182.0649705485238
80.03273658188182
80.58128989281481
102.2884528932517
181.6403187086111
80.07773416740319
80.72221677868797
100.2863552758822
163.6007658806253
79.98564223918557
80.43169476027872
93.52439728663329
135.2901182003945
80.09482917339764
81.15206333796195
91.06628895569511
101.4349839722767
80.12607331801864
81.10574389398531
83.59520894953982
68.73912460776992
80.05843499199094
80.5402719186238
80.62816511491657
49.67072523949881
80.00166446019223
80.16721754884111
78.24841917152256
42.69859393067511
43.15242372792882
76.60453490062731
79.86697617193609
79.99577939132375
42.5586031978419
75.15501932426464
79.73090649276342
79.99373657399588
42.10425974147442
74.1945021710813
79.6959576447473
79.99581687867115
39.62398793563013
73.12389416919883
79.67225307871563
79.99698042989476
44.04460630641769
74.68985663109575
79.83746178650382
79.99892991990673
47.52867951049016
76.59997560037515
79.94151243920311
79.99971270561775
51.08808625699376
77.89262297329738
79.97599759637676
79.99990452334048
56.32740181249781
79.20767309963146
79.99568152943084
79.99996566307924
69.95472762016099
78.54942327935362
79.93291027132351
79.99916750836447
69.23758408981308
78.61369023679192
79.93473184942198
79.99915494243905
68.31614142599796
78.63721060268294
79.93832707973469
79.99915015028721
68.59825051420832
78.78201243638695
79.94377973998535
79.99915168808792
56.32740181228719
79.20767309922516
79.99568152882055
79.99996566385136
51.08808625667164
77.89262297302872
79.97599759420862
79.99990452286548
47.52867951001102
76.5999756006443
79.94151243895692
79.99971270618558
44.04460630646448
74.68985663217349
79.83746178642838
79.99892991936218
79.99577939271052
79.86697617323281
76.60453490071785
43.1524237278759
79.99373657471754
79.73090649342134
75.15501932485256
42.55860319804574
79.99581687692996
79.69595764616585
74.19450217101996
42.10425974150534
79.99698043022281
79.67225307932679
73.12389417114754
39.62398793546282
42.69859392954464
78.24841917032253
80.1672175478493
80.00166445986069
49.67072523849523
80.62816511383267
80.54027191782953
80.05843498980346
68.7391246078184
83.59520894842812
81.10574389421072
80.12607331638654
101.4349839724594
91.06628895554253
81.15206333687067
80.09482917611294
80.02019717692312
80.37936389646838
98.38483984043603
182.0649705492865
80.03273658213359
80.58128989365598
102.2884528932412
181.640318708588
80.07773416405652
80.72221677818376
100.2863552748629
163.6007658806282
79.98564224679059
80.43169476005001
93.52439728567586
135.2901182003315
174.4610281526012
93.9896752678106
80.25170666378693
80.01506332823271
165.0940462774953
90.66611205346392
80.16166544146898
80.00851146393411
157.849299225442
87.69339767205047
80.10093939457509
80.00623350210795
150.4837270769816
85.33305413032468
80.04884061070871
80.00281145454441
79.99993857624358
79.99997703813702
80.17903920172405
104.7309248417491
80.00004476266973
80.0035626231614
80.91722437470112
123.5343800213472
80.00037180855523
80.00882294330917
81.92784920550419
134.4582983024739
80.00144895452073
80.02793743408056
83.43860200965275
143.9451875686078
80.00002487821548
79.99999272454346
80.00000945638332
80.00014863186576
80.00004185919619
80.0002133917464
80.003397997313
80.01522478146023
80.04804132835699
80.05007493310552
80.29304458120423
80.66582872733085
84.13325456291395
80.90906540454367
82.16683052832892
83.18248338813655
80.00081824761216
80.03548219838322
81.08872281335839
84.2946013352169
80.00212328204607
80.05528844517598
81.48540426047951
85.41927721932005
80.00361966379511
80.06952243810693
81.83600997190115
86.51026483095602
80.00457108245915
80.07753292491996
82.13485025715644
87.34095208961942
80.00045136857257
80.00737391515636
80.9288002699265
94.40684697622264
80.00140957291526
80.02685270260619
81.8703531704127
91.47941532231459
80.00351380949331
80.05504864095191
82.27334957209882
88.94482687603571
80.00477546859899
80.07455744174196
82.33213821008576
87.84241414769365
95.01837247038502
80.50453765729877
80.00244834474772
80.0001504096365
93.01347898585558
80.37840061686998
80.00236776367835
80.00015734273288
91.41527360275614
80.21446686779754
80.00067247183746
80.00009871302969
89.78241503816636
80.1055658595854
80.00027740957941
80.00000789283173
88.50910825394787
79.94881915077292
80
79.99999999945658
87.50502404977918
80.04191157841454
80
79.99999999999999
84.98820571869207
80.00007859058266
80
79.99999999999999
81.54173738937978
79.99997544729393
80
79.99999999999989
80
79.99999999999997
80.00000000406034
80.00088356816744
80.00000000000003
80.00000000000001
80.00000002092247
80.00352188352528
80
80
80.00000016188901
80.01760015678798
80
80
80.00000265346837
80.05197586138671
80.00252567127454
80.00937632838465
80.03211851557113
80.33097767880052
80.00937633927394
80.01472784811939
80.0536723115714
81.15518600520274
80.03211851883967
80.05367230997119
80.49620045875166
86.4564292446981
80.33097760804861
81.15518588125741
86.45642923833432
105.0603720658386
134.9375715799804
114.3392532447974
102.851291775496
91.2378536894299
129.9887500622757
125.4308919540579
123.412449933787
114.5404002388825
127.7326685087215
126.3146054385496
125.8267915494309
121.8246055283333
127.4002081197446
126.4671186913375
126.4212467702855
123.9084804341858
125.0344632292499
124.7335734288313
125.0882347418404
126.2864004299871
126.6944840918785
125.537227158412
125.7373630052957
126.9796303951284
127.1041014854274
126.0505764085143
125.9936450407096
126.8670994119071
127.563595800788
126.3267478173014
126.0611546781192
123.7525540559648
105.3261593643073
83.9037403519285
77.23422186091295
78.42086175527602
95.90102414776966
76.89840514139387
75.33506056578118
78.00741799293701
86.4390558065534
74.28703135963035
76.03967433511382
78.87061571891941
68.89321974024364
69.57264750341359
74.96626912328759
78.16409593475051
80.29160716733045
81.44317602936763
81.76187623445799
81.85108837399645
80.15709419139813
81.16661026460767
81.44760727254398
81.50733293314985
80.64987326055913
81.28543155381335
81.51440268844802
81.5557375685225
79.89472123219822
80.70212793418013
81.22395122558969
81.33280672335084
81.82310035172766
81.69415252171554
81.76834591594316
115.3426163537971
81.57747956300241
81.62644535694196
82.33786022707542
130.5144397421261
81.66153343366099
81.76041470827876
83.12686118768744
137.838467260083
81.32546030174402
81.72081545251172
84.31121590851829
143.2385389570509
211.3490097086745
221.6047226308565
220.4185180706383
219.0404313697697
229.2208401767202
227.8440696926362
222.9647951713367
220.3086992741308
225.5105599262751
224.2890170009533
222.9068492050192
221.4784547903106
233.9873731843999
228.0515459927168
224.8638885541836
222.1206073362723
212.7891799203372
209.5367845832438
208.4091881235051
211.4266560731838
213.6743650436543
210.0569683947841
208.4214213204673
210.9417330814918
214.6237152381074
210.2161218700019
208.6445055104189
210.7341432554676
216.4482521432225
210.7387388716221
208.6568536297008
210.3670922742992
213.4001976670954
208.9745558420629
192.196135605453
160.0654877502388
212.9250441548609
209.7345090994306
192.6951464291261
170.8947346146308
212.8388269356385
210.4150812094067
195.797552862232
181.1740388613595
212.5210699297497
211.2056033050332
199.6233218191445
201.6531652013113
94.05095710891821
18.59038247059753
3.197598189357329
4.453011021835485
74.63986547821003
10.8870665102164
3.925012939989959
4.579093974180823
51.06979048313506
5.56831690778569
3.344338450915235
5.111605209851211
28.15692372680061
2.058630161594277
3.682567650549081
5.391051532028654
7.142773926622751
9.518798087133664
11.54406099855151
11.26269116961439
7.032943776860979
9.839039369151509
11.74645014055326
11.64418650400594
7.724264541271956
10.47186760847444
11.98640084118881
12.49325975821042
8.106933275047997
11.17161895427774
12.64573463063403
13.84587768279647
20.05616806593579
24.12056337559625
27.56009339651922
33.11671295514093
19.11013440330215
23.24967012400126
25.72202757646919
31.65686737174368
17.37745283048305
21.93236126668087
24.51986857915938
29.76221283044823
15.47029047734597
20.01765522531669
22.59328916801822
29.90883157424111
23.67546469931994
13.61378351024735
12.41265745554182
13.10664499846636
21.75839799814701
14.11847640279751
16.04982104551903
13.88357582670421
17.56090092432252
16.4969437237561
16.24238109653532
13.49719094420603
13.99584027619616
16.66903439797905
15.60979948540185
14.46550516057247
13.2381361574646
12.6815552226921
12.88694557802636
13.08273732025132
11.50177447107374
10.85623656556545
11.07275643758584
11.256271235549
11.52953687714963
11.65573248160153
11.68703492844768
11.91117956909804
15.99324115172511
16.91696405681149
16.45364422323678
16.45643637768681
13.08273732025492
11.25627123555307
11.91117956911764
16.4564363777363
12.88694557803423
11.07275643757795
11.68703492847163
16.45364422321869
12.68155522268552
10.85623656557518
11.65573248161744
16.9169640567434
13.23813615745503
11.50177447108504
11.52953687718767
15.99324115168779
13.10664499842828
12.41265745546729
13.61378351012575
23.67546469903817
13.88357582669722
16.04982104550734
14.11847640279881
21.75839799797814
13.49719094420578
16.24238109653178
16.4969437237419
17.56090092425293
14.4655051605697
15.60979948540737
16.66903439796623
13.99584027616281
29.90883157409879
22.59328916776408
20.01765522487495
15.47029047705143
29.76221283032567
24.51986857901598
21.93236126628608
17.37745283015159
31.65686737158652
25.72202757636564
23.24967012366489
19.11013440302799
33.11671295494986
27.56009339641464
24.12056337529223
20.05616806568395
11.2626911694154
11.54406099853671
9.518798087159624
7.142773926586802
11.64418650382571
11.74645014048542
9.83903936916667
7.032943776842879
12.4932597580405
11.98640084110004
10.4718676084544
7.72426454127272
13.84587768257309
12.6457346305137
11.17161895423948
8.106933275032162
4.4530110217896
3.19759818922576
18.59038247037203
94.05095710863421
4.579093974142613
3.92501293990425
10.88706651007112
74.63986547776841
5.111605209800285
3.344338450814259
5.568316907724593
51.0697904829586
5.39105153199607
3.682567650481089
2.058630161536876
28.15692372670144
160.0654877499932
192.1961356059916
208.9745558428136
213.4001976691729
170.894734614506
192.6951464296015
209.7345091003563
212.9250441571429
181.1740388613106
195.7975528627443
210.4150812106165
212.8388269379336
201.6531652014015
199.623321819915
211.2056033064813
212.5210699321355
211.4266560761749
208.4091881250622
209.5367845833772
212.7891799204671
210.9417330844573
208.4214213218285
210.0569683950294
213.6743650437343
210.7341432582211
208.6445055116731
210.2161218701717
214.6237152380913
210.3670922770883
208.6568536309221
210.7387388717672
216.4482521431141
219.0404313701984
220.4185180719467
221.6047226300909
211.3490097065539
220.3086992748286
222.9647951727045
227.8440696924444
229.2208401754508
221.4784547910155
222.9068492062292
224.2890170009842
225.5105599261026
222.1206073367382
224.863888555683
228.0515459924289
233.9873731844072
115.3426163519366
81.76834591543388
81.69415252219913
81.82310035234987
130.5144397395503
82.33786022627734
81.62644535783581
81.57747956387443
137.8384672573494
83.12686118668358
81.76041470951617
81.66153343452902
143.2385389549625
84.31121590703906
81.7208154538301
81.32546030294979
81.85108837457886
81.76187623484847
81.44317602924167
80.29160716699663
81.50733293353289
81.4476072729001
81.1666102644554
80.15709419098684
81.55573756870339
81.51440268871625
81.28543155368645
80.6498732601204
81.33280672354688
81.2239512259947
80.70212793397963
79.89472123183742
78.42086175448175
77.23422186032901
83.90374035141814
105.3261593646518
78.00741799200527
75.33506056514102
76.89840514091553
95.90102414839554
78.87061571790413
76.03967433458877
74.28703135916105
86.43905580734818
78.16409593361405
74.96626912267273
69.57264750270276
68.89321974083191
126.2864004301553
125.0882347412579
124.7335734301832
125.0344632291433
126.9796303950342
125.7373630049114
125.5372271597725
126.6944840911301
126.8670994115759
125.9936450401949
126.050576409817
127.1041014854354
123.7525540562931
126.0611546776106
126.3267478187127
127.5635958000548
123.9084804342045
121.8246055262504
114.5404002384709
91.23785371155644
126.421246769194
125.8267915468889
123.4124499314332
102.8512917617307
126.4671186912959
126.3146054370886
125.4308919434793
114.3392531936558
127.4002081197278
127.7326685081213
129.98875005129
134.9375715549131
57.95827687545386
78.78685897890915
79.98025914893981
79.99989012852035
58.08354248992969
78.72238610224987
79.97749160305385
79.99983578485201
61.68810488369935
78.82565560676152
79.97379148858168
79.99976143500663
65.64174735356769
78.83426509376073
79.96128364347044
79.99950662938849
79.9991675086808
79.93291027236647
78.54942327800445
69.95472761979207
79.99915494295033
79.93473185046037
78.61369023581204
69.23758408864659
79.9991501491855
79.9383270802353
78.63721060273383
68.31614142525416
79.99915168554011
79.94377974089288
78.78201243502693
68.59825051374818
79.99950662787298
79.99976143351199
79.99983578156341
79.99989012540691
79.96128364416748
79.97379148866499
79.97749160283823
79.980259148198
78.83426509318481
78.82565560512873
78.72238610296034
78.78685897862505
65.64174735312638
61.68810488262944
58.08354248931388
57.95827687612565
)
;

boundaryField
{
    back
    {
        type            empty;
    }
    inlet
    {
        type            zeroGradient;
    }
    front
    {
        type            empty;
    }
    top
    {
        type            zeroGradient;
    }
    outlet
    {
        type            fixedValue;
        value           uniform 80;
    }
    bottom
    {
        type            zeroGradient;
    }
    wall
    {
        type            zeroGradient;
    }
}


// ************************************************************************* //
