/*--------------------------------*- C++ -*----------------------------------*\
  =========                 |
  \\      /  F ield         | OpenFOAM: The Open Source CFD Toolbox
   \\    /   O peration     | Website:  https://openfoam.org
    \\  /    A nd           | Version:  11
     \\/     M anipulation  |
\*---------------------------------------------------------------------------*/
FoamFile
{
    format      ascii;
    class       volScalarField;
    location    "7.1";
    object      p;
}
// * * * * * * * * * * * * * * * * * * * * * * * * * * * * * * * * * * * * * //

dimensions      [0 2 -2 0 0 0 0];

internalField   nonuniform List<scalar> 
4455
(
7246.5751
7259.9104
7283.1924
7316.4175
7359.0227
7419.0279
7490.8186
7603.9024
7671.0155
7177.4999
7198.5083
7229.8396
7269.8458
7319.0686
7384.8627
7471.2426
7595.4993
7716.758
7104.7225
7134.0286
7173.7768
7220.4706
7274.7683
7346.9951
7443.4486
7581.5684
7723.9011
7029.1607
7067.5895
7115.2393
7167.8581
7227.1202
7305.859
7411.0861
7563.9837
7732.564
6952.5831
7000.0401
7054.9541
7112.7994
7176.5155
7260.8466
7376.2088
7543.7905
7749.0568
6876.3222
6932.3118
6993.3854
7055.3757
7123.343
7213.4617
7338.7712
7521.9823
7762.4353
6801.8358
6864.8836
6930.955
6996.3751
7068.1796
7163.8591
7298.3618
7497.5631
7775.128
6730.2139
6798.6053
6868.66
6937.0494
7011.8996
7112.0755
7253.7967
7469.2422
7783.1939
6662.528
6734.4371
6807.2026
6877.7217
6954.7249
7059.056
7206.9645
7437.4613
7787.0549
6599.5129
6541.6897
6489.8195
6444.1554
6405.0338
6372.3892
6346.4048
6327.1873
6315.075
6672.5774
6613.404
6558.1654
6507.239
6460.8036
6419.2428
6382.9813
6352.4308
6327.7126
6746.0607
6685.7085
6627.8599
6572.8142
6520.8458
6472.1447
6426.4772
6383.6694
6342.6288
6817.0034
6755.0422
6694.3316
6635.4696
6578.5317
6523.5988
6471.0378
6421.1251
6373.7034
6894.9929
6832.1114
6769.4287
6707.4959
6646.2586
6585.8147
6526.2078
6468.1146
6410.549
7002.374
6940.1423
6876.5981
6812.6624
6747.9175
6682.9772
6618.661
6556.267
6494.8339
7155.1088
7094.4186
7030.8106
6963.7929
6892.1194
6817.1115
6739.3287
6660.819
6582.2404
7399.4216
7343.0719
7275.8572
7200.6897
7119.2221
7034.096
6946.8053
6857.8495
6766.6191
7786.5183
7731.9939
7629.125
7496.407
7347.2657
7186.8184
7020.3763
6855.5297
6698.9643
6312.4291
6308.6699
6301.3932
6290.2871
6276.8353
6260.1948
6240.7837
6218.2855
6192.2552
6314.4273
6300.0692
6281.4064
6259.4369
6234.0853
6206.541
6175.9774
6142.2637
6105.0603
6314.0068
6291.9134
6268.779
6243.2163
6215.1347
6185.2803
6152.7259
6116.528
6077.1222
6338.9366
6311.5511
6283.5788
6253.6417
6221.3139
6186.3036
6148.3343
6107.4037
6063.4117
6364.8727
6331.1534
6299.2126
6266.5081
6231.5617
6193.6316
6152.308
6107.5329
6059.4427
6443.9247
6404.5401
6366.14
6326.287
6283.7474
6237.9527
6188.8583
6136.3011
6081.0649
6517.2706
6468.0419
6421.8189
6374.2257
6323.4182
6268.8317
6210.4147
6148.546
6084.3916
6680.8713
6599.1428
6514.3588
6429.6049
6344.6865
6258.4262
6172.1911
6086.69
6004.6118
6567.3399
6451.9248
6336.049
6220.4982
6107.8911
5997.0061
5887.4826
5780.1298
5681.066
5608.6867
5542.0241
5494.635
5478.9235
5494.8687
5535.1133
5590.4364
5650.3194
5715.3127
5931.4636
5864.6083
5803.7022
5750.3438
5705.0253
5668.0696
5639.2456
5618.2144
5604.4202
6022.0237
5961.9426
5901.8596
5842.9265
5786.3818
5732.7415
5682.0575
5634.7812
5590.9967
6025.3154
5969.3646
5912.0526
5854.3696
5796.5213
5738.5699
5680.4008
5622.2201
5563.9786
6009.4691
5958.1055
5904.3506
5848.7036
5791.3449
5732.5107
5672.0959
5610.0953
5546.2604
6017.1992
5968.7252
5917.2855
5863.2007
5806.5831
5747.3666
5685.3645
5620.6667
5553.301
6035.018
5990.6247
5943.4313
5893.7351
5841.2469
5785.5184
5726.7611
5664.6615
5599.0774
6064.3191
6020.9021
5973.6253
5922.5334
5868.6736
5811.7488
5751.5848
5687.5506
5619.827
6158.7168
6119.5294
6079.5999
6038.0484
5993.9385
5945.4979
5892.2688
5834.4587
5772.3276
5705.4551
5634.1796
5558.1264
5477.1793
5391.3049
5300.6556
5204.1011
5102.4207
4995.0837
5548.3652
5473.0651
5393.8388
5310.8521
5223.957
5133.0576
5037.6223
4938.2129
4834.2638
5530.1795
5457.8303
5382.0142
5302.8159
5220.2205
5133.6629
5043.1944
4948.6437
4849.9264
5483.3072
5410.6007
5335.305
5257.3426
5176.7394
5093.192
5006.6895
4916.8663
4823.6402
5480.6561
5413.3108
5344.5196
5274.3393
5202.8402
5129.608
5054.5449
4976.9321
4896.4943
5505.6794
5447.5769
5389.4332
5331.222
5273.0381
5214.3373
5155.0712
5094.1494
5031.1145
5550.1311
5512.9729
5477.6735
5445.4981
5415.1366
5384.9372
5355.9532
5326.7166
5296.9163
5595.0934
5591.9688
5594.9262
5601.515
5613.5296
5629.0973
5647.2647
5669.0466
5691.9749
5783.5369
5853.8365
5928.4692
6002.7195
6081.8645
6163.7983
6247.2176
6334.987
6424.7342
6516.2456
5716.5297
5263.6013
4964.9456
4812.231
4726.3357
4746.6545
4725.365
4881.9897
6612.255
5740.1447
5229.219
4895.0847
4723.3414
4624.6144
4638.5805
4612.357
4762.7593
6708.8743
5762.1227
5189.8929
4820.4022
4629.7897
4517.7592
4525.1702
4493.6073
4637.9847
6806.5136
5780.4946
5144.9427
4740.4031
4529.0321
4405.2319
4406.8041
4369.9279
4506.4662
6902.1478
5792.5282
5093.548
4653.5663
4422.6368
4286.0958
4282.5908
4241.9919
4368.951
6993.0641
5796.7601
5032.5851
4557.3603
4309.4415
4159.8933
4152.1411
4106.4567
4224.7105
7067.5019
5790.1271
4960.8787
4452.7385
4186.4305
4027.7817
4015.6979
3966.0563
4074.6585
7124.3462
5767.2477
4875.3553
4335.9174
4053.6736
3886.6967
3871.5042
3820.678
3919.0995
7138.9954
5720.412
4771.0604
4205.771
3911.3576
3736.3803
3719.4104
3669.4257
3759.304
3601.6747
3513.0645
3562.9412
3579.0798
3753.9712
4055.6934
4641.0699
5634.1806
7100.0473
3447.7861
3350.7369
3394.8232
3408.7557
3578.6902
3877.0515
4462.7057
5462.2288
6825.7352
3270.8975
3183.5051
3216.975
3227.7328
3385.9844
3673.0436
4237.1911
5219.9829
6501.2313
3081.3262
3009.785
3035.6896
3038.0781
3179.249
3446.611
3981.3561
4942.443
6185.3763
2886.638
2830.0137
2845.3874
2835.6694
2954.6665
3195.7406
3702.0057
4647.5362
5874.4755
2692.541
2646.2505
2648.9699
2625.6648
2717.4705
2930.583
3406.7955
4337.0745
5557.6767
2498.0709
2461.3107
2451.4362
2410.7414
2471.6652
2652.9725
3092.3646
4007.2032
5230.4483
2304.5262
2274.2422
2250.1732
2190.329
2218.2215
2359.7858
2759.4396
3654.5424
4889.4434
2113.8114
2088.3919
2047.2724
1965.8566
1954.144
2052.9574
2402.6354
3273.5874
4533.4435
4164.1208
2863.7849
2025.2997
1734.2342
1686.2036
1741.432
1847.3973
1906.5581
1928.1217
3783.7703
2426.1005
1627.9336
1402.4285
1412.8789
1515.7822
1650.453
1728.481
1749.9344
3372.9417
1960.5359
1211.0419
1062.8407
1139.5004
1293.8936
1457.7354
1557.8416
1582.2302
2920.3649
1463.3824
773.15429
716.88159
867.01881
1077.8028
1275.5385
1398.5657
1427.8138
2438.1663
936.65939
325.30699
370.41827
602.15939
871.51916
1103.394
1250.211
1289.6264
1932.0874
370.85116
-137.49753
27.221067
346.2074
676.24131
945.70085
1116.827
1170.8159
1393.9491
-232.01974
-602.28535
-306.16864
106.29926
498.75271
805.47273
1002.375
1071.7643
823.68681
-867.33535
-1067.3739
-624.37891
-114.63277
339.45241
685.09125
908.23685
997.23473
203.13363
-1538.431
-1522.6376
-919.63795
-311.90945
202.30828
586.59706
837.25388
952.78783
936.73698
788.04217
512.81044
89.79287
-486.65634
-1196.1864
-1982.1208
-2290.1544
-544.13177
948.9878
763.71019
468.06384
9.6431413
-623.21313
-1431.4133
-2408.1092
-3119.8954
-1493.5172
990.03898
764.32893
455.25879
-34.772271
-715.93033
-1607.4568
-2765.373
-3953.8951
-2587.4423
1058.8796
789.0533
474.21385
-42.752541
-762.37417
-1715.5839
-3033.519
-4733.0982
-3873.3923
1155.9955
839.86294
521.56589
-19.00149
-767.59653
-1757.2069
-3194.5586
-5391.1131
-5422.4028
1276.0529
913.7966
598.13626
34.585259
-731.89234
-1737.462
-3221.3173
-5833.5485
-7291.5214
1419.211
1009.7887
697.91074
114.58633
-665.36812
-1671.0991
-3108.0686
-5988.5204
-9480.5109
1581.1953
1123.8866
821.74961
220.09783
-571.61086
-1573.391
-2886.0272
-5801.9009
-11506.663
1757.8771
1252.4941
960.58639
346.22362
-461.69398
-1475.937
-2656.519
-5167.794
-12979.842
1934.1222
1390.8318
1113.7794
486.70806
-345.80042
-1417.1288
-2521.8185
-4435.7382
-14377.083
2100.9902
1530.7187
1250.5402
591.09161
-304.87544
-1491.1601
-2741.8847
-5351.4947
-16497.362
2289.2289
1674.4999
1365.8596
657.59015
-335.16633
-1676.1239
-3245.9991
-6876.4844
-18958.798
2488.336
1828.4791
1474.4978
722.61701
-373.30077
-1904.202
-3789.5096
-8296.7589
-18300.791
2691.9191
1994.3902
1595.7319
814.19119
-391.86784
-2112.4058
-4269.7093
-9764.9691
-14435.85
2893.8176
2173.6104
1728.795
927.48214
-381.18348
-2299.8561
-4670.5523
-11391.39
-13711.443
3096.8281
2364.2542
1871.8887
1060.7243
-350.70898
-2473.2353
-5081.9541
-12958.624
-15091.507
3295.6453
2564.3739
2022.9296
1204.1484
-300.08397
-2634.004
-5569.2345
-14251.753
-16298.326
3499.3259
2772.5735
2181.387
1363.5613
-235.57545
-2762.9331
-6078.0785
-14929.649
-16862.849
-16791.762
-15142.397
-6442.9281
-2805.5975
-147.21268
1524.5951
2342.5811
2982.9425
3701.4826
-16905.406
-15340.21
-6617.6366
-2779.2496
-30.106954
1698.6135
2503.9881
3193.9615
3881.9556
-16972.372
-15509.423
-6704.3821
-2704.1007
121.39421
1887.6775
2674.2842
3407.3125
4047.9246
-17005.338
-15589.936
-6748.5035
-2609.9492
289.75826
2084.4703
2850.6351
3621.6385
4206.5853
-16981.3
-15596.069
-6771.223
-2512.0073
468.52749
2282.2651
3030.8141
3831.742
4354.5484
-16957.259
-15539.389
-6778.8647
-2409.6001
649.88611
2475.29
3211.1283
4036.114
4487.0248
-16874.917
-15426.384
-6767.3134
-2298.32
832.11075
2667.5275
3390.671
4232.4583
4602.2263
-16829.571
-15242.57
-6735.6122
-2171.6655
1021.7149
2856.8898
3570.1147
4421.2035
4698.2673
-16784.815
-15027.814
-6673.532
-2008.8622
1230.1033
3047.8435
3750.0766
4597.337
4774.1791
-16711.73
-14186.555
-6219.5474
-1606.0529
1634.2847
3378.0483
4066.7082
4874.4608
4863.257
-16121.035
-13251.388
-5647.7228
-906.62246
2218.5968
3844.5104
4457.342
5157.3011
4836.1722
-14966.162
-12330.778
-4944.0676
-80.056561
2871.4267
4289.9271
4879.3251
5334.2364
4630.1625
-13969.909
-11522.893
-4116.9248
803.51477
3424.8702
4632.6161
5135.9466
5304.4041
4228.572
-13381.418
-10885.287
-3238.8586
1582.9912
3830.8961
4860.6138
5303.7284
5076.1516
3628.4698
-13220.923
-10361.441
-2303.2201
2216.8058
4161.8462
5010.7431
5272.898
4624.8666
3000.8242
-13173.966
-9907.2781
-1312.4624
2805.4126
4390.826
5100.7919
5107.1394
3994.5383
2292.7173
-13280.594
-9503.8103
-279.65883
3314.5273
4491.4274
5004.2689
4774.5372
3250.4987
1684.9068
-12976.287
-9108.9431
722.39817
3458.9046
4271.1769
4944.5914
4427.7152
2427.1776
1194.7304
-8857.5374
-7724.2598
-4589.2677
-4668.0818
-2164.6725
-963.46324
-8.6227047
68.946993
-93.60835
-9128.8719
-7905.1274
-4499.3348
-3959.2047
-1816.561
-761.98349
27.545385
-205.00616
-351.72351
-9397.0578
-8082.4211
-4394.536
-3186.8551
-1428.4067
-523.00494
107.80152
-487.43733
-603.14999
-9658.3429
-8249.4998
-4248.3513
-2399.1955
-1011.245
-261.88034
223.20151
-764.34743
-833.17424
-9906.9007
-8399.5614
-4072.3755
-1623.0628
-586.34112
25.088599
372.26321
-1015.661
-1033.9485
-10142.079
-8529.7849
-3883.4877
-886.42444
-170.0598
335.82454
550.16948
-1222.5312
-1175.3141
-10361.722
-8633.1283
-3646.3132
-206.33392
224.72605
660.68888
758.95018
-1349.873
-1255.8884
-10557.739
-8706.6718
-3355.6486
396.63894
605.83369
999.23366
980.97071
-1368.1897
-1288.4937
-10751.984
-8770.6006
-3034.499
908.56555
979.516
1355.6324
1211.2062
-1227.976
-1301.8179
-3637.1349
-2470.3688
-6266.6368
-5480.6351
-340.93715
870.6934
1571.1656
1357.1031
653.15636
-3471.1813
-2372.4048
-6186.0175
-5586.5523
-915.28122
691.80461
1524.3324
1555.3713
878.46608
-3302.8109
-2239.9088
-5862.3765
-5670.0348
-1441.6213
414.43229
1396.0873
1675.4866
1092.2866
-3161.2105
-2051.4071
-5446.0876
-5736.6446
-1885.4625
86.608578
1204.2437
1688.1783
1261.6288
-3129.3135
-1837.7983
-4916.5559
-5732.046
-2252.4726
-270.42411
948.9417
1622.4165
1391.9537
-3153.9147
-1644.4301
-4335.6118
-5596.2629
-2527.885
-595.17989
664.21181
1455.1679
1434.0248
-3096.9837
-1461.5323
-3681.3171
-5294.3405
-2682.2619
-901.12703
380.39657
1202.0013
1426.6167
-2993.2147
-1240.7953
-3041.9074
-4847.8827
-2707.5671
-1098.7443
127.07317
945.92961
1358.8059
-2990.7375
-983.03246
-2219.8842
-4299.6689
-2594.0264
-1198.8322
-65.124749
684.42763
1234.0105
508.17616
181.63372
-2.8303361
-513.58795
-992.21752
-1454.7541
-264.00773
1229.4531
-1988.1228
545.76815
158.47144
-74.283913
-650.1347
-1220.7282
-1812.5778
-260.10811
1079.1055
-2058.1016
598.86288
154.40656
-131.05711
-774.04706
-1436.739
-2182.1703
-350.30537
904.58334
-2147.209
657.75992
170.01436
-171.65287
-884.99664
-1637.6057
-2542.5886
-507.70668
686.14956
-2243.7678
729.49575
205.8466
-195.86146
-978.66842
-1823.3597
-2880.847
-711.20363
420.41789
-2365.0626
809.60188
258.53595
-205.7368
-1056.114
-1996.0424
-3191.8636
-948.78753
135.70497
-2500.7623
895.79455
326.44444
-202.19609
-1119.6291
-2156.2231
-3484.2377
-1216.2703
-137.88871
-2618.5659
983.61176
408.4774
-184.19839
-1168.9416
-2305.4232
-3740.7565
-1498.7146
-437.94326
-2766.8411
1082.7605
504.17957
-153.27925
-1201.5075
-2438.9219
-4001.7248
-1801.2957
-715.84398
-2899.9224
-1841.3926
1470.6892
-365.31918
-1079.3155
-732.49393
-354.63825
82.855051
228.79967
481.90596
-1634.3014
1937.9798
-341.63759
-690.63066
-438.9845
-158.91957
186.45997
303.4771
475.03982
-1271.8103
2187.3103
-201.65419
-334.05058
-139.19089
49.283517
302.84482
403.15872
485.64177
-1057.5859
2507.4054
10.355734
-9.9972568
161.13445
270.10804
431.40447
515.51246
522.96606
-403.63427
2992.1647
199.96788
273.90079
453.11913
499.57354
580.55456
636.1233
582.18104
-1024.6185
3359.6888
384.69058
531.07004
724.55045
725.07797
737.32799
764.63744
658.9325
-1871.8425
3483.7023
799.39757
782.72578
967.54258
942.26665
908.94642
907.05446
738.25375
-1244.3577
3379.5575
1307.0999
1050.6045
1201.0407
1162.5385
1096.418
1064.5647
839.14973
-544.91352
3108.4528
1805.2022
1357.1282
1440.4668
1388.0632
1299.3169
1241.0587
982.27605
3153.5435
3463.0623
3550.3723
3696.3993
3891.2646
4028.3047
4383.4484
4559.5712
5696.3497
2894.4632
3195.2827
3284.6708
3428.2149
3608.4492
3737.2935
4065.0843
4140.5201
5171.0845
2615.3876
2924.0485
3016.6463
3155.7556
3323.7971
3446.9966
3762.0826
3729.7382
4578.2178
2337.3719
2655.9612
2750.5893
2885.8475
3037.9238
3157.4935
3479.2204
3356.1033
3914.6374
2071.7985
2392.1246
2485.5322
2613.4718
2756.7376
2865.0725
3213.9759
3044.5327
3154.7516
1823.3878
2137.228
2224.4297
2344.326
2477.0147
2574.9103
2961.2501
2819.6074
2303.2055
1592.3599
1891.0314
1974.6847
2087.8365
2202.8255
2283.7133
2722.1597
2699.211
1400.5814
1383.2618
1656.8674
1735.8931
1839.8787
1937.9703
1980.1763
2477.1545
2703.3312
520.85043
1170.1528
1438.8786
1512.315
1611.4792
1687.3201
1678.0746
2216.2326
2879.0156
-103.15439
6119.3833
4943.0781
4690.8855
4305.5783
4162.7753
3958.8422
3812.2583
3724.9423
3415.3733
6478.4746
5296.007
4984.3552
4571.1884
4423.3856
4210.9811
4067.2887
3980.267
3689.5356
6819.2288
5639.4892
5277.7605
4835.6454
4681.5084
4457.8666
4319.7704
4229.6266
3965.8721
7140.4612
5970.7292
5566.7792
5095.0123
4933.0415
4699.5981
4566.1794
4472.6596
4237.0359
7446.2744
6289.0819
5849.1083
5350.6828
5177.0504
4937.5996
4806.5202
4707.5687
4501.8363
7736.773
6594.803
6123.0111
5598.7599
5414.1949
5163.6046
5038.8945
4933.8261
4757.337
8017.8611
6885.1413
6387.2137
5838.3879
5640.6669
5379.1152
5263.4613
5152.4354
5004.0396
8290.8369
7161.5311
6639.5012
6068.6165
5859.4662
5588.5709
5475.317
5360.1485
5240.2066
8556.7358
7424.8402
6879.1164
6287.7853
6066.4809
5786.4212
5676.8777
5559.0613
5463.9765
6877.9064
6853.3399
6992.3214
7063.5616
7413.7975
7661.7877
8387.8692
9069.6994
10522.671
6785.7048
6754.4249
6894.1138
6970.4638
7323.4326
7575.8862
8308.7858
8995.7341
10420.943
6678.2438
6645.2026
6782.571
6864.0216
7212.411
7467.3359
8192.5602
8861.9936
10214.755
6545.1356
6525.3991
6658.8389
6748.1768
7085.1453
7339.2297
8048.9265
8701.1811
9996.1286
6393.5912
6392.3687
6523.5491
6614.8987
6945.4698
7193.587
7886.8209
8524.7272
9770.8847
6228.6739
6248.2707
6376.3564
6473.1623
6790.6584
7038.1621
7710.6476
8335.5327
9542.0507
6055.3276
6092.1016
6218.0308
6317.439
6624.8874
6870.0001
7521.3916
8130.2898
9304.4747
5870.4486
5925.2271
6049.1016
6151.5436
6449.9027
6687.6999
7320.6067
7909.9704
9061.7549
5674.3677
5747.1863
5869.2262
5975.2472
6262.3466
6493.482
7106.2618
7674.0104
8813.1385
6967.8026
7053.6903
7132.1665
7203.6838
7267.6693
7325.3009
7376.0011
7421.0115
7460.2699
6943.9675
7026.9415
7102.9514
7171.6298
7233.6245
7289.7454
7339.2523
7384.6828
7424.1543
7079.4045
7155.166
7223.9669
7283.7319
7338.0088
7385.9505
7429.2926
7466.6445
7499.422
7146.2288
7220.9012
7286.5555
7346.2817
7398.2449
7444.2902
7485.0526
7519.1175
7549.7599
7484.3226
7539.8139
7585.7988
7625.7042
7657.6225
7686.1837
7708.547
7725.9334
7742.3001
7725.4772
7777.0678
7817.1298
7847.3292
7870.2554
7885.9981
7895.6471
7900.548
7901.6858
8427.1574
8445.9737
8450.9878
8446.4489
8433.9966
8417.3146
8397.365
8373.2105
8345.9103
9080.8388
9070.1305
9043.0481
9006.5991
8960.0846
8904.9082
8842.7302
8776.7297
8708.0873
10465.323
10390.906
10294.473
10194.537
10087.892
9976.5693
9862.1127
9744.5356
9625.0127
7494.9587
7459.7385
7529.0448
7576.6816
7753.5108
7900.9031
8315.9067
8638.0147
9502.3298
7524.8035
7491.392
7556.2906
7598.6756
7762.8811
7897.7814
8284.3725
8567.1972
9378.9766
7550.6161
7519.3184
7578.0659
7618.5077
7770.4537
7893.4683
8252.878
8496.7904
9255.4421
7573.0062
7544.1015
7597.5024
7636.8176
7775.5451
7887.1583
8220.896
8427.4108
9137.3679
7592.2208
7566.0109
7615.679
7651.711
7781.1129
7880.3855
8189.4537
8362.5688
9023.9056
7608.8993
7584.6266
7630.2289
7663.5132
7784.066
7874.8832
8158.4977
8300.7552
8909.0039
7623.2448
7600.9433
7643.0245
7673.945
7787.3611
7868.8391
8129.3625
8241.5496
8791.7253
7635.4081
7616.0941
7655.2021
7683.3159
7789.4672
7863.6331
8101.9084
8185.5184
8673.8251
7645.165
7627.309
7665.2528
7690.6733
7790.2562
7859.5332
8076.9075
8134.4605
8560.3839
7675.5312
7670.6824
7695.5727
7709.6992
7783.7992
7836.9617
7975.6485
7971.9007
7944.5282
7674.7819
7669.5212
7696.058
7709.4986
7787.3819
7838.9314
7979.9232
7964.6437
7940.9024
7673.3652
7667.9851
7695.0737
7710.0203
7790.5424
7841.2189
7986.459
7960.341
7957.0065
7670.9667
7665.9341
7693.3317
7710.8407
7792.5983
7843.9533
7994.1403
7962.4643
7999.5415
7668.232
7662.7272
7690.6742
7710.6651
7793.4125
7846.7098
8002.0963
7973.4768
8058.8431
7665.3892
7658.7719
7686.282
7708.8942
7793.4073
7849.2328
8011.4644
7991.5834
8138.3446
7662.1778
7653.5658
7682.4516
7706.5219
7793.0802
7851.5034
8023.2165
8016.6355
8232.7437
7658.1869
7646.3936
7677.0236
7702.5196
7792.408
7853.7604
8037.8782
8049.9882
8336.2742
7652.8025
7637.0084
7670.9955
7696.9555
7791.6294
7855.7949
8055.628
8089.3332
8447.0141
7958.4844
7984.1061
7972.8095
7835.6736
7780.1887
7708.8255
7694.3541
7671.3762
7675.2271
7990.0415
8002.1265
7970.7141
7833.6525
7776.2576
7706.4248
7692.9525
7671.3938
7674.5235
8021.8159
8021.7796
7969.6674
7829.7897
7771.9641
7703.5734
7691.3563
7670.7177
7673.6389
8062.7533
8042.5844
7968.9974
7823.4675
7767.0838
7699.3756
7689.7633
7669.4782
7672.8643
8110.6834
8059.9266
7967.313
7814.186
7761.3969
7694.1
7687.8353
7668.0303
7672.1251
8156.6294
8071.1995
7963.0302
7803.3855
7754.5549
7688.444
7685.6465
7666.498
7671.5923
8205.1555
8080.2324
7955.2987
7791.8866
7746.6486
7683.0468
7683.0068
7665.1513
7671.2979
8257.8887
8089.8982
7945.7724
7782.0945
7738.3806
7678.661
7679.709
7664.2669
7671.3009
8311.5491
8101.5644
7939.8181
7776.9345
7731.3798
7676.871
7676.3626
7664.0789
7671.2252
8368.5565
8117.0918
7941.5597
7780.2918
7727.3916
7680.1705
7672.9154
7664.9232
7670.1145
8427.8794
8134.5147
7943.004
7785.3365
7723.2427
7682.2917
7669.0454
7664.7759
7668.0605
8482.1121
8148.1783
7942.6563
7788.9595
7720.1752
7682.0716
7665.8831
7663.1336
7665.6884
8530.5469
8156.5956
7939.6339
7789.6126
7716.8601
7679.3052
7662.3106
7660.1456
7662.699
8567.7345
8156.3302
7932.3957
7786.425
7712.3723
7674.5156
7657.6211
7655.746
7658.7422
8582.9794
8145.6082
7919.0919
7779.3664
7706.0566
7667.9039
7651.2217
7649.6302
7653.4507
8561.4622
8121.2167
7899.5509
7768.3943
7697.2574
7659.1237
7642.7782
7641.5101
7646.478
8475.8014
8085.0609
7875.5175
7754.183
7685.9079
7647.9443
7631.9607
7631.1264
7637.4528
8340.6615
8039.1456
7847.0834
7736.4285
7671.3054
7633.9906
7618.3006
7618.2448
7625.8806
7310.7493
7317.47
7333.5352
7361.094
7400.1125
7456.2283
7522.9424
7629.0435
7693.8837
7369.2236
7370.6473
7381.6507
7405.3547
7444.1968
7500.1453
7571.0229
7675.8344
7776.4609
7421.9054
7418.6915
7425.4627
7446.7997
7484.3343
7540.4501
7610.5495
7721.0241
7818.2264
7468.1634
7461.5065
7465.0952
7484.5488
7521.2211
7577.3014
7649.6815
7766.2812
7870.1577
7507.9388
7499.197
7500.6274
7518.3508
7554.7363
7611.412
7688.0202
7811.8151
7933.7162
7541.595
7531.9128
7531.7258
7548.4501
7585.0276
7642.6977
7723.921
7858.8748
7997.514
7569.6286
7559.6787
7558.8092
7575.1322
7611.7208
7670.2846
7757.4437
7905.1738
8066.0774
7592.5986
7582.9949
7582.2007
7598.0097
7634.3451
7694.9455
7788.3434
7949.2062
8139.8865
7611.1285
7602.3907
7601.7784
7617.2609
7653.7997
7716.1471
7816.8081
7991.7104
8222.1789
7948.9134
8022.7423
8096.2492
8186.7977
8292.965
8414.1385
8557.3806
8725.6482
8917.7719
8000.6703
8070.2968
8148.7191
8242.8361
8351.9458
8476.9225
8621.7191
8790.5348
8981.0113
8054.4014
8125.9938
8208.5247
8305.1313
8416.4491
8542.9065
8689.6612
8859.397
9052.9668
8116.0713
8190.2181
8274.8818
8372.4031
8484.5622
8611.6287
8759.4937
8932.1988
9133.8715
8185.2053
8260.8341
8345.865
8442.3775
8553.0529
8679.6343
8827.7554
9005.5943
9221.3331
8258.3158
8333.0402
8416.6635
8511.2114
8619.5088
8744.6291
8893.2707
9075.2845
9302.0033
8325.537
8397.7315
8477.8972
8569.7799
8675.2485
8798.9992
8947.5032
9134.9067
9369.7399
8375.3077
8443.9328
8521.797
8611.3326
8713.445
8834.2456
8979.0564
9159.5237
9362.3812
8399.5348
8463.3691
8537.4421
8622.5144
8717.9703
8829.1484
8963.9474
9150.8718
9330.9587
8729.7014
8892.9995
8795.5424
8747.5999
8669.5196
8591.858
8515.0929
8442.0935
8378.09
8128.3378
8267.637
8274.3735
8325.3165
8322.475
8311.3995
8284.9961
8248.0942
8198.6113
7805.0902
7871.5544
7883.4101
7930.1578
7946.9534
7961.3418
7966.7698
7963.3598
7943.0858
7571.025
7606.8836
7606.1011
7633.5431
7643.0031
7656.5548
7665.2574
7673.523
7669.6044
7383.9973
7407.1417
7402.9995
7416.7142
7416.9089
7422.3884
7426.7516
7432.1677
7433.1881
7217.1804
7229.9747
7225.7539
7235.5673
7232.2823
7234.8454
7233.5774
7233.5843
7231.8835
7061.5297
7067.4037
7063.1823
7067.9138
7063.695
7063.8722
7061.3018
7059.6368
7057.8543
6906.6273
6904.0678
6898.7843
6900.2374
6894.4118
6894.5283
6890.3703
6888.3627
6885.1094
6741.9088
6733.702
6726.8756
6721.8673
6714.3307
6709.1804
6703.2103
6698.5791
6691.9702
6501.9748
6318.59
6123.756
5903.7658
5652.2835
5335.7887
4982.6687
4599.0428
4337.5826
6510.4742
6327.187
6129.8413
5907.209
5648.0191
5332.5523
4967.5307
4583.8782
4265.053
6513.2662
6329.8547
6128.4778
5904.244
5638.2242
5321.4334
4943.4135
4550.3514
4172.7101
6521.466
6334.8901
6133.2993
5904.2743
5636.7225
5312.4379
4923.549
4501.5915
4062.9288
6526.2039
6340.6134
6134.9176
5907.1381
5636.1387
5307.0392
4905.2577
4446.8526
3945.5519
6535.9866
6347.3481
6142.7969
5911.8373
5640.72
5305.6166
4892.1224
4392.995
3826.962
6544.2931
6355.0812
6150.7536
5921.4048
5647.2041
5315.2015
4887.1806
4361.2708
3734.8161
6548.8958
6361.974
6152.0657
5929.6872
5652.7921
5318.0816
4891.5656
4327.4074
3707.3883
6568.0481
6378.4086
6178.5507
5943.2241
5683.2959
5346.6925
4916.6214
4360.8029
3622.5249
4371.2764
4563.6778
4861.7689
5105.3327
5255.481
5360.1082
5464.9978
5573.9192
5679.5986
4258.6867
4465.862
4818.4816
5085.3262
5240.0777
5348.0359
5456.3138
5568.6264
5678.2365
4119.8228
4362.8801
4783.0917
5070.5831
5224.577
5336.2558
5447.4828
5561.9932
5673.6437
3954.1758
4254.6798
4747.4813
5051.114
5208.534
5328.5088
5447.39
5565.0224
5678.0085
3750.3657
4154.4492
4713.0544
5021.3248
5176.7656
5303.563
5429.2373
5551.0621
5667.4313
3452.1589
4082.2406
4723.9938
5028.4479
5184.6324
5315.494
5441.9964
5563.4955
5677.6287
3034.6264
3910.7472
4659.6704
4969.234
5137.6796
5282.0071
5419.6964
5545.8588
5664.6318
2622.6394
3964.8718
4717.795
4987.7626
5155.6615
5299.8446
5433.3966
5557.6558
5673.2776
1553.2235
3791.8231
4684.1989
4951.0314
5133.316
5286.44
5424.8094
5550.298
5668.0095
5782.0968
5880.5906
5976.9881
6074.1632
6179.8184
6290.2021
6410.2706
6539.666
6685.3791
5783.0656
5883.6986
5980.4519
6079.5035
6185.0849
6297.7031
6418.6639
6550.8336
6697.3902
5780.4662
5882.2891
5980.7645
6081.042
6188.2335
6302.614
6425.2203
6560.1824
6708.4306
5785.3179
5888.1897
5986.4944
6088.3586
6194.8288
6310.6663
6433.5525
6570.5478
6719.7797
5777.005
5882.0519
5982.1104
6085.7925
6193.9446
6311.1846
6435.876
6574.8454
6725.8279
5786.7036
5891.0169
5991.012
6094.6743
6202.5939
6320.3636
6445.3451
6585.5718
6737.0604
5775.0053
5882.6894
5983.3799
6090.0655
6197.9072
6317.8273
6443.0597
6585.1715
6736.953
5783.6716
5889.4024
5990.7084
6095.7999
6204.5187
6323.6796
6449.3532
6591.7221
6744.2836
5778.9287
5886.1738
5987.6227
6094.133
6202.6619
6322.6589
6448.5444
6591.5304
6744.3025
6841.9927
7024.6641
7217.3817
7444.4268
7681.4148
7945.7611
8204.1631
8466.8126
8653.4013
6857.8622
7042.3082
7241.2092
7472.0723
7719.1253
7991.8936
8265.9734
8547.757
8751.591
6872.9147
7059.5178
7264.2882
7499.3788
7756.1226
8037.6048
8330.0176
8627.8245
8849.6121
6887.5259
7076.1153
7286.0199
7524.9976
7790.4287
8080.4911
8390.7338
8701.7326
8944.2406
6897.1195
7087.2381
7303.5359
7545.8459
7819.501
8118.6667
8446.5155
8770.5534
9035.5614
6910.2284
7101.9064
7321.5036
7566.6835
7847.6569
8154.8761
8499.8638
8835.0101
9120.047
6912.5908
7105.6364
7328.9777
7576.893
7866.1085
8179.5433
8540.959
8883.9136
9195.6108
6920.5299
7115.0602
7339.8121
7590.8784
7881.7286
8202.1464
8573.0598
8929.8157
9266.7933
6921.2604
7116.0708
7342.2554
7593.406
7887.742
8209.1513
8588.5654
8947.6567
9294.9884
8683.0729
8044.0152
7549.7941
7166.8239
6785.9686
6395.2956
6003.2773
5621.2414
5234.9529
8810.376
8142.4034
7631.8916
7242.5236
6855.6032
6454.4286
6058.5315
5672.947
5287.6046
8943.2875
8237.9891
7708.2554
7313.0959
6918.2261
6511.8814
6113.8846
5724.9676
5340.957
9077.1151
8332.4984
7785.0354
7384.1218
6978.4138
6565.5812
6163.7586
5772.1336
5391.3519
9213.1562
8426.7412
7862.4869
7458.7589
7048.4154
6629.8514
6223.6105
5828.6132
5447.2261
9348.3976
8524.9431
7933.5957
7513.3172
7094.3649
6672.7382
6262.4915
5864.5167
5488.0594
9462.8631
8629.0146
8029.4965
7598.3384
7172.5202
6747.8082
6339.4552
5936.1965
5555.1325
9561.3403
8696.4374
8070.4667
7628.3674
7198.5301
6768.9192
6355.5749
5953.3785
5575.6727
9658.7965
8841.459
8191.1478
7727.5119
7293.9069
6863.0916
6448.1864
6040.6505
5660.3529
4851.9908
4458.5642
4083.7184
3696.9631
3269.8592
2781.4651
2263.5447
1722.0386
1153.8513
4899.6361
4503.7888
4116.1577
3723.8508
3295.076
2816.4249
2304.5831
1768.395
1203.2383
4950.6838
4557.399
4174.2241
3782.0813
3360.4094
2877.9694
2369.4041
1834.2538
1275.9524
4997.2719
4601.5781
4202.1192
3806.97
3380.7582
2914.6577
2409.5642
1889.9264
1335.0507
5053.6889
4663.6414
4273.3797
3877.5961
3457.2486
2990.2429
2488.1165
1960.9948
1409.0063
5090.3588
4691.1194
4289.5436
3890.0374
3465.0113
3006.8166
2502.857
1998.8909
1448.3503
5161.4222
4770.6099
4370.6292
3977.2161
3551.0114
3105.9078
2602.9476
2097.0081
1544.12
5178.2419
4777.7811
4380.6374
3976.5283
3555.8015
3100.3868
2606.8388
2109.0079
1555.4767
5266.7022
4868.1743
4468.3875
4070.349
3652.8105
3209.7976
2721.4247
2219.546
1675.5868
497.99977
-276.36947
-1115.1139
-2026.9994
-2908.5138
-3699.7383
-4775.5137
-6726.4937
-9636.1678
550.57256
-200.49008
-1019.0026
-1888.8895
-2746.6695
-3493.9099
-4434.1283
-6271.3545
-9160.8942
633.4687
-94.897362
-887.72437
-1735.3576
-2621.1071
-3461.5612
-4393.453
-6073.1157
-8632.4241
710.98014
5.8010534
-761.25451
-1587.0751
-2473.8451
-3341.3707
-4266.9236
-5794.4811
-7968.6998
792.36141
108.07049
-635.71497
-1435.9774
-2302.4312
-3169.1036
-4080.8491
-5424.4989
-7098.4476
857.09298
195.11641
-520.76881
-1299.0715
-2143.5554
-3026.2084
-3928.4821
-5112.45
-6077.9885
964.79707
323.58725
-356.48898
-1111.9486
-1919.2117
-2830.9012
-3653.6444
-4906.6536
-4836.0849
1000.7418
369.73003
-289.16265
-1028.8426
-1815.2973
-2707.6106
-3660.3746
-4568.6042
-5190.6489
1132.8196
534.54086
-70.517791
-770.24498
-1481.9947
-2325.9333
-3151.4108
-4977.5877
-92.588597
-13039.466
-16205.379
-18417.503
-16931.424
-16978.432
-16814.016
-16839.24
-16575.767
-16233.755
-12847.381
-16402.145
-18291.545
-16780.933
-16697.374
-16519.604
-16620.137
-16450.978
-16185.256
-12816.39
-16710.499
-17981.801
-16654.101
-16896.539
-16754.141
-16690.995
-16441.689
-16139
-12978.516
-16974.862
-17580.233
-16576.639
-16691.081
-16549.159
-16532.929
-16325.985
-16117.478
-13257.353
-17121.551
-16994.081
-16534.889
-16857.693
-16639.755
-16608.864
-16368.071
-16078.394
-13005.738
-16930.088
-16716.03
-16566.791
-16675.021
-16587.522
-16471.541
-16283.625
-16061.116
-11903.82
-16551.381
-16548.378
-16584.696
-16749.002
-16622.27
-16482.471
-16224.127
-16034.043
-12979.685
-17244.167
-16370.344
-16637.967
-16680.564
-16563.742
-16467.144
-16199.424
-16024.274
-26077.4
-14658.911
-16738.581
-16653.584
-16678.88
-16526.245
-16421.566
-16161.876
-16003.136
-16042.276
-15754.773
-15367.282
-14609.376
-13821.849
-13182.146
-12673.124
-13149.698
-13356.212
-16008.252
-15685.995
-15221.335
-14427.793
-13638.108
-12963.383
-12442.046
-13049.851
-13215.586
-15939.81
-15586.116
-15043.843
-14232.113
-13418.527
-12754.398
-12310.815
-13059.449
-13364.857
-15893.18
-15488.144
-14872.578
-14031.051
-13174.488
-12541.569
-12227.607
-13013.716
-13566.663
-15828.659
-15384.325
-14705.517
-13829.231
-12940.952
-12320.048
-12159.73
-12899.435
-13683.312
-15797.031
-15297.099
-14550.37
-13637.226
-12729.627
-12125.819
-12099.496
-12799.833
-13736.558
-15749.149
-15195.595
-14398.884
-13457.264
-12544.837
-11983.732
-12066.481
-12801.19
-13764.355
-15737.375
-15150.987
-14303.875
-13317.131
-12392.861
-11880.77
-12036.86