/*--------------------------------*- C++ -*----------------------------------*\
  =========                 |
  \\      /  F ield         | OpenFOAM: The Open Source CFD Toolbox
   \\    /   O peration     | Website:  https://openfoam.org
    \\  /    A nd           | Version:  11
     \\/     M anipulation  |
\*---------------------------------------------------------------------------*/
FoamFile
{
    format      ascii;
    class       volScalarField;
    location    "7.1";
    object      p;
}
// * * * * * * * * * * * * * * * * * * * * * * * * * * * * * * * * * * * * * //

dimensions      [0 2 -2 0 0 0 0];

internalField   nonuniform List<scalar> 
4455
(
140.09343
140.1915
140.38622
140.7007
141.11292
141.69088
142.36045
143.64642
144.01213
140.0395
140.15047
140.36374
140.69004
141.13854
141.74809
142.55124
143.82891
144.72491
139.9335
140.06828
140.30433
140.65087
141.11964
141.76186
142.59391
143.97324
144.96207
139.78025
139.94753
140.21024
140.57829
141.06322
141.74452
142.63082
144.10947
145.31928
139.58937
139.79185
140.08335
140.47265
140.97634
141.69522
142.65703
144.24863
145.76268
139.3683
139.6072
139.92706
140.3354
140.8622
141.6223
142.65137
144.38345
146.1874
139.12477
139.39952
139.74571
140.17006
140.71642
141.51621
142.61039
144.50784
146.63888
138.86882
139.17406
139.54364
139.98144
140.54498
141.38167
142.5306
144.60669
147.09379
138.60893
138.93716
139.32448
139.77408
140.35132
141.22427
142.42752
144.68182
147.56614
138.35218
138.10579
137.87791
137.67271
137.49295
137.3409
137.2192
137.13
137.07735
138.69409
138.44913
138.20937
137.97936
137.76374
137.56632
137.39018
137.23777
137.10864
139.09091
138.84505
138.59561
138.34661
138.1019
137.86536
137.63949
137.4268
137.22637
139.54601
139.29653
139.03795
138.77357
138.50488
138.23562
137.96913
137.70923
137.45187
140.13338
139.88681
139.62731
139.35703
139.07478
138.785
138.49286
138.20681
137.92046
141.04182
140.8203
140.57386
140.30507
140.00845
139.6926
139.36025
139.02366
138.68088
142.30598
142.15541
141.97686
141.75848
141.47487
141.14533
140.78071
140.40357
140.01991
144.75775
144.73203
144.5844
144.32738
143.96435
143.53366
143.05587
142.54436
141.99178
148.17561
148.62655
148.50968
147.94323
147.10942
146.15168
145.14747
144.12928
143.10591
137.07209
137.05266
137.01013
136.95516
136.8843
136.80314
136.70202
136.58884
136.45239
137.03004
136.95525
136.86309
136.7537
136.6265
136.48247
136.3205
136.14057
135.9407
137.09454
136.99437
136.88989
136.77589
136.64841
136.50547
136.34573
136.16878
135.97376
137.26399
137.13457
137.01153
136.8815
136.73642
136.57322
136.39041
136.18813
135.96632
137.69977
137.56292
137.44691
137.32669
137.18824
137.02804
136.84561
136.64267
136.42105
138.39975
138.23085
138.09323
137.94924
137.78235
137.5887
137.36855
137.12679
136.86966
139.70629
139.51841
139.36418
139.19042
138.98296
138.74284
138.4755
138.18897
137.89465
141.47987
141.02783
140.57315
140.09709
139.59608
139.07385
138.54108
138.01119
137.51253
142.19437
141.37662
140.56021
139.76013
138.98213
138.23383
137.52283
136.8531
136.25087
135.83683
135.44182
135.32166
135.54563
136.08024
136.80091
137.60834
138.46464
139.35558
137.09151
136.74042
136.45054
136.2315
136.08708
136.02128
136.03594
136.15644
136.34476
137.61514
137.35833
137.11331
136.88569
136.67911
136.49765
136.34288
136.21668
136.1198
136.60763
136.35112
136.09185
135.83107
135.56967
135.30863
135.04884
134.79249
134.54051
136.18862
135.95115
135.70286
135.44407
135.17406
134.89305
134.6005
134.29715
133.98264
135.72907
135.47843
135.21046
134.92542
134.623
134.30296
133.96439
133.60717
133.23021
135.76269
135.53553
135.28906
135.02263
134.7354
134.42648
134.09455
133.7388
133.35761
135.72176
135.48217
135.22172
134.93991
134.63737
134.31087
133.95895
133.5796
133.17281
136.28033
136.07109
135.8495
135.61567
135.36706
135.09207
134.79191
134.4595
134.09232
133.6899
133.25399
132.77638
132.26007
131.70028
131.09351
130.43347
129.72398
128.95088
132.73226
132.25927
131.75448
131.21606
130.63492
130.0139
129.35216
128.64711
127.88506
132.94994
132.51389
132.0492
131.55298
131.02397
130.45829
129.85565
129.21056
128.52086
132.83362
132.41587
131.97725
131.51537
131.03017
130.51754
129.97738
129.40364
128.79548
133.65804
133.32259
132.97724
132.6196
132.25044
131.86497
131.46343
131.03827
130.58938
134.29462
134.05515
133.82375
133.59832
133.37925
133.16053
132.94199
132.71358
132.47449
136.05426
136.01833
136.01239
136.03193
136.07659
136.1373
136.21275
136.29152
136.37127
136.60522
136.92637
137.30602
137.73492
138.20976
138.72143
139.26645
139.83495
140.42209
140.27436
141.21593
142.18055
143.16735
144.1827
145.22661
146.30173
147.40386
148.53547
149.68956
141.01513
136.43878
132.21159
130.10655
128.14435
127.7793
127.06804
128.11551
150.86667
141.60794
136.48926
131.92387
129.58932
127.44937
126.98574
126.19337
127.20775
152.05683
142.18086
136.51161
131.59522
129.02486
126.70002
126.13171
125.26097
126.22695
153.25438
142.72569
136.4965
131.22287
128.41238
125.89466
125.21402
124.25355
125.1591
154.4325
143.21197
136.42657
130.78671
127.73637
125.02008
124.22206
123.17142
124.00669
155.57711
143.62894
136.28792
130.28127
126.99522
124.07452
123.15523
122.00598
122.75346
156.59508
143.9306
136.05802
129.6919
126.17076
123.04383
122.00254
120.75996
121.40278
157.44362
144.10412
135.71713
129.00681
125.25863
121.92682
120.76099
119.41418
119.94691
157.88468
144.05054
135.2247
128.20299
124.23723
120.70891
119.41633
117.97952
118.40182
116.77689
116.41782
117.93931
119.36613
123.05566
127.22621
134.50347
143.69428
157.84591
115.14929
114.74508
116.29543
117.87184
121.6385
125.95677
133.27609
142.36997
154.94425
113.26382
112.96065
114.50449
116.22349
120.00248
124.40814
131.6399
140.56949
152.4014
111.14087
111.02467
112.56479
114.4173
118.17679
122.64988
129.78568
138.61084
150.08833
108.72369
108.93641
110.47458
112.4612
116.20004
120.7478
127.80542
136.57389
147.7415
106.19198
106.69931
108.23418
110.35833
114.08399
118.71524
125.71179
134.42105
145.27717
103.48612
104.30253
105.85125
108.11057
111.82868
116.53894
123.48137
132.13136
142.71582
100.66245
101.76399
103.31522
105.71976
109.42767
114.20859
121.10281
129.68475
140.13585
97.624364
99.087404
100.60697
103.17544
106.87266
111.71276
118.56397
127.10616
137.52542
134.87527
124.38195
115.87179
109.05282
104.15732
100.48359
97.740578
96.27029
94.430071
132.17653
121.53318
113.02725
106.22952
101.2774
97.638003
94.715298
93.287338
91.024098
129.42816
118.53503
110.03888
103.24928
98.236331
94.642253
91.529144
90.171893
87.48765
126.61262
115.40332
106.90486
100.11371
95.037704
91.490308
88.174165
86.905024
83.747621
123.71933
112.10924
103.63106
96.828584
91.690863
88.197778
84.697656
83.501935
79.889355
120.71874
108.67086
100.21575
93.395642
88.195196
84.762853
81.082276
79.958126
75.867671
117.59987
105.05725
96.668037
89.820957
84.569155
81.19059
77.361969
76.304394
71.770214
114.33338
101.29751
92.99199
86.106848
80.812
77.490201
73.532129
72.533273
67.549675
110.90933
97.360527
89.194132
82.254653
76.935437
73.679861
69.64247
68.67794
63.348596
59.251441
64.701372
65.640805
69.682022
72.845558
78.118225
85.081252
92.99498
106.94019
55.329831
60.627459
61.577495
65.499493
68.538067
73.64133
80.583387
87.962337
102.1061
51.191874
56.501952
57.495019
61.240349
64.132233
69.029905
75.979544
82.851423
96.816143
46.999419
52.396324
53.422332
56.955901
59.691061
64.327304
71.320142
77.683795
91.06661
42.847334
48.312107
49.367562
52.669969
55.229778
59.559859
66.642958
72.663312
84.731112
38.996705
44.318529
45.395397
48.442714
50.806997
54.748823
61.984049
67.830089
77.594381
35.335953
40.432633
41.523793
44.30021
46.438852
49.898898
57.35606
63.526824
69.212449
32.053533
36.721823
37.807437
40.292884
42.202709
45.036069
52.706022
59.908868
59.638213
28.60548
33.235147
34.260679
36.451402
38.167263
40.209189
48.046625
57.406496
49.642195
25.424771
30.009988
30.872981
32.735034
34.201955
35.254119
42.712097
56.084219
42.844379
22.933093
27.078441
27.666969
29.060857
30.338776
30.535576
37.891821
55.711901
39.084643
21.131479
24.344673
24.710518
25.432683
26.635085
26.301867
34.202904
54.247953
40.330912
19.732055
21.813047
22.025322
21.74996
22.959018
21.844871
31.122499
51.772398
51.766559
18.698738
19.459409
19.603459
17.993836
19.201581
16.948125
28.051499
47.485204
49.92903
18.041774
17.285559
17.447176
14.193075
15.288168
11.607783
24.617783
44.2505
44.754772
17.8052
15.297566
15.506793
10.425481
11.195402
5.9571517
21.244196
44.522138
45.142095
17.863433
13.555917
13.788421
6.7482961
6.9879036
0.31631417
18.625634
42.104893
42.849894
18.312352
12.123336
12.250213
3.2262682
2.6757784
-5.6103755
16.391119
39.117649
42.287856
41.974863
38.380038
14.908254
-10.548279
-1.3753293
0.10996005
11.008279
11.100943
19.1246
41.793315
37.746344
12.222697
-15.462926
-4.9868751
-2.5310746
10.036021
10.472652
20.33173
41.4908
37.22183
8.8047734
-20.489675
-8.5048735
-4.8729767
9.3817909
10.220585
21.869926
40.993922
35.340496
5.1453041
-25.07205
-11.897076
-6.9644589
8.9776983
10.31422
23.737021
40.262532
33.404537
1.3044843
-29.60223
-15.204416
-8.7982318
8.8427532
10.752534
25.84636
39.341112
31.440647
-2.8796124
-33.841143
-18.420049
-10.369961
8.920329
11.517373
28.206237
38.497889
29.508134
-7.2092767
-38.099986
-21.54831
-11.633292
9.260449
12.62028
30.736883
37.256012
27.635254
-11.450072
-41.973487
-24.498986
-12.543182
9.8322307
14.051689
33.431968
36.581488
26.208895
-15.684618
-45.999857
-27.535401
-12.978099
10.692636
15.861859
36.551987
35.734805
22.91912
-21.567434
-50.937552
-30.725914
-12.683348
12.714632
19.573828
42.099403
33.260809
15.114543
-37.325867
-61.665068
-33.601506
-9.939423
17.130398
25.958839
49.654312
31.347673
6.9881196
-46.25962
-69.17265
-33.560525
-5.1464514
22.954475
33.388955
57.136493
30.481705
-2.0179186
-59.924463
-75.354299
-30.640716
1.6263465
29.666001
41.344356
64.286072
27.768427
-11.072384
-68.73311
-79.261251
-25.264528
9.3100166
36.630329
49.431124
70.883117
23.492159
-19.800509
-79.502079
-81.154456
-17.757694
17.793216
43.714758
57.407629
76.572895
18.586889
-28.189374
-87.5179
-80.289623
-8.3988563
26.333431
50.644087
64.956276
81.338718
13.613151
-36.098069
-94.852622
-76.803957
2.5053784
34.799536
57.355745
71.953483
85.142494
8.9661942
-43.968701
-98.643926
-69.070364
14.210109
42.460297
63.542071
78.061131
88.025372
16.187437
-27.855324
-94.795492
-65.918442
16.714202
64.364872
81.834587
90.563721
103.98006
16.100344
-28.006852
-95.954719
-66.424857
16.01494
64.433475
81.528331
90.019494
103.66255
15.941889
-28.40291
-98.812443
-67.032867
14.533826
64.129803
81.198395
89.337777
102.95156
15.64642
-29.047285
-100.94468
-69.648252
12.568763
63.422077
80.51556
88.454298
102.17122
15.334079
-29.573391
-103.27948
-73.503284
9.5351926
62.353835
79.517582
87.37536
101.37777
14.928394
-30.705699
-105.94662
-77.144247
5.7697916
60.77127
78.190451
86.244604
100.59024
14.530412
-31.774291
-108.17372
-80.136143
2.8165462
58.826136
76.686727
85.011114
99.878472
14.163832
-33.514467
-109.57296
-82.299706
0.89740804
56.714582
75.113261
83.53684
99.31228
13.92257
-35.112532
-110.55183
-83.827461
-0.098353414
54.692488
73.514232
82.798532
98.34978
8.9559721
-43.996063
-98.66395
-69.046487
14.225562
42.467098
63.544943
78.062578
88.025332
13.603955
-36.125294
-94.877082
-76.783669
2.5211015
34.807383
57.359353
71.955484
85.142789
18.579024
-28.21561
-87.545218
-80.275132
-8.3837197
26.342067
50.64848
64.958909
81.339424
23.485436
-19.825405
-79.530254
-81.145883
-17.743849
17.802294
43.719809
57.41094
76.574077
27.762561
-11.09581
-68.765487
-79.259139
-25.252803
9.3191063
36.635912
49.435083
70.884835
30.476348
-2.0391868
-59.954549
-75.357899
-30.631635
1.6348174
29.671797
41.348869
64.288364
31.34303
6.9696553
-46.292174
-69.181327
-33.554902
-5.1392035
22.960157
33.393797
57.139335
33.257718
15.098592
-37.356231
-61.67706
-33.59907
-9.9337504
17.135499
25.963746
49.657603
35.733686
22.905117
-21.596361
-50.952883
-30.726307
-12.679447
12.718856
19.578452
42.10299
19.126595
11.10152
11.007663
0.10718773
-1.3827259
-10.560254
14.888854
38.372665
41.976966
20.334105
10.473756
10.035886
-2.5333349
-4.9940645
-15.475475
12.202804
37.738549
41.795379
21.872639
10.222214
9.3821685
-4.8746288
-8.5117219
-20.502905
8.784209
37.213215
41.492592
23.740017
10.316359
8.9785985
-6.9654528
-11.903494
-25.085989
5.1239336
35.330872
40.99536
25.849592
10.755159
8.844178
-8.7985277
-15.210314
-29.616916
1.2824239
33.394288
40.263612
28.209648
11.520455
8.9222691
-10.369524
-18.425299
-33.856611
-2.9023975
31.429614
39.341782
30.740424
12.623778
9.2628984
-11.632106
-21.552811
-38.116167
-7.2329195
29.496355
38.49822
33.435588
14.055557
9.8351846
-12.541229
-24.50263
-41.990328
-11.474263
27.622824
37.255878
36.555628
15.866045
10.696077
-12.975378
-27.537839
-46.01675
-15.710097
26.195752
36.581372
42.29021
39.110344
16.372006
-5.6216712
2.6683227
3.2230372
12.249139
12.123381
18.313916
42.853123
42.097647
18.607365
0.30571937
6.9804783
6.7446552
13.78691
13.555432
17.864536
45.143548
44.516572
21.226484
5.9473594
11.188103
10.421505
15.504878
15.296593
17.805855
44.757768
44.245747
24.600944
11.598679
15.281027
14.188816
17.444897
17.284149
18.042027
49.928058
47.480273
28.036165
16.939554
19.194668
17.989354
19.600843
19.457599
18.698523
51.769439
51.767492
31.108626
21.836597
22.952359
21.745325
22.022405
21.810869
19.731362
40.333781
54.242952
34.190116
26.293986
26.628687
25.427955
24.707299
24.342151
21.130324
39.085226
55.7063
37.880136
30.528063
30.332609
29.056036
27.663463
27.075587
22.931503
42.843932
56.078498
42.701889
35.246821
34.195939
32.73012
30.869206
30.006824
25.422708
59.247613
64.697336
65.636713
69.677741
72.841339
78.114485
85.078527
92.993859
106.93926
55.325987
60.623346
61.573278
65.494999
68.533528
73.637183
80.580289
87.961157
102.1053
51.188039
56.497785
57.490697
61.235654
64.127384
69.0253
75.975973
82.850139
96.815522
46.995646
52.392138
53.417937
56.95103
59.685927
64.322219
71.315996
77.68231
91.066193
42.843695
48.307962
49.363143
52.664972
55.224345
59.554278
66.638128
72.661519
84.730876
38.993243
44.314474
45.390995
48.437633
50.801318
54.742734
61.978395
67.827801
77.594383
35.332724
40.428727
41.519455
44.295088
46.432987
49.89234
57.349439
63.523862
69.212794
32.050584
36.718117
37.803228
40.287777
42.196714
45.029159
52.698372
59.904997
59.63876
28.602909
33.231684
34.256657
36.44638
38.161245
40.202105
48.037884
57.40148
49.642397
110.90828
97.359423
89.191666
82.251244
76.93152
73.67579
69.638519
68.674008
63.344795
114.33225
101.29638
92.989705
86.103692
80.808336
77.486321
73.528314
72.529462
67.545933
117.59868
105.05609
96.665908
89.818035
84.565732
81.186912
77.358305
76.300711
71.766548
120.71748
108.66968
100.21374
93.392918
88.19198
84.759376
81.078753
79.954575
75.864106
123.71805
112.10802
103.62915
96.826028
91.687833
88.194509
84.694288
83.49852
79.885908
126.61129
115.40207
106.90301
100.1113
95.034846
91.487207
88.170955
86.901741
83.744298
129.42682
118.53375
110.03709
103.24699
98.233625
94.639282
91.526072
90.168748
87.484447
132.17517
121.53189
113.02551
106.22734
101.27483
97.635173
94.712343
93.284323
91.021026
134.8739
124.38063
115.87009
109.05072
104.15487
100.48089
97.737752
96.267397
94.427127
116.77488
116.4158
117.93732
119.36421
123.05385
127.22456
134.50199
143.69292
157.84461
115.1472
114.74297
116.29338
117.86986
121.63665
125.95509
133.27459
142.36861
154.94295
113.26164
112.95846
114.50236
116.22145
120.00058
124.40642
131.63837
140.56813
152.40009
111.1386
111.0224
112.56259
114.41518
118.17483
122.64812
129.78414
138.60946
150.08699
108.72132
108.93405
110.47229
112.45901
116.19801
120.74601
127.80385
136.57251
147.74015
106.18951
106.69686
108.23179
110.35605
114.08189
118.7134
125.71021
134.41967
145.27581
103.48354
104.29998
105.84875
108.10819
111.82651
116.53704
123.47977
132.12999
142.71445
100.65975
101.76132
103.31263
105.71729
109.42542
114.20663
121.10118
129.6834
140.13447
97.621549
99.084628
100.60428
103.17286
106.87031
111.71074
118.56232
127.10483
137.52404
118.39989
119.94506
121.401
122.75174
124.00503
125.1575
126.22541
127.20626
128.11407
117.97756
119.41228
120.75812
122.00421
123.16971
124.25189
125.25935
126.19181
127.06653
119.41441
120.75914
122.00073
123.15349
124.22037
125.21238
126.13011
126.98419
127.77779
120.70704
121.925
123.04206
124.07279
125.0184
125.89302
126.69842
127.44781
128.14282
124.23547
125.25691
126.16907
126.99357
127.73475
128.41079
129.0233
129.58779
130.10505
128.20136
129.0052
129.69031
130.27971
130.78516
131.22134
131.59372
131.92239
132.21013
135.22322
135.71566
136.05656
136.28646
136.42513
136.49506
136.51019
136.48785
136.43738
144.04919
144.10277
143.92926
143.62759
143.21062
142.72433
142.17951
141.6066
141.01379
157.88338
157.44233
156.59379
155.57581
154.43121
153.25309
152.05553
150.86537
149.68827
128.94949
127.8836
128.5194
128.794
130.58791
132.47305
136.36987
140.42075
148.53416
129.72264
128.64569
129.20914
129.40219
131.03683
132.71216
136.29014
139.83361
147.40256
130.43217
129.35078
129.85427
129.97596
131.46202
132.94059
136.21138
139.26512
146.30043
131.09225
130.01256
130.45694
130.51616
131.86359
133.15915
136.13595
138.7201
145.22531
131.69907
130.63363
131.02266
131.02882
132.24909
133.37789
136.07525
138.20844
144.1814
132.25889
131.2148
131.55171
131.51406
132.61827
133.59699
136.0306
137.73361
143.16605
132.77524
131.75326
132.04796
131.97598
132.97595
133.82244
136.01108
137.30471
142.17924
133.25288
132.25808
132.51268
132.41462
133.32132
134.05386
136.01703
136.92507
141.21462
133.68882
132.7311
132.94877
132.8324
133.65679
134.29336
136.05296
136.60393
140.27305
136.27948
135.72085
135.76176
135.72812
136.18763
136.6066
137.61405
137.09034
135.83553
136.07021
135.48125
135.53458
135.47746
135.95013
136.35007
137.35721
136.73922
135.44053
135.84861
135.22077
135.28808
135.20946
135.70181
136.09077
137.11216
136.44933
135.32036
135.61476
134.93894
135.02163
134.92439
135.443
135.82996
136.88452
136.23027
135.5443
135.36612
134.63637
134.73438
134.62194
135.17296
135.56854
136.67792
136.08583
136.07892
135.09111
134.30984
134.42543
134.30187
134.89192
135.30747
136.49643
136.02001
136.7996
134.79092
133.95789
134.09347
133.96327
134.59934
135.04765
136.34165
136.03466
137.60702
134.45848
133.57851
133.7377
133.60602
134.29597
134.79127
136.21544
136.15515
138.46332
134.09128
133.17169
133.35647
133.22903
133.98143
134.53928
136.11852
136.34346
139.35426
136.24959
137.51138
137.89359
136.86867
136.42009
135.96539
135.97286
135.93982
136.45156
136.85184
138.01006
138.18793
137.12583
136.64173
136.18723
136.1679
136.13971
136.58802
137.52158
138.53997
138.47449
137.36761
136.84469
136.38954
136.34487
136.31966
136.70122
138.2326
139.07276
138.74186
137.58779
137.02716
136.57236
136.50463
136.48164
136.80235
138.98093
139.59502
138.98201
137.78146
137.18738
136.73558
136.64759
136.62569
136.88351
139.75894
140.09606
139.18949
137.94839
137.32585
136.88069
136.77508
136.7529
136.95438
140.55903
140.57216
139.36329
138.0924
137.4461
137.01073
136.88909
136.86231
137.00935
141.37546
141.02687
139.51756
138.23005
137.56212
137.1338
136.99359
136.95448
137.05189
142.19323
141.47894
139.70547
138.39897
137.699
137.26323
137.09377
137.02928
137.07132
143.10479
141.99088
140.01912
138.68013
137.91971
137.45113
137.22562
137.10788
137.07659
144.12821
142.5435
140.40282
139.02294
138.20609
137.70852
137.42607
137.23702
137.12924
145.14643
143.05506
140.77999
139.35956
138.49217
137.96844
137.63878
137.38946
137.21845
146.1507
143.53288
141.14465
139.69195
138.78434
138.23495
137.86468
137.56561
137.34017
147.10849
143.96363
141.47424
140.00783
139.07416
138.50425
138.10125
137.76306
137.49224
147.94237
144.32671
141.7579
140.3045
139.35644
138.77297
138.34599
137.97871
137.67202
148.50891
144.58379
141.97633
140.57333
139.62677
139.03739
138.59503
138.20875
137.87725
148.62593
144.73149
142.15493
140.8198
139.8863
139.29601
138.8445
138.44856
138.10516
148.17519
144.75728
142.30556
141.04137
140.13292
139.54553
139.0904
138.69355
138.35159
140.09339
140.19147
140.38619
140.70067
141.11289
141.69085
142.36043
143.6464
144.01212
140.03939
140.15037
140.36365
140.68995
141.13846
141.74802
142.55117
143.82885
144.72487
139.93331
140.06812
140.30419
140.65073
141.11951
141.76174
142.5938
143.97315
144.96202
139.77999
139.94731
140.21004
140.5781
141.06304
141.74435
142.63067
144.10934
145.3192
139.58905
139.79156
140.08309
140.47241
140.97611
141.695
142.65684
144.24845
145.76257
139.36791
139.60685
139.92675
140.33511
140.86192
141.62204
142.65113
144.38322
146.18725
139.12433
139.39913
139.74534
140.16971
140.71609
141.5159
142.6101
144.50755
146.63869
138.86832
139.17361
139.54323
139.98105
140.54461
141.38131
142.53027
144.60634
147.09354
138.60839
138.93667
139.32402
139.77365
140.35091
141.22387
142.42715
144.68142
147.56583
146.89506
147.59117
148.29016
149.11274
150.05619
151.0754
152.16962
153.30189
154.3752
147.59119
148.23267
148.96196
149.81657
150.77953
151.80334
152.88234
153.9945
155.04453
148.2902
148.96198
149.73013
150.60461
151.567
152.58254
153.64388
154.73875
155.8039
149.1128
149.81661
150.60463
151.47556
152.42218
153.42105
154.46639
155.55978
156.6689
150.05628
150.77961
151.56706
152.42223
153.34115
154.32093
155.35404
156.4616
157.64141
151.07554
151.80348
152.58267
153.42115
154.32101
155.29138
156.33142
157.48028
158.72911
152.16985
152.88257
153.6441
154.46659
155.3542
156.33154
157.38855
158.60632
159.97634
153.30225
153.99487
154.73911
155.56015
156.46193
157.48058
158.60657
159.8493
161.21736
154.37578
155.04512
155.8045
156.66953
157.64204
158.72972
159.97699
161.21783
162.98559
167.31144
163.93663
162.74578
160.91805
159.58432
158.31554
157.2461
156.31678
155.56038
157.39694
158.42304
158.37922
158.31144
157.97687
157.47705
156.90649
156.24785
155.56201
153.79767
154.3336
154.45968
154.68315
154.70465
154.64911
154.52559
154.29354
153.93346
151.42091
151.73514
151.7115
151.89114
151.90426
151.9347
151.90509
151.86897
151.71188
149.65967
149.84415
149.82418
149.90492
149.88119
149.88008
149.8478
149.83804
149.76845
148.05813
148.18288
148.12851
148.21339
148.15028
148.17612
148.10654
148.093
148.0216
146.63345
146.67475
146.63597
146.65945
146.6122
146.59694
146.54984
146.51585
146.46213
145.26015
145.25349
145.18193
145.19934
145.1158
145.11523
145.03802
145.01164
144.94172
143.953
143.88537
143.81647
143.76242
143.68859
143.62885
143.57006
143.51751
143.45566
142.06258
140.69117
139.19253
137.46825
135.5037
132.94863
129.89871
126.22234
123.40133
142.14315
140.76233
139.24431
137.49289
135.44096
132.87092
129.68716
126.10659
122.62615
142.16437
140.78357
139.2218
137.44911
135.31158
132.70953
129.4211
125.73481
121.7019
142.24712
140.82619
139.28514
137.44116
135.30888
132.57194
129.21286
125.19378
120.70722
142.27164
140.87993
139.28486
137.47378
135.25684
132.51031
128.99308
124.7114
119.75313
142.37171
140.94462
139.35805
137.50984
135.28451
132.46608
128.88239
124.20886
118.89188
142.40893
141.01937
139.40966
137.60334
135.32267
132.5523
128.8308
124.0169
118.03768
142.49436
141.0722
139.47566
137.6335
135.3898
132.53387
128.84495
123.77487
119.38177
142.61056
141.21007
139.61563
137.82819
135.57544
132.85783
129.02693
124.08299
116.77551
123.93674
126.5834
129.76003
132.01475
133.52179
134.93499
136.30238
137.64711
138.93139
122.77673
125.72697
129.38257
131.76541
133.34024
134.82941
136.27921
137.66346
138.97388
121.39792
124.96456
129.08243
131.51795
133.12393
134.65923
136.16048
137.58513
138.91891
119.55292
124.1341
128.83526
131.33887
133.0531
134.65903
136.21538
137.65135
138.99289
117.22976
123.07412
128.33727
130.87774
132.68975
134.4051
136.04016
137.52851
138.89951
114.47675
122.94479
128.53391
130.94798
132.80876
134.5389
136.16965
137.63945
139.00067
108.91374
121.23326
127.89205
130.3233
132.3862
134.27362
135.99261
137.50452
138.89506
104.87499
121.71203
128.37283
130.54313
132.55982
134.42772
136.11827
137.60734
138.98071
94.212736
120.19133
127.9628
130.18144
132.34013
134.30457
136.03762
137.53616
138.92665
140.18275
141.40315
142.65401
143.9247
145.2544
146.61875
148.05578
149.56705
151.19101
140.22038
141.45126
142.69668
143.97999
145.30723
146.69024
148.13389
149.66699
151.29521
140.18409
141.43254
142.69381
143.99401
145.33245
146.73214
148.1847
149.73578
151.37831
140.24773
141.50322
142.76015
144.06704
145.40422
146.81242
148.26966
149.83462
151.48644
140.17497
141.45005
142.72541
144.04628
145.39672
146.81947
148.2941
149.87821
151.54669
140.26125
141.5291
142.79518
144.11357
145.46068
146.88529
148.3592
149.9478
151.61993
140.17861
141.46654
142.75214
144.08519
145.44395
146.87908
148.3642
149.96549
151.64894
140.25428
141.53162
142.81071
144.13721
145.49384
146.92647
148.41165
150.0127
151.6977
140.20944
141.49726
142.78134
144.11633
145.47456
146.91356
148.3997
150.00694
151.69383
152.92771
154.80851
156.82912
159.00059
161.30638
163.76803
166.32046
169.00036
170.91325
153.05731
154.94877
157.00831
159.2215
161.6149
164.17769
166.88873
169.70118
171.76836
153.16705
155.08218
157.18234
159.44033
161.91981
164.58708
167.44505
170.35338
172.62569
153.29488
155.22546
157.3612
159.65137
162.20237
164.93597
167.91998
170.93917
173.47557
153.37524
155.32543
157.49057
159.81265
162.4209
165.21711
168.33376
171.48071
174.31976
153.459
155.42001
157.6075
159.95122
162.60789
165.4519
168.70486
171.97212
175.15121
153.50353
155.47456
157.68309
160.04284
162.7413
165.61717
168.99736
172.38814
175.97569
153.55542
155.52937
157.74886
160.11621
162.84598
165.73885
169.23746
172.70629
176.94565
153.55745
155.53757
157.76236
160.14142
162.878
165.79882
169.3508
172.90901
177.08387
171.85398
164.71473
161.72252
158.59893
155.40487
152.30272
149.30922
146.39714
143.54343
173.0187
165.52588
162.44525
159.18626
155.91705
152.73578
149.72833
146.76934
143.90179
174.11804
166.26332
163.11482
159.77908
156.43465
153.20043
150.16383
147.18449
144.30257
175.23668
166.94016
163.70811
160.25257
156.89661
153.5913
150.5574
147.52191
144.65007
176.41094
167.78886
164.42131
160.87303
157.44554
154.12983
151.04469
148.01878
145.11082
177.57634
168.35376
164.90318
161.25521
157.82116
154.41954
151.33515
148.24899
145.34955
179.00403
169.42667
165.66618
161.95705
158.47169
155.03967
151.92617
148.8269
145.91991
179.74852
169.70181
165.89041
162.12517
158.63942
155.16331
152.04473
148.92131
146.01173
182.21578
171.33875
166.87765
162.98673
159.45235
155.92257
152.7642
149.60913
146.68703
140.67685
137.80481
134.90491
131.97643
129.00248
125.97656
122.8793
119.70745
116.44687
141.00098
138.13446
135.20746
132.29094
129.29481
126.28003
123.1653
120.00004
116.72316
141.40531
138.53487
135.61873
132.70008
129.71838
126.70591
123.61131
120.45808
117.20411
141.71098
138.857
135.9148
133.01038
130.01364
127.01216
123.91195
120.76575
117.51664
142.18351
139.31177
136.37636
133.47132
130.47307
127.48769
124.3766
121.26636
117.99066
142.38809
139.52968
136.58042
133.6823
130.68402
127.6963
124.60106
121.47595
118.24365
142.94745
140.09581
137.1338
134.25366
131.23963
128.28487
125.16472
122.0967
118.8021
143.03069
140.17677
137.21886
134.33229
131.33046
128.36168
125.26581
122.17098
118.93941
143.68826
140.83874
137.86987
134.99956
131.98841
129.04638
125.94078
122.89046
119.61348
112.7048
108.39965
104.00793
99.434427
94.781975
90.426157
86.297444
80.408202
72.639089
113.03004
108.81938
104.51949
100.0798
95.53055
91.354941
87.606493
82.514216
75.767627
113.55535
109.43755
105.25949
100.90127
96.565795
92.302777
88.813498
83.695406
78.35125
113.94195
109.94732
105.86296
101.61639
97.347963
93.185688
89.983368
86.636729
80.795039
114.48413
110.53092
106.6323
102.41805
98.33515
94.049966
91.195981
86.699421
89.202257
114.78665
111.01461
107.12119
103.08749
98.916019
94.774991
91.180579
90.5882
89.464895
115.44883
111.70531
108.09192
104.0798
100.1815
95.900182
92.611521
86.910938
111.12735
115.5965
112.011
108.3249
104.52736
100.49662
96.337979
91.548829
89.097332
100.21016
116.40341
112.94158
109.55091
105.87937
102.24839
98.22543
95.689478
77.899903
139.03543
53.100215
39.409691
40.824527
38.329577
36.317482
40.406447
42.946209
43.760912
43.287667
54.310571
38.727732
40.966835
39.025403
39.266231
41.201509
43.193266
43.815825
43.453908
54.658475
37.822591
41.38777
38.883657
38.31956
41.435511
43.381868
43.903276
43.592775
52.911432
36.199159
42.160356
38.91841
40.185185
41.834533
43.534253
44.081505
43.719532
48.18457
34.111006
42.750314
39.101494
40.04932
42.217606
43.72318
44.21625
43.877052
42.824767
34.546947
44.02335
38.672164
40.812368
42.66903
43.843844
44.381873
44.013151
45.16041
46.747976
41.956829
39.424048
41.165071
43.010508
43.994759
44.527659
44.142351
45.012998
31.322101
42.573073
38.81366
41.47771
43.268217
44.072652
44.64321
44.22089
-31.078742
54.320042
39.946634
39.607427
42.365314
43.55104
44.229879
44.727488
44.263013
42.176402
40.701624
38.618194
35.754123
32.838396
29.624754
27.114405
18.176359
22.242674
42.451451
40.930554
38.673138
35.848994
32.860043
29.089629
26.107048
18.349735
23.525249
42.540494
40.893456
38.558949
35.49552
32.385129
28.315851
24.686738
18.581455
23.674164
42.659127
40.973958
38.47284
35.297982
31.969361
27.832305
23.911224
18.748549
25.714398
42.806534
41.040011
38.406947
35.125647
31.560535
27.383228
23.386589
20.760495
27.667624
42.919839
41.125528
38.367811
34.950926
31.228702
27.045981
23.316081
22.710038
29.597752
43.024678
41.142776
38.267035
34.671104
30.821947
26.672765
23.800905
24.880771
32.228633
43.081867
41.180871
38.223198
34.542601
30.606556
26.760137
24.014537
26.352711
33.336171
43.092331
41.047242
37.906479
33.993549
29.94374
26.250496
24.648916
28.825618
36.357874
23.013954
22.80471
23.129224
26.223726
29.258139
33.055764
32.20973
29.318656
26.642937
23.850828
22.427346
21.790848
24.920385
28.895225
33.101995
33.349994
31.438499
30.124392
24.711454
22.799281
22.718497
24.880475
28.574791
32.509057
33.856118
33.306131
32.951534
26.162965
22.472093
21.814968
23.837422
28.431347
31.706401