/*--------------------------------*- C++ -*----------------------------------*\
  =========                 |
  \\      /  F ield         | OpenFOAM: The Open Source CFD Toolbox
   \\    /   O peration     | Website:  https://openfoam.org
    \\  /    A nd           | Version:  11
     \\/     M anipulation  |
\*---------------------------------------------------------------------------*/
FoamFile
{
    format      ascii;
    class       surfaceScalarField;
    location    "4.3";
    object      phi;
}
// * * * * * * * * * * * * * * * * * * * * * * * * * * * * * * * * * * * * * //

dimensions      [0 3 -1 0 0 0 0];

internalField   nonuniform List<scalar> 
8667
(
15.887932
1.8893974
0.0004481256
13.988697
1.8647437
0.034491784
12.088122
1.8265608
0.074014512
10.179806
1.7155122
0.19280319
8.2903733
1.5743847
0.31504822
6.4113771
1.369321
0.50967515
4.5625488
1.1056946
0.74313372
2.7678743
0.74371937
1.0509552
0.12045058
1.6125449
1.0348788
15.886067
3.7811084
13.984088
3.7667225
12.081784
3.728865
10.171853
3.6254431
8.276052
3.4701859
6.4000742
3.2452988
4.5457724
2.9599964
2.7693893
2.5201024
1.8482614
1.0415786
15.884628
5.6742588
13.983503
5.6678473
12.074258
5.6381101
10.165906
5.5337948
8.259823
5.3762689
6.3829812
5.1221407
4.5350929
4.8078847
2.7523767
4.3028186
3.5911246
1.0095135
15.882998
7.5690388
13.97901
7.5718354
12.073927
7.5431933
10.162841
7.4448809
8.2522912
7.2868183
6.3684301
7.0060017
4.510969
6.6653458
2.7436725
6.0701151
5.3169256
1.0178716
15.88312
9.4636945
13.979613
9.4753429
12.072173
9.4506336
10.161689
9.355364
8.2431844
9.2053233
6.3550279
8.8941583
4.4919683
8.5284053
2.7300874
7.831996
7.0156159
1.0313971
15.883965
11.357507
13.978756
11.380552
12.071416
11.357974
10.158441
11.268339
8.2400811
11.123683
6.340326
10.793913
4.4708886
10.397843
2.7110587
9.5918259
8.6897412
1.0369333
15.885059
13.250226
13.982029
13.283582
12.073071
13.266932
10.158513
13.182897
8.2382677
13.043928
6.3291345
12.703047
4.4480584
12.278919
2.6959314
11.343953
10.362531
1.0231421
15.886692
15.141312
13.984535
15.185739
12.074563
15.176904
10.158265
15.099194
8.2367039
14.96549
6.3203425
14.619408
4.4278809
14.171381
2.6695077
13.102326
12.015122
1.0169164
15.88861
17.030481
13.988249
17.0861
12.077899
17.087254
10.160871
17.016222
8.2332693
16.893091
6.3115968
16.54108
4.4055852
16.077392
2.6486459
14.859265
13.654177
1.009591
18.856196
15.952063
20.678854
15.95512
22.498296
15.958343
24.314928
15.961148
26.12835
15.964337
27.938695
15.967435
29.747255
15.96922
31.550067
15.974968
15.973018
33.354828
18.92442
14.113742
20.759719
14.119821
22.591857
14.126205
24.418404
14.134601
26.241155
14.141586
28.056165
14.152426
29.867871
14.157514
31.676166
14.166673
14.16845
33.480734
18.938739
12.262258
20.790885
12.267675
22.643247
12.273842
24.494201
12.283647
26.343476
12.29231
28.18985
12.306051
30.032564
12.314801
31.872622
12.326615
12.335745
33.705327
18.875752
10.402728
20.738278
10.40515
22.602337
10.409783
24.470201
10.415783
26.337247
10.425265
28.20758
10.435718
30.072516
10.449864
31.937064
10.462067
10.479243
33.793566
18.763628
8.5321907
20.641939
8.5268395
22.522644
8.5290774
24.410783
8.5276438
26.299962
8.5360864
28.198758
8.5369216
30.099708
8.5489148
32.011597
8.5501778
8.5636806
33.92716
18.402252
6.6710194
20.2756
6.6534914
22.158681
6.6459963
24.055402
6.6309228
25.959399
6.6320897
27.87192
6.6244001
29.786324
6.6345115
31.702165
6.6343362
6.6477948
33.618051
17.920386
4.8280256
19.788467
4.7854102
21.679184
4.7552794
23.602613
4.7074936
25.550913
4.6837897
27.523197
4.6521162
29.515768
4.6419403
31.524102
4.6260022
4.6253362
33.546561
16.547275
3.1400162
18.319358
3.0133273
20.159963
2.9146746
22.063051
2.8044053
24.007233
2.7396071
25.996237
2.6631124
28.004007
2.6341702
30.041377
2.5886321
2.5838671
32.082847
15.191504
1.6026893
16.977063
1.2277681
19.097843
0.79389435
21.364652
0.53759583
23.682628
0.42163163
26.052629
0.29311108
28.420803
0.26599664
30.789732
0.21970318
33.156975
0.21662386
33.248835
0.10599357
33.146761
0.10207376
33.04806
0.098701056
32.95199
0.096069968
32.861448
0.090541804
32.771566
0.089882014
32.687881
0.08368561
32.603835
0.084045148
0.077311899
32.526524
33.395148
0.19158002
33.310935
0.18628628
33.230046
0.17959033
33.149026
0.17709057
33.071888
0.1676796
32.995123
0.16664641
32.922681
0.1561276
32.850134
0.15659248
0.14524312
32.782203
33.618986
0.2779203
33.534141
0.27113171
33.448334
0.26539693
33.365002
0.26042291
33.277772
0.25490968
33.196148
0.24827014
33.110808
0.24146728
33.034107
0.23329349
0.2257846
32.953566
33.703872
0.3676147
33.618289
0.35671467
33.53295
0.35073589
33.452349
0.34102338
33.37143
0.33582942
33.296819
0.32288107
33.221001
0.31728471
33.153693
0.30060173
0.29504416
33.084433
33.831584
0.46319063
33.740042
0.44825691
33.651673
0.43910505
33.566309
0.42638727
33.4842
0.41793801
33.406136
0.4009449
33.331321
0.39209978
33.260881
0.3710424
0.36299553
33.192929
33.536712
0.54452959
33.462695
0.52227428
33.393304
0.50849623
33.330972
0.4887189
33.27205
0.47685953
33.219653
0.4533424
33.169132
0.44262029
33.124134
0.41604103
0.40579828
33.081331
33.488136
0.60295415
33.4421
0.5683104
33.398316
0.55228091
33.363369
0.52366552
33.329469
0.51075964
33.299189
0.48362199
33.267578
0.47423155
33.233547
0.45007204
0.44433548
33.19501
32.181063
0.50473753
32.283065
0.46630843
32.398083
0.43726356
32.511112
0.41063617
32.632955
0.38891621
32.747574
0.36900331
32.852671
0.36913472
32.929151
0.37359161
0.3939785
32.979508
33.496284
0.16542817
33.787271
0.1753215
34.043737
0.1807975
34.244535
0.20983839
34.384699
0.24875198
34.446277
0.30742597
34.445879
0.36953213
34.359088
0.46038248
34.238901
0.51416579
34.184467
0.5331576
-0.47872401
33.982888
0.51225901
-0.31067983
33.699297
0.49402725
-0.2104363
33.397065
0.47529326
-0.17306062
33.085036
0.46315482
-0.15112583
32.752477
0.45460266
-0.12204364
32.429298
0.43852959
-0.11535099
32.094867
0.44073165
-0.10630041
0.43244577
31.763486
-0.10106544
33.096736
0.41592956
33.177938
0.43105721
33.227175
0.44479056
33.248264
0.45420463
33.248544
0.46287393
33.232527
0.47062056
33.192574
0.47848267
33.147601
0.4857044
0.49717593
33.082871
33.259662
0.35127759
33.324905
0.36581372
33.381538
0.38815758
33.434836
0.40090648
33.475695
0.42201569
33.511961
0.43435388
33.534827
0.45561746
33.551471
0.46906002
0.49096161
33.557685
33.154807
0.27780204
33.231507
0.28911288
33.30689
0.31277446
33.384075
0.32372237
33.457984
0.34810675
33.533186
0.35915108
33.603911
0.38489292
33.676397
0.39657387
0.42401909
33.743339
33.247792
0.22293912
33.306426
0.23047907
33.367384
0.25181689
33.431142
0.25996429
33.495474
0.28377431
33.562663
0.29196274
33.629949
0.31760645
33.700452
0.32607075
0.35438423
33.770087
33.148034
0.1593385
33.209787
0.16872647
33.28089
0.18071323
33.351534
0.18932048
33.429028
0.20628021
33.509185
0.21180581
33.592029
0.2347625
33.678659
0.2394409
0.26602031
33.767023
33.009231
0.10367394
33.060432
0.11752488
33.123519
0.1176263
33.18157
0.13126943
33.253309
0.13454157
33.319838
0.14527695
33.401573
0.15302664
33.478156
0.16285835
0.17338941
33.570787
32.83848
0.047397101
32.900207
0.055797286
32.961611
0.056222963
33.02774
0.065140237
33.097376
0.064905772
33.1682
0.074452769
33.247234
0.073991988
33.325866
0.084227033
0.084921204
33.414334
32.573921
32.629718
32.685941
32.751081
32.815987
32.89044
32.964432
33.048659
33.13358
33.228028
-0.09444845
33.325709
-0.097680228
33.430861
-0.10515244
33.54479
-0.11392916
33.660983
-0.11619332
33.79298
-0.13199704
33.924863
-0.13188281
34.075954
-0.15109089
-0.15144442
34.227399
33.502413
-0.18252733
33.602973
-0.19824069
33.70324
-0.20541893
33.817205
-0.2278942
33.931125
-0.23011352
34.061278
-0.26215045
34.191254
-0.26185835
34.337974
-0.29781083
-0.29732393
34.483853
33.658906
-0.27064664
33.761861
-0.30119557
33.86244
-0.30599805
33.974613
-0.34006661
34.089578
-0.34507878
34.211713
-0.3842861
34.33929
-0.38943535
34.474822
-0.43334209
-0.43822067
34.615718
33.859705
-0.36332845
33.952751
-0.39424199
34.05128
-0.40452677
34.150138
-0.43892508
34.256195
-0.45113559
34.362795
-0.49088589
34.47845
-0.50509086
34.596255
-0.55114673
-0.56671721
34.724752
33.843658
-0.43689999
33.915856
-0.46643973
33.993485
-0.48215534
34.070371
-0.5158114
34.154604
-0.53536802
34.238623
-0.57490531
34.332095
-0.59856246
34.426509
-0.64556147
-0.67252269
34.532315
33.813386
-0.50694608
33.877924
-0.53097843
33.94701
-0.55124148
34.010634
-0.57943475
34.080316
-0.60505003
34.144901
-0.63949093
34.216741
-0.6704018
34.28302
-0.71184036
-0.74752652
34.358023
33.559915
-0.50917534
33.552919
-0.52398289
33.548493
-0.54681507
33.53211
-0.56305173
33.519243
-0.59218313
33.499392
-0.6196407
33.4848
-0.65580965
33.458766
-0.68580555
-0.73594554
33.447185
33.007067
-0.43337209
32.921476
-0.43839153
32.827335
-0.45267384
32.719331
-0.45504798
32.604721
-0.47757305
32.479673
-0.49459244
32.344807
-0.52094421
32.207121
-0.54811913
-0.59939755
32.070573
31.441815
-0.11170027
31.106712
-0.10328907
30.774798
-0.12075933
30.450273
-0.13052378
30.101769
-0.12906816
29.777756
-0.17057957
29.430887
-0.17407578
29.085135
-0.20236734
28.742568
-0.25683009
0.62675031
28.37137
-0.25555196
0.7810859
31.916238
0.79894722
33.429323
0.72770283
34.429268
0.62009283
34.639925
0.48808334
34.856761
0.33747024
34.766332
0.17136127
34.649962
34.39876
0.69367151
28.02089
-0.34319178
0.83021943
31.77969
0.83879566
33.420747
0.75724168
34.510822
0.63641155
34.760755
0.49214343
35.001029
0.33710588
34.921369
0.17328155
34.813787
34.572041
0.75256101
27.656379
-0.38805004
0.89619682
31.636054
0.90234111
33.414603
0.82138595
34.591777
0.69754115
34.8846
0.54795457
35.150616
0.3810174
35.088306
0.19526609
34.999538
34.767307
0.83542101
27.271928
-0.45097022
0.96029238
31.511183
0.94653425
33.428361
0.85281435
34.685497
0.71398706
35.023427
0.55067261
35.31393
0.37927606
35.259703
0.1972197
35.181594
34.964527
0.90764348
26.926161
-0.56187599
1.0417039
31.377122
1.0279376
33.442127
0.9276864
34.785748
0.78400494
35.167108
0.61346353
35.484472
0.42812714
35.445039
0.2209501
35.388771
35.185477
1.0171847
26.626995
-0.71801935
1.1065983
31.287709
1.0757265
33.472999
0.9599036
34.901571
0.79952654
35.327485
0.6138561
35.670142
0.42574252
35.633153
0.22435141
35.590163
35.409829
1.1508947
26.266099
-0.78999807
1.2220732
31.21653
1.1772163
33.517856
1.047234
35.031553
0.87920399
35.495516
0.683681
35.865665
0.47833652
35.838497
0.2490088
35.81949
35.658837
1.2722707
26.084396
-1.090568
1.2980088
31.190792
1.2277742
33.588091
1.0776818
35.181645
0.89168238
35.681515
0.68039692
36.076951
0.47303225
36.045862
0.2521409
36.040382
35.910978
1.4905326
25.969524
-1.3756609
1.4511973
31.230127
1.3591405
33.680147
1.1878327
35.352953
0.98764688
35.881701
0.76109703
36.3035
0.53290137
36.274058
0.27969137
36.293592
36.19067
0.090168286
36.100501
0.22480259
36.158957
0.35995833
36.138902
0.48100368
36.182455
0.59455511
35.768149
0.68106117
35.266447
0.7494186
33.61179
0.59714018
31.382406
26.471083
0.095581059
0.074809874
36.025692
0.1798174
36.05395
0.29481245
36.023907
0.40822238
36.069045
0.51107267
35.665299
0.58921502
35.188305
0.64505578
33.555949
0.57629254
31.451169
26.509213
0.53816295
0.084459382
35.941232
0.21014151
35.928268
0.33497093
35.899077
0.44356827
35.960448
0.53114741
35.57772
0.58583051
35.133622
0.6497721
33.492008
0.61518138
31.48576
26.540083
0.58431138
0.072981372
35.868251
0.16985409
35.831395
0.27165084
35.797281
0.37400493
35.858094
0.45972283
35.492002
0.5153257
35.078019
0.54808974
33.459244
0.55560048
31.478249
26.510211
0.58547266
0.084659224
35.783592
0.20836667
35.707687
0.32561026
35.680037
0.42439618
35.759308
0.49592566
35.420473
0.52504974
35.048895
0.55521857
33.429075
0.53468391
31.498784
26.543482
0.501413
0.074035078
35.709557
0.17076219
35.61096
0.2718365
35.578963
0.37263901
35.658505
0.43966622
35.353445
0.46801439
35.020547
0.46417242
33.432917
0.44391324
31.519043
26.472991
0.51440359
0.093543856
35.616013
0.2215518
35.482952
0.33228814
35.468226
0.42373
35.567063
0.48329871
35.293877
0.49384462
35.010001
0.48907382
33.437687
0.44455663
31.56356
26.521114
0.39643412
0.085948491
35.530064
0.19036142
35.378539
0.30104044
35.357547
0.40644451
35.461659
0.45512948
35.245192
0.46869298
34.996437
0.42195082
33.48443
0.39233722
31.593174
26.490196
0.42325466
0.11144027
35.418624
0.25245982
35.23752
0.36629709
35.24371
0.46040238
35.367554
0.50833675
35.197257
0.50945961
34.995314
0.46512398
33.528765
0.42873292
31.629565
26.557207
0.36172253
-0.40063855
26.53172
0.42612565
-0.42424608
31.653172
-0.51855132
33.623071
-0.51107528
34.987838
-0.46725688
35.153439
-0.35454886
35.254846
-0.22792707
35.117088
-0.10506661
35.114659
35.313557
-0.45882137
26.61123
0.37931063
-0.48867615
31.683027
-0.57090089
33.705295
-0.57745487
34.994392
-0.53376989
35.109754
-0.42789096
35.148967
-0.30406909
34.993266
-0.14273702
34.953327
35.17082
-0.44792412
26.604222
0.45493275
-0.46815711
31.70326
-0.60951377
33.846652
-0.61624432
35.001123
-0.57102587
35.064535
-0.43935996
35.017301
-0.28920699
34.843113
-0.13722085
34.801341
35.033599
-0.51803999
26.705589
0.41667272
-0.55720576
31.742426
-0.68718286
33.976629
-0.70087629
35.014816
-0.65055559
35.014215
-0.52112673
34.887872
-0.37002437
34.692011
-0.18096084
34.612278
34.852639
-0.51755146
26.704902
0.5182388
-0.55834128
31.783216
-0.75742467
34.175712
-0.77124079
35.028632
-0.70761462
34.950589
-0.54757333
34.727831
-0.36865487
34.513093
-0.18126664
34.424889
34.671372
-0.59741478
26.807562
0.49475456
-0.69179968
31.877601
-0.8796149
34.363528
-0.88315224
35.03217
-0.80371286
34.871149
-0.63730741
34.561425
-0.44897189
34.324757
-0.2243466
34.200264
34.447025
-0.60023835
26.837057
0.57074326
-0.72925149
32.006614
-0.98588705
34.620163
-0.98018775
35.02647
-0.88306463
34.774026
-0.68157553
34.359936
-0.4600218
34.103203
-0.23099923
33.971242
34.216026
-0.68068276
27.029557
0.48818252
-0.90921464
32.235146
-1.149894
34.860843
-1.1165421
34.993119
-0.98814791
34.645632
-0.77119758
34.142986
-0.53724524
33.869251
-0.27095583
33.704952
33.94507
-0.70005619
27.207762
0.52185086
-1.0001372
32.535227
-1.2902131
35.150918
-1.2335507
34.936456
-1.084122
34.496203
-0.82594625
33.88481
-0.55423391
33.597539
-0.27860828
33.429326
33.666462
0.43046536
33.235997
0.8553115
33.00448
1.2553317
33.197518
1.6502922
33.48985
1.9560787
34.190417
2.1383396
34.754195
1.8889392
35.400319
1.2954909
33.128675
27.900459
0.6027943
0.43622577
32.799771
0.87491304
32.565793
1.3206708
32.751761
1.7682397
33.042281
2.126519
33.832137
2.3781331
34.502581
2.1359321
35.64252
1.4667796
33.797827
28.681525
0.68571409
0.46024119
32.33953
0.92798967
32.098045
1.3945618
32.285189
1.875235
32.561608
2.3008936
33.406479
2.6228178
34.180657
2.548726
35.716612
1.8129561
34.533597
29.954208
0.5402726
0.46083079
31.878699
0.94333906
31.615536
1.4474165
31.781111
1.9730658
32.035958
2.4443228
32.935222
2.8542461
33.770734
2.8689978
35.70186
2.2418949
35.1607
31.542147
0.65395544
0.4672577
31.411441
0.97017536
31.112619
1.4961269
31.25516
2.0549386
31.477147
2.5993739
32.390786
3.1051178
33.26499
3.3275751
35.479403
2.7947454
35.69353
33.568071
0.76882137
0.45602106
30.95542
0.97060716
30.598033
1.5265236
30.699243
2.117745
30.885925
2.7073951
31.801136
3.2934231
32.678962
3.6508641
35.121962
3.3951695
35.949225
35.769522
1.1937192
0.44946043
30.50596
0.96932479
30.078168
1.5396276
30.12894
2.1652669
30.260286
2.8321139
31.134289
3.4815086
32.029567
4.0589876
34.544483
4.0405275
35.967685
37.422887
2.387162
0.42520159
30.080758
0.94388629
29.559483
1.538697
29.53413
2.1907642
29.608219
2.8811426
30.443911
3.5878072
31.322903
4.2056774
33.926612
4.6339581
35.539404
38.810001
3.2468438
0.42863029
29.652128
0.92952416
29.05859
1.5191167
28.944537
2.20675
28.920585
2.9496983
29.700963
3.7344292
30.538172
4.5811569
33.079885
5.533862
34.586699
39.696671
4.6471926
-1.1096637
30.761791
-2.0348303
29.983756
-2.8764133
29.78612
-3.7105699
29.754742
-4.6503138
30.640706
-5.8629539
31.750812
-7.5265553
34.743486
-9.9825072
37.042651
42.470062
-12.755898
-1.1233079
31.885099
-2.0668064
30.927255
-2.9124879
30.631802
-3.7075605
30.549814
-4.6005667
31.533713
-5.8503813
33.000626
-7.6786932
36.571798
-10.117631
39.481588
43.924063
-11.571631
-1.2066222
33.091722
-2.129446
31.850078
-2.9365539
31.438909
-3.6884604
31.301721
-4.5766043
32.421857
-5.8793402
34.303362
-7.8556075
38.548065
-9.8568977
41.482878
40.260481
-6.1933163
-1.2423259
34.334047
-2.1729759
32.780728
-2.9777142
32.243648
-3.6733611
31.997368
-4.5311655
33.279661
-5.8287278
35.600925
-7.7753075
40.494645
-9.3453588
43.05293
31.620235
-0.70511217
-1.3448906
35.678938
-2.2612592
33.697097
-3.0247449
33.007133
-3.6633448
32.635968
-4.4662322
34.082548
-5.7792737
36.913966
-7.5637077
42.279079
-8.7643697
44.253592
22.862974
-0.0071087274
-1.3756063
37.054544
-2.3271455
34.648636
-3.0883879
33.768376
-3.6485593
33.196139
-4.3962927
34.830282
-5.7123877
38.230061
-7.3543272
43.921018
-8.0606101
44.959874
14.799743
0.0026207183
-1.4896464
38.544191
-2.4458449
35.604835
-3.1632721
34.485803
-3.6537727
33.68664
-4.3187919
35.495301
-5.5646197
39.475889
-7.1030702
45.459469
-7.4205189
45.277323
7.4675962
-0.088372211
-1.5445213
40.088712
-2.5298475
36.590161
-3.2567287
35.212684
-3.6478113
34.077722
-4.2279359
36.075426
-5.401138
40.649091
-6.8109204
46.869251
-5.8407127
44.307115
1.0807417
0.54614185
-1.6652924
41.754004
-2.6747281
37.599596
-3.3556376
35.893594
-3.6725636
34.394648
-4.1544813
36.557343
-5.1046867
41.599296
-6.1614263
47.925991
-2.8407638
40.986453
-3.1992894
1.4392673
1.2391912
-5.085847
0.64736643
2.7208866
39.504757
2.1247966
48.522081
1.8683442
41.855749
2.0022037
36.423484
2.1497156
34.247136
1.8555236
36.187786
1.2096312
38.245489
42.963636
1.1347318
-6.5846257
0.36404698
2.4526226
38.186867
1.9172883
49.057415
1.8465604
41.926477
2.093978
36.176066
2.2798804
34.061234
2.0026906
36.464976
1.3035659
38.944614
44.267201
0.95743357
-8.0696082
0.52754897
2.2523188
36.891981
1.7775276
49.532206
1.7658621
41.938142
2.1579125
35.784016
2.4229102
33.796236
2.0975162
36.79037
1.3380849
39.704045
45.605286
0.75364571
-9.4992499
0.67599599
1.9915221
35.654105
1.5962787
49.92745
1.7702591
41.764162
2.2837408
35.270534
2.5677176
33.51226
2.2517428
37.106344
1.4380804
40.517707
47.043367
0.50289666
-10.959116
0.95696928
1.8074199
34.349582
1.4448701
50.29
1.6924595
41.516572
2.3781078
34.584886
2.7326659
33.157701
2.3491274
37.489883
1.4346246
41.43221
48.477991
0.34043569
-12.305616
1.006065
1.557483
33.132534
1.2714564
50.576026
1.7110942
41.076934
2.5298621
33.766118
2.8880434
32.79952
2.4981349
37.879791
1.5055792
42.424766
49.98357
0.20628685
-13.362296
0.85039294
1.347659
31.991162
1.1104267
50.813258
1.6348372
40.552524
2.6420257
32.758929
3.0667692
32.374777
2.5780924
38.368468
1.5038601
43.498998
51.48743
0.10827271
-12.97127
-0.49929834
1.0945914
31.004843
0.92753271
50.980317
1.6589073
39.821149
2.834844
31.582993
3.226487
31.983134
2.7114766
38.883478
1.5528764
44.657598
53.040307
-0.052243077
-12.557264
-0.36176316
0.81696549
30.135635
0.74736042
51.049922
1.5832557
38.985254
2.9575646
30.208684
3.4093629
31.531335
2.7765008
39.51634
1.5169052
45.917194
54.557212
-1.5945508
-9.3628082
-1.5999049
-5.0751849
33.616269
-5.1226219
51.097359
-0.47124332
34.333875
4.322398
25.415042
5.4692867
30.384447
4.527384
40.458243
2.2649498
48.179628
56.822162
-2.0828907
-4.9566514
-2.323266
-5.8279885
37.361367
-5.0542646
50.323635
0.88228821
28.397323
5.9977237
20.299607
6.4568713
29.925299
4.4188866
42.496228
1.7435431
50.854972
58.565705
-2.9818321
-0.48816736
-1.4866519
-6.4409599
40.820494
-4.2587173
48.141392
3.0626349
21.07597
7.2690774
16.093164
6.5450703
30.649306
4.2375883
44.80371
1.4720948
53.620465
60.0378
-3.7265755
3.9778589
-0.73945071
-6.6933118
43.787231
-3.5571053
45.005186
4.029359
13.489506
8.2022999
11.920223
6.8524134
31.999192
3.6061272
48.049996
0.62735619
56.599236
60.665156
-4.4512163
8.6941391
-0.26506373
-6.8481564
46.184171
-2.9058888
41.062918
4.5233478
6.0602695
8.3210013
8.1225699
6.1388545
34.181339
2.7467516
51.442099
0.12062556
59.225362
60.785781
-4.9940642
13.657335
0.03086818
-7.1407459
48.330853
-2.3034371
36.225609
5.2081656
-1.4513331
8.4521423
4.8785933
5.7022395
36.931242
1.7553688
55.38897
-0.70606131
61.686792
60.07972
-5.8123144
18.502068
0.96758147
-7.4330754
49.951614
-1.4336877
30.226222
6.0698466
-8.9548674
8.102583
2.8458569
4.3838184
40.650007
0.60479655
59.167991
-1.035679
63.327268
59.044041
-6.1502802
23.090265
1.562083
-7.1934836
50.994817
-0.070136874
23.102875
7.1078477
-16.132852
7.7952634
2.1584412
3.5187215
44.926548
-0.40307744
63.08979
-1.6319051
64.556096
57.412136
-7.0473955
2.5100856
27.627575
-6.5708801
50.518302
1.9409314
14.591063
7.3771285
-21.569049
6.6699161
2.8656536
1.6058576
49.990607
-1.9967131
66.692361
-1.8761425
64.435525
55.535994
-0.70782665
-39.735814
0.37559451
40.068047
0.56715897
-34.433524
33.158539
2.7373636
23.826762
-25.996967
4.3576527
50.863665
-52.483954
4.8988482
63.208592
-63.749787
5.314852
56.709232
-57.125236
7.7290945
22.595711
-25.009954
9.7536464
-18.134778
16.110226
-29.753136
28.478588
-0.76466214
-39.362034
0.39088145
0.40640415
-35.604591
2.4857377
21.747429
4.0758705
49.273532
4.6485905
62.635872
5.3151505
56.042672
8.268884
19.641978
10.731302
-20.597196
-31.15931
-0.83145576
-38.937722
0.40714444
0.26494763
-36.700994
2.2560385
19.756338
3.7940123
47.735558
4.4275512
62.002333
5.4383222
55.031901
9.0404193
16.039881
11.955017
-23.511794
-32.703144
-0.90180875
-38.456246
0.42033246
0.086860656
-37.689663
2.0530482
17.79015
3.5813708
46.207235
4.2595586
61.324145
5.7681035
53.523356
10.089223
11.718762
13.358244
-26.780816
-34.4005
-0.97741588
-37.914335
0.43550586
-0.11237084
-38.554708
1.8149689
15.86281
3.3491835
44.673021
4.1018214
60.571507
6.2713934
51.353784
11.33281
6.6573451
14.834087
-30.282093
-36.235237
-1.0498187
-37.311987
0.44747074
-0.28745751
-39.31707
1.6607938
13.914559
3.2289419
43.104873
4.1208509
59.679598
7.0013324
48.473303
12.771731
0.88694638
16.453013
-33.963375
-38.180112
-1.1277828
-36.647043
0.46283939
-0.44849059
-39.996362
1.5753023
11.890766
3.164708
41.515467
4.2412635
58.603043
8.0001853
44.714381
14.433869
-5.5467369
18.176534
-37.706041
-40.187485
-1.1852354
-35.934711
0.47290364
-0.55776716
-40.62383
1.5114853
9.8215135
3.0609792
39.965973
4.4312665
57.232755
9.2124172
39.93323
16.193565
-12.527885
19.926238
-41.438713
-42.238344
-1.2504324
0.48671994
-35.170999
-0.67579441
-41.198468
1.414989
7.73073
2.9144143
38.466548
4.7691473
55.378022
10.661261
34.041117
17.960384
-19.827008
21.600318
-45.078648
-44.305678
1.8879002
35.861221
-4.6401415
-33.10898
-3.4286666
-18.980905
24.297471
-8.9215896
-81.330448
86.823372
-8.935069
-82.973899
82.987379
-7.1581373
-66.247116
64.470183
-4.1056568
-47.731609
44.679129
-0.63161586
-35.596737
32.122696
2.0362135
-24.516116
21.848287
-25.699817
27.736031
2.6207712
38.194131
-4.9536804
-2.2883011
-14.071833
-7.8069157
-75.811833
-8.7685713
-82.012243
-7.8684076
-67.147279
-5.3017139
-50.298303
-2.4377752
-38.460676
0.98272912
-27.93662
-24.717088
2.8554696
40.213204
-4.8745434
-2.0473849
-9.1689787
-7.3133051
-70.545913
-8.425966
-80.899582
-7.447986
-68.12526
-5.3076083
-52.438681
-3.3181674
-40.450117
-0.093693516
-31.161094
-24.810782
3.4183386
41.295193
-4.5003272
-1.112119
-4.6385209
-6.3353228
-65.322709
-8.2746193
-78.960285
-7.9096384
-68.49024
-5.8654975
-54.482821
-3.8432864
-42.472328
-0.48893064
-34.51545
-25.299712
3.569006
41.211344
-3.4851566
-0.67599265
-0.39352213
-5.6760331
-60.322669
-7.6615337
-76.974785
-7.4195987
-68.732175
-5.7424152
-56.160005
-4.0377675
-44.176975
-1.2842891
-37.268928
-26.584001
3.7675005
39.703225
-2.2593814
0.13672024
3.2372584
-4.6254061
-55.560542
-7.2687294
-74.331461
-7.6443206
-68.356584
-6.0436089
-57.760717
-4.0631211
-46.157463
-1.5497261
-39.782323
-28.133727
3.8390434
36.671878
-0.80769563
0.66434509
6.4119564
-3.8394652
-51.056732
-6.3599137
-71.811013
-6.8530788
-67.863419
-5.9933278
-58.620468
-4.5150312
-47.63576
-2.378522
-41.918832
-30.512249
3.790365
32.811021
0.070492233
1.3364214
8.8658999
-2.6560107
-47.064299
-5.7217746
-68.745249
-6.7059748
-66.879219
-5.8181239
-59.508319
-4.2508916
-49.202992
-2.4541894
-43.715535
-32.966439
3.5768269
29.947091
-0.71289557
2.0041671
10.438559
-1.5568917
-43.50324
-4.4888071
-65.813334
-5.8007413
-65.567285
-5.6119864
-59.697073
-4.2666783
-50.5483
-2.6402193
-45.341994
-35.606658
0.2237542
39.068511
-39.292265
-0.040295949
44.864216
-44.600165
-0.62859513
47.28632
-46.698021
-1.6661301
52.065259
-51.027724
-3.0269863
54.215222
-52.854366
-4.3673518
54.814285
-53.47392
-4.4432224
47.269381
-47.19351
-1.4814003
11.285168
-14.24699
-18.271328
16.036249
0.753679
0.29063596
38.777875
0.077996914
45.076855
-0.46363381
47.827951
-1.5011116
53.102737
-2.8852915
55.599402
-4.2386166
56.16761
-4.2186929
47.249458
-1.2905026
8.3569774
-20.38219
0.82035986
0.31485231
38.463023
0.15454683
45.23716
-0.36309625
48.345594
-1.369684
54.109325
-2.7675815
56.997299
-4.1439642
57.543993
-3.9883239
47.093818
-1.0604125
5.4290661
-22.354967
0.9123644
0.38093627
38.082086
0.2607634
45.357333
-0.20115875
48.807516
-1.2070905
55.115257
-2.6272809
58.41749
-3.9850289
58.901741
-3.7268995
46.835688
-0.89300102
2.5951678
-24.182065
0.93409682
0.40108432
37.681002
0.33280602
45.425611
-0.10542259
49.245745
-1.0690526
56.078887
-2.495487
59.843924
-3.8863788
60.292633
-3.4781412
46.427451
-0.66120648
-0.22176662
-25.839723
0.99645177
0.47786283
37.203139
0.4300602
45.473414
0.044521064
49.631284
-0.905218
57.028626
-2.3372571
61.275963
-3.7070883
61.662464
-3.1977311
45.918094
-0.49094112
-2.9285571
-27.313472
0.98280763
0.48511109
36.718028
0.49937446
45.459151
0.14191781
49.988741
-0.77172955
57.942273
-2.2035763
62.70781
-3.6063282
63.065216
-2.888562
45.200329
-0.24732458
-5.5697949
-28.474623
0.91382706
0.55859623
36.159432
0.58317915
45.434568
0.29759044
50.274329
-0.59945997
58.839324
-2.0340711
64.142421
-3.4076925
64.438838
-2.563782
44.356419
-0.061467995
-8.0721091
-29.597064
1.0609739
0.55277386
0.645348
0.37137699
-0.48637291
-1.9112363
-3.2857322
-2.4325529
-0.066102588
0.28392429
3.0332078
11.917567
1.0854739
8.1686152
-19.382397
8.1703007
-47.195196
6.2012108
-51.50483
4.1083246
-50.76148
2.3287562
-49.248156
1.1647718
-45.534037
0.28763972
-43.723033
-39.004626
4.0587053
7.3885317
0.47033009
8.8614762
-24.185168
8.307531
-46.641251
6.254968
-49.452267
4.2162334
-48.722745
2.4797159
-47.511638
1.2967865
-44.351107
0.35897397
-42.785221
-38.645652
4.8471508
2.1700947
0.37128624
9.4197101
-28.757727
8.39498
-45.616521
6.3413859
-47.398673
4.351216
-46.732575
2.6149355
-45.775358
1.4013754
-43.137547
0.41590986
-41.799755
-38.229742
6.5655745
-4.2516254
-0.14385436
9.872762
-32.064915
8.3994421
-44.143201
6.3580413
-45.357272
4.4547903
-44.829324
2.7534757
-44.074043
1.5327618
-41.916833
0.50265482
-40.769648
-37.727087
8.6455205
-12.508649
-0.38849663
9.9448177
-33.364212
8.331905
-42.530288
6.393745
-43.419112
4.5586678
-42.994247
2.8783906
-42.393766
1.6285757
-40.667018
0.55832395
-39.699397
-37.168763
9.4089556
-21.13685
-0.78075473
9.9189291
-33.874186
8.2746182
-40.885977
6.3762123
-41.520706
4.6281837
-41.246218
2.9952984
-40.760881
1.7512365
-39.422957
0.64665131
-38.594812
-36.522112
9.8733684
-28.144811
-2.8654079
9.9136796
-33.914497
8.1855509
-39.157848
6.3852057
-39.720361
4.726303
-39.587316
3.1160627
-39.150641
1.8329811
-38.139875
0.69528076
-37.457111
-35.826831
10.2828
-30.266839
-8.1607709
9.7977788
-33.429476
8.1229493
-37.483019
6.3809265
-37.978338
4.7564153
-37.962804
3.2055019
-37.599727
1.9388003
-36.873173
0.7790406
-36.297352
-35.04779
10.40656
-30.470383
-10.203016
9.6191603
-32.642077
8.0322955
-35.896154
6.3685546
-36.314597
4.822408
-36.416658
3.2951707
-36.07249
2.0011801
-35.579183
0.82414716
-35.120319
-34.223643
0.34618753
39.259269
-39.605457
0.59068866
38.807122
-39.051623
0.79654031
38.60765
-38.813501
0.93620069
38.249977
-38.389637
0.97314778
37.710176
-37.747123
0.9121911
36.346044
-36.285087
0.76442551
34.350221
-34.202455
0.57119973
30.364882
-30.171656
25.478866
-25.414168
0.50650152
0.41876966
38.840499
0.72337465
38.502517
0.93475513
38.396269
1.058884
38.125848
1.0980913
37.670968
1.0097971
36.434338
0.7885711
34.571447
0.53343019
30.620023
25.595506
0.41679096
0.47255133
38.367948
0.80280229
38.172266
1.0828742
38.116197
1.2772373
37.931485
1.3399148
37.608291
1.288134
36.486119
1.0990272
34.760554
0.82125053
30.8978
25.845699
0.5710573
0.54216272
37.825785
0.93886446
37.775564
1.2255068
37.829555
1.4152471
37.741744
1.5020298
37.521508
1.4390802
36.549069
1.1960253
35.003609
0.84594468
31.24788
26.190513
0.50113076
0.59393987
37.231845
1.0264816
37.343022
1.3933406
37.462696
1.6572589
37.477826
1.7767287
37.402038
1.7589161
36.566881
1.5623611
35.200164
1.2045829
31.605659
26.73708
0.65801614
0.66091105
36.570934
1.1596841
36.844249
1.533227
37.089153
1.808163
37.20289
1.9632514
37.24695
1.9395016
36.590631
1.7286148
35.41105
1.3348346
31.999439
27.480813
0.59110093
0.71716451
35.85377
1.2467452
36.314669
1.7108431
36.625055
2.0508658
36.862867
2.2657803
37.032035
2.2987037
36.557708
2.1357395
35.574015
1.8393669
32.295811
28.517811
0.80236944
0.78918674
35.064583
1.3682907
35.735565
1.84143
36.151916
2.1967191
36.507578
2.4552696
36.773485
2.5166167
36.49636
2.3353911
35.75524
2.0852063
32.545996
29.626599
0.97641854
0.84094006
1.4561862
2.0289193
2.4640078
2.8208347
3.0025981
2.8616846
2.7656039
1.92182
-0.067667303
-25.5774
0.23089924
-0.076644132
-30.16268
-0.1782617
-34.100838
-0.26027312
-36.203076
-0.30796627
-37.699429
-0.31082632
-38.386777
-0.26354217
-38.860785
-0.16345464
-39.15171
-39.768911
-0.13473814
-25.741055
0.29839312
-0.12653412
-30.170884
-0.17556017
-34.051812
-0.21474864
-36.163887
-0.23605113
-37.678127
-0.20873739
-38.414091
-0.16257367
-38.906949
-0.10537956
-39.208905
-39.874291
-0.015961408
-25.958521
0.23342694