/*--------------------------------*- C++ -*----------------------------------*\
  =========                 |
  \\      /  F ield         | OpenFOAM: The Open Source CFD Toolbox
   \\    /   O peration     | Website:  https://openfoam.org
    \\  /    A nd           | Version:  11
     \\/     M anipulation  |
\*---------------------------------------------------------------------------*/
FoamFile
{
    format      ascii;
    class       volScalarField;
    location    "0.023";
    object      rho;
}
// * * * * * * * * * * * * * * * * * * * * * * * * * * * * * * * * * * * * * //

dimensions      [0 0 0 0 0 0 0];

internalField   nonuniform List<scalar> 
880
(
0.3733250556165154
0.3733250556165154
0.3733250556165154
0.3733250555828742
0.3733250556165154
0.3733250556165154
0.3733250556165152
0.3733250555529944
0.3733250556165154
0.3733250556165153
0.3733250556165154
0.3733250494571467
0.3733250556165154
0.3733250556165154
0.3733250556165154
0.3733250710235759
0.3733250556165154
0.3733250556165155
0.3733250556165152
0.3733250556165154
0.3733250556165154
0.3733250556165154
0.3733250556165151
0.3733250556165154
0.3733250556165154
0.3733250556165154
0.3733250559488009
0.3733250515364714
0.3733558274886378
0.3734397428640171
0.3734684510404077
0.3734561543799469
0.3733250556165154
0.3733250556165154
0.3733250556165152
0.3733250556165154
0.3733250556258236
0.3733250556276522
0.3733250556289685
0.3733250556184376
0.3733250993472541
0.3733251040091193
0.3733251067956947
0.3733250773973302
0.3734697959826425
0.3734839847474655
0.3734881271190037
0.3734550489834513
0.3736331409289718
0.3734548646940929
0.3733431084465373
0.3733255738360631
0.3733252709263353
0.3733251661971406
0.3733250745853282
0.3733250563489071
0.3733250557022784
0.3733250556647238
0.3733250556251189
0.3733250556166502
0.3733250556168393
0.3733250556167788
0.3733250556165154
0.3733250556165154
0.3733250556165152
0.3733250556165152
0.3733250556165154
0.3733250556165155
0.3733250556165154
0.3733250556165155
0.3733250556165154
0.3733250556165155
0.373325055615064
0.3733250556159076
0.3733250556164501
0.3733250556165154
0.3733250484765139
0.3733250538680623
0.3733250555458514
0.3733250556163003
0.3733250556165164
0.3733250556165154
0.3733250556165154
0.3733250556165154
0.3733250554289489
0.3733250556146686
0.3733250556165154
0.3733250556165153
0.3733252405005241
0.373325057542757
0.3733250556170898
0.3733250556165154
0.3730991576841067
0.3733249027005262
0.3733250555581739
0.3733250556165153
0.3733250556165152
0.3733250556165713
0.3733250583371061
0.3733503477574842
0.3733250556165155
0.3733250556203819
0.3733250799276653
0.3734772872993467
0.3733250556165154
0.3733250556213756
0.3733250849276055
0.3734950294282718
0.3733250556165154
0.3733250556222301
0.3733250890264703
0.373502391098188
0.3735112115711053
0.3733250940822926
0.3733250556237014
0.3733250556165154
0.373521223146372
0.3733251002724473
0.3733250556254488
0.3733250556165154
0.3735319423115786
0.3733251076595385
0.373325055627705
0.3733250556165154
0.3735516030328048
0.3733251197762364
0.3733250556317006
0.3733250556165154
0.3733250556165153
0.3733250556241556
0.3733250907583379
0.3734734280607561
0.3733250556165154
0.3733250556234353
0.3733250847845238
0.3734337414087107
0.3733250556282874
0.373325055622848
0.373325081128385
0.3734079357720813
0.3733250555513786
0.3733250556561039
0.3733250734401548
0.3733574692370669
0.3733250560678587
0.373325029363741
0.3732983035954497
0.3697460824679807
0.3733250560527372
0.3733250025000562
0.3732521081244658
0.3571638766396722
0.3733250559492157
0.3733250079851248
0.3732445976007108
0.3513659341019866
0.3733250558716867
0.3733250232219118
0.3732526780593186
0.3506081937727097
0.3563167714205254
0.3732801885246469
0.3733250260486583
0.3733250557946856
0.3571192281061596
0.3732869067174294
0.3733250336977623
0.37332505578038
0.3585097426890003
0.3732949814190581
0.3733250401858374
0.3733250557595205
0.3542617359855269
0.373285850142676
0.3733250350408847
0.3733250556972021
0.3706917843147285
0.3733222122708872
0.3733250545287473
0.3733250556282384
0.3732615838130267
0.3733250282539401
0.3733250556710579
0.3733250556177748
0.3733193608734222
0.3733250493653775
0.3733250556159261
0.3733250556165154
0.3732709430805603
0.373324990970751
0.373325055581026
0.373325055616452
0.3729488952448574
0.373324758218823
0.3733250622632981
0.3733250556742475
0.3729489252245285
0.3733247543760775
0.3733250622113941
0.3733250556747826
0.3729474355822793
0.373324714022928
0.3733250615578502
0.3733250556758335
0.3729457553386784
0.3733246235964348
0.3733250599886525
0.3733250556742294
0.3732709430802813
0.373324990970508
0.3733250555807323
0.3733250556164572
0.3733193608729775
0.3733250493651088
0.3733250556154015
0.3733250556165154
0.3732615838128296
0.373325028253958
0.373325055671045
0.3733250556178113
0.3706917843152298
0.3733222122714869
0.3733250545287842
0.3733250556281367
0.373325055795166
0.3733250260493567
0.373280188524956
0.3563167714207092
0.3733250557806062
0.3733250336978776
0.3732869067176763
0.3571192281062383
0.3733250557591321
0.373325040186222
0.373294981419059
0.3585097426897291
0.3733250556973033
0.3733250350409624
0.3732858501433886
0.3542617359849584
0.3506081937720915
0.3732526780590324
0.3733250232217193
0.373325055871616
0.3513659341012057
0.3732445976003091
0.3733250079844296
0.3733250559486098
0.3571638766393547
0.3732521081238687
0.3733250025000216
0.3733250560521398
0.3697460824681709
0.3732983035952292
0.373325029363501
0.3733250560685873
0.3733250556165151
0.3733250556243883
0.3733250907586818
0.3734734280612572
0.3733250556165155
0.3733250556234887
0.3733250847845098
0.3734337414085028
0.3733250556285873
0.3733250556228627
0.373325081128037
0.3734079357720088
0.3733250555518979
0.3733250556560948
0.3733250734398651
0.3733574692370824
0.3735516030338264
0.3733251197758507
0.3733250556319985
0.3733250556165155
0.3735319423124206
0.3733251076600337
0.373325055627818
0.3733250556165154
0.373521223146449
0.3733251002731103
0.3733250556256821
0.3733250556165154
0.3735112115715035
0.3733250940819958
0.3733250556237244
0.3733250556165154
0.3733250556165154
0.3733250556166939
0.3733250583370732
0.3733503477567376
0.3733250556165154
0.3733250556202334
0.3733250799278815
0.3734772872994244
0.3733250556165154
0.3733250556213843
0.3733250849276758
0.3734950294286335
0.3733250556165154
0.3733250556223112
0.3733250890261042
0.3735023910983334
0.3733250556165154
0.3733250556165154
0.3733250556165154
0.3733250556165154
0.3733250555576694
0.3733250556170749
0.3733250556165154
0.3733250556165153
0.3733249027005879
0.3733250575431408
0.3733250556145027
0.3733250556165154
0.3730991576840379
0.3733252405005327
0.373325055428978
0.3733250556165164
0.3733250556165152
0.3733250556165154
0.3733250556165151
0.373325055616353
0.3733250556165154
0.3733250556165153
0.3733250556165151
0.3733250555458522
0.3733250556165154
0.3733250556165154
0.373325055615806
0.3733250538680923
0.3733250556165154
0.3733250556165153
0.3733250556152902
0.3733250484764339
0.3733250556167366
0.3733250557018119
0.3733252709259658
0.3736331409288387
0.3733250556165473
0.3733250556648971
0.3733251661972162
0.3734548646935625
0.3733250556165153
0.3733250556256224
0.3733250745851353
0.3733431084464958
0.3733250556165154
0.3733250556166592
0.3733250563489665
0.3733255738357079
0.3734550489836915
0.3733250773978273
0.3733250556183109
0.3733250556165154
0.3734881271187955
0.3733251067966654
0.3733250556288605
0.3733250556165153
0.3734839847479718
0.3733251040096089
0.3733250556276989
0.3733250556165152
0.3734697959825286
0.3733250993461414
0.373325055625772
0.3733250556165154
0.3734561543802735
0.3733250515364465
0.3733250556165154
0.3733250556165154
0.3734684510402418
0.3733250559482865
0.3733250556165154
0.3733250556165154
0.3734397428643777
0.3733250556165155
0.3733250556165154
0.3733250556165153
0.3733558274885775
0.3733250556165154
0.3733250556165154
0.3733250556165151
0.3733250556165154
0.3733250556165154
0.3733250556165154
0.3733250555849092
0.3733250556165152
0.3733250556165155
0.3733250556165153
0.3733250555532719
0.3733250556165154
0.3733250556165154
0.3733250556165154
0.3733250494570315
0.3733250556165154
0.3733250556165154
0.3733250556165151
0.3733250710233181
0.373325052998632
0.3733250043680031
0.3733242170014924
0.3733336073536788
0.3733250043678397
0.3733246036086061
0.3733090084558143
0.3732084212491181
0.37332421700148
0.3733090084559043
0.3733294964177216
0.3762266226273492
0.3733336073538859
0.3732084212491998
0.3762266226275879
0.4091791586927453
0.5032401474812161
0.4246150008807257
0.3969165039702509
0.37643172539605
0.5409295359650285
0.4766323004048734
0.4418617281820153
0.3872486780588073
0.5524707898795401
0.4930893890408224
0.4587694278016539
0.3925490050923275
0.5542844210114574
0.4948566108828171
0.4599781979058215
0.3926429815702999
0.3945634122157431
0.3957731484785939
0.3959807821799785
0.3947708174105962
0.4632034711847216
0.4651109632417572
0.4655051072839361
0.474430747986197
0.4961591915190658
0.4967495228673424
0.4970282438516426
0.5188602328126597
0.5565865107024163
0.556788418228873
0.5569875182556148
0.5921593245759447
0.3944690714382362
0.379212977024077
0.3738214575539269
0.373331087785766
0.4235070329034452
0.3824749475022604
0.3738888483346098
0.3733131236370947
0.414033403886638
0.3791888477111446
0.3734637407467983
0.373292140177152
0.3749632293529386
0.3714992777422296
0.372870633953015
0.3732205529564052
0.3733241520524364
0.373324950709691
0.3733250535848368
0.3733250556208051
0.3733232196147604
0.3733250140764287
0.3733250555280325
0.3733250556622893
0.373323279734752
0.3733250574615564
0.3733250557789554
0.3733250556798008
0.3733152661875189
0.3733248260045164
0.3733250549667542
0.3733250556710646
0.3733250556180249
0.373325055620623
0.3733250577874583
0.358087573568523
0.3733250556278833
0.3733250556175577
0.3733250567214031
0.3390325697302325
0.3733250556349403
0.3733250556175289
0.3733250557233181
0.3418628429826482
0.3733250556441612
0.3733250556181681
0.3733250556294337
0.4045060049331169
0.3908369194158877
0.4252718801792011
0.4280665213324508
0.4278869619663681
0.5402751798254024
0.6343307264423043
0.6393998154970927
0.6389259422288118
0.6567792307389124
0.7253533938700353
0.7293659291747965
0.7291460118448779
0.7590711669330064
0.8316794850143836
0.8375081897410434
0.8375712843125283
0.4278511161471378
0.4278737249772976
0.4279022391444035
0.4289058026897291
0.6387420486028232
0.6387402109783316
0.6387539378004166
0.6393443788694
0.7289666537279816
0.7289422019247772
0.7289396358249782
0.7286959774938133
0.8372704333582379
0.8372025396847306
0.8371997470647617
0.8367629323799979
0.413075411862088
0.4037542806377358
0.3968285135178147
0.3827206885744602
0.616300396338352
0.598052716115581
0.5797970976041018
0.5238419192817332
0.72014470645971
0.7128538240549323
0.7016168696660583
0.6826056104511511
0.8337491034573057
0.8360886013949772
0.8282402803828083
0.8788797747303788
0.3411845340494424
0.2122897973608101
0.1315373575426762
0.1268600972260705
0.3096506019429484
0.1531583111441279
0.09209108379977597
0.08719907146063494
0.2837929823074056
0.09709346082801064
0.06603483300662556
0.06350715470597183
0.2243047736710151
0.04923749409526985
0.04454938425415525
0.04396151694519394
0.1238738786054137
0.1243252074969878
0.1238529793115929
0.09739158922780686
0.08725447746568035
0.0875609977518695
0.09087306473009983
0.07795018859013356
0.06150696888550188
0.06184602547864801
0.06773230876121845
0.0691069745682731
0.04124630582380907
0.0411500955353775
0.0475124461384675
0.0552651470189012
0.2847749017864927
0.3673207791954087
0.37280765498649
0.3685592123628509
0.2242642028403025
0.3497095035693014
0.3694308031793925
0.3621412328478389
0.1871936196411732
0.3216234970122182
0.357869451164231
0.3586570122235899
0.1549752463122814
0.2885340550145322
0.3427664356887752
0.3607272265400933
0.3642455679641234
0.3477316013700532
0.3278561648585692
0.32020384289175
0.325076844312059
0.2822906033128995
0.2306044452039
0.2061539435385925
0.2548701133568033
0.2104530694355113
0.1490137810639091
0.1095838132813422
0.1887916239140985
0.1368106113317012
0.1026654853356988
0.06285068657899504
0.05716318585513382
0.05716425381574772
0.05650158230521574
0.05590697256475101
0.1027830716045934
0.1014424883669085
0.09940635707745778
0.09822942663735254
0.1987282449996838
0.1973815879740458
0.1959229597672192
0.1951907331665096
0.3149461693464831
0.3143297020452409
0.3138835426197241
0.3137322535516354
0.05590697256475861
0.09822942663740027
0.1951907331668226
0.3137322535539358
0.05650158230517373
0.09940635707770938
0.1959229597671202
0.3138835426196552
0.05716425381567167
0.1014424883669599
0.1973815879739521
0.3143297020451104
0.05716318585525239
0.1027830716044741
0.198728244999415
0.3149461693462589
0.3202038428915728
0.3278561648582783
0.3477316013696479
0.3642455679634926
0.2061539435382894
0.2306044452040025
0.2822906033131958
0.3250768443117703
0.1095838132813702
0.1490137810640062
0.2104530694355186
0.254870113356671
0.06285068657906755
0.1026654853357154
0.1368106113316731
0.1887916239140421
0.3607272265399245
0.3427664356884183
0.2885340550145806
0.1549752463122255
0.3586570122235184
0.3578694511641792
0.3216234970121747
0.1871936196411512
0.3621412328478655
0.3694308031789953
0.3497095035691262
0.2242642028403782
0.3685592123627273
0.3728076549862243
0.3673207791952936
0.2847749017866205
0.09739158922772359
0.1238529793114678
0.1243252074968167
0.1238738786050718
0.07795018859006196
0.09087306473005198
0.08756099775193914
0.08725447746568792
0.069106974568361
0.06773230876131117
0.06184602547878556
0.06150696888561107
0.05526514701887714
0.047512446138578
0.04115009553543145
0.04124630582386248
0.1268600972254814
0.1315373575426469
0.2122897973606054
0.3411845340494016
0.08719907146073644
0.09209108379978344
0.1531583111438393
0.3096506019423854
0.06350715470613383
0.06603483300657938
0.09709346082798476
0.283792982306983
0.04396151694531785
0.04454938425406193
0.04923749409515754
0.2243047736707792
0.3827206885743653
0.3968285135180348
0.4037542806374225
0.4130754118619157
0.5238419192805945
0.5797970976039407
0.5980527161154089
0.6163003963378768
0.6826056104505158
0.7016168696658537
0.7128538240549538
0.7201447064594191
0.8788797747302342
0.8282402803826865
0.8360886013949366
0.8337491034573318
0.4289058026891417
0.4279022391448489
0.4278737249774689
0.4278511161470055
0.6393443788684195
0.6387539378006718
0.6387402109786267
0.6387420486025217
0.7286959774929122
0.7289396358250163
0.7289422019248032
0.7289666537277525
0.8367629323793222
0.8371997470646948
0.8372025396845867
0.8372704333582145
0.4278869619659086
0.4280665213329534
0.4252718801788545
0.3908369194166393
0.6389259422285966
0.6393998154975002
0.6343307264415863
0.5402751798264541
0.7291460118446932
0.7293659291750637
0.7253533938696536
0.6567792307392778
0.8375712843123359
0.8375081897412422
0.8316794850140224
0.7590711669329714
0.3580875735684235
0.3733250577874483
0.373325055620605
0.3733250556180236
0.3390325697303016
0.373325056721398
0.3733250556175507
0.3733250556278794
0.3418628429827369
0.3733250557233155
0.3733250556175279
0.373325055634935
0.4045060049332082
0.3733250556294321
0.373325055618168
0.3733250556441527
0.3733250556208069
0.3733250535849156
0.3733249507096933
0.3733241520524579
0.3733250556622706
0.3733250555280466
0.3733250140764783
0.3733232196147211
0.3733250556797643
0.3733250557789624
0.3733250574616348
0.3733232797347303
0.3733250556710393
0.3733250549667682
0.3733248260045836
0.3733152661876171
0.373331087785683
0.3738214575539018
0.3792129770238538
0.3944690714380241
0.3733131236370319
0.3738888483346152
0.3824749475021448
0.4235070329033588
0.3732921401770894
0.3734637407468062
0.3791888477110583
0.414033403886734
0.3732205529562424
0.3728706339530259
0.371499277742164
0.374963229353055
0.3947708174105334
0.3959807821797997
0.395773148478311
0.3945634122161061
0.4744307479855205
0.4655051072836334
0.4651109632413493
0.4632034711849918
0.5188602328122631
0.4970282438513591
0.4967495228666702
0.4961591915192616
0.592159324575776
0.5569875182553201
0.5567884182282291
0.5565865107026736
0.3926429815703373
0.3925490050920076
0.3872486780590167
0.3764317253963571
0.4599781979055038
0.4587694278008121
0.4418617281819531
0.396916503970242
0.49485661088299
0.4930893890400871
0.4766323004046623
0.4246150008805153
0.5542844210118663
0.5524707898793879
0.5409295359649693
0.503240147481342
0.3732343004419768
0.3733249507053568
0.3733250563462822
0.3733250556300955
0.3730518854162449
0.3733247349189107
0.3733250578266383
0.3733250556572651
0.3728425705440815
0.3733244398986713
0.3733250579148618
0.3733250556678923
0.3727634313897666
0.3733243815555776
0.3733250585645589
0.3733250556760516
0.3733250556744089
0.3733250622631363
0.3733247582189367
0.3729488952449039
0.3733250556748763
0.373325062211742
0.3733247543755234
0.372948925224783
0.3733250556757277
0.3733250615581659
0.3733247140230342
0.3729474355816873
0.3733250556738187
0.3733250599890219
0.37332462359507
0.3729457553386609
0.3733250556759986
0.3733250556678486
0.3733250556568323
0.3733250556296338
0.3733250585646653
0.3733250579148608
0.3733250578265025
0.3733250563458604
0.3733243815560054
0.3733244398979636
0.3733247349196166
0.3733249507049465
0.3727634313893338
0.372842570543387
0.3730518854164425
0.3732343004421398
)
;

boundaryField
{
    back
    {
        type            empty;
    }
    inlet
    {
        type            calculated;
        value           nonuniform List<scalar> 
16
(
0.3733250556165154
0.3733250556165154
0.3733250556165154
0.3733250556165154
0.3733250556165154
0.3733250556165155
0.3733250556165152
0.3733250556165154
0.3733250556165154
0.3733250556165154
0.3733250556165154
0.3733250556165151
0.3733250556165154
0.3733250556165152
0.3733250556165154
0.3733250556165154
)
;
    }
    front
    {
        type            empty;
    }
    top
    {
        type            calculated;
        value           nonuniform List<scalar> 
40
(
0.3733250556165154
0.3733250556165154
0.3733250556165152
0.3733250556165154
0.3733250556168393
0.3733250556167788
0.3733250556165154
0.3733250556165154
0.3733250556165152
0.3733250556165152
0.3733250556165154
0.3733250556165155
0.3733250556165154
0.3733250556165154
0.3733250556165154
0.3733250556165154
0.3733250556165152
0.3733250556165155
0.3733250556165154
0.3733250556165154
0.3733250556165154
0.3733250556165154
0.3733250556165154
0.3733250556165154
0.3733250556165153
0.3733250556165154
0.3733250556282874
0.3733250555513786
0.3733250560678587
0.3733250560527372
0.3733250559492157
0.3733250558716867
0.3733250557946856
0.37332505578038
0.3733250557595205
0.3733250556972021
0.3733250556282384
0.3733250556177748
0.3733250556165154
0.373325055616452
)
;
    }
    outlet
    {
        type            calculated;
        value           uniform 0.3733250556165154;
    }
    bottom
    {
        type            calculated;
        value           nonuniform List<scalar> 
40
(
0.3733250556164572
0.3733250556165154
0.3733250556178113
0.3733250556281367
0.373325055795166
0.3733250557806062
0.3733250557591322
0.3733250556973033
0.373325055871616
0.3733250559486098
0.3733250560521397
0.3733250560685873
0.3733250556165151
0.3733250556165155
0.3733250556285873
0.3733250555518979
0.3733250556165155
0.3733250556165154
0.3733250556165154
0.3733250556165154
0.3733250556165154
0.3733250556165154
0.3733250556165154
0.3733250556165154
0.3733250556165154
0.3733250556165154
0.3733250556165154
0.3733250556165154
0.3733250556165152
0.3733250556165154
0.3733250556165154
0.3733250556165154
0.3733250556167366
0.3733250556165473
0.3733250556165154
0.3733250556165154
0.3733250556165154
0.3733250556165154
0.3733250556165153
0.3733250556165154
)
;
    }
    wall
    {
        type            calculated;
        value           nonuniform List<scalar> 
104
(
0.5032401474812161
0.5409295359650285
0.5524707898795401
0.5542844210114574
0.5565865107024163
0.556788418228873
0.5569875182556148
0.5921593245759447
0.3749632293529386
0.3714992777422296
0.372870633953015
0.3732205529564052
0.3733152661875189
0.3733248260045164
0.3733250549667542
0.3733250556710646
0.3733250556441611
0.3733250556181681
0.3733250556294337
0.4045060049331169
0.7590711669330064
0.8316794850143837
0.8375081897410432
0.8375712843125283
0.8372704333582379
0.8372025396847306
0.8371997470647619
0.8367629323799978
0.8337491034573057
0.8360886013949772
0.8282402803828083
0.8788797747303788
0.2243047736710151
0.04923749409526985
0.04454938425415525
0.04396151694519394
0.04124630582380907
0.0411500955353775
0.0475124461384675
0.0552651470189012
0.1549752463122814
0.2885340550145322
0.3427664356887752
0.3607272265400933
0.1887916239140985
0.1368106113317012
0.1026654853356988
0.06285068657899504
0.05716318585513382
0.05716425381574772
0.05650158230521574
0.05590697256475101
0.05590697256475861
0.05650158230517373
0.05716425381567167
0.05716318585525239
0.06285068657906755
0.1026654853357154
0.1368106113316731
0.1887916239140421
0.3607272265399245
0.3427664356884183
0.2885340550145806
0.1549752463122255
0.05526514701887713
0.047512446138578
0.04115009553543145
0.04124630582386248
0.04396151694531785
0.04454938425406193
0.04923749409515754
0.2243047736707792
0.878879774730234
0.8282402803826865
0.8360886013949366
0.8337491034573318
0.8367629323793223
0.8371997470646947
0.8372025396845867
0.8372704333582145
0.8375712843123357
0.8375081897412422
0.8316794850140223
0.7590711669329714
0.4045060049332082
0.3733250556294321
0.373325055618168
0.3733250556441527
0.3733250556710393
0.3733250549667681
0.3733248260045837
0.3733152661876171
0.3732205529562424
0.3728706339530259
0.371499277742164
0.374963229353055
0.592159324575776
0.5569875182553201
0.5567884182282291
0.5565865107026736
0.5542844210118663
0.5524707898793879
0.5409295359649693
0.503240147481342
)
;
    }
}


// ************************************************************************* //
