/*--------------------------------*- C++ -*----------------------------------*\
  =========                 |
  \\      /  F ield         | OpenFOAM: The Open Source CFD Toolbox
   \\    /   O peration     | Website:  https://openfoam.org
    \\  /    A nd           | Version:  11
     \\/     M anipulation  |
\*---------------------------------------------------------------------------*/
FoamFile
{
    format      ascii;
    class       volVectorField;
    location    "12";
    object      U;
}
// * * * * * * * * * * * * * * * * * * * * * * * * * * * * * * * * * * * * * //

dimensions      [0 1 -1 0 0 0 0];

internalField   nonuniform List<vector> 
4455
(
(9.9984803 0.0030537313 0)
(9.9890945 0.0035987997 -1.4663074e-19)
(9.9693922 0.010243698 5.0330986e-19)
(9.9424677 0.0072726187 1.0107448e-21)
(9.8942504 0.019413223 4.721689e-19)
(9.8452454 0.014295835 -1.7747103e-18)
(9.7530333 0.039733737 7.8834956e-19)
(9.6610737 0.016991796 0)
(9.5116159 0.072413819 -4.7367264e-18)
(10.00073 0.006662242 -9.5851388e-19)
(9.9906419 0.013321473 9.3381696e-19)
(9.9683438 0.024050379 -1.1478188e-18)
(9.9406325 0.023666774 1.9103077e-18)
(9.8903048 0.035459845 -3.6575666e-18)
(9.8372251 0.026862288 3.981633e-18)
(9.7345559 0.040062528 -3.776104e-19)
(9.6458623 0.014010095 5.5109956e-19)
(9.4681804 -0.0040421386 2.0550014e-17)
(10.001375 0.010479782 -1.0034134e-18)
(9.9922486 0.022630549 1.267272e-18)
(9.96856 0.038930758 1.1233089e-18)
(9.9402975 0.04168164 -1.1167161e-18)
(9.8884692 0.05862888 4.8800664e-18)
(9.8341519 0.05316346 -2.743563e-18)
(9.733128 0.074053984 3.5449974e-19)
(9.624977 0.019434203 -7.7566381e-18)
(9.450808 0.060178534 -1.4526137e-17)
(10.001984 0.013987789 2.3988201e-21)
(9.9937191 0.03037021 -1.4049601e-19)
(9.969642 0.053991082 2.6668444e-18)
(9.940236 0.058533561 3.6381253e-19)
(9.8915103 0.084249817 6.3649768e-23)
(9.8299803 0.076344289 -5.2788833e-19)
(9.7249608 0.11891185 5.8224486e-18)
(9.6063367 0.046733147 1.5506944e-17)
(9.4115163 0.10986863 1.20505e-17)
(10.004387 0.018322235 1.9408431e-18)
(9.9944681 0.036116065 -2.1699765e-18)
(9.9722446 0.068263857 2.761127e-18)
(9.9410134 0.074842504 1.1230001e-21)
(9.8951049 0.10939206 -3.3471706e-18)
(9.8297093 0.099315648 -1.0226129e-18)
(9.7184065 0.143008 -4.5888441e-18)
(9.5893194 0.0662959 -7.2955159e-18)
(9.3649665 0.14561476 -3.5546357e-17)
(10.005382 0.02044866 0)
(9.9966969 0.042844352 0)
(9.9751087 0.079729861 -4.812958e-18)
(9.9440214 0.091228034 -5.5294371e-18)
(9.90064 0.13256216 0)
(9.8327198 0.13080689 -7.4058737e-18)
(9.7117496 0.18577839 -6.2601907e-19)
(9.5641693 0.10149171 -4.3388528e-19)
(9.3176862 0.1964727 4.3876169e-17)
(10.008508 0.022921487 0)
(9.9965425 0.046870035 -1.3059082e-19)
(9.9799371 0.091249732 1.4698555e-19)
(9.9478782 0.10477784 5.4044754e-18)
(9.9057236 0.15140024 -3.9684387e-19)
(9.8362634 0.1504961 1.5772975e-17)
(9.7158506 0.21300375 0)
(9.5506203 0.12923388 0)
(9.2630384 0.25622069 2.0104237e-17)
(10.010237 0.023855257 3.6759853e-18)
(9.9988837 0.050777184 0)
(9.9824998 0.099545009 0)
(9.9557729 0.12165906 0)
(9.9147259 0.17513029 0)
(9.8415067 0.18305381 -7.8748339e-18)
(9.7107309 0.25586594 -8.402811e-18)
(9.5319091 0.17075438 1.2039257e-17)
(9.213248 0.31690028 1.1626595e-19)
(10.01232 0.024391479 -3.6197423e-18)
(10.000637 0.052707312 -1.2576497e-19)
(9.9866463 0.10466325 -1.4179563e-19)
(9.9595784 0.12904151 3.215723e-19)
(9.9251747 0.18850982 1.2363425e-17)
(9.8521484 0.20020003 1.3898412e-17)
(9.7226161 0.2856724 2.6776058e-17)
(9.5165754 0.20848244 -1.1825027e-17)
(9.1546052 0.38940015 -3.4639546e-17)
(10.013107 0.023836135 0)
(10.014103 0.022898667 6.7336681e-18)
(10.014033 0.021393837 -6.6790152e-18)
(10.013404 0.019055654 6.4040195e-18)
(10.013159 0.016509414 -6.2595682e-18)
(10.011272 0.013116881 1.2506986e-17)
(10.009993 0.010251552 -1.2141815e-17)
(10.007719 0.0058832878 0)
(10.003584 0.0022862621 0)
(10.003666 0.055196917 0)
(10.005308 0.054658888 1.1648051e-19)
(10.008494 0.053699129 0)
(10.009957 0.051609413 3.3140459e-19)
(10.012076 0.048888192 6.7706832e-18)
(10.014781 0.044754646 -2.0228961e-17)
(10.014767 0.040041 1.3097928e-17)
(10.018938 0.034981787 -1.9971122e-19)
(10.015582 0.02339707 1.2659186e-17)
(9.9918811 0.11211285 8.4451055e-18)
(9.9972432 0.11660957 -1.6645477e-17)
(10.002716 0.11879769 1.5901019e-17)
(10.009749 0.11810724 -4.9621241e-19)
(10.013541 0.11571012 -7.5081329e-18)
(10.022147 0.11246662 -2.2827786e-19)
(10.024041 0.10497892 0)
(10.033908 0.099851497 4.3193003e-19)
(10.033292 0.081961478 -2.1025434e-19)
(9.9686165 0.14265579 8.7998819e-18)
(9.9773613 0.15309173 -1.7879727e-17)
(9.9856565 0.16042414 1.7019929e-17)
(9.9980054 0.16596249 -8.2487534e-18)
(10.005239 0.16667395 -5.1625007e-19)
(10.019474 0.16935341 2.4950341e-19)
(10.026089 0.16449728 0)
(10.042868 0.16343223 -2.3511564e-19)
(10.045117 0.14726856 1.4170595e-17)
(9.9326039 0.20991024 -9.9287419e-18)
(9.9499574 0.22980902 0)
(9.9573612 0.24433832 -9.1967835e-18)
(9.9773603 0.25901998 9.48348e-18)
(9.9859351 0.26651063 -8.5710597e-18)
(10.007556 0.27648763 8.8572178e-18)
(10.017417 0.27721634 0)
(10.041031 0.28383068 0)
(10.048374 0.26932246 5.0125189e-19)
(9.8582769 0.22918846 -1.2124909e-17)
(9.8759631 0.26209884 -1.1601357e-17)
(9.8851771 0.28527608 1.1152236e-17)
(9.9063598 0.31576291 1.0695816e-17)
(9.9206429 0.33109112 -1.0311504e-17)
(9.9449672 0.35900848 0)
(9.9641174 0.36446096 1.9106063e-17)
(9.9908273 0.39084635 -4.4692246e-20)
(10.008933 0.38065164 -3.5675068e-17)
(9.7202649 0.32297348 -1.4186237e-17)
(9.7401553 0.3817494 0)
(9.74954 0.40810521 0)
(9.7761891 0.46154144 3.8880399e-19)
(9.7978784 0.48069835 0)
(9.8300646 0.53409994 0)
(9.8597195 0.54534228 0)
(9.8950085 0.59511562 0)
(9.922912 0.5930968 0)
(9.5047833 0.25594515 5.4299031e-19)
(9.4864466 0.35325536 0)
(9.4949226 0.41397757 4.8702663e-19)
(9.4956252 0.5183301 -9.1357649e-19)
(9.5331201 0.56742705 -1.3845357e-17)
(9.5569557 0.66059597 -1.3140527e-17)
(9.6094117 0.69276053 2.5225391e-17)
(9.6486012 0.77599086 2.4392214e-17)
(9.7044394 0.7841169 -2.3075504e-17)
(9.0865243 0.46811112 6.4908482e-17)
(9.0102205 0.68455165 -4.0235396e-17)
(9.0136189 0.81451821 3.7373619e-17)
(9.0504508 1.0357268 -3.529432e-17)
(9.1299548 1.1288025 -5.022158e-17)
(9.2140794 1.3056909 9.4536663e-17)
(9.3104597 1.3581524 -5.9727203e-17)
(9.4074683 1.4986774 -2.8485169e-17)
(9.4966463 1.5085863 2.6779233e-17)
(10.005081 0.0027960326 -1.6689448e-20)
(10.008166 0.0040054004 1.7138927e-17)
(10.013025 0.005944338 -6.0710737e-21)
(10.019312 0.0081291707 -1.7265125e-17)
(10.026904 0.010395832 1.6897794e-20)
(10.036014 0.012724654 1.7370388e-17)
(10.046714 0.015177422 -1.7455163e-17)
(10.05918 0.017691805 -1.704779e-20)
(10.074596 0.021184508 -8.78008e-18)
(10.023103 0.026555401 -1.8164613e-17)
(10.027755 0.036849399 1.8279221e-17)
(10.039795 0.038025716 -1.8284295e-17)
(10.047406 0.051301912 0)
(10.063345 0.051319666 1.8443008e-17)
(10.074096 0.067151307 1.5539826e-20)
(10.093691 0.065656043 3.1272953e-20)
(10.107865 0.083814363 -1.8556892e-17)
(10.131765 0.080402425 9.3357835e-18)
(10.045817 0.088922936 1.9372741e-17)
(10.049541 0.10532931 -1.9431862e-17)
(10.065557 0.11013043 -1.9564241e-17)
(10.070707 0.12818694 1.9610611e-17)
(10.089416 0.13278894 -1.9774914e-17)
(10.09667 0.15371396 1.9707859e-17)
(10.119218 0.15806271 -1.9903772e-17)
(10.129101 0.18258321 -1.1856123e-20)
(10.15612 0.18607283 1.993738e-17)
(10.064433 0.15955721 -2.0702083e-17)
(10.067278 0.1840578 -8.1445564e-20)
(10.088125 0.19380299 8.1924694e-20)
(10.09109 0.21890592 0)
(10.114453 0.22856721 -1.6452906e-22)
(10.119781 0.25719872 -2.1070293e-17)
(10.147549 0.26671782 2.1419492e-17)
(10.155849 0.29965391 8.3377143e-20)
(10.188656 0.30805735 8.3644159e-20)
(10.071121 0.28687802 -8.7414139e-20)
(10.072256 0.31706873 -2.2507195e-17)
(10.094001 0.33148974 -6.8997133e-20)
(10.093385 0.36030825 2.2712125e-17)
(10.117845 0.37444217 2.2869604e-17)
(10.120022 0.40740296 -2.2986118e-17)
(10.14962 0.42142009 -8.9581063e-20)
(10.154928 0.45906148 -8.9904525e-20)
(10.189929 0.47169632 -9.0227759e-20)
(10.040619 0.40759828 2.43922e-17)
(10.039456 0.44873254 0)
(10.067 0.4700699 0)
(10.06323 0.50874471 2.4589615e-17)
(10.093987 0.52906239 -2.491888e-17)
(10.094089 0.57205952 -2.4987488e-17)
(10.130589 0.5916749 5.0014681e-17)
(10.13445 0.63890702 -4.4925509e-20)
(10.176234 0.65624649 -5.0400052e-17)
(9.9569524 0.63556069 -1.0536763e-19)
(9.9610216 0.68187606 0)
(9.9852223 0.71042651 1.0615896e-19)
(9.9883616 0.74927273 2.7271575e-17)
(10.017608 0.7760612 -2.7436422e-17)
(10.02749 0.81361958 2.7507803e-17)
(10.062404 0.83883974 -2.7567474e-17)
(10.077088 0.87350208 -1.0795837e-19)
(10.114609 0.89500031 2.7740144e-17)
(9.7495744 0.85120542 -2.9646865e-17)
(9.7920119 0.905684 3.0058979e-17)
(9.8325591 0.95289352 -3.0178234e-17)
(9.877802 0.99693296 3.0023372e-17)
(9.923197 1.036144 -2.9891975e-17)
(9.9731283 1.0728795 -5.0798885e-21)
(10.021881 1.1042778 3.0298634e-17)
(10.072758 1.1322751 2.3746284e-19)
(10.118476 1.1527325 1.5133484e-17)
(9.5935178 1.6155051 0)
(9.647265 1.6443349 -3.3280664e-17)
(9.7416866 1.7247082 1.8914336e-19)
(9.7963772 1.7288523 3.1465953e-19)
(9.8946935 1.7790435 6.6819929e-17)
(9.9461095 1.7439569 -3.3438353e-17)
(10.053984 1.7451317 -3.345977e-17)
(10.117304 1.6382153 3.3585932e-17)
(10.225609 1.5724678 1.6867568e-17)
(10.28205 1.399556 -1.9716665e-17)
(10.313356 1.3108912 0)
(10.333883 1.1961163 1.962728e-17)
(10.306317 1.1485144 -1.962129e-17)
(10.263334 1.0392354 0)
(10.193328 1.0105999 0)
(10.118245 0.90419416 0)
(10.035261 0.89930186 -2.0126007e-17)
(9.9472673 0.8097569 2.0126059e-17)
(10.159053 1.1673866 -1.7239129e-17)
(10.191516 1.1872984 0)
(10.221204 1.1890121 0)
(10.239021 1.1937293 0)
(10.254533 1.1899997 0)
(10.257474 1.1943348 0)
(10.252617 1.1950084 0)
(10.242812 1.2045719 1.7067478e-17)
(10.218964 1.2033847 -3.4216708e-17)
(10.129544 0.92350257 -5.6877233e-20)
(10.163093 0.95057318 -3.0454557e-17)
(10.175063 0.97362007 0)
(10.206764 0.99907981 -1.5150033e-17)
(10.214704 1.0202619 1.5150029e-17)
(10.24239 1.0429735 0)
(10.244331 1.0632901 0)
(10.267021 1.0864397 0)
(10.261147 1.108554 0)
(10.179291 0.70292689 2.7098455e-17)
(10.222537 0.72761331 0)
(10.225979 0.77271215 1.3473456e-17)
(10.269408 0.79649764 -2.6921519e-17)
(10.272783 0.84134456 1.3447785e-17)
(10.316273 0.8652752 0)
(10.318493 0.91062449 0)
(10.362123 0.93619619 0)
(10.361843 0.98292415 1.3322618e-17)
(10.19574 0.51255119 0)
(10.234022 0.5281171 2.4350911e-17)
(10.240782 0.57107752 -3.6504351e-17)
(10.281824 0.58667173 1.2153175e-17)
(10.289619 0.6315962 1.2105231e-17)
(10.333502 0.64783131 -2.5387757e-20)
(10.341903 0.6952353 -2.4133078e-17)
(10.388987 0.71290303 2.407942e-17)
(10.397369 0.76335463 -1.2025918e-17)
(10.198528 0.34484316 0)
(10.235727 0.35482855 1.1076632e-17)
(10.24774 0.39487588 -1.1076777e-17)
(10.289099 0.40444677 0)
(10.303308 0.44753796 -2.2010662e-17)
(10.348779 0.45694991 2.2010705e-17)
(10.365061 0.50338614 1.0950355e-17)
(10.415003 0.51298545 -2.1870968e-17)
(10.433172 0.56323373 1.092053e-17)
(10.167944 0.21427413 0)
(10.199363 0.21847268 0)
(10.213772 0.25035939 0)
(10.249897 0.25402662 -1.0155069e-17)
(10.267172 0.2896955 2.0287828e-17)
(10.308271 0.29282117 -2.0241613e-17)
(10.328576 0.3325641 1.0108791e-17)
(10.375167 0.33523195 -1.0055476e-17)
(10.398636 0.37954486 2.0081363e-17)
(10.148678 0.1012491 -1.8921167e-17)
(10.17732 0.097324332 1.7314751e-20)
(10.197724 0.12199465 9.4355242e-18)
(10.23071 0.116595 -9.3966408e-18)
(10.254933 0.14429428 9.3966063e-18)
(10.292562 0.13697973 0)
(10.320889 0.16778741 9.325855e-18)
(10.364058 0.15852313 -1.8624328e-17)
(10.396893 0.19326553 9.2984913e-18)
(10.0841 0.026348909 1.2258579e-20)
(10.107429 0.026408564 8.8361847e-18)
(10.122583 0.038359014 8.8106082e-18)
(10.152887 0.037995141 -8.810609e-18)
(10.17022 0.049041428 0)
(10.205439 0.048604418 0)
(10.226251 0.060146237 -8.7391253e-18)
(10.268312 0.060179293 1.7455627e-17)
(10.294816 0.072437454 -8.7166452e-18)
(10.343575 0.073920602 0)
(10.376672 0.086719282 -8.6350713e-18)
(10.432502 0.089088658 3.2127707e-20)
(10.472893 0.10249419 3.4867481e-20)
(10.536445 0.10568136 3.7808531e-20)
(10.584816 0.12012211 8.5302673e-18)
(10.65711 0.12491021 8.4448178e-18)
(10.71506 0.13963109 -8.4448183e-18)
(10.797213 0.14624405 0)
(10.44638 0.1821154 0)
(10.484068 0.22144578 0)
(10.540407 0.20838849 -9.1671331e-18)
(10.583211 0.25283191 3.8944366e-20)
(10.647227 0.23791452 4.1696009e-20)
(10.695644 0.28827946 9.0864486e-18)
(10.768321 0.2715069 8.9939915e-18)
(10.822847 0.32870848 -8.9939404e-18)
(10.90545 0.31008825 0)
(10.45132 0.38194122 -1.0025921e-17)
(10.478075 0.43146736 0)
(10.53748 0.43380635 0)
(10.567682 0.48925707 -9.8860246e-18)
(10.634598 0.49178791 1.9730935e-17)
(10.668544 0.554122 -4.3856792e-20)
(10.743934 0.55704984 -4.6889091e-20)
(10.782148 0.62739826 -9.7540922e-18)
(10.867264 0.6307809 0)
(10.488004 0.57349514 -1.0856097e-17)
(10.507803 0.62815718 1.0856037e-17)
(10.568011 0.63968425 0)
(10.589215 0.69960479 0)
(10.655473 0.71306874 1.0705538e-17)
(10.678035 0.77944991 -1.070547e-17)
(10.751329 0.79546631 1.0617306e-17)
(10.775509 0.8698617 -5.3326511e-18)
(10.857204 0.8888558 -5.2845321e-18)
(10.447899 0.78343418 -1.1968401e-17)
(10.455549 0.83769844 1.196828e-17)
(10.509831 0.86131488 0)
(10.516129 0.92060725 0)
(10.574793 0.94888 0)
(10.579393 1.0149833 0)
(10.643615 1.0488613 0)
(10.646572 1.1239841 0)
(10.718086 1.1641223 0)
(10.40558 1.0119063 -1.3322614e-17)
(10.401394 1.0609638 1.3276056e-17)
(10.445306 1.0954842 -1.3275696e-17)
(10.436176 1.1484299 1.3231948e-17)
(10.480941 1.1901703 -1.323132e-17)
(10.46626 1.2495678 0)
(10.513708 1.2995751 0)
(10.493409 1.3685182 0)
(10.546255 1.4277048 0)
(10.278584 1.1363691 0)
(10.263455 1.1616037 -1.5066015e-17)
(10.277598 1.1976686 1.5062797e-17)
(10.252059 1.2282657 0)
(10.265145 1.2754282 1.5074145e-17)
(10.227701 1.3150937 -1.5074675e-17)
(10.243031 1.3757818 0)
(10.193506 1.4280197 7.551123e-18)
(10.21419 1.5034095 -1.5107054e-17)
(10.201191 1.2257975 1.7131156e-17)
(10.155131 1.2333364 1.7215205e-17)
(10.131243 1.266518 -1.7218123e-17)
(10.065348 1.2875563 1.732572e-17)
(10.036878 1.3309074 -3.471489e-17)
(9.953832 1.3684483 3.4843016e-17)
(9.9221091 1.4236634 -3.4979951e-17)
(9.8234968 1.4810378 1.7524868e-17)
(9.7902364 1.5501719 0)
(9.8577648 0.82818375 -2.0387791e-17)
(9.7587914 0.75360311 2.0387839e-17)
(9.6659673 0.79407153 0)
(9.5533386 0.73243977 0)
(9.4586171 0.79548298 0)
(9.3278685 0.74715627 0)
(9.2314264 0.83474715 0)
(9.0850337 0.80234277 -1.0712632e-17)
(8.9775907 0.91542105 1.0712562e-17)
(8.8193484 0.90722094 1.0877903e-17)
(9.6775995 1.6311637 0)
(10.153617 1.5730191 7.5568297e-18)
(10.520886 1.5093641 0)
(10.719921 1.2506545 0)
(10.883655 0.97309486 0)
(10.910559 0.71048665 4.7961508e-18)
(10.966998 0.37540897 4.4143804e-18)
(10.865943 0.16225216 4.143835e-18)
(8.7010879 1.0539268 -1.0877808e-17)
(9.645246 1.7163582 0)
(10.181481 1.6608438 0)
(10.582174 1.5782416 6.5321577e-18)
(10.800886 1.2973439 0)
(10.975491 0.99519985 -5.2020898e-18)
(11.006819 0.71418656 -9.561222e-18)
(11.060982 0.35479756 -8.7970803e-18)
(10.959783 0.17027276 -8.2569187e-18)
(8.5312029 1.0773031 0)
(9.520949 1.8255249 0)
(10.114101 1.7574507 7.5638977e-18)
(10.553005 1.6758709 -6.5322361e-18)
(10.802641 1.397706 0)
(11.005306 1.091238 5.2020754e-18)
(11.056324 0.80461072 4.7650871e-18)
(11.130473 0.42949756 4.382696e-18)
(11.040943 0.18728479 4.1130828e-18)
(8.4003543 1.2707622 1.1132025e-17)
(9.4933047 1.9290242 0)
(10.14938 1.8562081 -1.5126174e-17)
(10.626104 1.7543451 0)
(10.895466 1.4507468 0)
(11.109297 1.1161905 -5.1361948e-18)
(11.165285 0.80814929 -4.6956742e-18)
(11.237491 0.40666095 0)
(11.147918 0.19776639 -4.043475e-18)
(8.2206911 1.3360921 -1.1131984e-17)
(9.3614594 2.0720213 -9.0061829e-18)
(10.079159 1.9829598 7.5621733e-18)
(10.595464 1.8714031 0)
(10.898844 1.5673058 0)
(11.144039 1.2259344 5.1361896e-18)
(11.222495 0.91060062 4.6956707e-18)
(11.316217 0.49220422 0)
(11.243449 0.21574705 4.0434745e-18)
(8.0785631 1.5936228 0)
(9.3444993 2.1960732 9.006158e-18)
(10.125477 2.0929445 -7.547558e-18)
(10.681941 1.9562454 0)
(11.005992 1.6257176 0)
(11.262368 1.2530129 -5.0588742e-18)
(11.345791 0.91314785 -4.6148879e-18)
(11.438512 0.46668114 0)
(11.365255 0.22879255 -3.9615777e-18)
(7.8994964 1.7190849 0)
(9.2116505 2.3799461 0)
(10.057873 2.2536806 7.5475539e-18)
(10.657959 2.0994993 -3.2086056e-18)
(11.013699 1.7608463 -2.8197757e-18)
(11.304022 1.3780951 7.5664524e-18)
(11.412567 1.0287714 6.8995733e-18)
(11.525151 0.56228999 0)
(11.476816 0.24751626 5.9193785e-18)
(7.7596972 2.0808342 0)
(9.2153151 2.5247228 -4.5239382e-18)
(10.120302 2.3732869 0)
(10.757122 2.1877629 3.208103e-18)
(11.136483 1.821844 2.8192593e-18)
(11.438681 1.4060398 -2.3799055e-20)
(11.552706 1.0291174 -4.5447431e-18)
(11.668683 0.53839965 0)
(11.614196 0.2625291 -1.9578011e-18)
(7.6232371 2.2663834 -5.7083573e-18)
(9.0916477 2.7648066 4.523503e-18)
(10.061729 2.5822631 0)
(10.746042 2.3684848 0)
(11.156842 1.9898725 0)
(11.492623 1.5560389 -4.9409062e-18)
(11.631316 1.1608307 2.6781137e-20)
(11.760281 0.63854125 0)
(11.740826 0.28089385 0)
(11.910967 0.29834344 0)
(11.926097 0.62070671 0)
(11.790261 1.1536322 -1.0921354e-19)
(11.638416 1.5660674 2.5786239e-18)
(11.295542 2.0285286 0)
(10.86619 2.4398221 -3.9519975e-19)
(10.160327 2.6881229 -2.7376783e-20)
(9.1517605 2.9130062 -3.7541107e-18)
(7.5352044 2.7494718 1.063902e-17)
(12.073219 0.31115699 -9.3617042e-19)
(12.029895 0.70649228 -1.2708531e-19)
(11.885937 1.2725449 1.1232593e-18)
(11.719492 1.7127512 -3.5770614e-21)
(11.355444 2.196226 -1.182352e-18)
(10.895016 2.6274898 1.5362445e-18)
(10.161792 2.9202424 -4.6856216e-19)
(9.1301177 3.2102813 4.8844673e-18)
(7.649182 3.0525186 -5.4153867e-18)
(12.240318 0.32202996 1.8748696e-18)
(12.218894 0.68593805 0)
(12.077069 1.2695846 2.1939736e-18)
(11.886952 1.7145844 -1.1980667e-18)
(11.528114 2.2232235 1.1962043e-18)
(11.063804 2.6855596 -2.9118414e-18)
(10.3485 3.0094084 -2.2813134e-18)
(9.3455122 3.3319693 1.099276e-18)
(7.9393974 3.39212 6.4852779e-20)
(12.419859 0.33290908 -9.3920659e-19)
(12.334753 0.77017388 -1.2581372e-19)
(12.186282 1.3868225 -9.6615995e-19)
(11.990281 1.875862 1.3677113e-18)
(11.615371 2.4075592 5.0704593e-19)
(11.124192 2.8891254 1.5666007e-18)
(10.390406 3.2514871 1.8434873e-18)
(9.3771139 3.6179287 5.7312949e-19)
(7.9782395 3.6445444 -6.5616633e-19)
(12.612761 0.34426533 2.2718241e-19)
(12.553392 0.75090934 -2.4528424e-19)
(12.405541 1.3851019 -1.3702718e-19)
(12.179843 1.8650021 4.4604727e-19)
(11.814247 2.4202296 -5.1135258e-19)
(11.322675 2.9328033 -5.7721757e-19)
(10.607498 3.3248502 -4.7529283e-19)
(9.6103614 3.7205602 5.366717e-19)
(8.2388105 3.9287744 -7.2074386e-19)
(12.817535 0.35606897 -2.297809e-19)
(12.681546 0.83683627 2.4823627e-19)
(12.528619 1.4983369 -1.3607918e-19)
(12.304773 2.0372376 -1.7406081e-21)
(11.922999 2.6142658 -1.6639201e-19)
(11.404598 3.1455703 3.9281074e-19)
(10.671175 3.5719141 -4.767952e-19)
(9.6614823 4.0020657 5.3969155e-19)
(8.3110323 4.1309402 0)
(13.032752 0.36700918 -2.2035078e-19)
(12.929334 0.8211203 -1.2241321e-19)
(12.774907 1.4963332 -1.3105989e-19)
(12.511339 2.012809 -1.511045e-19)
(12.138406 2.612811 -1.6776872e-19)
(11.619317 3.1742994 4.0102783e-19)
(10.899355 3.6273717 -9.2655635e-19)
(9.9069211 4.0800328 1.1247463e-18)
(8.5935782 4.3738869 -6.7327792e-19)
(13.258593 0.37722208 6.5531522e-19)
(13.069193 0.90542175 4.7277479e-19)
(12.912392 1.602951 6.5328339e-19)
(12.661365 2.1931257 7.269103e-19)
(12.270405 2.8137485 5.10111e-19)
(11.726227 3.3939875 -1.8995088e-19)
(10.990399 3.8769811 -4.7842445e-19)
(9.9883952 4.356869 -4.0630577e-20)
(8.6852638 4.5424189 -7.1551699e-19)
(13.495152 0.38540063 -1.2835257e-18)
(13.343055 0.89118353 -4.7866964e-19)
(13.184328 1.5990259 -1.6829971e-18)
(12.878107 2.1553778 -4.4642197e-19)
(12.501161 2.795185 1.1428376e-18)
(11.958451 3.4044132 5.8804427e-19)
(11.233909 3.9114235 -2.7524681e-18)
(10.249062 4.4122689 5.4596286e-19)
(8.9648561 4.7582286 1.4315334e-18)
(9.0663737 4.9039995 -1.4331796e-18)
(10.356234 4.6853138 5.8949903e-19)
(11.353545 4.1614231 4.1310557e-18)
(12.092447 3.6285302 -5.8491579e-19)
(12.660021 3.0006471 2.9509759e-19)
(13.059047 2.3384259 8.4662987e-19)
(13.339656 1.6959553 1.1681621e-18)
(13.494314 0.9721593 -5.7359643e-20)
(13.742884 0.39245599 1.7341467e-18)
(9.3471411 5.1004038 5.7125086e-18)
(10.629332 4.7208573 5.4738602e-19)
(11.6116 4.1735953 -5.9617913e-18)
(12.341627 3.6184193 -1.8625351e-19)
(12.906116 2.9611282 -1.1538443e-18)
(13.283311 2.2896612 -1.01303e-18)
(13.633867 1.6881543 -2.0991335e-18)
(13.792449 0.95767712 0)
(14.001198 0.39702507 -8.3479034e-19)
(9.4587914 5.2280475 -7.3338881e-18)
(10.760258 4.9916302 5.6197644e-18)
(11.759174 4.4219726 3.2287089e-18)
(12.502318 3.8442546 -1.8432612e-19)
(13.093604 3.167738 2.5345736e-18)
(13.489813 2.4665736 5.5926563e-21)
(13.810087 1.7720679 3.2057684e-19)
(13.954936 1.0348726 1.630227e-18)
(14.269823 0.40032956 1.5508962e-18)
(9.7442534 5.4096041 -1.4659266e-18)
(11.044475 5.0077557 1.0201121e-18)
(12.028455 4.4107132 -4.7284824e-19)
(12.764314 3.8125444 0)
(13.352875 3.1046819 -2.5706128e-18)
(13.730662 2.4145274 0)
(14.12197 1.7575239 1.8343078e-18)
(14.273877 1.0185503 -3.3501127e-18)
(14.547631 0.40061428 -7.5819049e-20)
(9.866761 5.5215752 -7.074997e-19)
(11.200703 5.2770194 -4.5394134e-18)
(12.204721 4.6549018 4.6977073e-19)
(12.949425 4.0320429 0)
(13.568507 3.3083661 -2.5838793e-18)
(13.956907 2.5770776 2.1074632e-18)
(14.316388 1.8263046 1.1927562e-19)
(14.451435 1.0900194 3.3579975e-18)
(14.834095 0.39921503 -1.5122846e-18)
(10.162838 5.6918266 -6.6700351e-18)
(11.496279 5.2720663 -3.8984727e-18)
(12.482648 4.618086 -3.5105417e-20)
(13.225492 3.9888992 -3.7778607e-19)
(13.836899 3.2207062 -4.8372104e-20)
(14.214021 2.519629 -4.1741708e-18)
(14.642995 1.8024059 1.1582493e-19)
(14.785256 1.0708162 -1.663443e-18)
(15.127755 0.39416441 0)
(10.300158 5.7882964 4.5918635e-18)
(11.680758 5.5390609 5.6955494e-18)
(12.688073 4.8544422 -3.6121274e-20)
(13.435543 4.1907499 -3.7170543e-19)
(14.079299 3.4172805 2.2742834e-18)
(14.458614 2.6645354 2.209103e-18)
(14.852096 1.8537738 1.076548e-19)
(14.978602 1.1344355 -9.8645159e-20)
(15.42766 0.38697411 0)
(10.612268 5.9471917 0)
(11.987138 5.5096205 -5.3447591e-19)
(12.975026 4.7895023 4.5571445e-19)
(13.724804 4.1375045 -5.3019601e-18)
(14.355283 3.3034752 -1.4948455e-19)
(14.73031 2.599092 3.7126565e-18)
(15.189299 1.8180971 -3.1280761e-18)
(15.322786 1.1114186 2.9084348e-18)
(15.73112 0.37579475 2.4344682e-18)
(10.773956 6.0303907 1.1281226e-17)
(12.204415 5.7732762 9.7831435e-18)
(13.202424 5.014596 -4.4911115e-19)
(13.957938 4.3168545 5.58703e-18)
(14.617477 3.4902368 -1.3580741e-19)
(14.9915 2.7229758 -3.7746768e-18)
(15.408581 1.8501844 3.3842884e-18)
(15.528008 1.1657624 -3.0394021e-18)
(16.036142 0.36345136 -1.8736713e-19)
(16.362657 0.34681787 -2.2627109e-18)
(15.882263 1.1356578 2.5367176e-18)
(15.754804 1.8007354 0)
(15.282029 2.6445349 -2.2506214e-19)
(14.908063 3.3456214 4.1879728e-18)
(14.271271 4.2481684 4.7796284e-18)
(13.512542 4.915993 0)
(12.53594 5.7061213 -3.7507458e-19)
(11.135603 6.1904536 -1.1023453e-17)
(16.671549 0.32319466 0)
(16.100797 1.1679301 -2.6236332e-18)
(15.984366 1.8024359 0)
(15.573042 2.7318915 -2.1524122e-19)
(15.203771 3.5056266 -7.5697152e-18)
(14.554324 4.3947367 -5.2215226e-18)
(13.798161 5.1226333 6.1175614e-18)
(12.841211 5.9748427 -7.6825876e-18)
(11.389766 6.2618924 9.2333491e-18)
(16.971211 0.28994048 0)
(16.462734 1.1197323 0)
(16.333548 1.7359713 -2.5159889e-18)
(15.881698 2.6310011 0)
(15.518799 3.333731 3.8642338e-18)
(14.898119 4.3008332 -4.4204615e-18)
(14.148944 4.9859694 -5.5639231e-18)
(13.223404 5.8710616 -4.374262e-19)
(11.847179 6.4029204 -1.1918853e-18)
(17.260543 0.24899532 0)
(16.685005 1.133481 0)
(16.561471 1.7157784 2.5682128e-18)
(16.184923 2.6866385 2.6507113e-18)
(15.821902 3.461726 3.3677898e-18)
(15.203085 4.4106759 4.8062545e-18)
(14.44776 5.1533471 0)
(13.549097 6.0878638 6.9260626e-18)
(12.167131 6.4421034 -1.0902565e-17)
(17.537978 0.20407817 2.6445738e-20)
(17.044852 1.071767 -2.8824659e-20)
(16.903138 1.6318502 0)
(16.495917 2.5613914 -2.7205661e-19)
(16.142998 3.2665491 -6.8672666e-18)
(15.55221 4.2948187 2.470996e-19)
(14.80808 4.9880307 5.2143843e-18)
(13.926356 5.9517785 -7.6673873e-18)
(12.678739 6.5441342 1.0628456e-17)
(17.802044 0.15629685 -2.3659653e-20)
(17.264133 1.072114 2.582986e-20)
(17.125019 1.5900079 0)
(16.799054 2.5851036 -2.8679495e-18)
(16.448987 3.3599541 3.6491071e-18)
(15.868332 4.3690197 -2.321388e-19)
(15.10772 5.1231494 -5.3932487e-18)
(14.249185 6.1083098 0)
(13.093589 6.5248232 -1.051795e-17)
(18.048213 0.10741368 2.0832352e-20)
(17.612663 0.99855497 1.4895891e-18)
(17.455278 1.4893234 -6.2538071e-20)
(17.100091 2.4356151 2.114374e-18)
(16.767138 3.1407221 2.8749894e-18)
(16.218448 4.2305947 0)
(15.467443 4.9381392 0)
(14.59382 5.9346119 -6.4173458e-18)
(13.689876 6.5682138 0)
(18.291108 0.046734505 0)
(17.816424 0.98419909 -1.5435817e-18)
(17.665137 1.4287216 0)
(17.391955 2.4301365 -2.3929236e-18)
(17.069245 3.1961293 -2.6236907e-18)
(16.543035 4.2670934 3.1729107e-18)
(15.755559 5.0593988 0)
(14.868396 6.0254284 7.1123653e-18)
(14.229196 6.4589136 -8.245879e-18)
(18.423345 -0.014403516 0)
(18.140706 0.89694786 0)
(17.974868 1.3158677 -4.9436626e-20)
(17.673143 2.2571846 -6.9551147e-20)
(17.374833 2.9499905 1.3969303e-19)
(16.889643 4.1036165 -3.276528e-18)
(16.165534 4.8493494 0)
(15.135574 5.8089619 0)
(14.899174 6.3777842 8.1585218e-18)
(18.650511 -0.02928122 -2.3758228e-20)
(18.311908 0.88509006 -7.0037493e-21)
(18.166731 1.2401429 1.1078876e-18)
(17.946762 2.2306613 0)
(17.656919 2.9788908 0)
(17.213005 4.1104122 -1.7161104e-19)
(16.353958 5.0786405 -3.2305438e-18)
(15.26402 5.9125897 1.4406531e-19)
(15.243528 6.277759 0)
(18.859324 -0.092219302 -1.7726473e-20)
(18.597551 0.86764936 -6.4098698e-21)
(18.452783 1.2625454 -1.0063149e-18)
(18.191621 2.2860397 0)
(17.887514 3.0591244 0)
(17.431783 4.333286 1.4435293e-19)
(16.515493 5.2371545 8.7777866e-18)
(15.161572 6.090486 -1.2918397e-19)
(14.455693 6.1307182 9.232358e-18)
(18.995606 -0.072953036 0)
(18.737501 0.8499586 9.8635233e-19)
(18.610314 1.1835123 0)
(18.431854 2.2545655 6.3881587e-20)
(18.122239 3.1233326 -6.9745862e-20)
(17.648227 4.3962391 -1.2365656e-19)
(16.609378 5.5356073 -1.0387089e-17)
(14.76222 6.137219 1.1701228e-19)
(12.653344 6.0673615 -8.6712455e-18)
(19.131918 -0.11970685 2.4078162e-19)
(18.991614 0.79588737 -9.4634553e-19)
(18.868469 1.1937401 8.3441905e-19)
(18.674959 2.301834 1.099558e-18)
(18.332629 3.2050296 -1.6801822e-18)
(17.828937 4.6736858 2.185376e-18)
(16.577249 5.7327822 4.9761758e-18)
(14.37179 6.2067873 7.8549915e-18)
(10.259065 7.2930112 0)
(19.229503 -0.11302678 -3.3198546e-19)
(19.110082 0.75978512 3.4726085e-19)
(18.991322 1.1160276 -8.0719168e-19)
(18.915397 2.2391365 -4.6327222e-19)
(18.563618 3.2826473 1.6001583e-18)
(18.064973 4.7025762 -6.6127059e-19)
(16.53049 5.988393 0)
(13.559665 6.4952817 -7.5455257e-18)
(6.716441 6.7788109 0)
(19.322181 -0.16329662 5.9031671e-20)
(19.335837 0.6731279 -3.3523059e-19)
(19.223839 1.1067525 2.1918656e-19)
(19.182329 2.2506309 -5.8844182e-19)
(18.790105 3.3291514 -2.8835814e-20)
(18.259841 4.9592106 -1.4236665e-18)
(16.232867 6.241181 3.1926525e-18)
(12.035609 5.7696038 6.6578016e-18)
(0.86558943 1.2627953 -8.1038331e-18)
(19.376096 -0.164462 2.6816156e-20)
(19.435714 0.61757413 -7.6143762e-22)
(19.316797 1.0224748 -2.0262289e-19)
(19.424185 2.1429686 2.3196021e-21)
(19.022425 3.4062706 -2.5023397e-21)
(18.431197 4.9802139 -1.919805e-19)
(15.710351 6.175754 -5.9421477e-18)
(9.1700802 5.0387297 -6.2771718e-18)
(-0.48331884 1.9783978 7.683288e-18)
(19.416189 -0.21326138 2.9127088e-21)
(19.638525 0.4976067 -3.1041944e-21)
(19.524386 0.98772375 -2.6355782e-19)
(19.695631 2.1233569 -7.5878133e-19)
(19.251827 3.4166515 4.6791096e-19)
(18.498349 5.1747222 -2.440983e-19)
(14.865552 6.3953351 5.1514564e-18)
(6.5750584 3.8837256 5.5027723e-18)
(-0.50213149 2.6638888 -6.9502152e-18)
(19.411502 -0.23999686 -1.2253358e-19)
(19.707212 0.42398471 6.1738819e-21)
(19.592076 0.89309661 -2.0334073e-19)
(19.917515 1.9783651 7.3556742e-19)
(19.465154 3.4780643 -4.3112443e-19)
(18.391038 5.2237856 3.6727646e-19)
(13.459435 6.0357181 -2.3877866e-18)
(3.5939222 2.0800624 -5.2090881e-18)
(-1.1255944 2.9270688 6.6227453e-18)
(-1.2532457 2.8982213 1.0872017e-17)
(1.8413334 1.5963131 6.3301172e-20)
(12.069864 5.9441601 -8.6681419e-21)
(18.30169 5.245701 7.3414782e-21)
(19.637064 3.4521249 0)
(20.156379 1.9377342 1.6535026e-20)
(19.771502 0.83247475 1.1104021e-18)
(19.873163 0.28126688 7.0983206e-19)
(19.3858 -0.27305594 2.0995074e-19)
(-1.3732603 2.9481625 -1.0526498e-17)
(1.7585304 1.9901633 0)
(10.787391 5.5219789 0)
(18.174731 5.2323795 4.6783437e-18)
(19.844307 3.3586418 0)
(20.330824 1.6960117 -3.9369104e-18)
(19.808308 0.68785816 -2.2635164e-18)
(19.896109 0.18461104 -6.7682383e-19)
(19.336319 -0.30334245 -3.6439064e-20)
(-1.447928 2.9838827 -7.1777988e-20)
(2.3089592 3.5781484 5.7814274e-20)
(9.9935428 5.3074597 0)
(18.011944 5.1705459 -4.5870822e-18)
(19.977561 3.3080879 0)
(20.528013 1.6327363 3.8894825e-18)
(19.95489 0.60777677 1.5500511e-18)
(20.010391 0.034049466 1.581427e-20)
(19.263149 -0.32922575 -5.5455219e-20)
(-1.5780839 3.1219569 -1.8852646e-17)
(2.8050298 4.3923464 1.2125283e-17)
(9.0502043 5.2097583 -5.0417201e-20)
(17.787089 5.1610174 0)
(20.14997 3.1717807 -6.0104928e-18)
(20.663267 1.3716228 0)
(19.959846 0.46011147 -1.4962363e-20)
(19.987344 -0.066777309 1.6621566e-20)
(19.1669 -0.35113633 -2.7210114e-21)
(-1.6521955 3.2098539 1.8126148e-17)
(2.5837814 4.9021238 -4.1699993e-19)
(8.311824 4.9235376 -6.7793439e-19)
(17.490909 5.068733 -2.2812469e-20)
(20.244925 3.1026003 -9.7072598e-19)
(20.829467 1.2808295 0)
(20.073893 0.36275171 -2.0878646e-18)
(20.053947 -0.22279548 0)
(19.050034 -0.36977284 0)
(-1.7442977 3.3772073 -5.8858809e-20)