/*--------------------------------*- C++ -*----------------------------------*\
  =========                 |
  \\      /  F ield         | OpenFOAM: The Open Source CFD Toolbox
   \\    /   O peration     | Website:  https://openfoam.org
    \\  /    A nd           | Version:  11
     \\/     M anipulation  |
\*---------------------------------------------------------------------------*/
FoamFile
{
    format      ascii;
    class       surfaceScalarField;
    location    "7.3";
    object      phi;
}
// * * * * * * * * * * * * * * * * * * * * * * * * * * * * * * * * * * * * * //

dimensions      [0 3 -1 0 0 0 0];

internalField   nonuniform List<scalar> 
10792
(
0.071668085
-0.043982211
-0.072277329
0.044591454
0.071016586
-0.041916249
0.042567749
0.070279515
-0.039906815
0.040643885
0.069504922
-0.037672796
0.038447389
0.068709254
-0.035634014
0.036429683
0.06776732
-0.033173287
0.03411522
0.066917648
-0.030891575
0.031741247
0.066072866
-0.028599397
0.029444179
0.065192622
-0.026119116
0.026999359
0.064442025
-0.023833372
0.02458397
0.06373149
-0.021388178
0.022098713
0.063013226
-0.018911084
0.019629348
0.062427511
-0.016338211
0.016923926
0.061916251
-0.013931612
0.014442872
0.061416264
-0.011238523
0.01173851
0.061070258
-0.0088148556
0.0091608614
0.060818813
-0.0061793033
0.0064307484
0.060611117
-0.0037905475
0.003998243
-0.0010477949
0.060776786
0.00088212564
0.075670082
-0.043400189
-0.076252104
0.075028817
-0.041274984
0.074256026
-0.039134024
0.073544068
-0.036960837
0.07264077
-0.034730717
0.071777324
-0.032309841
0.071014784
-0.030129035
0.070130925
-0.027715537
0.069381308
-0.025369499
0.068664125
-0.023116189
0.067863174
-0.020587227
0.067193021
-0.018240931
0.066601955
-0.015747145
0.066012888
-0.013342545
0.06561296
-0.010838596
0.065284046
-0.0084859422
0.065074415
-0.0059696722
0.064975734
-0.0036918667
-0.0011237247
0.065051664
0.080394837
-0.042756273
-0.081038753
0.079724735
-0.040604883
0.079024891
-0.03843418
0.078229384
-0.036165329
0.07735554
-0.033856873
0.076607389
-0.03156169
0.075768128
-0.029289774
0.074929332
-0.026876741
0.074159887
-0.024600054
0.07330665
-0.022262952
0.072541107
-0.019821684
0.071877434
-0.017577259
0.071213991
-0.015083702
0.070664243
-0.012792796
0.070272686
-0.010447039
0.069850296
-0.0080635524
0.069679243
-0.0057986195
0.069460087
-0.0034727109
-0.0011137213
0.069450084
0.084813927
-0.042108186
-0.085462014
0.084186699
-0.039977655
0.083391978
-0.037639459
0.082597442
-0.035370793
0.081859403
-0.033118833
0.08108121
-0.030783497
0.080244189
-0.028452754
0.07942164
-0.026054192
0.078604824
-0.023783238
0.077802232
-0.02146036
0.077141774
-0.019161225
0.076455371
-0.016890856
0.075875738
-0.014504069
0.075359153
-0.01227621
0.074886345
-0.0099742316
0.074553882
-0.0077310899
0.074346278
-0.0055910154
0.074164319
-0.0032907526
-0.0011798013
0.074230399
0.090159095
-0.041483118
-0.090784164
0.089481112
-0.039299672
0.08876744
-0.036925787
0.088127359
-0.034730712
0.087350478
-0.032341953
0.086573196
-0.030006214
0.085706836
-0.027586394
0.08487061
-0.025217966
0.084035369
-0.022947998
0.083250952
-0.020675943
0.082531173
-0.018441445
0.081804992
-0.016164675
0.081181459
-0.013880537
0.080569427
-0.011664178
0.080086338
-0.0094911433
0.079706716
-0.0073514681
0.079444754
-0.005329053
0.079334563
-0.0031805615
-0.0012029389
0.0793577
0.095446404
-0.040903391
-0.096026131
0.094729532
-0.0385828
0.094078907
-0.036275163
0.093302526
-0.033954331
0.092425728
-0.031465155
0.091589282
-0.029169768
0.09070156
-0.026698672
0.089930986
-0.024447391
0.089109992
-0.022127004
0.088342626
-0.019908577
0.08760751
-0.01770633
0.08692278
-0.015479945
0.086349132
-0.013306888
0.085823176
-0.011138222
0.085391956
-0.0090599242
0.085081902
-0.0070414137
0.084844784
-0.0050919348
0.084758527
-0.003094305
-0.0012013469
0.084756935
0.10166722
-0.040300606
-0.10227
0.1007892
-0.03770478
0.10005183
-0.035537801
0.099166425
-0.033068921
0.098394124
-0.030692853
0.097631237
-0.028406882
0.096887797
-0.025955233
0.096143756
-0.023703349
0.095302117
-0.021285365
0.094532837
-0.019139297
0.093747701
-0.016921194
0.093095861
-0.014828105
0.092492178
-0.012703206
0.091958736
-0.01060478
0.0915077
-0.0086088889
0.091142208
-0.0066759212
0.090840744
-0.0047904714
0.090712748
-0.0029663089
-0.0011957664
0.090707167
0.10773558
-0.039466676
-0.10856951
0.10684384
-0.036813031
0.10609219
-0.034786155
0.10519662
-0.032173353
0.10443925
-0.029935485
0.10354686
-0.027514488
0.10271965
-0.025128018
0.10187527
-0.022858971
0.10106077
-0.020470864
0.10030097
-0.018379503
0.09957398
-0.016194202
0.098973575
-0.014227701
0.098380893
-0.012110524
0.097876649
-0.010100536
0.097384803
-0.0081170429
0.097032564
-0.006323683
0.096745458
-0.0045033654
0.096644433
-0.0028652831
-0.0011732005
0.096621867
0.11466849
-0.038389731
-0.11574544
0.11380719
-0.035951726
0.11298091
-0.033959878
0.11212024
-0.031312682
0.11133918
-0.029154425
0.11038446
-0.026559773
0.10959955
-0.024343108
0.10878366
-0.022043076
0.10806448
-0.019751686
0.10726689
-0.017581917
0.10647273
-0.015400039
0.10576025
-0.01351522
0.10513051
-0.011480788
0.10465248
-0.0096225002
0.10422004
-0.0076846043
0.10391075
-0.0060143967
0.10369699
-0.0042895989
0.10362328
-0.0027915738
-0.0011812939
0.10363137
0.12189158
-0.03727884
-0.12300247
0.12103816
-0.035098302
0.11994974
-0.032871462
0.11902877
-0.03039171
0.11810706
-0.028232713
0.11719619
-0.025648904
0.11645834
-0.02360526
0.11562891
-0.021213642
0.1149617
-0.019084486
0.11421373
-0.016833941
0.11354214
-0.014728447
0.11284532
-0.0128184
0.11225555
-0.010891018
0.11175208
-0.0091190384
0.11131639
-0.0072489092
0.11095782
-0.0056558318
0.11067622
-0.0040079902
0.11052961
-0.0026449708
-0.0011734447
0.11052176
0.13002789
-0.03624491
-0.13106182
0.12915587
-0.034226286
0.12804762
-0.031763208
0.12724568
-0.029589765
0.12621106
-0.027198095
0.12531629
-0.024754134
0.12437001
-0.022658981
0.12348311
-0.020326747
0.12271111
-0.01831248
0.12192255
-0.016045385
0.12129665
-0.014102546
0.12055379
-0.012075544
0.1199652
-0.010302422
0.11937626
-0.0085301017
0.11895937
-0.0068320155
0.11858725
-0.0052837114
0.11834717
-0.0037679125
0.1181968
-0.0024945959
-0.0011617198
0.11818507
0.13861405
-0.034987445
-0.13987152
0.13741262
-0.033024856
0.13621223
-0.030562819
0.1352206
-0.028598137
0.13416602
-0.026143508
0.13343555
-0.024023673
0.13246017
-0.021683598
0.13163372
-0.019500295
0.13076799
-0.017446755
0.13002112
-0.015298516
0.12933303
-0.013414451
0.12864532
-0.011387836
0.12809477
-0.0097518755
0.12749533
-0.0079306531
0.12707464
-0.0064113284
0.1266965
-0.0049055715
0.12650367
-0.0035750818
0.12636085
-0.0023517777
-0.0011820135
0.12638114
0.147986
-0.033872202
-0.14910124
0.14669985
-0.03173871
0.14553554
-0.0293985
0.14437128
-0.027433883
0.14327731
-0.025049537
0.14234462
-0.02309098
0.14131536
-0.020654337
0.14052807
-0.018713012
0.13953782
-0.016456497
0.13878734
-0.014548041
0.13797381
-0.012600925
0.13736105
-0.010775071
0.13674059
-0.0091314129
0.1362009
-0.0073909703
0.1357756
-0.0059860293
0.13542257
-0.0045525366
0.13519293
-0.0033454403
0.13506249
-0.0022213423
-0.0011879685
0.13506845
0.15821968
-0.032626543
-0.15946534
0.15678543
-0.030304463
0.15563919
-0.028252259
0.15433529
-0.026129977
0.15317163
-0.023885878
0.15199682
-0.021916172
0.15096994
-0.019627456
0.15007738
-0.017820452
0.1491405
-0.015519617
0.14837289
-0.013780427
0.14751843
-0.011746467
0.14688326
-0.010139906
0.14619418
-0.0084423346
0.14570735
-0.0069041354
0.14520432
-0.0054829985
0.14488353
-0.0042317474
0.14462908
-0.0030909953
0.14452178
-0.0021140338
-0.0011892121
0.14452302
0.16884831
-0.031049407
-0.17042545
0.1673719
-0.028828052
0.16609037
-0.026970727
0.16461575
-0.024655359
0.1634169
-0.022687022
0.16206998
-0.020569257
0.16105041
-0.018607885
0.15993303
-0.016703074
0.15902083
-0.014607415
0.15813573
-0.012895326
0.15737279
-0.010983534
0.15672232
-0.0094894334
0.15607697
-0.0077969851
0.15562423
-0.0064513905
0.15511166
-0.0049704358
0.15477127
-0.0038913578
0.15446642
-0.0027861412
0.15431711
-0.0019647209
-0.0011405067
0.1542684
0.18062267
-0.029245904
-0.18242617
0.17906992
-0.027275304
0.17757357
-0.025474372
0.17619514
-0.023276935
0.1749744
-0.021466275
0.1736746
-0.019269466
0.17262532
-0.017558597
0.17141312
-0.015490874
0.1705604
-0.013754695
0.16954108
-0.011876014
0.1687587
-0.010201154
0.16792903
-0.0086597549
0.16733324
-0.0072011957
0.16679076
-0.0059089121
0.16635901
-0.0045386884
0.16603215
-0.0035644986
0.16574984
-0.0025038339
0.16560625
-0.0018211228
-0.001047686
0.16551342
0.19304583
-0.027365783
-0.19492595
0.19136068
-0.025590153
0.18963426
-0.023747948
0.18811876
-0.02176144
0.18660307
-0.019950584
0.18524707
-0.017913467
0.18400382
-0.016315348
0.18284644
-0.014333488
0.18188339
-0.012791645
0.18086354
-0.010856171
0.18007313
-0.0094107431
0.17920214
-0.0077887606
0.17862528
-0.0066243347
0.17799403
-0.0052776669
0.17766982
-0.004214475
0.1772684
-0.0031630839
0.17705727
-0.0022926977
0.17681801
-0.0015818687
-0.00094236186
0.17671269
0.20688556
-0.025361758
-0.20888958
0.20500288
-0.023707472
0.20321607
-0.021961137
0.20162392
-0.020169296
0.20004847
-0.018375136
0.19871445
-0.016579447
0.19734091
-0.014941801
0.19619704
-0.01318962
0.19507306
-0.011667665
0.19412226
-0.0099053786
0.19323774
-0.0085262175
0.19243907
-0.0069900911
0.19177287
-0.0059581338
0.1911882
-0.0046929985
0.19081487
-0.0038411453
0.19038021
-0.002728419
0.19019199
-0.0021044872
0.18989335
-0.0012832266
-0.00080237223
0.18975336
0.22140828
-0.023199858
-0.22357018
0.21932975
-0.021628944
0.21739613
-0.020027517
0.21559063
-0.018363801
0.21389273
-0.01667723
0.21235543
-0.015042156
0.21084603
-0.013432393
0.20955449
-0.011898077
0.2083204
-0.010433577
0.20731427
-0.0088992472
0.20635521
-0.0075671632
0.20555858
-0.0061934557
0.20476641
-0.0051659695
0.20420828
-0.004134867
0.20370792
-0.0033407873
0.20341837
-0.0024388691
0.20320293
-0.0018890412
0.20306843
-0.0011487315
-0.00076596373
0.20303202
0.23698063
-0.021006391
-0.2391741
0.23490272
-0.019551034
0.23297822
-0.018103014
0.23113877
-0.01652436
0.22941876
-0.014957214
0.2277865
-0.013409899
0.22627821
-0.011924098
0.22489926
-0.010519132
0.22363231
-0.0091666277
0.22253331
-0.0078002451
0.22157889
-0.0066127465
0.22077465
-0.0053892134
0.21997522
-0.0043665405
0.21932421
-0.0034838564
0.21869177
-0.0027083493
0.21833272
-0.0020798117
0.21801246
-0.0015687829
0.21788476
-0.0010210359
-0.0006648312
0.21778363
0.2536343
-0.018555444
-0.25608525
0.2513418
-0.01725853
0.24915324
-0.015914454
0.24711927
-0.014490395
0.24525646
-0.0130944
0.2435538
-0.011707245
0.24196346
-0.010333757
0.24049478
-0.0090504497
0.23916484
-0.0078366819
0.23800325
-0.0066386597
0.23704231
-0.0056518064
0.23624714
-0.004594044
0.23557693
-0.0036963352
0.23496313
-0.0028700527
0.23441578
-0.0021610019
0.23400614
-0.0016701692
0.23365648
-0.0012191219
0.2334988
-0.0008633604
-0.00058450342
0.23341848
0.27155073
-0.016174414
-0.27393176
0.26928576
-0.014993558
0.26705181
-0.013680506
0.26501145
-0.012450027
0.2630821
-0.011165056
0.26132426
-0.0099494049
0.25967286
-0.0086823508
0.25816643
-0.0075440271
0.25674438
-0.0064146269
0.25548987
-0.0053841486
0.25437798
-0.0045399218
0.25346079
-0.0036768505
0.25276935
-0.0030048954
0.25218509
-0.0022857918
0.25171849
-0.0016944056
0.25132906
-0.0012807396
0.25103632
-0.00092638456
0.2508143
-0.00064133749
-0.00046128584
0.25069108
0.29037728
-0.013586319
-0.29296537
0.28792745
-0.012543732
0.28560184
-0.011354897
0.28345271
-0.010300894
0.28147367
-0.0091860163
0.2797214
-0.0081971307
0.27814144
-0.0071023985
0.27668773
-0.0060903083
0.27536985
-0.0050967472
0.27416746
-0.0041817605
0.27307514
-0.0034476086
0.27212495
-0.0027266514
0.27131368
-0.0021936276
0.27070688
-0.0016789975
0.27021319
-0.0012007165
0.26984403
-0.00091157674
0.2695185
-0.00060085578
0.26932664
-0.00044947484
-0.00036328679
0.26922864
0.31123307
-0.010905047
-0.31391434
0.3086055
-0.0099161599
0.30615784
-0.0089072406
0.30380692
-0.0079499698
0.30162732
-0.0070064181
0.29963081
-0.0062006172
0.29787853
-0.0053501221
0.29637294
-0.0045847204
0.29505719
-0.0037809929
0.29391049
-0.0030350662
0.29288025
-0.0024173659
0.29197238
-0.0018187777
0.29122824
-0.0014494898
0.29059208
-0.0010428412
0.29016939
-0.0007780184
0.28984329
-0.00058548055
0.28965184
-0.00040941107
0.28955518
-0.0003528151
-0.00026855088
0.28946045
0.33294968
-0.0079262277
-0.3359285
0.33017585
-0.0071423277
0.32763353
-0.0063649205
0.32529562
-0.0056120559
0.32316428
-0.0048750769
0.32119811
-0.0042344523
0.31942968
-0.0035816912
0.31790193
-0.0030569668
0.31657721
-0.0024562752
0.31549843
-0.0019562849
0.31458783
-0.0015067678
0.3138325
-0.0010634472
0.31321346
-0.00083044628
0.31267876
-0.00050814268
0.31227368
-0.00037293812
0.31189567
-0.0002074754
0.31164048
-0.00015421565
0.31146874
-0.00018107622
-0.00013605719
0.31133624
0.35717349
-0.0042460966
-0.36085362
0.35390266
-0.0038714947
0.35098631
-0.0034485676
0.34836743
-0.0029931794
0.34606562
-0.0025732653
0.34399745
-0.0021662862
0.34222769
-0.0018119309
0.3406649
-0.0014941733
0.33938278
-0.0011741608
0.33833772
-0.00091122454
0.33748919
-0.00065823579
0.33687568
-0.00044994072
0.33636546
-0.00032021816
0.33603063
-0.00017331403
0.33577085
-0.00011316281
0.33555174
1.163249e-05
0.33545289
-5.5366729e-05
0.33530273
-3.0907878e-05
-0.00015776396
0.33532443
0.38436977
-0.38861587
0.38049828
0.37704971
0.37405653
0.37148326
0.36931698
0.36750505
0.36601087
0.36483671
0.36392549
0.36326725
0.36281731
0.36249709
0.36232378
0.36221062
0.36222225
0.36216688
0.36213597
0.36197821
0.061043054
0.0010664237
-0.0013326923
0.061460843
0.0039201061
-0.0043378952
0.062209982
0.0060031459
-0.0067522844
0.063256185
0.008646044
-0.0096922475
0.064456967
0.010904715
-0.012105497
0.065980844
0.013503887
-0.015027764
0.067699054
0.015601063
-0.017319273
0.069548323
0.018372553
-0.020221823
0.07187252
0.020236709
-0.022560907
0.07412212
0.022852791
-0.02510239
0.076955609
0.024854578
-0.027688068
0.079637657
0.027245986
-0.029928034
0.082900208
0.029176567
-0.032439118
0.086031187
0.031315044
-0.034446024
0.089753149
0.032880327
-0.036602288
0.093535366
0.034805
-0.038587218
0.097957245
0.036146172
-0.040568051
0.10245225
0.037673923
-0.04216893
0.038756125
0.10754158
-0.043845453
0.06511722
0.0010008676
0.065735205
0.0033021212
0.06648711
0.0052512407
0.067623218
0.0075099356
0.068935932
0.0095920004
0.070682594
0.011757225
0.072394546
0.013889111
0.074590271
0.016176828
0.076819955
0.018007026
0.079313407
0.020359338
0.082052585
0.022115401
0.08490354
0.02439503
0.088112062
0.025968045
0.091301295
0.028125811
0.09486233
0.029319292
0.098378912
0.031288418
0.10242367
0.032101419
0.10628366
0.033813928
0.034222253
0.11081753
0.069588119
0.00086283247
0.07010494
0.0027853001
0.070906244
0.0044499364
0.071997017
0.0064191626
0.073391099
0.0081979184
0.075051129
0.010097195
0.076894932
0.012045308
0.079115304
0.013956456
0.081378533
0.015743796
0.083995837
0.017742033
0.086635633
0.019475605
0.089573153
0.021457511
0.092539462
0.023001735
0.095798805
0.024866468
0.098956153
0.026161943
0.1024395
0.02780507
0.10575801
0.028782905
0.1093585
0.030213446
0.030805033
0.11277572
0.074410213
0.00068301814
0.075029647
0.002165866
0.075860991
0.0036185924
0.077062092
0.0052180617
0.078519796
0.0067402143
0.080134446
0.008482545
0.082131569
0.010048184
0.084210868
0.011877157
0.086527516
0.013427148
0.088946584
0.015322965
0.091521811
0.016900378
0.094251779
0.018727542
0.097076167
0.020177347
0.10005148
0.021891156
0.10289709
0.023316327
0.1058458
0.024856362
0.10865207
0.025976639
0.11137714
0.027488377
0.028278619
0.11390355
0.079536821
0.00050389748
0.080181324
0.0015213628
0.080981367
0.0028185487
0.082224614
0.0039748154
0.083617303
0.0053475252
0.085294585
0.0068052624
0.087234394
0.0081083749
0.089244682
0.0098668692
0.091560184
0.011111644
0.093865631
0.013017518
0.096336556
0.014429452
0.098767176
0.016296921
0.10115351
0.017791016
0.10357206
0.019472602
0.10575867
0.021129722
0.10800418
0.022610844
0.10992053
0.024060291
0.11160874
0.025800165
0.026864677
0.11302269
0.08505403
0.00020680234
0.085614663
0.00096072978
0.086453119
0.0019800929
0.087707003
0.0027209308
0.089067489
0.0039870394
0.090866052
0.0050066989
0.092642316
0.0063321103
0.094784111
0.0077250745
0.096822791
0.0090729632
0.0990747
0.010765609
0.101262
0.012242155
0.1034237
0.014135216
0.10542539
0.01578933
0.10727224
0.017625746
0.10876134
0.019640627
0.11010817
0.021264011
0.11064677
0.023521691
0.11105328
0.025393656
0.02735993
0.11055803
0.09094647
-3.2500633e-05
0.091511441
0.0003957592
0.092446068
0.0010454659
0.093637334
0.0015296644
0.095040592
0.0025837808
0.096727783
0.0033195081
0.098424363
0.0046355299
0.10044152
0.00570792
0.10218046
0.0073340237
0.10427402
0.0086720495
0.10588334
0.010632829
0.10766369
0.012354871
0.10892481
0.014528201
0.11009583
0.016454735
0.11071781
0.019018643
0.11100162
0.020980199
0.11041451
0.024108805
0.1095059
0.026302264
0.029705669
0.10716016
0.09698782
-0.00039845462
0.097536733
-0.00015315329
0.098488929
9.326919e-05
0.099621071
0.00039752278
0.10105984
0.0011450065
0.10267785
0.0017014977
0.10438696
0.0029264215
0.10620233
0.0038925494
0.10784904
0.0056873163
0.10951823
0.0070028595
0.11081083
0.0093402294
0.11206731
0.011098388
0.11264558
0.01394993
0.11299523
0.016105081
0.11240848
0.0196054
0.11139504
0.021993636
0.10937059
0.02613325
0.10673089
0.028941966
0.033782664
0.1026539
0.10393748
-0.00070456359
0.10439676
-0.0006124369
0.10540877
-0.00091874003
0.10635626
-0.00054996382
0.10780486
-0.00030359114
0.10914396
0.00036239086
0.11071879
0.0013515929
0.11214429
0.0024670483
0.11350785
0.0043237537
0.11463057
0.0058801419
0.11541323
0.0085575713
0.11587771
0.010633908
0.11582135
0.01400629
0.1152433
0.016683126
0.11384365
0.021005051
0.11174365
0.02409364
0.1084585
0.029418394
0.10451004
0.032890426
0.039002572
0.099290137
0.11080508
-0.0009878846
0.11140784
-0.0012151923
0.11231329
-0.0018241935
0.11335077
-0.0015874455
0.11479953
-0.001752345
0.11597372
-0.00081180003
0.11753578
-0.00021046592
0.11851366
0.0014891643
0.119716
0.0031214173
0.12020248
0.0053936588
0.120601
0.0081590543
0.12020985
0.011025056
0.11930138
0.014914753
0.11749555
0.018488959
0.11512214
0.023378465
0.11176017
0.027455608
0.10778337
0.033395187
0.1030606
0.0376132
0.044691142
0.09737203
0.1183971
-0.0011999134
0.11890217
-0.0017202623
0.11965497
-0.0025769975
0.12068647
-0.0026189481
0.12175558
-0.0028214497
0.12287775
-0.0019339688
0.12404984
-0.0013825632
0.12471566
0.00082334837
0.1254612
0.002375873
0.12533283
0.0055220329
0.12533138
0.0081605054
0.12406938
0.012287056
0.12265228
0.016331847
0.11997082
0.02117042
0.11702325
0.026326037
0.11288249
0.031596364
0.10860436
0.037673327
0.10332073
0.042896826
0.050167252
0.097844619
0.12654464
-0.0013634066
0.12714543
-0.002321056
0.12790333
-0.0033348945
0.12887595
-0.0035915713
0.1297588
-0.0037043029
0.13080514
-0.0029803046
0.13152541
-0.0021028316
0.13205081
0.00029794254
0.1321163
0.0023103794
0.13149364
0.0061446999
0.13052588
0.0091282629
0.1284716
0.014341334
0.12641027
0.018393182
0.12304835
0.024532332
0.11970834
0.029666056
0.1151392
0.036165499
0.11082288
0.041989644
0.10548585
0.048233856
0.055472973
0.10018013
0.13515609
-0.0014510509
0.13567061
-0.0028355701
0.13620871
-0.0038730021
0.13705934
-0.0044422028
0.13773105
-0.004376004
0.13846513
-0.0037143863
0.13873709
-0.0023747986
0.13904589
-1.0850446e-05
0.1385585
0.0027977654
0.13772806
0.0069751416
0.13609209
0.010764235
0.13388661
0.016546811
0.13111778
0.021162011
0.12735458
0.028295528
0.12372671
0.033293929
0.11906137
0.040830833
0.11508917
0.045961852
0.1099386
0.05338442
0.059720057
0.10569152
0.14466171
-0.0015897449
0.14503601
-0.0032098682
0.14558641
-0.0044233988
0.14634491
-0.0052007073
0.14686205
-0.0048931466
0.14732817
-0.0041805058
0.14712336
-0.0021699899
0.1468128
0.00029971893
0.1456573
0.0039532639
0.14447248
0.0081599558
0.1423251
0.01291162
0.13994838
0.018923524
0.13661018
0.024500208
0.1331934
0.03171231
0.12968994
0.036797388
0.12586242
0.044658361
0.12302325
0.048801018
0.11981732
0.056590348
0.059885372
0.11965201
0.15446653
-0.0017878723
0.15474709
-0.003490428
0.15519313
-0.0048694368
0.15573539
-0.0057429684
0.15616905
-0.0053268053
0.15637513
-0.0043865908
0.15597236
-0.0017672241
0.155372
0.00090008073
0.15396207
0.0053631965
0.15246017
0.0096618585
0.14981103
0.015560761
0.14716432
0.021570231
0.14380351
0.027861014
0.14125973
0.034256091
0.13852445
0.039532667
0.13697947
0.046203347
0.13663341
0.049147078
0.13837649
0.054847261
0.053731249
0.14453062
0.16568836
-0.0019628131
0.1658282
-0.0036302591
0.16608712
-0.0051283603
0.16623445
-0.0058903003
0.16628667
-0.0053790227
0.16598974
-0.0040896632
0.16540482
-0.0011823035
0.16444533
0.0018595708
0.1628571
0.0069514228
0.16100664
0.011512317
0.15835105
0.018216355
0.15618299
0.023738287
0.15385839
0.030185615
0.15283658
0.035277905
0.15209068
0.040278568
0.15401728
0.044276739
0.15752137
0.04564299
0.16502892
0.047339712
0.042622142
0.17613803
0.17686733
-0.0021174568
0.17711007
-0.0038730009
0.17743325
-0.00545154
0.17748192
-0.0059389645
0.17733242
-0.0052295223
0.17678943
-0.0035466729
0.17609121
-0.00048408646
0.1747589
0.0031918801
0.17304047
0.0086698507
0.17096926
0.01358353
0.16886888
0.020316732
0.16756496
0.025042209
0.16673202
0.031018559
0.16760187
0.034408056
0.16975104
0.038129398
0.17532731
0.038700469
0.18252744
0.038442855
0.19351591
0.036351238
0.030925055
0.205213
0.18947798
-0.0018420738
0.18951765
-0.0039126728
0.18954394
-0.0054778297
0.18939183
-0.0057868535
0.18906196
-0.0048996551
0.18835703
-0.0028417389
0.18746367
0.00040927065
0.18599007
0.0046654858
0.18453812
0.010121801
0.1828747
0.015246948
0.1820112
0.021180227
0.1820254
0.025028008
0.1833029
0.029741062
0.18661631
0.031094649
0.1919507
0.032795006
0.20001104
0.030640126
0.20882293
0.029630963
0.2196061
0.025568073
0.022484324
0.22804683
0.20293089
-0.0017409398
0.20305144
-0.0040332271
0.20281504
-0.005241429
0.2024981
-0.0054699098
0.20202308
-0.0044246408
0.20126887
-0.0020875204
0.20022111
0.001457025
0.19868611
0.0062004819
0.19758114
0.01122678
0.19662659
0.016201499
0.19712742
0.020679394
0.19855548
0.02359995
0.201931
0.026365534
0.20704766
0.025977989
0.2140975
0.025745165
0.22224815
0.022489476
0.23019628
0.021682833
0.23799087
0.017773485
0.018535132
0.24194006
0.2177612
-0.0017185113
0.21760893
-0.0038809536
0.21728675
-0.0049192553
0.21694494
-0.0051280976
0.21629847
-0.0037781743
0.21540277
-0.0011918145
0.21435694
0.0025028542
0.21342072
0.0071366977
0.21302678
0.011620726
0.21342801
0.015800261
0.21542741
0.018679994
0.21829083
0.020736535
0.2234638
0.021192558
0.22935084
0.020090957
0.23639666
0.018699341
0.24286184
0.016024295
0.24831985
0.016224823
0.25172638
0.014366954
0.019040698
0.25122081
0.23348909
-0.0017891203
0.23310673
-0.0034985956
0.23283332
-0.0046458446
0.23218313
-0.0044779074
0.2313306
-0.0029256447
0.23051654
-0.00037775466
0.22959166
0.0034277353
0.22911576
0.0076125975
0.22943587
0.011300609
0.23111355
0.014122587
0.23391362
0.015879924
0.2379496
0.01670055
0.24352446
0.015617701
0.24869027
0.014925141
0.25442304
0.012966574
0.25804666
0.012400672
0.26010536
0.014166121
0.25875532
0.015717
0.023556693
0.25423932
0.25045962
-0.0015576569
0.25023412
-0.0032730971
0.24997371
-0.0043854378
0.24938252
-0.0038867172
0.24891621
-0.0024593258
0.2481042
0.000434253
0.24767269
0.0038592398
0.24800493
0.0072803573
0.24943659
0.0098689492
0.25204008
0.0115191
0.25542622
0.012493785
0.25998096
0.012145805
0.26439436
0.011204306
0.26860677
0.010712735
0.27178881
0.0097845315
0.27165104
0.012538436
0.27010757
0.015709594
0.2652779
0.020546672
0.028869397
0.2599652
0.26895933
-0.0012883422
0.26863141
-0.0029451797
0.26778903
-0.0035430593
0.26692886
-0.003026543
0.26621784
-0.0017483071
0.2658142
0.00083788527
0.26604063
0.0036328134
0.26697371
0.006347281
0.26893236
0.0079102994
0.27169534
0.0087561211
0.27517964
0.0090094796
0.27917405
0.0081513959
0.28229751
0.0080808422
0.28498788
0.0080223666
0.28459982
0.010172593
0.28281432
0.014323932
0.2804862
0.018037722
0.2767491
0.024283764
0.029243068
0.27637543
0.28942869
-0.0012565802
0.28913398
-0.0026504778
0.28865686
-0.0030659305
0.28823394
-0.0026036277
0.28768365
-0.0011980181
0.28766805
0.00085348505
0.28833963
0.0029612396
0.2898461
0.004840808
0.29206865
0.0056877486
0.29474285
0.0060819169
0.29790626
0.005846079
0.30049602
0.0055616302
0.30216993
0.0064069299
0.30208582
0.0081064788
0.3003288
0.01192961
0.29960185
0.015050884
0.2987284
0.018911172
0.30074317
0.022268996
0.022529041
0.3074572
0.31109081
-0.001011145
0.31032959
-0.0018892596
0.3092176
-0.001953941
0.30826346
-0.0016494848
0.30789617
-0.00083072878
0.30815706
0.00059259685
0.30897153
0.0021467628
0.31069384
0.0031185004
0.31276647
0.003615123
0.31508871
0.0037596794
0.31736769
0.0035670939
0.31903029
0.003899034
0.32012476
0.0053124573
0.32049961
0.0077316264
0.32197911
0.01045011
0.32465194
0.012378054
0.32894447
0.014618644
0.33696213
0.014251333
0.01358166
0.34590951
0.33531924
-0.0010059565
0.33487349
-0.0014435099
0.33435925
-0.0014397002
0.33407424
-0.001364468
0.33416602
-0.00092251172
0.33473791
2.070495e-05
0.33605055
0.00083412179
0.33767663
0.001492423
0.33941685
0.0018749042
0.34118122
0.0019953123
0.34234182
0.0024064914
0.34313241
0.0031084395
0.34399584
0.0044490308
0.34616979
0.0055576775
0.34969417
0.0069257241
0.35457687
0.0074953626
0.36152778
0.0076677282
0.3695417
0.0062374157
0.0060544789
0.37706888
0.36097225
0.35952874
0.35808904
0.35672458
0.35580206
0.35582277
0.35665689
0.35814931
0.36002422
0.36201953
0.36442602
0.36753446
0.37198349
0.37754117
0.38446689
0.39196226
0.39962998
0.4058674
0.41192188
0.10596788
0.046931082
-0.045357383
0.10470263
0.047977741
-0.046712488
0.10382955
0.048594558
-0.047721482
0.10303796
0.049834495
-0.049042908
0.10293173
0.049755244
-0.049649013
0.10289966
0.049918032
-0.049885959
0.10314598
0.050599394
-0.050845713
0.10434767
0.049349232
-0.050550926
0.10553543
0.048306329
-0.049494089
0.10722435
0.04839642
-0.050085333
0.1097516
0.047018896
-0.049546146
0.11257034
0.044462868
-0.047281614
0.11518923
0.043266211
-0.045885102
0.11825851
0.042557899
-0.045627174
0.12183384
0.041457239
-0.045032573
0.12553771
0.039826341
-0.043530209
0.12869262
0.038484368
-0.041639281
0.13047883
0.039262833
-0.041049042
0.040194983
0.13069241
-0.040408559
0.10866279
0.04908582
0.10712051
0.049520025
0.10541469
0.050300378
0.10457158
0.050677603
0.10386737
0.050459456
0.10330601
0.050479388
0.103691
0.050214407
0.10425604
0.048784188
0.10502286
0.047539511
0.10693735
0.046481926
0.10945774
0.04449851
0.11165566
0.042264952
0.11464903
0.04027284
0.11860901
0.038597919
0.12294631
0.037119934
0.12697824
0.035794415
0.12982348
0.03563913
0.13242777
0.036658537
0.037230435
0.13539232
0.11044553
0.051416009
0.10799271
0.05197284
0.10608371
0.05220938
0.10455346
0.052207855
0.10314125
0.051871662
0.10248502
0.051135616
0.10205745
0.05064198
0.10209367
0.048747972
0.10285163
0.046781545
0.10398301
0.045350545
0.10634321
0.042138311
0.10935969
0.039248473
0.11295149
0.036681039
0.11670531
0.034844097
0.12130827
0.032516981
0.12690319
0.030199487
0.13386442
0.028677909
0.14201982
0.028503132
0.029836565
0.14941369
0.1107073
0.054612259
0.10762487
0.055055273
0.10505444
0.054779811
0.10248691
0.054775385
0.10076707
0.053591499
0.098911419
0.052991267
0.098145575
0.051407824
0.097655001
0.049238545
0.097202908
0.047233638
0.098881793
0.04367166
0.10132017
0.039699937
0.10372112
0.036847518
0.10768711
0.032715052
0.11430795
0.028223252
0.12328813
0.023536803
0.13320942
0.020278198
0.14314234
0.018744986
0.15246637
0.019179099
0.022255728
0.16004721
0.10902879
0.058606157
0.10553062
0.05855344
0.10174389
0.058566543
0.098794953
0.057724319
0.095563431
0.056823021
0.093228458
0.05532624
0.091264995
0.053371286
0.089359352
0.051144188
0.089578049
0.047014941
0.090287374
0.042962335
0.090850776
0.039136535
0.095353218
0.032345077
0.10261905
0.025449215
0.11006644
0.020775869
0.11606417
0.017539073
0.12013756
0.016204809
0.12244349
0.016439049
0.12393664
0.017685954
0.020827927
0.12536444
0.10587475
0.063289438
0.10112436
0.063303823
0.096400547
0.063290359
0.092159747
0.06196512
0.087752153
0.061230615
0.084047311
0.059031082
0.079962381
0.057456216
0.07796299
0.05314358
0.075553983
0.049423947
0.072936911
0.045579407
0.074297119
0.037776327
0.078238608
0.028403588
0.079042746
0.024645077
0.07510616
0.024712456
0.067357606
0.025287627
0.057039133
0.026523282
0.045474831
0.02800335
0.033641461
0.029519325
0.032608655
0.021860732
0.10137732
0.069072278
0.095157699
0.069523443
0.089216564
0.069231494
0.082856767
0.068324916
0.076777879
0.067309503
0.070222788
0.065586173
0.064444589
0.063234415
0.058386992
0.059201177
0.051060443
0.056750495
0.04710377
0.049536081
0.043597909
0.041282187
0.037238993
0.034762504
0.026686775
0.035197295
0.01255209
0.03884714
-0.0033602142
0.041199932
-0.020087809
0.043250877
-0.037624434
0.045539975
-0.05669279
0.048587681
0.052375525
-0.076459659
0.095522987
0.076203189
0.088070473
0.076975958
0.080584316
0.07671765
0.0723441
0.076565132
0.063952748
0.075700855
0.054419028
0.075119894
0.044640912
0.073012531
0.032870164
0.070971925
0.024115811
0.065504848
0.017240582
0.05641131
0.0048378051
0.053684964
-0.011269251
0.05086956
-0.028783119
0.052711163
-0.04609065
0.056154671
-0.064216537
0.059325818
-0.082842231
0.061876572
-0.1014534
0.064151142
-0.12021916
0.067353442
0.071196942
-0.13904058
0.090787691
0.084705634
0.082184261
0.085579388
0.073142405
0.085759505
0.063562883
0.086144654
0.053345847
0.085917891
0.042141369
0.086324371
0.029387702
0.085766198
0.015944899
0.084414728
0.0071675694
0.074282177
-0.0037699379
0.067348818
-0.020823947
0.070738973
-0.042118316
0.072163929
-0.064556535
0.075149382
-0.085167052
0.076765188
-0.10435319
0.078511953
-0.12251671
0.080040098
-0.14023314
0.081867565