/*--------------------------------*- C++ -*----------------------------------*\
  =========                 |
  \\      /  F ield         | OpenFOAM: The Open Source CFD Toolbox
   \\    /   O peration     | Website:  https://openfoam.org
    \\  /    A nd           | Version:  11
     \\/     M anipulation  |
\*---------------------------------------------------------------------------*/
FoamFile
{
    format      ascii;
    class       surfaceScalarField;
    location    "11.6";
    object      phi;
}
// * * * * * * * * * * * * * * * * * * * * * * * * * * * * * * * * * * * * * //

dimensions      [0 3 -1 0 0 0 0];

internalField   nonuniform List<scalar> 
10792
(
0.069344691
-0.043213953
-0.06986538
0.043734643
0.068803412
-0.041268625
0.041809904
0.068136505
-0.039086517
0.039753425
0.067486191
-0.036890246
0.037540559
0.066678252
-0.03461971
0.035427649
0.065858081
-0.032158069
0.03297824
0.065060647
-0.029924017
0.030721451
0.06425114
-0.02742382
0.028233327
0.063436984
-0.025070985
0.025885142
0.062693414
-0.022517513
0.023261083
0.061900082
-0.020118631
0.020911963
0.061261811
-0.017422475
0.018060747
0.060587291
-0.015104751
0.015779271
0.060040415
-0.012297436
0.012844312
0.059554381
-0.0099746772
0.010460712
0.059083896
-0.0071472729
0.0076177577
0.058801599
-0.0047869574
0.0050692552
0.058568616
-0.0021498023
0.0023827862
0.00037748601
0.058651108
-0.00045997747
0.073266452
-0.042740913
-0.073739492
0.072698268
-0.04070044
0.072022165
-0.038410414
0.071340206
-0.036208286
0.070533521
-0.033813026
0.069811548
-0.031436095
0.069069281
-0.029181751
0.068298635
-0.026653175
0.067520111
-0.02429246
0.066763509
-0.021760911
0.06600214
-0.019357262
0.06535415
-0.016774485
0.06465183
-0.014402431
0.064117879
-0.011763484
0.06362832
-0.0094851179
0.063222474
-0.0067414262
0.062982817
-0.0045472999
0.062686892
-0.001853876
0.00044671411
0.062617664
0.077932811
-0.042292169
-0.078381555
0.077345607
-0.040113236
0.076671653
-0.03773646
0.075994854
-0.035531487
0.075255642
-0.033073814
0.074590546
-0.030770999
0.073782769
-0.028373974
0.072988276
-0.025858681
0.072172293
-0.023476478
0.07136532
-0.020953938
0.070604731
-0.018596673
0.069896949
-0.016066702
0.069231532
-0.013737013
0.068681106
-0.011213058
0.068148434
-0.0089524462
0.067763559
-0.0063565507
0.067413402
-0.0041971421
0.067159948
-0.0016004213
0.00057920834
0.067027454
0.08241518
-0.041949533
-0.082757815
0.081737215
-0.039435271
0.081106579
-0.037105824
0.080442454
-0.034867363
0.079776268
-0.032407628
0.079046893
-0.030041625
0.078145453
-0.027472534
0.07738681
-0.025100039
0.076583334
-0.022673001
0.075853484
-0.020224088
0.075124231
-0.017867419
0.074434533
-0.015377004
0.073795443
-0.013097923
0.073229923
-0.010647538
0.072712562
-0.0084350841
0.072339112
-0.0059831004
0.071994994
-0.0038530234
0.071814272
-0.0014196986
0.00071652427
0.071676956
0.087638568
-0.041424712
-0.088163389
0.086932408
-0.03872911
0.086451329
-0.036624745
0.085725777
-0.034141811
0.084989987
-0.031671837
0.084142756
-0.029194394
0.083366514
-0.026696292
0.082698996
-0.024432521
0.081914322
-0.021888327
0.08122449
-0.019534255
0.080444328
-0.017087257
0.079763129
-0.014695805
0.079078455
-0.012413249
0.078491589
-0.010060672
0.077970399
-0.0079138932
0.077584587
-0.005597288
0.077223175
-0.0034916106
0.076997951
-0.0011944748
0.0008688464
0.076845629
0.092783082
-0.040826777
-0.093381017
0.09220745
-0.038153478
0.091564116
-0.035981411
0.090691037
-0.033268732
0.090011602
-0.030992402
0.089243463
-0.028426255
0.088584008
-0.026036837
0.087785609
-0.023634122
0.08698403
-0.021086748
0.086259751
-0.018809976
0.085482426
-0.016309932
0.084861805
-0.014075184
0.084189352
-0.011740795
0.08367467
-0.0095459889
0.083135111
-0.0073743333
0.082736241
-0.0051984178
0.082369701
-0.0031250698
0.082165261
-0.00099003465
0.0010204463
0.082013661
0.09854896
-0.040130931
-0.099244806
0.098013018
-0.037617536
0.097323735
-0.035292128
0.09661064
-0.032555637
0.096029701
-0.030411463
0.095274002
-0.027670556
0.094615985
-0.02537882
0.093737978
-0.022756116
0.093046354
-0.020395124
0.092274144
-0.018037765
0.091561754
-0.015597542
0.090919532
-0.013432962
0.090239006
-0.011060269
0.089684983
-0.0089919652
0.089097888
-0.0067872378
0.088694613
-0.0047951423
0.088272838
-0.0027032939
0.088038992
-0.00075618828
0.0011860303
0.087873408
0.10481749
-0.039428045
-0.10552038
0.10423028
-0.037030323
0.10341294
-0.034474793
0.10274847
-0.031891165
0.10196008
-0.02962307
0.10111166
-0.026822138
0.10042334
-0.024690495
0.099597297
-0.021930077
0.098961196
-0.019759022
0.098154594
-0.017231164
0.097516224
-0.014959172
0.096768325
-0.012685062
0.096161951
-0.010453896
0.0956022
-0.0084322129
0.095109687
-0.0062947247
0.094728442
-0.0044138963
0.094357948
-0.0023328002
0.094165689
-0.00056392912
0.0013705079
0.093981212
0.11138572
-0.038640328
-0.11217344
0.11077318
-0.036417778
0.11005236
-0.033753979
0.10941486
-0.031253663
0.10848004
-0.028688246
0.10778573
-0.026127825
0.10708141
-0.023986183
0.10639464
-0.021243308
0.1057664
-0.019130775
0.1049396
-0.016404366
0.10428903
-0.014308603
0.10350207
-0.011898101
0.10295823
-0.0099100547
0.10230217
-0.0077761474
0.1018327
-0.0058252571
0.10134676
-0.0039279606
0.10100537
-0.0019914063
0.10073808
-0.00029664392
0.0015840672
0.10052453
0.11866649
-0.037859899
-0.11944692
0.11788441
-0.035635691
0.11706813
-0.032937708
0.11648281
-0.030668338
0.11570922
-0.027914656
0.11504112
-0.025459725
0.11408473
-0.023029794
0.11340933
-0.020567909
0.1126872
-0.018408646
0.1120334
-0.015750559
0.11141066
-0.013685868
0.11068525
-0.011172692
0.11012543
-0.0093502289
0.1094423
-0.0070930187
0.10903319
-0.0054161491
0.10855679
-0.0034515553
0.10830512
-0.0017397363
0.1080061
2.3756889e-06
0.001727968
0.1078622
0.12641197
-0.037062789
-0.12720908
0.12561772
-0.034841437
0.12479288
-0.032112866
0.12395439
-0.029829848
0.12317673
-0.027137001
0.12257485
-0.02485784
0.12169043
-0.022145379
0.12096469
-0.019842161
0.12004502
-0.017488982
0.11942749
-0.015133032
0.11870043
-0.012958806
0.1180725
-0.010544761
0.11740631
-0.0086840368
0.11678834
-0.0064750465
0.11632247
-0.00495028
0.11582345
-0.0029525349
0.11555262
-0.0014689103
0.11523519
0.00031981188
0.0018191141
0.11514404
0.13511044
-0.036310511
-0.13586271
0.13411732
-0.033848319
0.13333015
-0.031325703
0.13242654
-0.028926235
0.13156843
-0.026278886
0.13073433
-0.024023742
0.12990758
-0.021318627
0.12919561
-0.019130196
0.12833548
-0.016628851
0.12773418
-0.014531729
0.12695682
-0.012181449
0.1264706
-0.010058535
0.12577572
-0.0079891584
0.12530963
-0.0060089626
0.12475829
-0.004398935
0.12437579
-0.0025700314
0.12406413
-0.0011572591
0.12379767
0.00058627901
0.001956078
0.1236607
0.14385673
-0.0352363
-0.14493094
0.14277878
-0.032770371
0.14194311
-0.030490034
0.14097801
-0.027961132
0.14024975
-0.025550631
0.13934471
-0.023118703
0.13857255
-0.020546461
0.13778718
-0.018344833
0.13697833
-0.015819993
0.13626507
-0.01381847
0.13548311
-0.011399488
0.13490123
-0.0094766579
0.13416811
-0.0072560329
0.1337118
-0.005552653
0.13308517
-0.0037723075
0.13276412
-0.0022489848
0.13234345
-0.00073658958
0.13217909
0.0007506427
0.0021867975
0.13194837
0.15408687
-0.034049855
-0.15527332
0.15292625
-0.031609743
0.15189455
-0.029458341
0.15083791
-0.026904487
0.14995161
-0.024664333
0.14893191
-0.022099006
0.14822233
-0.01983688
0.14731179
-0.017434291
0.14660711
-0.015115315
0.1458279
-0.013039254
0.14519615
-0.01076774
0.14456192
-0.0088424301
0.14393694
-0.0066310508
0.14340817
-0.0050238839
0.14280652
-0.0031706517
0.14248796
-0.0019304261
0.14209306
-0.00034168633
0.14197919
0.00086450514
0.0024296103
0.14173638
0.16411984
-0.032671341
-0.16549836
0.16294402
-0.030433926
0.16172055
-0.028234865
0.16067179
-0.025855729
0.15969851
-0.023691051
0.15878637
-0.021186869
0.15801806
-0.019068566
0.1570517
-0.016467932
0.15633035
-0.014393963
0.1554375
-0.01214641
0.15482432
-0.010154555
0.15411864
-0.0081367492
0.15368134
-0.0061937565
0.15311024
-0.004452775
0.15266228
-0.0027226988
0.15222164
-0.0014897844
0.15187788
2.0782137e-06
0.15173082
0.0010115635
0.0024953513
0.15166508
0.17630163
-0.031126468
-0.1778465
0.1749335
-0.029065794
0.17361363
-0.026915001
0.17246563
-0.024707726
0.17128906
-0.022514478
0.17034594
-0.020243748
0.16937634
-0.018098965
0.16854435
-0.015635951
0.16775951
-0.013609122
0.16691341
-0.011300303
0.16623626
-0.0094774033
0.16552342
-0.0074239122
0.1650685
-0.0057388318
0.16442193
-0.0038062065
0.16402608
-0.0023268478
0.16340876
-0.00087247173
0.16309699
0.00031384998
0.16268975
0.0014188033
0.0025888587
0.16259625
0.18831727
-0.029423428
-0.19002031
0.18672177
-0.027470297
0.18525981
-0.025453039
0.18393426
-0.023382174
0.18264849
-0.021228711
0.18157733
-0.019172585
0.18052722
-0.017048853
0.17972302
-0.01483175
0.17887956
-0.012765665
0.17811317
-0.010533917
0.17734199
-0.0087062185
0.17667352
-0.0067554428
0.17613952
-0.0052048349
0.17571773
-0.003384412
0.17547463
-0.0020837515
0.1751163
-0.00051413322
0.17494373
0.00048641461
0.17463734
0.0017251962
0.0026104664
0.17461573
0.20240515
-0.027520411
-0.20430816
0.20063196
-0.025697107
0.19905789
-0.023878973
0.19757585
-0.021900131
0.19627274
-0.019925604
0.19505671
-0.017956553
0.1939399
-0.01593204
0.1930127
-0.013904552
0.1921082
-0.011861164
0.19134023
-0.0097659494
0.19050367
-0.0078696582
0.18976557
-0.0060173476
0.18901173
-0.0044509893
0.1884552
-0.0028278889
0.18794404
-0.0015725838
0.18760321
-0.00017330518
0.18733758
0.00075204661
0.18714481
0.0019179653
0.0027030412
0.18705223
0.21663077
-0.025375834
-0.21877534
0.21465794
-0.023724283
0.2128162
-0.022037232
0.21112416
-0.020208086
0.20965677
-0.018458218
0.20826695
-0.016566736
0.20703313
-0.014698213
0.20594544
-0.012816871
0.20503162
-0.010947339
0.20430099
-0.0090353216
0.20364388
-0.0072125432
0.20308426
-0.0054577327
0.20248959
-0.0038563122
0.20204871
-0.0023870125
0.20159353
-0.0011174059
0.20131723
0.00010299981
0.20105506
0.0010142165
0.20095562
0.002017404
0.0027952378
0.20086342
0.2329837
-0.022975349
-0.23538418
0.23078142
-0.02152201
0.22873483
-0.019990639
0.22689866
-0.018371912
0.22522994
-0.016789501
0.2237307
-0.01506749
0.22238666
-0.013354179
0.22114065
-0.011570861
0.22002269
-0.0098293788
0.21908607
-0.0080986998
0.21833475
-0.0064612224
0.21772964
-0.004852618
0.21720083
-0.0033275082
0.21676133
-0.0019475142
0.21638499
-0.00074105979
0.21609734
0.0003906524
0.21585047
0.0012610878
0.21574162
0.0021262487
0.0028786569
0.2156582
0.2496417
-0.020424535
-0.25219251
0.24725897
-0.019139287
0.24497202
-0.017703686
0.24296867
-0.016368556
0.24109617
-0.014917008
0.23951673
-0.01348805
0.23811356
-0.01195101
0.23687399
-0.010331291
0.23577354
-0.0087289308
0.23480139
-0.007126544
0.23394599
-0.0056058191
0.2332909
-0.0041975328
0.23279841
-0.0028350165
0.23241325
-0.0015623542
0.23216116
-0.00048896775
0.23196222
0.00058958832
0.2318534
0.0013699085
0.23181715
0.0021625064
0.0028215131
0.23187429
0.2684334
-0.017674481
-0.27118345
0.2658332
-0.016539092
0.26342162
-0.015292099
0.26109621
-0.014043147
0.25896434
-0.012785135
0.25708529
-0.011609001
0.2554252
-0.01029092
0.25406922
-0.0089753098
0.25291036
-0.0075700707
0.25196994
-0.0061861296
0.25112483
-0.004760709
0.25043608
-0.0035087845
0.24985458
-0.0022535161
0.24945368
-0.0011614539
0.24911393
-0.00014921753
0.24895102
0.00075250205
0.24890553
0.0014154038
0.24895944
0.0021085955
0.002635899
0.24914505
0.28793813
-0.014803471
-0.29080914
0.28520602
-0.013806979
0.28275393
-0.012840011
0.28041675
-0.01170597
0.27825764
-0.010626026
0.2762135
-0.0095648549
0.274371
-0.0084484246
0.27279554
-0.0073998465
0.27145111
-0.0062256381
0.27036417
-0.0050991913
0.26948336
-0.0038799043
0.26876556
-0.0027909752
0.26820573
-0.001693695
0.2678192
-0.00077492327
0.26767523
-5.2414077e-06
0.2675755
0.00085223012
0.26758551
0.0014053906
0.26770475
0.0019893574
0.0024521784
0.26788847
0.30930513
-0.011555218
-0.31255338
0.30624247
-0.010744323
0.30334189
-0.0099394344
0.30073761
-0.0091016829
0.29837838
-0.0082668005
0.29623788
-0.0074243561
0.29433787
-0.0065484101
0.29263848
-0.0057004554
0.29119943
-0.0047865911
0.29002583
-0.0039255852
0.28914527
-0.002999353
0.28850607
-0.0021517723
0.28807745
-0.001265071
0.2877939
-0.00049137598
0.28762332
0.00016534223
0.28767588
0.00079966805
0.28787356
0.0012077094
0.28817518
0.0016877392
0.0019973625
0.28863
0.33231326
-0.0081748524
-0.33569363
0.32911177
-0.0075428298
0.32608886
-0.0069165181
0.32329037
-0.006303199
0.320719
-0.005695425
0.31839141
-0.0050967698
0.31633257
-0.0044895728
0.31450174
-0.0038696261
0.31294487
-0.0032297167
0.31165378
-0.0026344994
0.31062594
-0.0019715125
0.30988699
-0.0014128141
0.30939027
-0.00076835916
0.30918419
-0.00028528824
0.30918707
0.0001624593
0.30933477
0.00065196621
0.30964642
0.00089606561
0.30998179
0.0013523609
0.0014972644
0.31048189
0.35684763
-0.0043188277
-0.36070366
0.35330656
-0.004001756
0.3500345
-0.0036444596
0.3470285
-0.0032971961
0.34428108
-0.0029480043
0.34181345
-0.0026291399
0.33962567
-0.0023017982
0.33770524
-0.0019491913
0.33609706
-0.001621534
0.33474572
-0.001283164
0.33373892
-0.00096471028
0.33300517
-0.00067906227
0.33261277
-0.00037595702
0.33247179
-0.00014431071
0.3325434
9.0851789e-05
0.33294844
0.00024692734
0.333498
0.00034650603
0.33414651
0.00070385169
0.00065591748
0.33498785
0.38436
-0.38867883
0.38035824
0.37671378
0.37341659
0.37046858
0.36783944
0.36553765
0.36358846
0.36196692
0.36068376
0.35971905
0.35903999
0.35866403
0.35851972
0.35861057
0.3588575
0.359204
0.35990786
0.36056377
0.058534405
0.0029551218
-0.0028384185
0.058799723
0.0055558056
-0.005821123
0.059275187
0.0076937894
-0.0081692535
0.059931916
0.010559706
-0.011216434
0.060883998
0.012525397
-0.013477479
0.061857939
0.015293781
-0.016267722
0.063311247
0.017375929
-0.018829238
0.064607735
0.0198478
-0.021144287
0.066387654
0.022219218
-0.023999136
0.068110707
0.024168341
-0.025891394
0.069957177
0.026750448
-0.028596917
0.072161166
0.028287426
-0.030491414
0.074051002
0.030608777
-0.032498613
0.07653505
0.03223855
-0.034722598
0.078753116
0.034037084
-0.036255149
0.08122476
0.035806872
-0.038278515
0.083787448
0.036966288
-0.039528976
0.086126466
0.038400856
-0.040739873
0.039190553
0.088839511
-0.041903597
0.06255105
0.0030217361
0.062877279
0.0052295765
0.063320476
0.0072505934
0.064164521
0.0097156604
0.065117121
0.011572797
0.066262993
0.01414791
0.067734349
0.015904574
0.069117537
0.018464612
0.071015968
0.020320787
0.072592481
0.022591829
0.074590143
0.024752786
0.076363032
0.026514537
0.078188627
0.028783182
0.08014881
0.030278368
0.081754433
0.032431461
0.083574996
0.033986308
0.084949191
0.035592093
0.086355581
0.036994466
0.037965546
0.087580588
0.066952899
0.0030962909
0.067274959
0.0049075161
0.067677507
0.0068480454
0.068522348
0.0088708198
0.069381551
0.010713594
0.070619842
0.012909619
0.071888135
0.014636281
0.073364708
0.01698804
0.074942844
0.018742651
0.076503633
0.021031039
0.078266216
0.022990204
0.079733837
0.025046917
0.081399273
0.027117746
0.082727007
0.028950634
0.084041416
0.031117052
0.084976787
0.033050938
0.085542033
0.035026847
0.085738117
0.036798382
0.038263592
0.085440071
0.071671734
0.0031015137
0.071963694
0.004615556
0.072441644
0.0063700964
0.073250463
0.0080620006
0.07416083
0.0098032269
0.075380179
0.01169027
0.076590333
0.013426128
0.078065738
0.015512636
0.079382291
0.017426098
0.080916341
0.019496991
0.082197848
0.021708698
0.083514482
0.023730283
0.084557191
0.026075038
0.085321821
0.028186004
0.085859038
0.030579835
0.085822571
0.033087405
0.08539111
0.035458309
0.084222313
0.037967179
0.040130153
0.082355752
0.076765689
0.0031814537
0.076956836
0.0044244092
0.077351236
0.0059756969
0.078023691
0.0073895453
0.078904748
0.00892217
0.079997589
0.010597428
0.081155499
0.012268218
0.082429951
0.014238184
0.083645232
0.016210819
0.084821923
0.0183203
0.085831183
0.020699439
0.086757079
0.022804388
0.087209288
0.025622829
0.087507725
0.027887567
0.087042532
0.031045028
0.086378658
0.03375128
0.084686875
0.037150091
0.082484234
0.04016982
0.043566548
0.07904784
0.082052958
0.0031421569
0.082305431
0.0041719367
0.082831023
0.0054501058
0.083596154
0.0066244143
0.084491153
0.008027171
0.085522945
0.0095656378
0.086491302
0.011299861
0.087572493
0.013156994
0.088485184
0.015298129
0.089288821
0.017516666
0.089887513
0.020100747
0.090130784
0.022561118
0.090040695
0.025712918
0.08943849
0.028489772
0.088155049
0.03232847
0.086612625
0.035293704
0.08389359
0.039869126
0.080942165
0.043121245
0.047922697
0.076586016
0.087812029
0.0032035357
0.087937238
0.0040467279
0.088380571
0.0050067726
0.088965836
0.0060391493
0.089764674
0.0072283333
0.090619378
0.0087109341
0.091560071
0.010359169
0.092469747
0.012247319
0.093184907
0.01458297
0.093744116
0.016957458
0.093884807
0.019960057
0.093716828
0.022729097
0.092954551
0.026475196
0.091643202
0.029801122
0.089768469
0.034203202
0.087244761
0.037817413
0.084192314
0.042921573
0.08059009
0.046723469
0.052592762
0.075920024
0.09396042
0.0032243284
0.094120639
0.0038865088
0.094573023
0.0045543901
0.095215106
0.0053970659
0.096006074
0.0064373667
0.096739852
0.0079771569
0.097522803
0.0095762203
0.097962179
0.011807945
0.098396663
0.014148486
0.098356172
0.016997952
0.098140415
0.020175815
0.097284688
0.023584825
0.096031061
0.027728824
0.094244241
0.031587942
0.091874017
0.036573427
0.088910654
0.040780775
0.085547559
0.046284669
0.081328388
0.05094264
0.057345582
0.076575568
0.10044665
0.0033022031
0.10054691
0.003786253
0.10093328
0.0041680205
0.10142729
0.0049030482
0.10206032
0.0058043399
0.10271867
0.0073188046
0.10335004
0.0089448569
0.10371606
0.011441926
0.10396921
0.013895341
0.10356853
0.017398625
0.10307616
0.020668193
0.10165597
0.025005009
0.10023684
0.029147955
0.097775354
0.03404943
0.09531929
0.03902949
0.091934131
0.044165934
0.088385247
0.049833552
0.084126523
0.055201365
0.061775059
0.079697045
0.10769733
0.0034670707
0.10778641
0.003697178
0.10816759
0.003786837
0.10859191
0.004478727
0.10907247
0.0053237858
0.10950422
0.0068870592
0.10977175
0.0086773228
0.10978752
0.011426162
0.10951963
0.014163232
0.108836
0.018082258
0.10791112
0.021593073
0.10628706
0.026629062
0.10456802
0.030866997
0.10194174
0.03667571
0.099639193
0.04133204
0.096158233
0.047646894
0.093444749
0.052547036
0.08982908
0.058817035
0.064517575
0.087086564
0.11488687
0.0037242451
0.11505751
0.003526534
0.11531053
0.0035338233
0.11564671
0.0041425478
0.11606083
0.0049096674
0.11649237
0.0064555128
0.11665004
0.0085196609
0.1165255
0.011550695
0.11605354
0.014635196
0.11526179
0.018874012
0.11395157
0.022903295
0.11229037
0.028290263
0.11033947
0.032817897
0.10815771
0.038857475
0.10609977
0.043389969
0.10371505
0.05003162
0.10251957
0.05374251
0.10111902
0.060217589
0.063086166
0.10255043
0.1234043
0.0039806523
0.12359779
0.0033330395
0.12364197
0.0034896431
0.12386684
0.0039176824
0.1239909
0.0047856085
0.12409763
0.0063487904
0.1239556
0.0086616922
0.12371351
0.011792779
0.12299657
0.015352139
0.12201348
0.019857106
0.12055894
0.024357834
0.11919968
0.029649529
0.11757256
0.034445014
0.11637388
0.040056153
0.11529524
0.044468614
0.11531432
0.050012537
0.11666438
0.052392449
0.11985456
0.057027409
0.055914437
0.12702629
0.13182065
0.0041083737
0.13191878
0.0032349085
0.13204423
0.0033642004
0.13240431
0.0035575993
0.13254914
0.0046407792
0.13256163
0.0063363041
0.13229666
0.0089266565
0.13192056
0.012168887
0.13099327
0.016279432
0.13004912
0.020801256
0.12879945
0.025607506
0.12804694
0.030402032
0.12728637
0.035205593
0.1275518
0.039790717
0.12848001
0.043540405
0.13175482
0.046737728
0.13652549
0.047621779
0.14456013
0.048992766
0.045140949
0.15533362
0.14161131
0.004233447
0.14127445
0.0035717701
0.14129804
0.0033406056
0.14145987
0.0033957776
0.14148165
0.0046189998
0.14146759
0.0063503613
0.14122295
0.0091712962
0.14070752
0.012684318
0.13987687
0.017110086
0.13932319
0.021354933
0.13876165
0.026169049
0.13898942
0.030174265
0.13957792
0.034617097
0.1417751
0.037593531
0.14529484
0.040020666
0.15150157
0.040530999
0.15899617
0.040127182
0.16949122
0.038497709
0.033968522
0.18066365
0.15175437
0.0041441528
0.151541
0.0037851403
0.15167673
0.0032048768
0.15167022
0.0034022944
0.15164697
0.0046422428
0.15153968
0.0064576529
0.15116166
0.0095493169
0.15058578
0.013260204
0.15014686
0.017549006
0.15013132
0.021370471
0.15052099
0.025779376
0.15186196
0.028833297
0.1541452
0.032333861
0.15840945
0.033329285
0.16410257
0.034327545
0.17215669
0.032476874
0.18077087
0.031513001
0.19112991
0.02813867
0.024682723
0.20041571
0.16238839
0.0043520137
0.16231269
0.0038608379
0.16247069
0.0030468756
0.16235979
0.0035131994
0.16242807
0.0045739663
0.1622532
0.0066325151
0.16198129
0.0098212322
0.16181913
0.013422359
0.16210638
0.017261756
0.1628607
0.020616153
0.16438142
0.024258657
0.16691978
0.026294935
0.17091078
0.028342867
0.17672773
0.027512335
0.1836556
0.027399677
0.19210464
0.024027832
0.20015745
0.023460187
0.20858139
0.019714729
0.018920478
0.21434364
0.17421507
0.0047526749
0.17444859
0.0036273162
0.17434525
0.0031502188
0.17428811
0.0035703408
0.17437273
0.004489342
0.17409033
0.0069149134
0.17403023
0.0098813349
0.17431554
0.013137052
0.17521246
0.016364835
0.17668375
0.019144862
0.17926159
0.021680816
0.1829351
0.022621425
0.18828393
0.022994037
0.19476643
0.021029832
0.20178684
0.020379273
0.20897433
0.016840341
0.21492735
0.017507163
0.22014888
0.014493195
0.017099491
0.22196987
0.18684647
0.0049584433
0.18708808
0.0033857014
0.18685742
0.003380886
0.18716293
0.0032648235
0.18719201
0.0044602698
0.18721999
0.0068869272
0.18765422
0.0094471068
0.1885498
0.012241469
0.19017394
0.014740693
0.19246052
0.016858283
0.19628415
0.017857193
0.2008156
0.01808997
0.20678843
0.017021208
0.2126603
0.015157958
0.21838115
0.014658431
0.22289197
0.01232952
0.22593361
0.014465516
0.22726773
0.013159075
0.019016909
0.22535031
0.20092308
0.0048987849
0.20090478
0.0034040085
0.20095557
0.0033300921
0.20120327
0.00301712
0.20105422
0.0046093248
0.20145685
0.006484295
0.20223078
0.0086731789
0.20360659
0.010865657
0.20564602
0.012701263
0.20852976
0.013974537
0.2128472
0.013539756
0.21738777
0.013549398
0.22294398
0.011465003
0.22702705
0.01107488
0.23089266
0.010792822
0.23249564
0.010726539
0.2328921
0.014069056
0.23045624
0.015594942
0.024138361
0.22533478
0.21580493
0.0047520576
0.21575028
0.0034586554
0.21611658
0.0029637965
0.21630869
0.0028250062
0.21667663
0.0042413819
0.21760913
0.0055517981
0.21881095
0.0074713624
0.22067906
0.0089975443
0.22313616
0.010244162
0.22688652
0.010224179
0.23088834
0.0095379301
0.23523848
0.0091992598
0.23910051
0.007602969
0.24118551
0.0089898828
0.24291447
0.009063865
0.24131083
0.012330179
0.23882573
0.016554156
0.23281012
0.021610546
0.031339296
0.22560919
0.23200655
0.004619797
0.23205537
0.003409835
0.23230436
0.0027148065
0.23227286
0.0028565007
0.23302443
0.0034898114
0.2338541
0.0047221336
0.23530221
0.0060232435
0.23752378
0.0067759786
0.24032336
0.007444585
0.24396105
0.0065864826
0.24682653
0.0066724534
0.25030007
0.0057257181
0.25180184
0.0061011962
0.25259603
0.0081956974
0.25139113
0.010268761
0.24742859
0.016292721
0.24315705
0.020825699
0.23654299
0.028224596
0.035793969
0.23208832
0.24952269
0.0042421623
0.24996312
0.0029694
0.25030676
0.0023711642
0.250908
0.002255267
0.25179432
0.0026034837
0.25283962
0.0036768332
0.25481088
0.0040519882
0.25703664
0.0045502132
0.2598717
0.0046095232
0.26249289
0.0039652891
0.26483381
0.0043315343
0.26661953
0.0039399944
0.26635545
0.006365276
0.26536184
0.0091893151
0.26153916
0.014091436
0.25801306
0.019818825
0.25455181
0.024286943
0.25199024
0.030786169
0.033216058
0.25456815
0.26831165
0.0038189886
0.2685375
0.0027435458
0.26888919
0.0020194777
0.26969424
0.0014502098
0.27043602
0.0018617061
0.2717476
0.0023652469
0.27335263
0.0024469618
0.27519696
0.0027058817
0.27745524
0.002351239
0.27895155
0.0024689816
0.28038061
0.0029024714
0.28033961
0.0039809938
0.27921063
0.0074942526
0.27723636
0.011163592
0.27493698
0.016390812
0.2747339
0.020021909
0.27497812
0.024042719
0.27964421
0.026120079
0.024550696
0.28830957
0.28932866
0.0031203238
0.28990381
0.0021683957
0.29063358
0.0012897033
0.29138394
0.00069984698
0.29241465
0.00083099763
0.29373773
0.0010421668
0.29495405
0.0012306384
0.29657118
0.0010887546
0.29797625
0.0009461652
0.2990739
0.0013713285
0.29944047
0.0025358998
0.29829784
0.0051236292
0.29700231
0.0087897765
0.29584169
0.012324211
0.2965404
0.015692102
0.29891371
0.017648599
0.30400269
0.018953744
0.31320951
0.016913253
0.015691783
0.32206843
0.31118855
0.0024136677
0.31161867
0.0017382728
0.31223809
0.00067028186
0.31295268
-1.4747717e-05
0.31358924
0.00019443763
0.31425685
0.00037456196
0.31504842
0.00043906651
0.31573684
0.0004003314
0.31617839
0.0005046145
0.31649409
0.0010556256
0.31641319
0.0026167927
0.3164376
0.0050992203
0.3176014
0.0076259804
0.32014526
0.0097803537
0.32465312
0.011184236
0.33059932
0.011702398
0.33840045
0.011152618
0.3453577
0.0099559965
0.011293866
0.34975562
0.33612897
0.001272548
0.33725518
0.0006120676
0.33808426
-0.00015880086
0.33867349
-0.00060398559
0.3392012
-0.00033327379
0.33956948
6.2865193e-06
0.33982537
0.00018317359
0.34005537
0.00017033109
0.34035881
0.00020117018
0.34062705
0.00078738319
0.3411312
0.0021126365
0.34268333
0.0035470995
0.34505728
0.0052520296
0.34895439
0.0058832383
0.35353783
0.006600799
0.35905065
0.0061895754
0.36418819
0.0060150788
0.36842811
0.0057160746
0.0060824954
0.37363948
0.36183632
0.36244839
0.36228959
0.3616856
0.36135233
0.36135861
0.36154179
0.36171212
0.36191329
0.36270067
0.3648133
0.3683604
0.37361243
0.37949567
0.38609647
0.39228605
0.39830112
0.4040172
0.41009969
0.085488066
0.04576053
-0.042409086
0.082535747
0.045751933
-0.042799613
0.079154167
0.045851838
-0.042470258
0.076604421
0.044808813
-0.042259066
0.073225012
0.043854281
-0.040474872
0.070610131
0.042630188
-0.040015308
0.068048865
0.03966485
-0.037103584
0.064862133
0.037516118
-0.034329385
0.063563642
0.032394286
-0.031095795
0.060908916
0.028245132
-0.025590406
0.058491271
0.023062593
-0.020644947
0.060866693
0.012629554
-0.015004977
0.063423744
0.0017248188
-0.0042818698
0.061331366
-0.0039405024
0.0060328812
0.054769071
-0.0058288054
0.0123911
0.043346528
-0.0036044865
0.01502703
0.027031053
0.0013056978
0.015009777
0.0066742378
0.010084525
0.01027229
0.020584697
-0.014341783
0.00043132385
0.083592427
0.049748692
0.079300995
0.050043366
0.075115113
0.05003772
0.070989904
0.048934022
0.066441286
0.0484029
0.063022047
0.046049427
0.05786349
0.044823408
0.054158433
0.041221174
0.049543356
0.037009364
0.045342348
0.03244614
0.046606292
0.021798649
0.047205692
0.012030154
0.038931802
0.00999871
0.024325166
0.010666133
0.0072109014
0.011285459
-0.01128834
0.014894754
-0.030062051
0.02007941
-0.048791607
0.028814081
0.03925056
-0.06745747
0.080645724
0.054543039
0.075307077
0.055382014
0.070055876
0.055288921
0.064039906
0.054949992
0.058460122
0.053982685
0.052022703
0.052486846
0.045920494
0.050925617
0.040020527
0.047121142
0.031888493
0.045141398
0.028326968
0.036007666
0.024527363
0.025598255
0.014499317
0.022058199
-0.00011563122
0.024613659
-0.016923269
0.027473771
-0.034768884
0.029131075
-0.053632015
0.033757885
-0.072864906
0.0393123
-0.090887338
0.046836513
0.054844407
-0.10648118
0.076314406
0.060584385
0.070081361
0.061615059
0.063339773
0.06203051
0.056202322
0.062087443
0.048929141
0.061255865
0.04042345
0.060992538
0.0323956
0.058953468
0.021856072
0.057660669
0.013168647
0.053828823
0.0068144555
0.042361858
-0.00608671
0.038499421
-0.021535697
0.037507187
-0.037128287
0.040206249
-0.053395028
0.043740512
-0.070780176
0.046516223
-0.087661876
0.050639585
-0.10365463
0.055305052
-0.11794563
0.06112751
0.066414463
-0.12951568
0.071847797
0.067784429
0.064724102
0.068738754
0.056936826
0.069817786
0.048798979
0.07022529
0.039815196
0.070239649
0.030086128
0.070721606
0.019194094
0.069845502
0.0072993917
0.069555372
0.00027398413
0.060854231
-0.010442729
0.05307857
-0.028335932
0.056392625
-0.047263563
0.056434817
-0.064939265
0.057881952
-0.081288828
0.060090074
-0.097106112
0.062333508
-0.11179556
0.065329033
-0.12494658
0.068456075
-0.13536927
0.071550202
0.074357539
-0.14331235
0.068768975
0.07560147
0.060773922
0.076733806
0.052390427
0.078201282
0.043756547
0.078859169
0.034200793
0.079795404
0.024415348
0.08050705
0.013148191
0.08111266
0.0030269417
0.079676621
-0.0044265315
0.068307705
-0.019173624
0.067825663
-0.037599866
0.074818867
-0.057300995
0.076135945
-0.077417571
0.077998529
-0.095759856
0.078432358
-0.1118728
0.078446455
-0.12543308
0.078889306
-0.1365891
0.079612103
-0.14511497
0.080076071
0.080504121
-0.15126156
0.067453628
0.084067867
0.058773219
0.085414215
0.049893394
0.087081108
0.040930945
0.087821617
0.03183471
0.088891639
0.023410955
0.088930806
0.013878109
0.090645506
0.0045914813
0.088963248
-0.0085961461
0.081495333
-0.029957314
0.089186831
-0.049951945
0.094813499
-0.069949041
0.09613304
-0.089579085
0.097628573
-0.1074211
0.096274375
-0.12321146
0.09423681
-0.13607224
0.091750088
-0.14537745
0.088917316
-0.1514377
0.086136316
0.083914181
-0.15484776
0.067303945
0.093339491
0.057725364
0.094992796
0.047957836
0.096848636
0.037893432
0.097886022
0.027977244
0.098807828
0.01924893
0.097659119
0.010441131
0.099453306
-0.0023830891
0.10178747
-0.026312832
0.10542508
-0.053092757
0.11596676
-0.077684001
0.11940474
-0.10081745
0.11926649
-0.12069081
0.11750193
-0.13693676
0.11252032
-0.14963646
0.10693652
-0.1581056
0.10021922
-0.16362212
0.09443384
-0.16651428
0.089028467
0.084306777
-0.16690687
0.069381826
0.10365471
0.057932906
0.10644171
0.045865317
0.10891623
0.032654181
0.11109716
0.018368641
0.11309337
0.0033586571
0.1126691
-0.010475259
0.11328722
-0.030708121
0.12202033
-0.060224928
0.13494188
-0.086810022
0.14255185
-0.11289959
0.14549431
-0.13695226
0.14331916
-0.1574025
0.13795217
-0.17405433
0.12917215
-0.18614828
0.11903047
-0.19314507
0.10721602
-0.19594552
0.097234291
-0.19579115
0.088874089
0.081279148