/*--------------------------------*- C++ -*----------------------------------*\
  =========                 |
  \\      /  F ield         | OpenFOAM: The Open Source CFD Toolbox
   \\    /   O peration     | Website:  https://openfoam.org
    \\  /    A nd           | Version:  11
     \\/     M anipulation  |
\*---------------------------------------------------------------------------*/
FoamFile
{
    format      ascii;
    class       volScalarField;
    location    "0.3592374";
    object      p;
}
// * * * * * * * * * * * * * * * * * * * * * * * * * * * * * * * * * * * * * //

dimensions      [0 2 -2 0 0 0 0];

internalField   nonuniform List<scalar> 
880
(
80.0000000000004
80.00000016385775
80.01345702109498
81.88036361261844
80.00000000017729
80.0000004813165
80.01669081785286
82.76391761475416
80.00000000090172
80.00000187777135
80.03089552982469
83.82261290172632
80.0000000120275
80.00000824579209
80.06381037773744
85.40758562801884
79.9999999446778
80.00000002780087
80.00000611613811
80.00009435567702
80.00003799786163
80.00014607015393
80.0009110085015
80.00134651798008
80.14460015279423
80.23457662777118
80.38549237792097
80.53779475232007
88.34440786039586
91.39564288487622
94.00071308010801
95.23503123591959
80.00023343424684
80.00190273629089
80.00718982963639
80.02228134262765
80.01262436370989
80.05407691305955
80.10847887259553
80.2287602263437
81.27050735965216
81.90767992803586
82.71484001039802
83.76515200797061
96.38512969535608
97.95093209473089
98.27353359011416
97.50852201838669
90.98667118540742
87.50957520448209
85.83750425056719
84.74257093152443
85.69177770495111
86.37144979627047
86.77400369242723
86.80862500834129
80.63880750091448
81.12355472931171
81.63902227791088
82.02325685799131
80.07908967487901
80.19129082101982
80.36116384074869
80.59966591239348
80.87776671404738
81.15710161738077
81.43364315802137
81.64007318891429
82.31288262068685
82.48083971242293
82.56763355519583
82.57337285332281
86.44909207546232
85.94969985244413
85.29455567469353
84.61630722370596
83.58709192741161
82.89852030196931
82.50697683985001
82.07910705665012
82.08343478138411
84.14365491709479
82.52052682312028
81.76640333938127
87.74245480580171
83.86378426540115
82.36951504539732
81.74669822741548
120.5577751294137
85.26207956325452
82.1875283125668
81.49460174458886
158.3480278788874
93.05774675086391
82.67021696288406
81.40189520472769
81.37300401310875
83.39327198112181
102.7715573623151
175.0766907162175
80.87273680028268
84.75166440953349
113.7345248764234
174.2795008275945
81.08515583863742
87.90165512788089
128.3729802471388
176.1372262828399
81.89143859868967
93.58582927171621
142.2712794328042
173.4126497750388
167.7072536230575
149.9509574801151
102.2401734826955
83.66790679488474
160.7381706853725
151.1909557483255
111.8303063081509
86.84041079519022
153.342936982065
148.9208348059083
120.125968945736
91.94301805684056
145.6346055980745
138.908691585763
121.4590498234382
98.3127813675263
103.9492645775575
117.3639419338177
126.5675557183671
136.6078251321066
103.1379275055445
109.2149459440166
113.4275202066865
123.6649799051849
100.836970540711
101.4843416809624
100.6812478216783
107.3274539726896
97.84677258322594
95.22413902283185
89.17504094454692
88.30750158335346
95.46852754182184
89.32758854409947
78.72363738223008
66.39560744950951
91.68582233887339
83.96084527939429
69.9315136139777
43.06373374960196
88.80556796904609
81.54220836756357
63.23933427741798
26.39394353608314
86.35657836915837
80.46176285968835
58.99071430982733
14.84821683402917
15.6052354439793
60.56881042856133
79.58678251416615
84.17255977693513
24.76282298517633
61.3647374031893
78.99416016186146
82.70516510305821
27.33954260231997
61.04498934401966
78.13595799352724
81.71389301243661
25.83936808912568
60.43832904081172
77.52975529641535
81.17541074645426
31.26901268583224
63.06635845263209
77.20205627519638
80.23977987970827
36.95806201071851
65.60874716253673
77.11654358195479
79.6864051346749
43.59635778098529
68.84961834983672
77.31445342509811
79.6658451868626
51.41998636897413
71.098337849393
77.69924945678292
79.73913694159808
53.28239554692598
58.94004931449538
73.28901940540867
79.26089924427995
51.93680477891446
60.14520062447715
73.51415597451883
79.25267853232913
49.49688061554807
61.86250841365729
74.01475380549267
79.25458022167039
47.17471681108709
63.82091763484255
74.73195740974303
79.31309892532046
51.41998636900895
71.09833784937086
77.69924945669572
79.7391369412648
43.59635778112621
68.84961834943687
77.3144534248388
79.66584518606511
36.95806201076338
65.60874716240046
77.11654358155302
79.68640513426614
31.26901268586969
63.06635845218495
77.20205627505234
80.23977987956229
84.17255977712888
79.58678251434617
60.5688104284637
15.60523544370506
82.70516510293558
78.99416016184198
61.36473740295664
24.76282298485556
81.71389301258981
78.13595799387494
61.04498934358925
27.33954260228857
81.1754107466613
77.52975529672302
60.43832904071785
25.839368089059
14.8482168341764
58.99071430985735
80.46176285989378
86.35657836935164
26.39394353596316
63.23933427737033
81.54220836772404
88.80556796883121
43.06373374946301
69.93151361450592
83.96084527957188
91.68582233924151
66.39560744972108
78.72363738207694
89.32758854353381
95.46852754220659
103.9492645779211
117.3639419344405
126.5675557189249
136.6078251319858
103.1379275053833
109.2149459438459
113.4275202070611
123.6649799050612
100.8369705403693
101.4843416808696
100.6812478217953
107.3274539727402
97.84677258319147
95.22413902253514
89.17504094427618
88.3075015835681
145.6346055980167
138.9086915855617
121.4590498237912
98.31278136827447
153.3429369818825
148.9208348057793
120.1259689458964
91.94301805687455
160.7381706854071
151.1909557479756
111.8303063078875
86.84041079557902
167.7072536227992
149.9509574803877
102.240173483065
83.66790679483609
81.37300401292384
83.3932719810141
102.7715573623485
175.0766907157584
80.87273680069798
84.75166440963271
113.7345248763987
174.2795008271385
81.08515583929156
87.9016551287036
128.372980246827
176.1372262825153
81.89143859880414
93.58582927189703
142.2712794327338
173.4126497749398
81.40189520475334
81.49460174441435
81.74669822781816
81.76640333944292
82.67021696248621
82.18752831230169
82.36951504577308
82.52052682301176
93.05774675035246
85.26207956320509
83.86378426509094
84.14365491696138
158.3480278781616
120.557775129035
87.74245480608421
82.08343478139243
81.64007318921084
82.57337285356559
84.61630722387795
82.07910705650673
81.43364315769551
82.5676335552396
85.29455567452418
82.50697683975123
81.15710161741097
82.48083971245242
85.94969985270556
82.8985203016269
80.87776671377799
82.31288262030125
86.44909207551771
83.5870919275264
80.07908967474711
80.63880750059779
85.69177770501635
90.98667118534144
80.19129082093102
81.12355472898103
86.37144979640867
87.50957520414471
80.36116384117049
81.63902227724449
86.77400369252756
85.83750424984351
80.59966591228701
82.0232568579431
86.80862500831479
84.74257093122485
97.50852201828454
83.76515200819502
80.22876022627023
80.0222813427245
98.27353359003256
82.71484001050828
80.10847887238302
80.00718982961851
97.95093209451201
81.90767992786157
80.05407691230154
80.00190273639329
96.38512969551714
81.27050735940828
80.0126243634683
80.00023343423589
95.23503123572816
80.53779475251247
80.00134651793546
80.00009435612311
94.0007130796607
80.38549237791415
80.00091100842708
80.00000611642609
91.39564288448342
80.23457662772263
80.0001460702199
80.0000000276608
88.34440786014166
80.14460015260211
80.00003799735937
79.99999994537085
80.00000000002807
80.00000016396199
80.01345702111276
81.88036361252331
80.00000000026193
80.00000048100623
80.01669081814789
82.76391761441469
80.00000000110963
80.00000187755403
80.03089552979365
83.82261290205307
80.00000001233936
80.00000824570665
80.06381037778873
85.40758562824752
83.52401815136743
85.09531416081704
87.6437330602776
92.78688879748991
85.09531416109935
87.15064686330899
90.99722848439009
98.69110337838508
87.64373306043525
90.99722848427649
97.31200534915743
106.8208718917233
92.78688879778274
98.69110337784738
106.8208718923139
117.1820268868789
127.9924558515302
119.0252354130443
115.1013984343951
106.8656354775869
126.2797443696012
123.6456889307261
123.6041111013436
119.5301641643304
126.3198676733472
125.4943704833773
125.050712225874
123.6401774970041
123.7373897995166
123.3303070759443
123.2435056811207
122.3929133745603
119.6768307421201
117.8559582716164
114.2518282929632
109.3400976241994
119.9429491057178
118.039826632653
114.3868072208811
109.8050830330171
120.2786349555019
118.2215961732859
114.3690023022906
110.2398946512189
120.4534137633409
118.1133373061915
114.5207865460508
108.5601492153628
82.83049143657888
71.90501858116983
70.60488580024932
70.98544749057373
75.82086059346116
69.03041702176391
69.65703180489959
70.3816901822296
69.99730729627996
68.89582402542715
70.22940123366904
70.92984777188641
60.7366064981382
66.59795036908521
69.23777666233774
70.19838907090661
70.9300207760931
71.29229254542192
72.10767593371078
73.05110085051558
70.47270387784324
70.85088472203273
71.73548299957449
72.92898233683771
70.90444741789504
71.13416075213577
71.87246134740153
72.80670303021481
70.29685800754571
70.61802364156082
71.55363679880774
72.84650908739972
78.67378612923901
114.035516168412
165.0711070784912
181.4274787631095
81.36367852551474
121.5221044638106
162.5396347376614
173.2947260921062
83.49478054196598
125.296831946329
161.3143588576734
171.9960287983297
84.86401084618709
130.7127820285804
161.6595920187585
171.9731958753061
218.1624777322155
209.337257998082
201.7901831115488
190.5371681397993
219.3304160006784
212.1162911958918
203.9473698417652
192.3777357262186
218.3262429791913
213.6469457617627
205.0478963353234
193.4984930899733
213.209513889692
215.5718726787317
206.9708672499504
195.2365793759895
178.1479403735994
167.8952340317617
158.274457415357
153.3866747033099
180.1461809037889
169.279382177198
158.9645154115076
153.7600166635691
181.2947036256261
169.4884222455344
159.5122216823177
153.725284815571
183.701047506988
170.9138619408709
161.173707701011
154.8234762934963
148.5698467545562
140.658242887327
126.7741655772339
105.8850707499327
149.2636746209743
142.1819391549922
128.8939366270491
114.3599788856159
149.2080277774132
142.6098387365916
130.6898239704196
119.6674558302394
150.3701748856396
144.9550073245564
134.0437514855265
134.5834667946993
64.62301001524422
16.54896908948978
2.690604118635473
1.283633398493319
49.95161016644991
10.39445010707766
2.242182218966605
1.464408330696776
34.73867443665177
6.571933396010274
1.96341399121862
1.62079682159767
19.55113509072783
3.060984096099518
1.72618331978842
1.813248835716629
1.929269202213264
4.153429269414072
6.785700262499748
10.6715380847724
2.736338034440696
5.087827389361366
7.800662637693607
11.94478966291512
3.199530618614655
5.472932474074633
8.645973145511384
12.64693752686744
3.753837378270151
6.199433934984296
10.0929396671884
13.79309009803868
12.51724498674808
18.94023248274359
26.03300972587657
34.7410111313682
12.1297954021103
17.87725833884916
24.71998146416525
33.2309494250331
12.44050394457503
16.3510365869928
22.87548335450068
32.23952868169422
11.69544788479602
14.46071876690237
19.06065822808382
30.28201639469903
35.0337513834715
33.20764340903938
32.54784939522521
33.17749880308405
31.86519196186005
31.78645291649006
32.24760788086542
32.35380353021807
31.01257113072881
32.65715484668032
32.98668226352581
33.02246791368
29.23692915772151
31.45584275336644
31.77608527336912
32.50247427921668
32.92037223063559
33.23124926740942
33.49121491236595
33.61774368652241
32.97860142944133
32.93616825221372
32.84465836052814
32.95082764481474
32.92858387130297
33.39766276970219
33.83627653445156
34.09489826492523
34.7515633037512
35.80226761983476
36.54011530378352
36.54214575535774
33.61774368652429
32.95082764481837
34.09489826492322
36.54214575536221
33.49121491234938
32.84465836050585
33.83627653444547
36.54011530381141
33.23124926740475
32.93616825222779
33.3976627697784
35.8022676198589
32.9203722307055
32.97860142944219
32.92858387136949
34.75156330376996
33.17749880322476
32.5478493952726
33.20764340911269
35.03375138353635
32.35380353023692
32.24760788091367
31.7864529165138
31.86519196191792
33.02246791375734
32.98668226364352
32.65715484670344
31.01257113078581
32.502474279253
31.77608527339817
31.45584275342818
29.23692915777229
30.28201639478566
19.06065822821916
14.46071876700346
11.69544788488179
32.23952868177197
22.87548335455054
16.35103658709951
12.44050394472031
33.23094942511128
24.71998146426349
17.8772583389627
12.12979540221759
34.74101113143082
26.03300972598737
18.94023248281589
12.51724498691528
10.67153808483551
6.785700262530404
4.153429269379643
1.929269202247217
11.94478966297304
7.800662637742499
5.087827389350944
2.736338034449117
12.64693752693201
8.645973145589339
5.472932474061359
3.199530618612128
13.79309009810423
10.09293966722313
6.199433935004525
3.753837378276716
1.283633398534082
2.690604118599977
16.54896908933474
64.62301001507589
1.464408330720124
2.24218221895003
10.39445010698486
49.95161016652298
1.620796821600744
1.96341399120653
6.571933396026434
34.73867443675757
1.813248835711873
1.726183319775072
3.060984096099296
19.5511350907762
105.885070749991
126.7741655773523
140.6582428870005
148.5698467548116
114.359978885387
128.8939366265897
142.1819391549233
149.2636746205589
119.6674558304875
130.6898239703103
142.609838737162
149.2080277773698
134.5834667949364
134.0437514850302
144.9550073249061
150.3701748854857
153.3866747032382
158.2744574151499
167.8952340316162
178.1479403728324
153.7600166635195
158.9645154115808
169.2793821763257
180.1461809030174
153.7252848158757
159.5122216818809
169.4884222448601
181.2947036251449
154.8234762932208
161.1737077009115
170.9138619405098
183.7010475063614
190.5371681393138
201.7901831113466
209.3372579978167
218.1624777324072
192.3777357258862
203.9473698414866
212.1162911955579
219.3304160007502
193.4984930898616
205.0478963350922
213.6469457616782
218.3262429790339
195.2365793758773
206.9708672498325
215.5718726781199
213.2095138900669
181.4274787631105
165.0711070782309
114.035516168474
78.67378612952075
173.2947260920216
162.5396347374882
121.5221044638512
81.36367852581473
171.9960287982394
161.3143588575251
125.2968319463189
83.49478054227839
171.9731958749499
161.6595920186154
130.7127820285662
84.8640108465103
73.0511008507378
72.10767593341431
71.29229254490657
70.93002077562059
72.92898233709388
71.73548299950302
70.85088472150723
70.4727038776219
72.80670303049314
71.87246134728086
71.13416075162942
70.90444741767398
72.8465090876752
71.553636798581
70.61802364103654
70.29685800711472
70.98544749012947
70.60488579990499
71.90501858130389
82.83049143671597
70.38169018179971
69.65703180448266
69.0304170219836
75.82086059354776
70.92984777145818
70.22940123323666
68.89582402568242
69.99730729632958
70.19838907047051
69.23777666182356
66.59795036932552
60.73660649821795
109.3400976242336
114.2518282929826
117.8559582719542
119.6768307419457
109.8050830331374
114.3868072211083
118.0398266327028
119.9429491054324
110.2398946511662
114.3690023022615
118.2215961732719
120.278634955267
108.5601492153342
114.5207865463682
118.11333730647
120.453413763182
122.3929133739612
123.6401774958302
119.5301641638701
106.8656354775772
123.2435056801288
125.0507122252492
123.6041111002201
115.1013984338244
123.3303070751898
125.494370482402
123.6456889294335
119.0252354117649
123.7373897988159
126.3198676723896
126.2797443677193
127.9924558494046
54.09176582527601
71.27149952498138
77.56388305220131
79.75943531245736
50.81835961016749
69.89464747143273
76.93566234673651
79.66602975749048
48.22183665603795
68.23882031226995
76.32173298135146
79.54988874772836
46.3989239099628
65.93394498178006
75.50433937722063
79.4209513884458
79.26089924412766
73.28901940547489
58.9400493144199
53.28239554708507
79.25267853217639
73.51415597450901
60.14520062432167
51.93680477893893
79.25458022156911
74.0147538056024
61.86250841345784
49.4968806156912
79.31309892516111
74.73195740971414
63.82091763470025
47.1747168112134
79.4209513880606
79.54988874766428
79.66602975713326
79.75943531208598
75.50433937695405
76.32173298123848
76.93566234620667
77.56388305169446
65.9339449819668
68.23882031211689
69.89464747159586
71.2714995251815
46.39892390997505
48.22183665595923
50.81835961016704
54.09176582541574
)
;

boundaryField
{
    back
    {
        type            empty;
    }
    inlet
    {
        type            zeroGradient;
    }
    front
    {
        type            empty;
    }
    top
    {
        type            zeroGradient;
    }
    outlet
    {
        type            fixedValue;
        value           uniform 80;
    }
    bottom
    {
        type            zeroGradient;
    }
    wall
    {
        type            zeroGradient;
    }
}


// ************************************************************************* //
