/*--------------------------------*- C++ -*----------------------------------*\
  =========                 |
  \\      /  F ield         | OpenFOAM: The Open Source CFD Toolbox
   \\    /   O peration     | Website:  https://openfoam.org
    \\  /    A nd           | Version:  11
     \\/     M anipulation  |
\*---------------------------------------------------------------------------*/
FoamFile
{
    format      ascii;
    class       volScalarField;
    location    "0.3592374";
    object      T;
}
// * * * * * * * * * * * * * * * * * * * * * * * * * * * * * * * * * * * * * //

dimensions      [0 0 0 1 0 0 0];

internalField   nonuniform List<scalar> 
880
(
500.0000000000027
500.000000292371
500.02406109794
503.3408211436715
500.0000000004407
500.0000008570672
500.0298647488448
504.8871571332229
500.0000000016358
500.0000033381324
500.0553421008716
506.7156808961829
500.0000000211684
500.0000146210375
500.114762806776
509.4284354960249
499.9999999006574
500.000000075423
500.000010166724
500.0001636975637
500.0000671592276
500.0002570977732
500.0016144378186
500.0023566319455
500.2633650201329
500.4347036023297
500.7186580062453
500.9607663546537
514.9178645731109
521.1125957595631
526.374311115005
529.02923914153
500.0004089497629
500.0033847170162
500.0128253166306
500.03977849476
500.0227916335317
500.0985671294677
500.2005097784934
500.4220246219091
502.4155892033671
503.6984055576036
505.2861710246713
507.2307460474786
531.2573505297805
533.8984394503158
534.3926216054956
533.1640389200751
522.840196005312
517.6389024452013
515.4439750784376
513.969536111371
511.0475416858652
512.6642110342613
513.5779744750683
513.707589474971
501.1772457404679
502.0603221174388
503.0083354826233
503.7666024346441
500.1411478985323
500.3406016774757
500.6412597709345
501.0639263222813
501.5574543028002
502.0499078875002
502.535621570575
502.8872655812427
504.3928589012895
504.7490372310264
504.9504946601919
504.9006020751013
513.0679200803479
512.1692495003898
510.9866225128375
509.7491225588216
512.2219261133081
511.0323250529421
510.2808455008825
509.5129767166163
508.9400175716619
508.8784226580264
504.7598022568036
503.0953345970539
519.1989301683767
508.0402915121641
504.3860433162035
503.0561057809504
571.3191348915473
510.4333962102829
503.9292157232529
502.6034613014288
620.3441959264744
523.8958405904809
504.7805352232388
502.4449055419352
502.3965915551302
506.0674666329747
539.6775231582558
637.4093784817057
501.5158940353531
508.5904122688958
556.3031382332898
635.1892670860806
501.8918784528003
514.4423413839512
576.6107629747672
636.1938054178032
503.3246837015676
524.8676393175376
594.7480822448804
633.437711223718
628.3166573703289
604.8054118212344
539.8159777361733
506.4865664059341
621.8129190638333
607.4544100109342
554.998357457198
512.1641466677249
614.4985336401525
605.2838692198669
566.9949461204211
521.1593563099668
606.6427283806809
594.2586854798343
569.08689906477
532.0899015909016
541.2923815796466
563.5993710521578
579.7591374203236
597.1535979464066
539.8330755917341
552.0559842985596
562.8276823816662
582.2093885858716
535.8354635885676
540.3215022555707
544.5105169400548
560.5778267446731
530.6373460668356
529.8356018283217
525.3122140517024
530.4062354416167
526.7524495852597
520.4505098039726
508.4951182106801
495.531621978694
520.5912153971947
511.2780102125111
491.9680727405952
459.8350119235687
515.7630583119844
506.0172577530819
477.9299913795039
425.1205614926877
511.5882898488167
504.5831769495631
477.6777376912588
399.8653553800708
410.5397312780257
486.8258649047604
503.2609433706891
507.7684366568135
477.9395173530495
493.0368696046639
502.4041458952605
505.1698514397456
517.2609440350519
495.7343901872478
500.8734628524993
503.3599268812878
530.1719863376461
500.4058984268186
500.2272426991996
502.2905396294311
539.0029062396354
504.3269240416187
498.9655185727905
500.3929610322798
533.7938583176259
504.2973576605813
497.66347270019
499.2219098414074
525.795344914505
503.4850199169342
497.2753651437718
499.1942348260937
517.7072853793504
499.1156429215895
497.0793881898433
499.4038921651701
479.7739465451592
469.4022148603723
488.9353474178309
498.6805285191888
474.2561108792797
471.2942050921001
489.4245015858005
498.6803705652756
465.2307908952071
473.4182231578898
490.326837067519
498.6945441248036
459.5027436868165
476.2501005876856
491.3790139489618
498.7838906758789
517.7072853793975
499.1156429211485
497.0793881900859
499.4038921648958
525.7953449145291
503.4850199162283
497.2753651435926
499.1942348249939
533.7938583176343
504.2973576599718
497.6634726990376
499.2219098405778
539.0029062397456
504.3269240405658
498.9655185725416
500.3929610318539
507.7684366570309
503.2609433711427
486.8258649048576
410.5397312770431
505.1698514395587
502.4041458953197
493.0368696048643
477.9395173519181
503.3599268813989
500.8734628529112
495.7343901864115
517.2609440349351
502.2905396294496
500.2272426996622
500.4058984262111
530.1719863379867
399.8653553835106
477.6777376914448
504.5831769499289
511.5882898490651
425.1205614926068
477.9299913793485
506.0172577535489
515.7630583117341
459.83501192347
491.9680727416583
511.2780102126761
520.5912153974866
495.531621979154
508.4951182104209
520.4505098032021
526.7524495854447
541.2923815796364
563.5993710527658
579.7591374209561
597.1535979469113
539.8330755912605
552.0559842982225
562.827682381913
582.2093885864927
535.8354635878014
540.3215022552959
544.5105169400673
560.5778267450223
530.6373460666414
529.8356018278362
525.3122140513123
530.406235442055
606.6427283810784
594.2586854803651
569.0868990650611
532.0899015918301
614.4985336407136
605.2838692203917
566.9949461205288
521.1593563098729
621.8129190643587
607.4544100114181
554.9983574568764
512.164146667841
628.3166573708451
604.8054118216115
539.8159777366138
506.4865664057754
502.3965915548752
506.0674666328589
539.6775231581342
637.4093784819689
501.5158940360292
508.5904122692289
556.3031382333943
635.1892670863472
501.8918784537519
514.4423413851338
576.6107629753002
636.1938054178869
503.3246837015741
524.8676393175247
594.7480822455615
633.4377112238593
502.4449055417716
502.6034613011778
503.0561057815503
503.0953345971982
504.7805352225316
503.9292157228927
504.3860433164502
504.7598022565842
523.8958405897145
510.4333962101592
508.0402915115301
508.8784226578783
620.3441959265571
571.3191348911428
519.1989301685942
508.9400175715355
502.8872655817721
504.9006020755132
509.7491225591927
509.5129767168431
502.5356215703781
504.9504946604744
510.9866225128424
510.2808455010051
502.0499078874921
504.7490372312282
512.1692495006369
511.0323250522989
501.5574543023789
504.3928589009455
513.0679200804332
512.2219261135053
500.1411478979184
501.1772457400874
511.0475416861399
522.8401960055844
500.340601676964
502.0603221170842
512.6642110346834
517.63890244511
500.6412597715374
503.0083354820304
513.5779744755166
515.4439750775175
501.0639263218766
503.7666024346101
513.707589475012
513.9695361109184
533.1640389201101
507.2307460477818
500.4220246218713
500.0397784949849
534.3926216056
505.2861710248191
500.2005097781762
500.0128253164879
533.8984394505607
503.6984055574342
500.0985671282391
500.0033847167766
531.2573505300118
502.4155892029175
500.0227916331514
500.0004089501404
529.0292391412655
500.9607663550564
500.0023566321165
500.0001636982623
526.3743111145161
500.7186580062809
500.0016144376657
500.0000101672157
521.1125957589419
500.4347036022756
500.0002570976246
500.0000000750825
514.917864572662
500.2633650199142
500.0000671583925
499.999999901189
500.0000000001753
500.0000002925185
500.0240610978679
503.3408211434381
500.0000000005271
500.0000008567644
500.0298647490405
504.8871571330168
500.0000000018922
500.0000033379117
500.0553421008902
506.7156808966568
500.0000000219067
500.0000146208399
500.1147628068662
509.4284354963543
506.2254626981584
508.9278973878135
513.2492422514073
521.8956061020663
508.927897388232
512.3867968577061
518.7555824226096
531.3321369400476
513.2492422516998
518.7555824226426
528.8806451558952
544.0768863331517
521.8956061021775
531.3321369398127
544.0768863337319
560.2595739092377
577.2416681555555
564.2359900147044
557.3545198302591
544.9499211675223
575.4561792157087
571.5456869578539
570.3314929670818
564.6289147480749
575.3922105430181
574.3217840095316
573.7614177941633
572.0573994240289
571.9799922073015
571.5450988290501
571.6840126180633
570.9797292610839
567.898897000594
565.5535596522357
560.4612998417874
553.2864560434556
567.5583688854947
565.1532677972184
560.2395124251432
553.964435252749
567.5747663523417
564.9925145787232
559.9824197352254
554.5583680468897
567.6370971872085
564.7359139432632
560.1859990986957
550.9724929546918
512.3813548561327
492.8098762704097
489.9499135679079
490.4502842518256
501.8264576762245
488.7084176550005
489.9704480857347
491.0967310924469
491.5798010813119
488.877786677827
491.5593168574329
492.8373650780202
469.9266931418409
484.1233291730049
489.9012700334737
491.598715092181
490.7931417235474
491.8104513448005
493.3327116567441
494.8469723215201
491.0038538977519
491.480751037847
492.8626733127004
494.861564529985
492.3163790663938
492.3385677381571
493.2672757667953
494.7356763725938
491.2482470158697
491.4194399512726
492.7258052814589
494.8403618426261
505.0246143843789
567.6805577310723
639.3625673787717
664.5435488569508
510.9454558699659
581.1667986015158
642.0084926347845
660.2513065866794
516.4247906660019
589.4978090940756
641.9785559496487
660.9496254249361
520.2340430070767
597.7655368972512
642.1830255547881
661.3626616861139
694.3007895682657
681.4451461763883
670.1396427436804
656.8747665033645
702.7509284517578
690.0066933637613
676.8980083124453
662.5489879417634
708.7285654205239
697.471714451258
683.0148645440564
668.0404146780151
706.6523459554342
701.2938051641986
687.193954107985
671.8349773648039
643.6156900274798
633.026745380027
623.2180747968149
618.9683071082434
648.7141016466868
637.1071723716849
625.9494196509005
621.0677438385235
653.8775809773799
640.6174958911603
629.5057798495927
623.1776563932048
658.2963120670391
643.6921007008544
632.9965810168262
625.5983819101896
615.0674075916825
607.6462395767181
590.9805447474561
565.0079527027056
616.8448684109643
609.2347820107461
593.778370965635
592.6504362155588
617.8390290279087
610.1545922901835
602.770315329341
620.4156007639481
619.7334946705331
614.0058145496333
616.3505684022153
603.9811611038966
522.5289511960817
460.1973092511683
422.6690914418065
426.5782466615367
512.0670828388331
421.9835057710859
305.5295133117892
252.9723583875012
468.7317715905198
368.101300707477
252.178604498077
231.8539757739584
368.0076281100246
282.5858676798712
227.8297949305393
239.5911026163169
376.1320080543592
403.9256702156366
471.087196014506
522.9240740989875
306.4935846040807
380.360438483818
441.8186613906468
491.7073757446245
291.6671308320317
350.9018846483212
404.4014884191911
445.1314340636254
298.9376447691417
351.432942244386
402.1239635218479
431.1504807999394
487.0606099918303
510.3457656249458
509.2798347899907
509.687363740498
435.7733369742368
473.9286593184615
492.6751762967666
510.5675337714123
407.3533156872995
432.9142317973762
470.5547345520667
514.1746115661131
392.4922807902346
408.2738155546138
445.0625614034795
512.9335540234669
491.8264551621451
470.6135589480902
459.3928207826399
459.7036185449228
495.1786605949825
486.0222859001657
482.017265748477
475.8953960339859
504.2373519254174
507.4085187286257
501.6103047035103
488.617616466152
503.6019591972922
508.6045191881215
498.724982265034
484.091974026178
465.9310223246052
450.6270844066874
442.2369829538678
439.8952443544725
471.5288911318673
455.6884335506343
444.4200991934281
441.0562218075409
469.7953610173706
461.2954802059895
452.6146466082178
448.9981839598305
462.8009266854323
460.2202443834825
455.4791641060254
452.3445313577808
439.8952443544366
441.0562218075081
448.9981839598552
452.3445313578738
442.2369829537191
444.4200991932846
452.6146466082197
455.4791641062739
450.6270844063974
455.6884335503659
461.2954802058658
460.2202443836769
465.9310223241541
471.5288911316756
469.795361017229
462.8009266856028
459.703618545024
459.3928207826322
470.6135589483895
491.826455162349
475.895396034024
482.0172657485717
486.0222859004898
495.178660595183
488.6176164659206
501.6103047032927
507.4085187287566
504.2373519254825
484.0919740259186
498.7249822649451
508.6045191880097
503.6019591972598
512.9335540235779
445.0625614038942
408.2738155552251
392.492280790843
514.1746115662164
470.5547345525567
432.9142317979669
407.3533156880298
510.5675337715822
492.6751762971125
473.9286593190068
435.7733369751252
509.6873637406338
509.2798347901823
510.345765625492
487.0606099924109
522.924074098776
471.0871960144597
403.9256702141474
376.1320080636934
491.7073757446104
441.818661390903
380.3604384831729
306.4935846046099
445.1314340639199
404.4014884198411
350.9018846478899
291.6671308318729
431.1504808003253
402.1239635223402
351.4329422447613
298.9376447694133
426.5782466835169
422.6690914437511
460.1973092510134
522.5289511961851
252.9723583914721
305.52951331158
421.98350577044
512.0670828393999
231.8539757743608
252.1786044976622
368.1013007083561
468.7317715914491
239.5911026164072
227.8297949298699
282.5858676804619
368.0076281108062
565.0079527030778
590.9805447478495
607.6462395772767
615.0674075919088
592.6504362158819
593.7783709658227
609.2347820109899
616.8448684115133
620.4156007644743
602.7703153293477
610.1545922898947
617.8390290281278
603.9811611048904
616.3505684021555
614.005814549341
619.7334946707921
618.9683071088967
623.2180747971768
633.0267453798047
643.6156900275618
621.067743839066
625.9494196508731
637.1071723714849
648.7141016464885
623.1776563933298
629.5057798498279
640.6174958907
653.877580976942
625.5983819106428
632.9965810169825
643.6921007006117
658.2963120669619
656.8747665032627
670.139642743191
681.4451461759786
694.3007895678986
662.5489879416472
676.8980083123588
690.0066933634847
702.7509284511589
668.04041467756
683.0148645436909
697.4717144504524
708.7285654206992
671.8349773644064
687.1939541077828
701.2938051642494
706.6523459546736
664.5435488569344
639.362567378507
567.6805577310301
505.0246143848338
660.251306586536
642.0084926345016
581.1667986014206
510.9454558705272
660.949625424705
641.9785559493099
589.4978090938725
516.4247906665705
661.3626616865652
642.1830255544523
597.7655368970264
520.2340430076403
494.8469723221737
493.3327116566256
491.8104513440642
490.7931417229121
494.8615645306328
492.8626733125732
491.4807510368819
491.0038538973382
494.7356763732338
493.267275766515
492.3385677371676
492.3163790658646
494.8403618432662
492.7258052810968
491.4194399502189
491.248247014967
490.4502842510341
489.9499135672801
492.8098762708325
512.3813548564995
491.0967310916908
489.9704480848884
488.7084176555234
501.8264576765118
492.8373650772467
491.5593168564574
488.8777866782807
491.5798010815252
491.5987150913722
489.9012700323095
484.1233291733762
469.9266931420592
553.2864560435859
560.4612998419398
565.5535596529879
567.8988970003886
553.9644352530775
560.2395124251659
565.1532677979034
567.558368885209
554.5583680465368
559.9824197351352
564.9925145793209
567.5747663520589
550.9724929546225
560.1859990988023
564.7359139433179
567.6370971869828
570.9797292601852
572.0573994229625
564.628914747079
544.9499211676418
571.6840126171281
573.7614177925435
570.3314929653453
557.3545198297788
571.5450988279449
574.3217840077754
571.5456869549422
564.2359900129018
571.9799922063368
575.3922105411618
575.4561792122754
577.2416681518741
505.1317291946738
497.2539181711451
496.8135687332095
499.4842150424694
485.4159404459726
492.0362420175146
495.3926406058308
499.3453980913435
470.3697056919896
486.399007543272
493.9791132262777
499.148030911779
460.1373711807528
480.428466583752
492.4954907068562
498.9410649837908
498.6805285187198
488.9353474179061
469.4022148602584
479.7739465452369
498.6803705648853
489.424501585931
471.2942050918718
474.2561108796286
498.6945441247232
490.3268370679332
473.4182231575159
465.2307908955336
498.7838906758122
491.3790139492824
476.2501005874231
459.5027436869781
498.9410649833438
499.1480309117142
499.3453980913555
499.4842150424727
492.4954907065963
493.979113226083
495.392640605197
496.8135687329175
480.4284665840103
486.3990075435391
492.0362420180905
497.2539181715665
460.1373711805797
470.3697056917325
485.4159404459813
505.1317291947283
)
;

boundaryField
{
    back
    {
        type            empty;
    }
    inlet
    {
        type            zeroGradient;
    }
    front
    {
        type            empty;
    }
    top
    {
        type            zeroGradient;
    }
    outlet
    {
        type            fixedValue;
        value           uniform 500;
    }
    bottom
    {
        type            zeroGradient;
    }
    wall
    {
        type            zeroGradient;
    }
}


// ************************************************************************* //
