/*--------------------------------*- C++ -*----------------------------------*\
  =========                 |
  \\      /  F ield         | OpenFOAM: The Open Source CFD Toolbox
   \\    /   O peration     | Website:  https://openfoam.org
    \\  /    A nd           | Version:  11
     \\/     M anipulation  |
\*---------------------------------------------------------------------------*/
FoamFile
{
    format      ascii;
    class       volScalarField;
    location    "0.0285";
    object      rho;
}
// * * * * * * * * * * * * * * * * * * * * * * * * * * * * * * * * * * * * * //

dimensions      [0 0 0 0 0 0 0];

internalField   nonuniform List<scalar> 
880
(
0.3733250556165154
0.3733250556165154
0.3733250556165154
0.3733250554958586
0.3733250556165154
0.3733250556165154
0.3733250556165152
0.3733250558422784
0.3733250556165154
0.3733250556165153
0.3733250556165154
0.3733250642639858
0.3733250556165154
0.3733250556165154
0.3733250556165154
0.3733250491661784
0.3733250556165154
0.3733250556165155
0.3733250556165152
0.3733250556165154
0.3733250556165154
0.3733250556165154
0.3733250556165151
0.3733250556165154
0.3733250556165154
0.3733250556165154
0.3733250593969329
0.3733250189766653
0.3734217580264282
0.3737698232866804
0.3739714418750095
0.3739452495728023
0.3733250556168035
0.373325055616886
0.3733250556168944
0.3733250556165224
0.3733250556973381
0.3733250557188044
0.3733250557292846
0.3733250556453876
0.3733253518932165
0.3733253868404221
0.3733254089285893
0.3733252566620617
0.3739944088695041
0.3740596677142094
0.3740829122832952
0.3740271632156698
0.3743870641974786
0.3738431704762264
0.3734256355183447
0.3733303775221
0.3733261341880797
0.3733256934178811
0.373325205515592
0.373325065336465
0.3733250561796859
0.3733250559753243
0.3733250557049316
0.3733250556219054
0.3733250556204833
0.3733250556190219
0.3733250556167403
0.3733250556165154
0.3733250556165152
0.3733250556165152
0.3733250556165154
0.3733250556165155
0.3733250556165186
0.3733250556165155
0.3733250556165154
0.3733250556165155
0.3733250556522011
0.3733250556093742
0.3733250556145503
0.3733250556164684
0.3733250626002962
0.3733250475095802
0.3733250541340842
0.3733250555802896
0.3733250556165162
0.3733250556165154
0.3733250556165154
0.3733250556165154
0.3733250546731348
0.3733250556017479
0.3733250556163878
0.3733250556165153
0.3733257271021911
0.3733250662608682
0.373325055623228
0.3733250556165154
0.3727555945001392
0.3733243593601724
0.373325055222656
0.3733250556165149
0.3733250556165152
0.3733250556216755
0.3733251067002891
0.3736606974796313
0.3733250556169335
0.3733250557392723
0.3733255942887451
0.3751593221193559
0.3733250556171128
0.3733250557826818
0.3733257418240843
0.3754546756776425
0.3733250556172425
0.3733250558186379
0.3733258378294214
0.3755518746757334
0.3756629357091905
0.3733259556076131
0.3733250558661206
0.3733250556175344
0.3757915853982981
0.3733261015851436
0.373325055928438
0.3733250556177897
0.3759296388671698
0.3733262751366219
0.3733250560076308
0.373325055618202
0.3761398078497862
0.3733265452725744
0.3733250561407839
0.3733250556190737
0.3733250556178058
0.373325055912705
0.3733260360626219
0.3756380511466239
0.3733250556178978
0.3733250558909056
0.3733259145123968
0.3752347350331208
0.37332505565285
0.3733250558893597
0.3733258408924152
0.3749127175087509
0.3733250554941134
0.3733250557964367
0.373325405670809
0.3739523832921928
0.3733250559561087
0.3733249371788109
0.3732698055083025
0.3699811297343307
0.3733250559411625
0.3733248219325164
0.3731436004021551
0.3510733386355303
0.3733250558622038
0.3733248259657321
0.373101904869467
0.3382301543065252
0.3733250558170741
0.373324875678945
0.3730913465742645
0.3349142506086835
0.3446561343869366
0.3732003266372492
0.3733249205947879
0.3733250557315334
0.3459616405309579
0.3732160744109701
0.373324950896621
0.3733250557331717
0.3487159969792538
0.3732423633020907
0.3733249826833709
0.3733250557279191
0.342940735308019
0.3732165720472684
0.3733249656436053
0.3733250556617916
0.3666709216825624
0.3733135774079546
0.3733250472244237
0.3733250556264465
0.3729548057600029
0.3733247708973921
0.3733250555287176
0.3733250556183302
0.37329565001412
0.3733250183241724
0.3733250555913892
0.3733250556165154
0.3731546607140815
0.3733247872485978
0.3733250553686873
0.3733250556154897
0.3719881503479569
0.3733212609099241
0.3733250584063081
0.373325055842027
0.3719907476679409
0.3733212594886783
0.37332505832577
0.3733250558406537
0.3719940123466995
0.3733212155350265
0.3733250575042509
0.3733250558184001
0.3720110006347939
0.373321148023466
0.3733250557664446
0.373325055765038
0.3731546607137804
0.3733247872483029
0.3733250553683058
0.3733250556155959
0.3732956500135663
0.3733250183238254
0.3733250555906609
0.3733250556165154
0.372954805759769
0.3733247708974118
0.373325055528698
0.3733250556183844
0.3666709216831495
0.3733135774087025
0.3733250472244762
0.3733250556263062
0.3733250557321717
0.3733249205956781
0.3732003266376292
0.3446561343872739
0.3733250557334529
0.3733249508967749
0.3732160744112818
0.3459616405309558
0.3733250557274149
0.3733249826838583
0.373242363302086
0.348715996980099
0.3733250556619334
0.3733249656437011
0.3732165720481634
0.3429407353073294
0.334914250607796
0.3730913465738983
0.3733248756786992
0.3733250558169819
0.338230154305488
0.3731019048689668
0.3733248259648542
0.3733250558613905
0.3510733386351426
0.3731436004014114
0.3733248219324817
0.3733250559403586
0.3699811297345628
0.3732698055080261
0.3733249371785056
0.3733250559570803
0.3733250556177523
0.3733250559130615
0.3733260360630546
0.3756380511472502
0.3733250556179362
0.3733250558910211
0.3733259145123856
0.3752347350328645
0.3733250556532968
0.3733250558893716
0.3733258408919364
0.3749127175086537
0.3733250554948893
0.373325055796427
0.3733254056704409
0.3739523832922107
0.3761398078510628
0.3733265452720518
0.373325056141309
0.3733250556190055
0.3759296388682579
0.3733262751372823
0.373325056007818
0.3733250556182499
0.3757915853984445
0.3733261015860673
0.3733250559288716
0.3733250556177543
0.3756629357096203
0.3733259556072252
0.3733250558661672
0.3733250556174816
0.3733250556165154
0.3733250556219971
0.3733251067002433
0.3736606974786787
0.3733250556168402
0.3733250557389599
0.3733255942890465
0.375159322119457
0.3733250556170655
0.3733250557826956
0.3733257418242013
0.3754546756781009
0.3733250556171821
0.3733250558187644
0.3733258378288709
0.375551874675927
0.3733250556165149
0.3733250556165154
0.3733250556165154
0.3733250556165154
0.3733250552219352
0.3733250556231346
0.3733250556165151
0.3733250556165153
0.3733243593602613
0.3733250662613752
0.3733250556014538
0.3733250556165154
0.3727555945000625
0.3733257271022143
0.3733250546731667
0.3733250556165162
0.3733250556165152
0.3733250556165154
0.3733250556164742
0.3733250555803896
0.3733250556165154
0.3733250556165153
0.3733250556149878
0.3733250541340903
0.3733250556165154
0.3733250556165154
0.3733250556091774
0.3733250475096295
0.3733250556165154
0.3733250556165153
0.3733250556525499
0.3733250626001768
0.3733250556201945
0.3733250561790602
0.3733261341876139
0.3743870641973084
0.3733250556186676
0.3733250559755811
0.3733256934179706
0.3738431704755732
0.3733250556167262
0.373325055705686
0.3733252055153639
0.3734256355182908
0.3733250556165154
0.3733250556220286
0.3733250653365411
0.3733303775216505
0.3740271632159477
0.3733252566627422
0.3733250556450963
0.3733250556165154
0.3740829122830304
0.3733254089298533
0.3733250557291202
0.3733250556169339
0.3740596677148798
0.3733253868410346
0.3733250557188876
0.3733250556168526
0.3739944088693585
0.3733253518917163
0.3733250556972485
0.3733250556168206
0.3739452495731958
0.3733250189767097
0.3733250556165154
0.3733250556165154
0.3739714418747903
0.3733250593962008
0.3733250556165154
0.3733250556165154
0.373769823287122
0.3733250556165155
0.3733250556165154
0.3733250556165153
0.3734217580263431
0.3733250556165154
0.3733250556165154
0.3733250556165151
0.3733250556165154
0.3733250556165154
0.3733250556165154
0.3733250555130591
0.3733250556165152
0.3733250556165155
0.3733250556165153
0.3733250558422074
0.3733250556165154
0.3733250556165154
0.3733250556165154
0.3733250642641102
0.3733250556165154
0.3733250556165154
0.3733250556165151
0.3733250491659196
0.3733250451224368
0.3733249043715329
0.3733232000914504
0.3733541068009729
0.3733249043717063
0.3733237136595597
0.3733045571080087
0.3732315455360647
0.37332320009158
0.3733045571083077
0.3733381752405013
0.3771638338986243
0.3733541068012355
0.3732315455362725
0.3771638338990992
0.4151917472630189
0.5039765229706039
0.4306109313586119
0.4037369485204062
0.3798739982301059
0.527198507390407
0.4854539272653202
0.4636591002233054
0.4070589379945858
0.5378152192466441
0.5087163847227307
0.4928490988856313
0.4258386604276114
0.5411866930059726
0.5132927365172084
0.4979164108565658
0.4281316672154717
0.4314603727742058
0.4334437391300898
0.4340059510641053
0.4392469160746307
0.500034529287364
0.5010201345162708
0.5014318631356065
0.5227209441919817
0.5148342061546978
0.5152978737381843
0.5156260633890407
0.5349646164819594
0.5429320223876142
0.542682069108345
0.5427434777074863
0.5687591850353332
0.4202429966610988
0.3883209692540683
0.3752669679095105
0.373386190584463
0.4465200899861844
0.3917958251994688
0.3754314031143937
0.3733415463467157
0.4205851642630337
0.3827687682883591
0.3743962225086908
0.3733051813832674
0.359808141353836
0.3652370662913089
0.372260903190593
0.3731784975330464
0.3733231208755483
0.3733246925716911
0.3733250369131687
0.3733250554493076
0.37332017779123
0.3733248331530853
0.3733250536741897
0.3733250556588799
0.3733191535786752
0.373324991862401
0.3733250564458703
0.3733250556765537
0.3733033058566778
0.3733237146628748
0.3733250382442659
0.3733250555988497
0.3733250556195145
0.3733250556492451
0.3733250788481326
0.3530704051141146
0.3733250556438271
0.3733250556264466
0.3733250649345531
0.3437861475686649
0.3733250556468235
0.373325055623219
0.3733250568867412
0.3611789449880174
0.373325055639733
0.3733250556252848
0.3733250558401364
0.4366894771124896
0.4533266369515751
0.5525401818566382
0.5640589977026391
0.5641064779712196
0.6173491749988008
0.7253416737459701
0.7370562123926505
0.7370816084428135
0.6809841101637666
0.7523208185826495
0.7662941887688426
0.7667391436235542
0.7240733426789745
0.7605337857011623
0.7750804211669257
0.7761703657737954
0.5641581160032015
0.5644162836818617
0.564743386000278
0.5660911639400129
0.7369301370775183
0.736931653156454
0.7369980187543232
0.7367338579728598
0.7666781495164846
0.7666315813445185
0.7666355519368627
0.7663602340067482
0.7762243134251637
0.7760999773876104
0.7760713854429667
0.7756180817297053
0.5407547788324375
0.5212320980195164
0.5031466445554852
0.4441141800660723
0.725779645345359
0.7152794273671674
0.7001449788640028
0.637173150365428
0.7617415015354427
0.7554682340503935
0.7390429953520472
0.6975035446067815
0.7778486408121622
0.7818660270838005
0.7672748527471939
0.7789660061928605
0.3510682069365773
0.2068738813720775
0.1054507712039453
0.09552387031609035
0.3387801155799605
0.1483799237936559
0.08182970858255179
0.07357089639622556
0.2841612606547415
0.09235450022288885
0.06603460724525702
0.06175681535475211
0.2104207681758853
0.04288962613567859
0.04705391090652963
0.04661228871803193
0.09435765050785339
0.09509776727373483
0.0964463241331234
0.08278975493399364
0.07381944285729672
0.07451259863620772
0.07904224214903025
0.07162453364504352
0.06004924804450702
0.06095097129009905
0.06779093344701176
0.06591724715286484
0.04350581998232905
0.0437944773956355
0.05206859569864943
0.05176017248281149
0.2453946995237734
0.3539322413741375
0.3708654741680346
0.3625524852122631
0.1878573038196723
0.3177291909305008
0.3604739862146452
0.354517620485409
0.1621783322302635
0.281743428535414
0.3397649402002655
0.3524861226070383
0.12020178015421
0.2496601899430057
0.3182417637185584
0.3518816958915938
0.3551958507394169
0.3287284506964349
0.2904080501939537
0.265573688658162
0.3045917332760575
0.2679839457536086
0.2144917999694812
0.1643634879652431
0.2249594728298952
0.1970112710276486
0.1705750796231889
0.1096915860383459
0.1667529646692989
0.1115974652360522
0.1082581227751304
0.08121086517428185
0.05377786708695846
0.05087101017388904
0.05030662201702477
0.04977058171966085
0.08562914323484722
0.08292756736450925
0.08134721837654288
0.08004271088145026
0.1503449649804268
0.1485847045002819
0.1473150103489663
0.1463814601295146
0.2555839191087286
0.2541916629886966
0.2533102659036475
0.2528539497744932
0.04977058171964727
0.08004271088160128
0.1463814601293855
0.2528539497767834
0.05030662201693393
0.08134721837682009
0.1473150103488531
0.2533102659034944
0.05087101017378369
0.0829275673645431
0.1485847045001477
0.2541916629888568
0.05377786708714273
0.0856291432346767
0.1503449649801258
0.2555839191083237
0.2655736886579649
0.2904080501935559
0.3287284506959933
0.3551958507387232
0.1643634879650415
0.2144917999695622
0.2679839457538611
0.3045917332757359
0.1096915860383426
0.1705750796233034
0.1970112710276052
0.224959472829692
0.08121086517439891
0.1082581227751174
0.1115974652360341
0.1667529646692164
0.3518816958912863
0.3182417637181282
0.2496601899430808
0.1202017801541668
0.3524861226069145
0.3397649402001646
0.2817434285354006
0.1621783322303041
0.3545176204854314
0.36047398621428
0.3177291909303395
0.1878573038197981
0.3625524852121027
0.3708654741677019
0.3539322413740256
0.2453946995239616
0.08278975493387726
0.09644632413310698
0.09509776727359985
0.09435765050761492
0.07162453364496599
0.07904224214897401
0.07451259863619356
0.07381944285722877
0.06591724715290528
0.06779093344709333
0.06095097129023541
0.06004924804460031
0.05176017248282438
0.05206859569881339
0.04379447739577246
0.04350581998242784
0.09552387031553328
0.1054507712036446
0.2068738813718337
0.3510682069364862
0.07357089639617712
0.08182970858247118
0.1483799237934384
0.3387801155792919
0.06175681535490206
0.06603460724521303
0.09235450022286949
0.2841612606541504
0.0466122887182032
0.04705391090647523
0.04288962613557237
0.2104207681756774
0.444114180065367
0.5031466445554987
0.5212320980190321
0.5407547788320433
0.6371731503643612
0.7001449788639312
0.715279427367091
0.7257796453453572
0.6975035446062181
0.7390429953518463
0.755468234050369
0.7617415015349464
0.7789660061927574
0.7672748527470811
0.7818660270838814
0.7778486408123458
0.5660911639392349
0.5647433860008685
0.5644162836821421
0.5641581160030227
0.7367338579721385
0.7369980187547506
0.7369316531568374
0.736930137077444
0.7663602340056314
0.7666355519368552
0.7666315813445345
0.7666781495162253
0.7756180817292226
0.7760713854432111
0.7760999773874828
0.7762243134250412
0.5641064779707204
0.5640589977031928
0.5525401818563406
0.4533266369525711
0.7370816084424805
0.7370562123931037
0.7253416737455468
0.617349174999552
0.7667391436232812
0.7662941887690916
0.7523208185823516
0.6809841101641615
0.7761703657737486
0.7750804211672311
0.7605337857006699
0.7240733426788329
0.353070405114086
0.3733250788480866
0.3733250556491937
0.3733250556195121
0.3437861475687429
0.3733250649345369
0.3733250556264254
0.3733250556438233
0.3611789449881777
0.3733250568867327
0.3733250556232169
0.3733250556468148
0.4366894771125795
0.3733250558401341
0.3733250556252817
0.3733250556397183
0.3733250554493151
0.3733250369132485
0.3733246925716983
0.3733231208755347
0.3733250556588582
0.3733250536741513
0.3733248331531668
0.3733201777911456
0.3733250556764998
0.3733250564458478
0.3733249918625799
0.3733191535786117
0.3733250555988258
0.3733250382442775
0.3733237146630392
0.3733033058568256
0.3733861905842962
0.3752669679094551
0.3883209692537707
0.4202429966608389
0.373341546346586
0.375431403114383
0.3917958251993144
0.4465200899862284
0.3733051813831599
0.3743962225086944
0.3827687682882654
0.4205851642631836
0.3731784975327176
0.3722609031906753
0.3652370662911725
0.3598081413539171
0.4392469160743134
0.434005951063765
0.4334437391296856
0.4314603727746208
0.5227209441915073
0.5014318631353198
0.5010201345158808
0.5000345292877711
0.5349646164815388
0.5156260633886449
0.5152978737373047
0.514834206154946
0.568759185035204
0.5427434777071498
0.5426820691076305
0.5429320223878797
0.428131667215401
0.4258386604270283
0.4070589379950077
0.3798739982305013
0.4979164108565172
0.4928490988850994
0.4636591002233525
0.4037369485205101
0.513292736517535
0.5087163847219016
0.4854539272652035
0.4306109313583697
0.5411866930065766
0.537815219246609
0.527198507390304
0.5039765229707239
0.3730527544581028
0.373324374690051
0.3733250556000391
0.3733250556423152
0.372535546349187
0.3733229820845072
0.3733250555837367
0.373325055698581
0.3718330242526846
0.3733211411435384
0.3733250538971358
0.3733250557009837
0.3713910573109466
0.3733201683094916
0.373325053649647
0.3733250557203597
0.3733250558422717
0.373325058406112
0.3733212609100524
0.3719881503480299
0.3733250558408249
0.3733250583262087
0.3733212594880124
0.3719907476681525
0.3733250558182133
0.3733250575046553
0.3733212155351478
0.3719940123461302
0.3733250557643532
0.3733250557669134
0.3733211480216724
0.372011000634773
0.3733250557202639
0.3733250557009061
0.3733250556978704
0.3733250556415166
0.3733250536497761
0.3733250538971272
0.3733250555835566
0.3733250555994834
0.3733201683100825
0.3733211411427264
0.3733229820852971
0.3733243746895479
0.3713910573103008
0.3718330242519305
0.3725355463493535
0.3730527544582766
)
;

boundaryField
{
    back
    {
        type            empty;
    }
    inlet
    {
        type            calculated;
        value           nonuniform List<scalar> 
16
(
0.3733250556165154
0.3733250556165154
0.3733250556165154
0.3733250556165154
0.3733250556165154
0.3733250556165155
0.3733250556165152
0.3733250556165154
0.3733250556165154
0.3733250556165154
0.3733250556165154
0.3733250556165151
0.3733250556165154
0.3733250556165152
0.3733250556165154
0.3733250556165154
)
;
    }
    front
    {
        type            empty;
    }
    top
    {
        type            calculated;
        value           nonuniform List<scalar> 
40
(
0.3733250556168035
0.373325055616886
0.3733250556168944
0.3733250556165223
0.3733250556204833
0.3733250556190219
0.3733250556167403
0.3733250556165154
0.3733250556165152
0.3733250556165152
0.3733250556165154
0.3733250556165155
0.3733250556165154
0.3733250556165154
0.3733250556165154
0.3733250556165149
0.3733250556165152
0.3733250556169335
0.3733250556171128
0.3733250556172425
0.3733250556175344
0.3733250556177897
0.373325055618202
0.3733250556190738
0.3733250556178058
0.3733250556178978
0.37332505565285
0.3733250554941133
0.3733250559561087
0.3733250559411625
0.3733250558622038
0.3733250558170741
0.3733250557315333
0.3733250557331717
0.3733250557279191
0.3733250556617916
0.3733250556264465
0.3733250556183302
0.3733250556165154
0.3733250556154897
)
;
    }
    outlet
    {
        type            calculated;
        value           uniform 0.3733250556165154;
    }
    bottom
    {
        type            calculated;
        value           nonuniform List<scalar> 
40
(
0.3733250556155959
0.3733250556165154
0.3733250556183844
0.3733250556263062
0.3733250557321717
0.3733250557334529
0.3733250557274149
0.3733250556619334
0.3733250558169819
0.3733250558613905
0.3733250559403586
0.3733250559570803
0.3733250556177523
0.3733250556179362
0.3733250556532968
0.3733250554948893
0.3733250556190055
0.3733250556182499
0.3733250556177543
0.3733250556174816
0.3733250556165154
0.3733250556168402
0.3733250556170655
0.3733250556171821
0.3733250556165149
0.3733250556165154
0.3733250556165154
0.3733250556165154
0.3733250556165152
0.3733250556165154
0.3733250556165154
0.3733250556165154
0.3733250556201945
0.3733250556186676
0.3733250556167262
0.3733250556165154
0.3733250556165154
0.3733250556169339
0.3733250556168526
0.3733250556168206
)
;
    }
    wall
    {
        type            calculated;
        value           nonuniform List<scalar> 
104
(
0.5039765229706039
0.527198507390407
0.5378152192466441
0.5411866930059726
0.5429320223876142
0.542682069108345
0.5427434777074863
0.5687591850353332
0.359808141353836
0.3652370662913089
0.372260903190593
0.3731784975330464
0.3733033058566778
0.3733237146628748
0.3733250382442659
0.3733250555988497
0.373325055639733
0.3733250556252848
0.3733250558401364
0.4366894771124896
0.7240733426789745
0.7605337857011623
0.7750804211669257
0.7761703657737954
0.7762243134251637
0.7760999773876104
0.7760713854429667
0.7756180817297053
0.7778486408121622
0.7818660270838005
0.7672748527471939
0.7789660061928605
0.2104207681758853
0.04288962613567859
0.04705391090652963
0.04661228871803193
0.04350581998232905
0.0437944773956355
0.05206859569864943
0.05176017248281149
0.12020178015421
0.2496601899430057
0.3182417637185584
0.3518816958915938
0.1667529646692989
0.1115974652360522
0.1082581227751304
0.08121086517428185
0.05377786708695846
0.05087101017388904
0.05030662201702477
0.04977058171966085
0.04977058171964727
0.05030662201693393
0.05087101017378369
0.05377786708714273
0.08121086517439891
0.1082581227751174
0.1115974652360341
0.1667529646692164
0.3518816958912863
0.3182417637181282
0.2496601899430808
0.1202017801541668
0.05176017248282438
0.05206859569881339
0.04379447739577246
0.04350581998242784
0.0466122887182032
0.04705391090647523
0.04288962613557237
0.2104207681756774
0.7789660061927574
0.7672748527470811
0.7818660270838814
0.7778486408123458
0.7756180817292226
0.7760713854432111
0.7760999773874828
0.7762243134250412
0.7761703657737486
0.7750804211672311
0.7605337857006699
0.7240733426788329
0.4366894771125795
0.3733250558401341
0.3733250556252817
0.3733250556397183
0.3733250555988258
0.3733250382442774
0.3733237146630392
0.3733033058568256
0.3731784975327176
0.3722609031906753
0.3652370662911725
0.3598081413539171
0.568759185035204
0.5427434777071498
0.5426820691076305
0.5429320223878797
0.5411866930065766
0.537815219246609
0.527198507390304
0.5039765229707239
)
;
    }
}


// ************************************************************************* //
