/*--------------------------------*- C++ -*----------------------------------*\
  =========                 |
  \\      /  F ield         | OpenFOAM: The Open Source CFD Toolbox
   \\    /   O peration     | Website:  https://openfoam.org
    \\  /    A nd           | Version:  11
     \\/     M anipulation  |
\*---------------------------------------------------------------------------*/
FoamFile
{
    format      ascii;
    class       volScalarField;
    location    "0.0675";
    object      rho;
}
// * * * * * * * * * * * * * * * * * * * * * * * * * * * * * * * * * * * * * //

dimensions      [0 0 0 0 0 0 0];

internalField   nonuniform List<scalar> 
880
(
0.2239950333699092
0.2239950333699093
0.2239950339126931
0.2239950640541843
0.2239950333699093
0.2239950333699093
0.2239950375086718
0.2239965476759513
0.2239950333699093
0.2239950333699347
0.2239951055363037
0.2240325800724059
0.2239950333699091
0.2239950333697185
0.223995052099115
0.2242803138839727
0.2239950333699093
0.2239950333699093
0.2239950333699092
0.2239950334881473
0.2239950333717914
0.2239950333601596
0.2239950334300495
0.2239950350729414
0.2239974727687257
0.2240011453985338
0.2240226000657567
0.2239604842870697
0.2259481200877534
0.2289803444791327
0.2311393800554674
0.2323421982840443
0.2239950376735176
0.2239950418791135
0.2239950427186284
0.2239950395484311
0.2239951352603783
0.223995301824761
0.2239953633505514
0.2239952425028772
0.2240689517092193
0.2241193435603306
0.2241350778991742
0.2241226564965355
0.2334180068752724
0.2351014448670549
0.2358191009063673
0.2367080786066795
0.2334783890208286
0.2315363998183719
0.2299380987757736
0.2281156711542816
0.2242247719044063
0.2243528538288228
0.2242961654411202
0.2241820751389867
0.2239957703211093
0.2239963189487343
0.2239962052387128
0.2239957712455571
0.2239950584377104
0.2239950651509146
0.2239950593570424
0.223995045922841
0.2239950361695426
0.2239950335725431
0.223995033373162
0.2239950333699094
0.2239952911669809
0.2239950700840982
0.2239950348619008
0.2239950333820543
0.2240714524947021
0.2240102540066871
0.2239960250014759
0.2239950477247802
0.2262030860035218
0.2247153233842598
0.2240958186886752
0.2239990305990197
0.2239950659864532
0.2239950336121076
0.2239950333704457
0.2239950333699092
0.2239950225992283
0.2239950322933664
0.2239950333375949
0.2239950333698736
0.2240113294129848
0.2239950768910165
0.223995033637443
0.2239950334271096
0.227686240686845
0.2240102096480379
0.2239947829177306
0.2239950096249253
0.2239950263308015
0.223995154329886
0.2241581553996018
0.2486129385206951
0.2239950558163783
0.2239958168819763
0.2243532868895776
0.2542583711610752
0.2239950965126023
0.2239969059967136
0.2246172445132522
0.2600076191177759
0.2239951279530084
0.2239979872271965
0.2248855893412977
0.266655708611861
0.2707677718709154
0.2250505257278741
0.2239987093835106
0.2239951563312195
0.2752871718197734
0.2253283175924439
0.224000285879251
0.2239952043715659
0.2780716066007551
0.225528676534041
0.2240013481453801
0.2239952510276803
0.2824304295532667
0.2259445316593743
0.2240046413245027
0.2239953717922122
0.2239954036390572
0.2240056764755952
0.226340463697191
0.2879675107401703
0.2239955650856758
0.2240100784044623
0.2268526665214252
0.2892443510068913
0.2239957160375581
0.2240117569856074
0.2266172350807188
0.2772201560744778
0.2239952920967616
0.2240042714696253
0.2253177717792759
0.2513978602096847
0.2239961757909483
0.2240324404181349
0.2249001986834675
0.2236211946457499
0.2239950614607946
0.2239891306114409
0.2235839249691183
0.1979382080225529
0.2239949971068457
0.2239742056690088
0.222041629458666
0.1779789176449629
0.2239949414747196
0.2239555009226233
0.2201819738011952
0.1602183993034119
0.1570596225035786
0.2205312877338084
0.2239694245358461
0.2239949655007936
0.1549590638142176
0.2205254394950985
0.22397063969824
0.2239949753396691
0.1600528587402693
0.2215806984331969
0.2239827454069352
0.223995007422133
0.1579531167768416
0.2214593882797694
0.2239821792699182
0.2239950070941323
0.1784116704178427
0.2229190069371154
0.2239904311598754
0.2239950227663443
0.1985950650946988
0.223688855166421
0.2239940712962048
0.2239950315245375
0.2106099950420349
0.2238864394667526
0.2239947073119464
0.2239950327510455
0.2176597049758627
0.223944455918373
0.2239948311541914
0.2239950327582767
0.2124396686051763
0.2236918728749291
0.2239925835457885
0.2239950240824215
0.2126020360021758
0.2236990638866204
0.2239926111492568
0.2239950241239988
0.2129354922227478
0.2237050355166198
0.2239926385958194
0.2239950241880695
0.2141446891092394
0.2237206750374304
0.2239927350896309
0.2239950245394248
0.2176597049758736
0.2239444559182001
0.2239948311540222
0.2239950327579976
0.2106099950420658
0.2238864394664814
0.2239947073116015
0.2239950327509417
0.1985950650945935
0.2236888551662088
0.2239940712961577
0.2239950315244636
0.1784116704179145
0.2229190069368921
0.2239904311599858
0.223995022766365
0.223994965500935
0.2239694245359885
0.2205312877334699
0.1570596225030944
0.2239949753396301
0.2239706396982789
0.2205254394953752
0.1549590638138077
0.2239950074221832
0.2239827454068797
0.2215806984330234
0.1600528587399781
0.2239950070941663
0.2239821792701368
0.2214593882797894
0.1579531167767855
0.1602183993032192
0.2201819738013749
0.2239555009224251
0.2239949414747668
0.1779789176448228
0.2220416294586327
0.2239742056691313
0.2239949971067869
0.1979382080223852
0.2235839249691598
0.2239891306113805
0.2239950614609895
0.2236211946457131
0.2249001986832935
0.2240324404178877
0.2239961757911305
0.2239954036389921
0.2240056764757012
0.2263404636975188
0.2879675107402179
0.2239955650857352
0.2240100784044242
0.2268526665216623
0.2892443510073184
0.2239957160373468
0.2240117569857092
0.226617235080725
0.2772201560744683
0.2239952920968415
0.2240042714695117
0.2253177717792597
0.2513978602096627
0.2824304295534627
0.2259445316590148
0.224004641324652
0.2239953717925859
0.278071606600957
0.225528676534081
0.2240013481453791
0.2239952510276845
0.275287171819631
0.2253283175926873
0.2240002858792737
0.2239952043715918
0.2707677718707684
0.2250505257275619
0.2239987093835554
0.2239951563312941
0.223995026330858
0.2239951543299163
0.2241581553993875
0.2486129385204832
0.2239950558166197
0.2239958168823234
0.2243532868897905
0.2542583711614388
0.2239950965129148
0.2239969059967155
0.2246172445127007
0.2600076191173025
0.223995127952979
0.2239979872272259
0.2248855893420655
0.266655708612049
0.2239950096249439
0.2239950334270862
0.2239950333699092
0.2239950333699092
0.2239947829174302
0.2239950336373234
0.2239950333375034
0.2239950333704016
0.2240102096478727
0.2239950768910974
0.2239950322932768
0.2239950336120388
0.2276862406867674
0.2240113294130441
0.2239950225993257
0.2239950659864094
0.2239950333699097
0.2239950333820955
0.2239950477248471
0.2239990305990966
0.2239950333731506
0.2239950348619986
0.2239960250015126
0.2240958186887403
0.223995033572555
0.2239950700841674
0.2240102540065119
0.2247153233840345
0.223995036169455
0.2239952911669368
0.2240714524947932
0.2262030860034794
0.2239950584377624
0.2239957703208644
0.2242247719044533
0.2334783890209763
0.2239950651506849
0.2239963189488457
0.2243528538289328
0.2315363998184022
0.2239950593571246
0.2239962052385485
0.2242961654410055
0.2299380987756038
0.223995045922763
0.2239957712455141
0.2241820751390728
0.2281156711540867
0.2367080786065782
0.2241226564965106
0.2239952425027002
0.2239950395486261
0.2358191009062084
0.2241350778993546
0.2239953633502296
0.2239950427186461
0.2351014448671402
0.2241193435604701
0.2239953018244357
0.2239950418789006
0.2334180068751475
0.2240689517089411
0.2239951352602645
0.2239950376738311
0.2323421982839566
0.2239604842874438
0.2239950350729527
0.223995033488263
0.2311393800554159
0.2240226000655134
0.2239950334298562
0.2239950333699093
0.2289803444790498
0.2240011453984807
0.2239950333601333
0.2239950333699092
0.2259481200876488
0.2239974727686222
0.2239950333717796
0.2239950333699093
0.2239950333699092
0.2239950333699093
0.2239950339127869
0.2239950640542542
0.2239950333699093
0.2239950333699093
0.2239950375086613
0.2239965476759799
0.2239950333699093
0.2239950333699096
0.2239951055363151
0.2240325800723743
0.2239950333699093
0.2239950333696329
0.2239950520990453
0.2242803138837993
0.2239951773943779
0.223999313376023
0.2241305823105769
0.2258264938404151
0.2239993133753243
0.2240361355404668
0.2247353991733443
0.2304811584929708
0.2241305823106885
0.2247353991738969
0.2289412388539628
0.2422116625794966
0.2258264938406759
0.2304811584930754
0.2422116625794071
0.263609739892504
0.2871685939019766
0.2678314033769065
0.2589668647743723
0.2441703443121507
0.2822174776990471
0.2775736751269218
0.2782926615966558
0.2693797265666132
0.2832525416999149
0.2817841201638664
0.2815465306608941
0.2771348277785934
0.2852079494874105
0.283565694682654
0.2834689243352814
0.2811829197974596
0.2844274135215545
0.2861183215762629
0.2868007334712016
0.287825829988
0.2859928295630258
0.28807112160764
0.2888083385715168
0.2908550551985544
0.2861307036840487
0.2884557486700938
0.2893865268388603
0.2905986756038409
0.2861900940518021
0.2881559122413542
0.2893753397103489
0.2880917809836727
0.2483497092203373
0.2313082559635531
0.2298305640063434
0.2295081149646374
0.2325149502219525
0.2250260402806494
0.2279322708758807
0.2286807629403096
0.2188992346318389
0.2243441791165085
0.2290746587176771
0.2294535833578424
0.1995074098224979
0.2192478782606934
0.2269314614844677
0.2277925887707821
0.2278152553465092
0.225684709347923
0.2243803951250467
0.2240278951124159
0.2275625866133341
0.2257401454631832
0.2244527852059341
0.2240397627291733
0.2282024389908147
0.2261159439825302
0.2245685956571565
0.2240524607371999
0.2270176963899974
0.2253394800593314
0.2242890524289661
0.22401753980502
0.2239957646275842
0.2239950215583203
0.2248241866171939
0.2671163983362882
0.2239961131811904
0.2239950271673099
0.2260186263635219
0.2800225861634753
0.2239964402029171
0.2239950309424948
0.2272821495908983
0.284478694670273
0.2239954414402184
0.2239950568221317
0.2290618392497732
0.2851940655296146
0.36101317130548
0.3602434833733327
0.3619258730874118
0.368410558984698
0.3781782480078833
0.3708703901200958
0.3694372414688922
0.3753936964003755
0.3731699257905436
0.3665208029201638
0.3717568842832533
0.3785950992795233
0.383737481340532
0.3716022741870916
0.37295644965582
0.3802984435502422
0.3730232200981339
0.3769375062750634
0.3773650305083542
0.3783000351110894
0.380555581695837
0.3846309984796316
0.3852181684259369
0.3856213319313997
0.3847948855826491
0.3894140023430839
0.390379420451787
0.3906096056080262
0.3864751974982578
0.3913921501760589
0.3924641153991106
0.392698743570934
0.3775195444219244
0.3706476227667198
0.3482199265942694
0.2980840709328306
0.3840291789939162
0.3770070309145699
0.3551760437109079
0.311096379902119
0.3893657164976827
0.3817166524898765
0.3582607030912202
0.3231250987602731
0.391463919911832
0.3844012013439004
0.3614788367480036
0.3709024471604844
0.2155505946508285
0.093484969320325
0.06405511292828427
0.06090712513588315
0.1821981979281069
0.06444491759530314
0.05918952670974487
0.06373051854729424
0.1306161434108011
0.05277004088704044
0.06035056925789453
0.06859238728213939
0.09225767971468758
0.04757110357768676
0.06462149165406125
0.07025901846833381
0.06273928800003499
0.06395874438882809
0.0645560129925096
0.05633053137468516
0.06476358790747326
0.06505559433321899
0.06166385330517929
0.05087343925658552
0.06960396132507447
0.06872199156927303
0.06367138118129699
0.05406463487847289
0.07086366554478321
0.06869107030561987
0.06236706491812764
0.05772858791909675
0.09894145075214283
0.1383698220161249
0.1589048441281265
0.1717626272547859
0.08854640752233547
0.1232329797933211
0.1451414397968611
0.1636412691638454
0.08514543585597407
0.1197537093862449
0.1423999056821539
0.16478457840645
0.07389239770025885
0.1069402325451847
0.1321301209251307
0.1582874649300658
0.1450703714609577
0.1047238454486342
0.1203568245138031
0.1271084863583994
0.1252097322727337
0.0681573068515703
0.06046892964849419
0.07933177531730391
0.1049001934573018
0.05425767724600564
0.05465044683403134
0.05520500522588542
0.0788106130744734
0.04406983369620154
0.05482585744744611
0.06370813519430867
0.07990542902244857
0.1035633732837837
0.123402931784453
0.1343448788740129
0.06645528842111001
0.09401005191207272
0.122579450287519
0.1403674791973229
0.09134131084378681
0.1057620838389027
0.1353978879988454
0.1533513415596795
0.1200012345802418
0.1187819173960526
0.1314780772665665
0.1431903245213444
0.134344878874017
0.1403674791973239
0.1533513415596829
0.1431903245213635
0.1234029317844676
0.1225794502875412
0.1353978879988542
0.1314780772665741
0.1035633732838046
0.09401005191209721
0.1057620838389096
0.1187819173960392
0.07990542902245706
0.06645528842111813
0.09134131084378115
0.1200012345802129
0.1271084863584056
0.1203568245139114
0.1047238454487106
0.145070371460943
0.07933177531733235
0.06046892964852465
0.06815730685155846
0.1252097322727112
0.05520500522590405
0.05465044683404473
0.05425767724601275
0.1049001934572925
0.06370813519432163
0.05482585744747075
0.04406983369622677
0.07881061307446605
0.1582874649300487
0.132130120925128
0.1069402325452149
0.07389239770031684
0.1647845784064279
0.1423999056821358
0.1197537093862684
0.08514543585604804
0.1636412691638212
0.1451414397968531
0.1232329797933736
0.08854640752241749
0.1717626272547642
0.158904844128118
0.138369822016163
0.09894145075225957
0.05633053137471374
0.06455601299246616
0.06395874438863601
0.06273928799999723
0.05087343925661741
0.06166385330516894
0.06505559433317439
0.0647635879074859
0.05406463487849088
0.06367138118127404
0.06872199156924182
0.06960396132510202
0.05772858791911423
0.06236706491810856
0.068691070305597
0.0708636655448352
0.06090712513593569
0.06405511292821277
0.0934849693201457
0.2155505946507072
0.06373051854741157
0.05918952670989924
0.06444491759533841
0.182198197927893
0.06859238728228716
0.06035056925803723
0.0527700408871058
0.1306161434107169
0.07025901846852919
0.06462149165422698
0.04757110357775129
0.09225767971464145
0.2980840709327258
0.348219926594215
0.3706476227667295
0.3775195444217082
0.3110963799020698
0.3551760437108879
0.377007030914474
0.3840291789937565
0.3231250987602278
0.3582607030911841
0.3817166524897682
0.3893657164976468
0.3709024471604186
0.3614788367479576
0.3844012013437745
0.3914639199117625
0.3783000351111505
0.3773650305083236
0.3769375062747671
0.3730232200980019
0.3856213319314176
0.3852181684259435
0.384630998479368
0.3805555816957175
0.3906096056080622
0.3903794204517959
0.3894140023427987
0.3847948855825505
0.3926987435709248
0.3924641153991223
0.391392150175712
0.3864751974981342
0.3684105589848575
0.3619258730868408
0.3602434833736465
0.3610131713053446
0.375393696400478
0.3694372414683119
0.3708703901204374
0.3781782480077217
0.3785950992797207
0.3717568842827763
0.3665208029204988
0.3731699257904296
0.3802984435503498
0.3729564496554643
0.3716022741873806
0.3837374813403197
0.2671163983361176
0.2248241866170937
0.2239950215584401
0.2239957646279073
0.2800225861631223
0.2260186263633043
0.2239950271672849
0.2239961131818581
0.2844786946698029
0.227282149590561
0.223995030942245
0.2239964402040138
0.2851940655289951
0.229061839249275
0.223995056821898
0.2239954414417016
0.2240278951120683
0.2243803951252797
0.2256847093476784
0.2278152553465034
0.2240397627284953
0.2244527852063214
0.2257401454628139
0.2275625866133238
0.224052460736135
0.2245685956577212
0.2261159439821104
0.2282024389908151
0.2240175398034215
0.2242890524298943
0.2253394800587489
0.2270176963899981
0.2295081149644073
0.2298305640062397
0.2313082559635731
0.2483497092205195
0.228680762940092
0.2279322708757747
0.2250260402807059
0.2325149502220935
0.2294535833576487
0.229074658717589
0.2243441791166077
0.2188992346319186
0.2277925887705908
0.2269314614843469
0.2192478782608495
0.1995074098226155
0.2878258299879476
0.2868007334710461
0.2861183215762995
0.2844274135215004
0.2908550551984613
0.2888083385714607
0.2880711216077674
0.2859928295629625
0.2905986756036847
0.2893865268388888
0.2884557486702582
0.2861307036839931
0.2880917809835224
0.2893753397104103
0.2881559122415402
0.2861900940517513
0.2811829197973772
0.277134827778614
0.2693797265666057
0.2441703443121382
0.2834689243352295
0.2815465306609617
0.2782926615965929
0.2589668647743413
0.2835656946825981
0.2817841201638152
0.2775736751268926
0.267831403376761
0.2852079494874156
0.2832525416996817
0.2822174776989956
0.2871685939018414
0.2201193513771988
0.2239384162510276
0.2239947152946643
0.2239950324302001
0.217756759724971
0.2239013160375412
0.2239944314030216
0.223995031284644
0.216769936044014
0.2238440191023191
0.2239939101987923
0.2239950292004463
0.2143694450093478
0.2237510955997685
0.2239930659670896
0.2239950259561209
0.2239950240826745
0.2239925835458009
0.2236918728749282
0.2124396686050626
0.2239950241239013
0.2239926111493506
0.2236990638866718
0.2126020360021515
0.2239950241880874
0.2239926385956495
0.2237050355166404
0.2129354922226116
0.2239950245394808
0.2239927350895335
0.2237206750375206
0.214144689109107
0.2239950259559089
0.2239950292005501
0.2239950312847383
0.223995032429998
0.2239930659669102
0.2239939101987553
0.2239944314030672
0.2239947152947551
0.2237510955997624
0.2238440191022677
0.2239013160376703
0.2239384162509565
0.2143694450092514
0.2167699360439169
0.2177567597250387
0.2201193513772692
)
;

boundaryField
{
    back
    {
        type            empty;
    }
    inlet
    {
        type            calculated;
        value           nonuniform List<scalar> 
16
(
0.2239950333699092
0.2239950333699093
0.2239950333699093
0.2239950333699091
0.2239950333699093
0.2239950333699093
0.2239950333699092
0.2239950334881473
0.223995033488263
0.2239950333699093
0.2239950333699092
0.2239950333699093
0.2239950333699092
0.2239950333699093
0.2239950333699093
0.2239950333699093
)
;
    }
    front
    {
        type            empty;
    }
    top
    {
        type            calculated;
        value           nonuniform List<scalar> 
40
(
0.2239950376735175
0.2239950418791135
0.2239950427186284
0.2239950395484311
0.2239950584377104
0.2239950651509146
0.2239950593570424
0.223995045922841
0.2239950361695426
0.2239950335725431
0.223995033373162
0.2239950333699094
0.2239950333699092
0.2239950333698736
0.2239950334271096
0.2239950096249253
0.2239950263308015
0.2239950558163782
0.2239950965126023
0.2239951279530084
0.2239951563312195
0.2239952043715659
0.2239952510276803
0.2239953717922122
0.2239954036390572
0.2239955650856758
0.2239957160375581
0.2239952920967616
0.2239961757909483
0.2239950614607946
0.2239949971068457
0.2239949414747196
0.2239949655007936
0.2239949753396691
0.223995007422133
0.2239950070941323
0.2239950227663443
0.2239950315245375
0.2239950327510455
0.2239950327582767
)
;
    }
    outlet
    {
        type            calculated;
        value           uniform 0.2239950333699093;
    }
    bottom
    {
        type            calculated;
        value           nonuniform List<scalar> 
40
(
0.2239950327579976
0.2239950327509417
0.2239950315244636
0.223995022766365
0.223994965500935
0.2239949753396301
0.2239950074221832
0.2239950070941663
0.2239949414747668
0.2239949971067869
0.2239950614609895
0.2239961757911305
0.2239954036389921
0.2239955650857352
0.2239957160373468
0.2239952920968415
0.2239953717925859
0.2239952510276845
0.2239952043715918
0.2239951563312941
0.223995026330858
0.2239950558166197
0.2239950965129148
0.223995127952979
0.2239950096249439
0.2239950334270862
0.2239950333699092
0.2239950333699092
0.2239950333699097
0.2239950333731506
0.2239950335725551
0.223995036169455
0.2239950584377624
0.223995065150685
0.2239950593571246
0.223995045922763
0.2239950395486261
0.2239950427186461
0.2239950418789006
0.2239950376738311
)
;
    }
    wall
    {
        type            calculated;
        value           nonuniform List<scalar> 
104
(
0.2871685939019766
0.2822174776990471
0.2832525416999149
0.2852079494874105
0.2861900940518021
0.2881559122413542
0.2893753397103489
0.2880917809836727
0.1995074098224979
0.2192478782606934
0.2269314614844677
0.2277925887707821
0.2270176963899974
0.2253394800593314
0.2242890524289661
0.22401753980502
0.2239954414402185
0.2239950568221317
0.2290618392497732
0.2851940655296146
0.383737481340532
0.3716022741870916
0.37295644965582
0.3802984435502422
0.3864751974982578
0.3913921501760589
0.3924641153991106
0.392698743570934
0.391463919911832
0.3844012013439004
0.3614788367480036
0.3709024471604844
0.09225767971468758
0.04757110357768676
0.06462149165406125
0.07025901846833381
0.07086366554478321
0.06869107030561987
0.06236706491812764
0.05772858791909675
0.07389239770025885
0.1069402325451847
0.1321301209251307
0.1582874649300658
0.07881061307447342
0.04406983369620154
0.05482585744744611
0.06370813519430867
0.07990542902244857
0.1035633732837837
0.123402931784453
0.1343448788740129
0.134344878874017
0.1234029317844676
0.1035633732838046
0.07990542902245706
0.06370813519432163
0.05482585744747075
0.04406983369622677
0.07881061307446605
0.1582874649300487
0.132130120925128
0.1069402325452149
0.07389239770031684
0.05772858791911423
0.06236706491810856
0.068691070305597
0.0708636655448352
0.07025901846852919
0.06462149165422698
0.04757110357775129
0.09225767971464145
0.3709024471604186
0.3614788367479576
0.3844012013437745
0.3914639199117625
0.3926987435709248
0.3924641153991223
0.391392150175712
0.3864751974981342
0.3802984435503499
0.3729564496554643
0.3716022741873806
0.3837374813403197
0.2851940655289951
0.229061839249275
0.223995056821898
0.2239954414417016
0.2240175398034215
0.2242890524298943
0.2253394800587489
0.2270176963899981
0.2277925887705908
0.2269314614843469
0.2192478782608495
0.1995074098226155
0.2880917809835224
0.2893753397104103
0.2881559122415402
0.2861900940517513
0.2852079494874156
0.2832525416996817
0.2822174776989956
0.2871685939018414
)
;
    }
}


// ************************************************************************* //
