/*--------------------------------*- C++ -*----------------------------------*\
  =========                 |
  \\      /  F ield         | OpenFOAM: The Open Source CFD Toolbox
   \\    /   O peration     | Website:  https://openfoam.org
    \\  /    A nd           | Version:  11
     \\/     M anipulation  |
\*---------------------------------------------------------------------------*/
FoamFile
{
    format      ascii;
    class       volVectorField;
    location    "0.0675";
    object      U;
}
// * * * * * * * * * * * * * * * * * * * * * * * * * * * * * * * * * * * * * //

dimensions      [0 1 -1 0 0 0 0];

internalField   nonuniform List<vector> 
880
(
(25 -2.105802521330167e-15 0)
(25 -1.352405477490048e-15 0)
(24.99999999504432 -2.646597977068787e-08 0)
(24.99999707395299 2.20466201225445e-06 0)
(25 1.985315570684747e-16 0)
(25 -7.654308778026394e-14 0)
(24.99999980072323 -3.767056069252495e-07 0)
(25.00001752949121 -0.0002190264585065899 0)
(25 2.331396721705856e-15 0)
(24.99999999999959 1.276137416214564e-12 0)
(25.00000022327811 1.606143287598664e-06 0)
(24.99967347630003 -0.003020656991898255 0)
(25.00000000000002 1.15196900574788e-15 0)
(24.99999999995932 -4.828015127807862e-12 0)
(24.99997080804538 -1.9967065963125e-05 0)
(24.97304527338497 -0.01627770362531061 0)
(25 -1.533285368764117e-14 0)
(25 4.202834014462051e-13 0)
(25.00000000000358 -8.649507122550508e-12 0)
(24.99999999400864 -1.177211743079046e-08 0)
(25.00000000036087 -3.398619404798739e-11 0)
(24.99999999702576 1.111757476413356e-09 0)
(25.00000001799693 -1.02984258418307e-08 0)
(24.99999970257953 5.350316754041093e-08 0)
(24.9997674293471 8.658889735971946e-05 0)
(24.99943006912546 0.0003437366416020599 0)
(25.00006087260843 0.002356334297037007 0)
(24.99761014974317 -0.004358772386508127 0)
(24.81017327137962 0.1111015054088488 0)
(24.60520445692034 0.406416505956786 0)
(24.54456363181805 0.7026100029626072 0)
(24.55698074384905 0.8837759675108248 0)
(24.99999979149706 -2.858991459018284e-07 0)
(24.99999929545019 -8.417573984263478e-07 0)
(24.99999911648385 -9.201200974787161e-07 0)
(24.99999958233612 -5.727015620339129e-07 0)
(24.99999249442448 1.018873849947372e-05 0)
(24.99999425071179 2.985944552581008e-05 0)
(24.99999652047476 3.572674587259585e-05 0)
(24.99998964032229 2.093945134075965e-05 0)
(24.99579845223587 0.008077354538648792 0)
(24.99658066033799 0.01325112927608742 0)
(24.99702967135037 0.01473538662576595 0)
(24.99502807211681 0.01315996878107482 0)
(24.58321331522309 1.041297051578709 0)
(24.623077182279 1.22016564251243 0)
(24.66543614727376 1.247456175298576 0)
(24.64692080847755 1.368578798462071 0)
(25.03601053038199 1.360796637608896 0)
(25.30142595940239 1.026365697707056 0)
(25.36837950684203 0.615615706638593 0)
(25.29325593547032 0.3378954390775247 0)
(24.99547330265878 0.02540795610099713 0)
(24.99613443103027 0.0361660665554079 0)
(25.00303905818732 0.03153392664978172 0)
(25.00702913491505 0.01825583238094433 0)
(24.99998515966184 8.262439687250994e-05 0)
(24.99998997230107 0.0001353196508807605 0)
(25.00000968924413 0.0001251797792198572 0)
(25.00002294911429 7.603531162412845e-05 0)
(24.99999801317354 -2.171181768748246e-06 0)
(24.99999688186805 -2.89821401986253e-06 0)
(24.9999970547227 -2.454539434888185e-06 0)
(24.99999810332017 -1.293398832083159e-06 0)
(24.99999938249183 -3.52907733618352e-07 0)
(24.99999992352483 -3.868916577849972e-08 0)
(24.99999999742366 -1.188933733865174e-09 0)
(24.99999999998674 -7.473939903177077e-12 0)
(25.00001263877798 2.444702448256381e-05 0)
(25.00000221909001 3.190782597423233e-06 0)
(25.0000000994989 1.21269298673048e-07 0)
(25.00000000086147 9.478826561310144e-10 0)
(25.00429654581819 0.006591533631356039 0)
(25.00102678276221 0.001172470387730046 0)
(25.00007358722511 6.993602916585962e-05 0)
(25.00000110616176 9.651097800577289e-07 0)
(25.16954566424265 0.1520703943116906 0)
(25.05859017939071 0.04358006932201416 0)
(25.00853714110379 0.005606094439315832 0)
(25.00034577432102 0.0002198364018543009 0)
(25.0000025246822 2.840368749426001e-06 0)
(25.00000001398064 2.46361068883482e-08 0)
(24.99999999999582 8.057462631923717e-11 0)
(25 -4.388274334867284e-13 0)
(25.00000035930548 -2.436836275934854e-06 0)
(25.00000002776282 -9.868182365422893e-08 0)
(25.00000000273167 -2.821781721788997e-09 0)
(25.00000000000195 -1.123669988312512e-11 0)
(24.99914256389212 0.001020957062834431 0)
(24.99999521623165 4.562833197344258e-07 0)
(24.99999999286251 4.101349258884049e-08 0)
(24.99999999803555 8.710259480555821e-10 0)
(24.72741456087203 0.2837265065786307 0)
(24.99932329944375 0.001601489334890927 0)
(25.0000193589465 -1.760361891150727e-05 0)
(25.00000104832593 -2.117054048144644e-06 0)
(24.99999930535942 -9.550871102117818e-07 0)
(24.99997341543128 -8.265625972261487e-06 0)
(24.98349550143486 0.006572026672396208 0)
(22.65071186804765 0.9440888082909704 0)
(24.99999876626507 -2.441289122597185e-06 0)
(24.99992283937329 7.187941482640373e-05 0)
(24.96458262455291 0.02806954942991282 0)
(22.11802409123841 2.186701768175682 0)
(24.99999579503318 -5.917263938329733e-06 0)
(24.99989939164604 0.0001996460441669833 0)
(24.95258207370895 0.06085801427622085 0)
(21.85487876411944 3.4066035157549 0)
(24.99999304052045 -9.084282508240893e-06 0)
(24.99988994044692 0.0003145075066227565 0)
(24.9485125659998 0.08941337050423814 0)
(21.97704887556876 4.150587986559398 0)
(21.92553459339296 4.608330947421431 0)
(24.93769703164104 0.1093114990837636 0)
(24.99984298338917 0.0004007607138406304 0)
(24.99999139516455 -1.193532379034276e-05 0)
(21.91643070246683 4.860654238852402 0)
(24.93124110792304 0.1328223795608702 0)
(24.99982916771414 0.0005539177975918267 0)
(24.99998684501242 -1.642203128546459e-05 0)
(21.68819300062398 5.142333366325945 0)
(24.91006427019957 0.1563336785350186 0)
(24.99970798204656 0.0006819726860935207 0)
(24.99998524490205 -2.100755004730607e-05 0)
(21.5426050857093 5.396169963065888 0)
(24.89727704353116 0.1958197156418108 0)
(24.99970094305301 0.001050598117273664 0)
(24.99997380706916 -3.21669421962188e-05 0)
(24.99997299631204 -3.704040006158016e-05 0)
(24.99956225228028 0.001124929908288617 0)
(24.86551771736892 0.2340921376605054 0)
(21.17259295273254 5.918333075358644 0)
(24.9999602260082 -5.216011525959514e-05 0)
(24.99944900753535 0.001641761860984321 0)
(24.85319814941301 0.2930782552116528 0)
(21.39359026905766 6.091433023587427 0)
(24.99995334248306 -6.85974360749234e-05 0)
(24.99947335616626 0.001843684867883834 0)
(24.87710726607357 0.2760739536479507 0)
(22.3506062779658 5.391536764339554 0)
(24.99996489648527 -2.807491142555387e-05 0)
(24.99968598354094 0.0008478657773703115 0)
(24.97097144981678 0.1638368631587988 0)
(24.14031213011111 3.663571265948262 0)
(24.99992644643547 -8.891407367656936e-05 0)
(24.99903600953771 0.004432121982655569 0)
(25.11242413398675 0.1150517114793251 0)
(26.54776706276904 1.598528293204312 0)
(25.0000003280956 -4.178631960604016e-05 0)
(25.00007452032008 -0.0007215101591809409 0)
(25.06040426275787 -0.04887335874108862 0)
(25.70265767603974 -1.069608670242488 0)
(24.99999488643055 -1.048704156404775e-05 0)
(24.99851862799764 -0.002359862886963997 0)
(24.89988852472112 -0.1544474261958434 0)
(23.11301023242245 -2.679000411524616 0)
(24.99999418734891 -8.552474130002538e-06 0)
(24.99674273614953 -0.00275202582447669 0)
(24.70683002930019 -0.1798081143118171 0)
(20.41794296458707 -2.225375169152819 0)
(19.45338294238578 -1.330423797239582 0)
(24.70662907607317 -0.15729042973577 0)
(24.99810488300151 -0.002095311263178938 0)
(24.99999700571991 -6.114352240119306e-06 0)
(19.31145994559492 -0.3370113343301289 0)
(24.69896785046241 -0.1027282161913236 0)
(24.9979068207357 -0.001501951183376085 0)
(24.99999632427473 -4.590341321289027e-06 0)
(19.76381093895559 0.07323022425838359 0)
(24.79057093312005 -0.07712832582461424 0)
(24.99905831461286 -0.0008664173433423178 0)
(24.9999988486986 -2.200293202759959e-06 0)
(19.44490560828706 0.3712175758085036 0)
(24.76731727004077 -0.06316591926438687 0)
(24.99887033164677 -0.0008468419333857538 0)
(24.99999830723354 -2.299529945068842e-06 0)
(21.44383354613192 0.545812034449481 0)
(24.88792124064667 -0.03661394243991239 0)
(24.99956657543082 -0.0003276504985378591 0)
(24.999999413746 -8.39329619927568e-07 0)
(23.26637081917704 0.5548303442851924 0)
(24.96444105727519 -0.01344703984274437 0)
(24.99990961472514 -7.222778164820639e-05 0)
(24.99999988776634 -1.489462527385678e-07 0)
(24.41164215248202 0.06540491249124716 0)
(24.99396793369548 -0.007339897818284677 0)
(24.99998999929801 -2.820982942481906e-05 0)
(24.99999999208464 -5.757977886465428e-08 0)
(24.88847672480968 -0.3321752956121359 0)
(25.00037045863422 -0.006840345909621143 0)
(25.00000450056876 -2.900822515665372e-05 0)
(25.00000000123538 -6.225396803816382e-08 0)
(24.12545352844173 -0.02997038078864409 0)
(24.97333334910608 -0.0002566931518591934 0)
(24.99976538723159 -6.219834537338667e-07 0)
(24.99999909051602 -7.031205503719683e-10 0)
(24.14069736237487 -0.09065454538216333 0)
(24.97389670126251 -0.0007284030386556644 0)
(24.99976785627614 -1.897664028223793e-06 0)
(24.99999909449755 -2.400903275275578e-09 0)
(24.14525588507814 -0.173054148798495 0)
(24.97437289545546 -0.001365252552355231 0)
(24.99977040757122 -3.656205673267857e-06 0)
(24.9999991007659 -4.915494264303591e-09 0)
(24.12375596913041 -0.176344277865071 0)
(24.97503366339577 -0.001342258681311561 0)
(24.99977666676147 -4.757677018832386e-06 0)
(24.99999913004088 -1.364678240396934e-08 0)
(24.88847672480667 0.3321752956075836 0)
(25.00037045865849 0.006840345900727315 0)
(25.00000450060039 2.900821118722053e-05 0)
(25.00000000126273 6.225627489759618e-08 0)
(24.41164215248382 -0.0654049125063403 0)
(24.99396793373056 0.007339897815235167 0)
(24.99998999933 2.820983349156086e-05 0)
(24.99999999209331 5.758069625086989e-08 0)
(23.26637081918869 -0.5548303442819971 0)
(24.96444105730067 0.01344703985276014 0)
(24.99990961472616 7.22277950252389e-05 0)
(24.99999988777483 1.489471978867502e-07 0)
(21.44383354611136 -0.5458120344490832 0)
(24.88792124066842 0.0366139424482203 0)
(24.99956657541932 0.0003276504982504614 0)
(24.99999941374331 8.393310446637907e-07 0)
(24.99999700568615 6.114365847671585e-06 0)
(24.99810488300777 0.002095311257461313 0)
(24.70662907609626 0.1572904296240154 0)
(19.45338294235836 1.330423797257921 0)
(24.99999632428478 4.590336877146489e-06 0)
(24.99790682072079 0.001501951197046931 0)
(24.69896785040264 0.1027282162107338 0)
(19.31145994555252 0.3370113343367658 0)
(24.9999988486923 2.20029273686268e-06 0)
(24.99905831461868 0.0008664173426463032 0)
(24.79057093312482 0.07712832585038409 0)
(19.76381093893758 -0.07323022426351644 0)
(24.99999830722899 2.299530454436198e-06 0)
(24.99887033162865 0.0008468419213848884 0)
(24.76731727004121 0.06316591927192231 0)
(19.44490560827056 -0.3712175758348316 0)
(20.41794296452623 2.225375169181003 0)
(24.70683002929065 0.1798081143764808 0)
(24.9967427361575 0.002752025824815527 0)
(24.99999418735411 8.552460584687525e-06 0)
(23.11301023239209 2.679000411531732 0)
(24.89988852471897 0.1544474261976007 0)
(24.9985186279892 0.00235986288116222 0)
(24.99999488643638 1.048703340976519e-05 0)
(25.702657676028 1.069608670257017 0)
(25.06040426275339 0.04887335873139668 0)
(25.00007452033153 0.0007215101583009286 0)
(25.00000032807255 4.178634032074143e-05 0)
(26.54776706276965 -1.598528293200485 0)
(25.11242413400309 -0.1150517114721579 0)
(24.99903600955819 -0.004432121968236212 0)
(24.99992644641745 8.891406882183135e-05 0)
(24.99997299631924 3.704040197186993e-05 0)
(24.99956225222936 -0.001124929908645304 0)
(24.86551771734287 -0.2340921376662357 0)
(21.17259295274102 -5.918333075385694 0)
(24.99996022599781 5.216011775109045e-05 0)
(24.99944900756795 -0.001641761858535527 0)
(24.85319814939632 -0.2930782552175066 0)
(21.39359026903372 -6.091433023600116 0)
(24.99995334249587 6.859744450858765e-05 0)
(24.99947335615733 -0.00184368487622979 0)
(24.87710726607167 -0.2760739536448905 0)
(22.35060627797165 -5.391536764338166 0)
(24.9999648964882 2.807489894008781e-05 0)
(24.99968598354462 -0.0008478657711661756 0)
(24.97097144981673 -0.1638368631581638 0)
(24.14031213011416 -3.663571265945684 0)
(21.54260508569928 -5.396169963089704 0)
(24.89727704355184 -0.1958197156407387 0)
(24.99970094305292 -0.001050598110928944 0)
(24.99997380702919 3.216694181054826e-05 0)
(21.68819300061368 -5.142333366338715 0)
(24.91006427017398 -0.1563336785318506 0)
(24.99970798204501 -0.0006819726921143423 0)
(24.99998524490322 2.100754891932978e-05 0)
(21.91643070245922 -4.860654238856823 0)
(24.93124110795846 -0.1328223795575513 0)
(24.99982916771302 -0.0005539177946414313 0)
(24.99998684500923 1.642203140085747e-05 0)
(21.92553459339114 -4.608330947430417 0)
(24.93769703154397 -0.109311499097762 0)
(24.99984298337137 -0.0004007607142635904 0)
(24.99999139515786 1.193532371823527e-05 0)
(24.99999930535374 9.550877249827623e-07 0)
(24.99997341542656 8.265628630668775e-06 0)
(24.98349550143071 -0.006572026677542047 0)
(22.65071186804756 -0.9440888082952789 0)
(24.99999876624111 2.441289746994221e-06 0)
(24.99992283936274 -7.18794127700878e-05 0)
(24.96458262460521 -0.02806954940454963 0)
(22.1180240912636 -2.186701768163547 0)
(24.9999957950016 5.917264138253116e-06 0)
(24.9998993916058 -0.000199646042338927 0)
(24.95258207364035 -0.06085801430173203 0)
(21.85487876409464 -3.406603515795936 0)
(24.99999304052189 9.084282543928527e-06 0)
(24.99988994047155 -0.0003145075068156356 0)
(24.94851256609897 -0.0894133704865803 0)
(21.97704887561481 -4.150587986528783 0)
(25.00000104832372 2.117055644815914e-06 0)
(24.99999999803874 -8.713909314240107e-10 0)
(25 1.162921159866407e-11 0)
(25 4.855925127474437e-13 0)
(25.00001935897764 1.760362049958058e-05 0)
(24.99999999287487 -4.101321020560193e-08 0)
(25.00000000274167 2.82244418107152e-09 0)
(25.00000000000131 -8.087134980896547e-11 0)
(24.99932329946057 -0.001601489339688192 0)
(24.99999521622523 -4.562830497307856e-07 0)
(25.0000000277724 9.868064136012135e-08 0)
(25.00000001398709 -2.46370811045087e-08 0)
(24.72741456088133 -0.2837265065798148 0)
(24.999142563889 -0.001020957061574674 0)
(25.00000035929843 2.436840028390301e-06 0)
(25.00000252468199 -2.840368485313176e-06 0)
(24.99999999998467 7.417155958667924e-12 0)
(25.00000000085671 -9.486491681958321e-10 0)
(25.0000011061538 -9.651114334026955e-07 0)
(25.00034577431516 -0.0002198364018862685 0)
(24.99999999742373 1.188857114453401e-09 0)
(25.00000009948675 -1.212709410537518e-07 0)
(25.0000735872226 -6.993602632537439e-05 0)
(25.00853714110114 -0.005606094433802099 0)
(24.99999992352573 3.868952481205472e-08 0)
(25.000002219084 -3.190782052633762e-06 0)
(25.00102678278208 -0.001172470381868475 0)
(25.05859017941608 -0.04358006931723558 0)
(24.99999938250222 3.529087192110403e-07 0)
(25.0000126387834 -2.444702317767536e-05 0)
(25.00429654580385 -0.006591533643063907 0)
(25.16954566424575 -0.1520703943132261 0)
(24.99999801316472 2.171179967931896e-06 0)
(24.99998515968697 -8.262438965597311e-05 0)
(24.99547330265796 -0.02540795610541692 0)
(25.03601053036972 -1.360796637596198 0)
(24.99999688188505 2.89820614685811e-06 0)
(24.99998997229208 -0.0001353196429149373 0)
(24.99613443102126 -0.03616606655421392 0)
(25.30142595939747 -1.026365697699778 0)
(24.999997054716 2.45454653298498e-06 0)
(25.0000096892571 -0.000125179785402199 0)
(25.00303905819557 -0.03153392665855229 0)
(25.36837950684809 -0.6156157066557183 0)
(24.99999810332319 1.293397831262328e-06 0)
(25.00002294912247 -7.60353076397531e-05 0)
(25.00702913491132 -0.0182558323716743 0)
(25.29325593549224 -0.3378954390692216 0)
(24.64692080848835 -1.368578798456584 0)
(24.99502807211929 -0.01315996879527651 0)
(24.99998964033827 -2.093944108149784e-05 0)
(24.99999958232793 5.72700736923393e-07 0)
(24.66543614728382 -1.247456175304686 0)
(24.99702967132988 -0.01473538663592239 0)
(24.99999652050399 -3.572673946188216e-05 0)
(24.99999911648494 9.201205645907677e-07 0)
(24.62307718227139 -1.220165642506581 0)
(24.99658066030718 -0.01325112926676673 0)
(24.99999425074849 -2.985944819688553e-05 0)
(24.99999929545356 8.417562332204324e-07 0)
(24.5832133152429 -1.041297051575139 0)
(24.99579845228196 -0.008077354504755678 0)
(24.99999249443198 -1.018874381949074e-05 0)
(24.99999979147806 2.858962747840983e-07 0)
(24.55698074385782 -0.8837759675158106 0)
(24.9976101497079 0.004358772343410674 0)
(24.99999970257957 -5.349745770828489e-08 0)
(24.99999999399903 1.177547063845785e-08 0)
(24.54456363182694 -0.7026100029614544 0)
(25.00006087262678 -0.002356334272013361 0)
(25.00000001801591 1.029064382341713e-08 0)
(25.00000000000354 8.633976286459329e-12 0)
(24.60520445693268 -0.4064165059568582 0)
(24.99943006913284 -0.0003437366394409513 0)
(24.9999999970311 -1.110455147389409e-09 0)
(25 -4.660225331375107e-13 0)
(24.81017327139405 -0.111101505408294 0)
(24.9997674293584 -8.658889798868668e-05 0)
(25.00000000036135 3.416321930659376e-11 0)
(25 1.656001654675572e-14 0)
(25.00000000000001 1.379949458678325e-15 0)
(25 5.189457301267544e-15 0)
(24.99999999503399 2.646877472280497e-08 0)
(24.99999707395162 -2.204656584404112e-06 0)
(25 -1.362302218961311e-15 0)
(25 7.56318389293965e-14 0)
(24.99999980072341 3.767027685983644e-07 0)
(25.00001752948759 0.000219026458333985 0)
(25 -2.013079537031036e-16 0)
(25.00000000000404 -2.26505045070407e-12 0)
(25.0000002232765 -1.606145667935032e-06 0)
(24.99967347629665 0.003020656986741633 0)
(25 3.185094007034144e-15 0)
(24.9999999999703 5.159017081852777e-12 0)
(24.99997080805355 1.996706416239822e-05 0)
(24.97304527339702 0.01627770361076484 0)
(25.00000514971343 -4.689966476716829e-11 0)
(24.99981489661959 0.0002544375960120664 0)
(24.99159182282338 0.002229992858602376 0)
(24.85471339696501 -0.02624388573524979 0)
(24.99981489667254 -0.0002544375511783539 0)
(24.9962361107083 6.246373552076113e-11 0)
(24.9265022893525 -0.01395108497907588 0)
(24.34542496512793 -0.2258506715753049 0)
(24.99159182283663 -0.002229992896180161 0)
(24.92650228938205 0.01395108497825464 0)
(24.46289000893013 -4.675003677815978e-11 0)
(22.77227061648638 -0.4102195030418377 0)
(24.85471339694522 0.02624388573216159 0)
(24.34542496511039 0.2258506715574322 0)
(22.77227061647612 0.4102195030054284 0)
(20.29636855853597 -8.155924182946211e-12 0)
(19.44227350955504 2.687185004390586 0)
(20.20040689576098 3.151584793059058 0)
(22.12822199166544 2.541128289944609 0)
(23.5417515453717 1.469591562535232 0)
(20.54834005312129 4.635748603854251 0)
(20.7185254209161 4.578170147460503 0)
(21.49792088411835 4.375041322597283 0)
(22.56742439123226 3.827088073400193 0)
(21.28030397383018 5.647835267345459 0)
(21.58581730264803 5.06490029712511 0)
(22.246451777624 5.062444289703751 0)
(22.96410002116438 4.807985757734326 0)
(21.60536290706168 5.740489855637518 0)
(22.55913814285769 5.405669837290412 0)
(22.95648184736824 5.382901090542529 0)
(23.28006376805492 5.187956797280614 0)
(23.41726774201347 5.401737873261681 0)
(23.55128305519052 5.617031064206 0)
(23.62720876022981 5.650093752072689 0)
(23.55859619743574 5.783679408171175 0)
(23.34998223797056 5.591196257261788 0)
(23.548920422811 5.782076136720807 0)
(23.64347713620348 5.793722876822256 0)
(23.90530309050096 6.11951999592154 0)
(23.16903331373038 5.705586980823179 0)
(23.46633924648962 5.844037408745953 0)
(23.56254818135965 5.833481040067644 0)
(25.17096150528759 6.336442436886545 0)
(21.88583452564611 5.644644369003244 0)
(22.19904882118445 5.660828010449135 0)
(22.40991261760932 5.7096765184897 0)
(26.61642492705547 7.451777819346211 0)
(26.50985764181259 3.363489650214051 0)
(27.09833084303617 0.9767874555289252 0)
(26.33654594917742 0.3000279569846895 0)
(25.80391196234259 0.1896083443018715 0)
(28.45751891718734 2.426906827093313 0)
(28.12570278295953 0.2713755020489638 0)
(26.98968524237199 -0.003248603720862213 0)
(26.25259541337207 0.05090102157827442 0)
(31.25371080110614 1.979002636573048 0)
(29.09539873082226 -0.007317422714823819 0)
(27.47522877524288 -0.1914532598648968 0)
(26.61537957511464 -0.1131216771327044 0)
(24.82879658825731 1.485979071483045 0)
(23.19326091927704 0.4345211931577661 0)
(23.34245579699198 -0.415503850265034 0)
(24.17868457555068 -0.6597979213994941 0)
(25.43790238259877 0.1381269425546375 0)
(25.17520307701504 0.06651698915766091 0)
(25.03793067358211 0.01508246094919478 0)
(25.00319164389847 0.001137879237459774 0)
(25.6966268807562 0.06632266615982481 0)
(25.28332928378637 0.04561208896237758 0)
(25.06359897651939 0.01414537821534059 0)
(25.00552265238677 0.001356326273499379 0)
(25.93174192108402 -0.05138533466851455 0)
(25.39480457545025 -0.03232880296554535 0)
(25.09196641275885 -0.01064930906405994 0)
(25.00821346741011 -0.001099929503703803 0)
(24.67201456047378 -0.4519048400542762 0)
(24.89247004743958 -0.2098267271120423 0)
(24.98305508789675 -0.04531517522361164 0)
(24.99905254011941 -0.003022466211845235 0)
(25.00007151898063 1.806677384644588e-05 0)
(24.99999935175862 1.380031710830186e-06 0)
(24.97957292173568 0.06186681004880396 0)
(21.8191047823951 3.23189476788712 0)
(25.00012300767895 2.759426995729281e-05 0)
(24.99999999832625 7.584332078729895e-07 0)
(24.94572385321959 0.1715971903238072 0)
(19.24296279146762 3.306228507863677 0)
(25.0001848585721 -2.597857036932696e-05 0)
(25.00000084863748 5.079697867106398e-07 0)
(24.7608606035895 0.3051319790287993 0)
(17.0600921210545 1.964241774012164 0)
(24.99998493480145 -4.586876155421838e-05 0)
(25.00000329605242 -1.617621478230388e-06 0)
(24.16709951374416 0.1833282206431318 0)
(12.50274236545884 0.917568321263256 0)
(15.64903763547678 7.77005988000117 0)
(16.68423763319783 8.693322833454484 0)
(16.96595430201797 9.916782212299443 0)
(17.20618127779318 10.75987955509241 0)
(13.45382999192737 7.8242316631938 0)
(15.68946686045922 8.975569323058783 0)
(16.56708512522731 10.18979028879114 0)
(16.98137517470681 10.90712865771211 0)
(11.12197151835638 6.848436377006956 0)
(14.08416345560845 8.799685026696045 0)
(15.93028686829206 10.14860614446223 0)
(16.75383504964292 10.8145773208561 0)
(8.607765798166204 3.291166603297928 0)
(11.75887971470323 5.879969125803846 0)
(13.18186395738214 8.751289901391923 0)
(14.50400217286234 10.20946044450499 0)
(17.26935781972916 11.25164214925593 0)
(17.35585183500157 11.39163570754413 0)
(17.28183111796721 11.47612607139072 0)
(17.2583458773647 11.47895199690393 0)
(17.15930451013012 11.39198590473632 0)
(17.30718187568856 11.55989198467833 0)
(17.31491689250031 11.62006887831351 0)
(17.33658981495152 11.57754115655568 0)
(17.06494068101395 11.26066013874743 0)
(17.22996538491497 11.44957179249788 0)
(17.2574482001708 11.51586693356408 0)
(17.2712237275422 11.50420315815547 0)
(15.4405302747456 10.62431423554478 0)
(15.8695587263418 10.7567887246237 0)
(15.98728432542649 10.76915219065302 0)
(15.9468389179775 10.73968647977141 0)
(17.17844540924906 11.55855791300466 0)
(17.70768621900766 11.39845788309912 0)
(19.28276711297474 10.51537174700372 0)
(22.17200290696641 8.347338066363971 0)
(17.3471782266784 11.57806262041624 0)
(17.87532603836074 11.40229461942106 0)
(19.54912023813877 10.87557210704202 0)
(22.68117998699311 10.62084513683855 0)
(17.31148754427416 11.51176548543708 0)
(17.73269943741974 11.45441661776149 0)
(19.88650401662588 11.53054106489281 0)
(27.58549683060227 16.21345914730253 0)
(16.10319224088802 10.84307855853624 0)
(16.84292056754696 10.73369000333587 0)
(20.14077163988163 11.88561710521017 0)
(37.41408619044405 21.61908876624485 0)
(26.89710903110113 3.506622638279436 0)
(21.89209567059829 -6.053065064325279 0)
(6.000575793862853 -5.728232912476702 0)
(2.649790742346503 -1.507885091030458 0)
(27.50168427335426 3.552366549915953 0)
(17.93398647701892 -5.683950172252628 0)
(1.527357525589452 -6.849217111813353 0)
(0.1685732607369026 -1.615442130129345 0)
(29.14365146242778 1.370602718193102 0)
(10.38065552265371 -7.262285889695013 0)
(-0.05867220959623105 -4.623513129676884 0)
(-0.01277987281753417 -1.541599197853912 0)
(19.16116019835553 -8.9489411881391 0)
(2.16428643563617 -4.625113556463297 0)
(-1.368227124758534 -2.028882656404961 0)
(-0.1783128584967318 -1.472835798946842 0)
(1.704131553823349 -0.103229544888014 0)
(1.905510330577848 0.6609636200636934 0)
(2.099702062001747 0.6157185636380593 0)
(1.289462167899906 1.228427550706664 0)
(-0.4361186802731913 0.4019807306712438 0)
(0.07964318173246078 1.556408665805435 0)
(0.5857522737981187 1.718751719822142 0)
(0.6143141625697595 2.79671329701755 0)
(-0.1263516338440059 0.3787257710703585 0)
(0.1824274972510749 1.731589638088037 0)
(0.7762585528302394 2.689662356926138 0)
(0.4643072051884016 4.373795409931531 0)
(0.08113379139927644 0.1996186484456358 0)
(0.3803528435514956 1.698276687620713 0)
(0.8506070250532719 3.126245956729091 0)
(-0.4729534814906257 4.8761985897478 0)
(14.99172375277368 -6.472483486628038 0)
(21.11892433754251 -5.391472895286937 0)
(23.55055214201743 -5.282948241998588 0)
(24.61344324750073 -5.364338671293854 0)
(8.862992010866387 -4.135504719029417 0)
(16.86994542960052 -5.349463405560118 0)
(21.18254703213141 -6.291743083039568 0)
(24.25441908467096 -5.460479081994729 0)
(1.188050792580893 -1.808400635303517 0)
(8.751645114875181 -3.71816399596497 0)
(16.15273373482469 -5.33520635308953 0)
(24.73967293833989 -3.961105808683283 0)
(-0.7671586577037228 1.516021110652082 0)
(3.943773327364393 1.591273983253274 0)
(13.13698137516202 1.0462060142865 0)
(28.70438400665021 -2.200644082382843 0)
(25.24555215960655 -8.949484612146012 0)
(26.91625988876054 -14.84456569148437 0)
(20.88396411343147 -16.27467620627596 0)
(14.79478012598213 -13.70255860063504 0)
(26.54997795098475 -11.97680109272702 0)
(32.41793204330932 -20.25331514833561 0)
(26.95841580262501 -22.84415666761197 0)
(12.96391850207028 -17.64773545112936 0)
(27.87854340332346 -12.21387107560861 0)
(29.51998623808201 -27.19254244122876 0)
(20.99813981895051 -18.16626915322065 0)
(10.50059346704193 -8.115729350993448 0)
(20.27975984413694 -15.69235486335887 0)
(12.50611847472604 -19.11935420150213 0)
(2.761777971824031 -5.96060608935434 0)
(0.1828323830671265 -0.3633753605860203 0)
(-1.485937923462958 1.876343567014497 0)
(-2.14311814987322 3.56269395898248 0)
(-2.441198810020653 3.405953145520922 0)
(-2.694172312905966 0.863876375387755 0)
(1.42094503161367 -5.817371491745662 0)
(-1.612516594692343 -1.570361618919575 0)
(-1.859639463642878 0.6986050096966873 0)
(-1.761362977721269 -0.2491052561072884 0)
(3.47453060979542 -15.5327498587226 0)
(0.6431504282646042 -11.00753585599679 0)
(1.431247277900092 -4.846971804965653 0)
(3.257204871407064 -2.076179670455983 0)
(9.56229981058576 -12.46319712032357 0)
(7.171301477652514 -9.431395954126481 0)
(7.474252288047815 -4.581303068444066 0)
(8.955549509399404 -1.721974867902582 0)
(-2.694172312905191 -0.8638763753851798 0)
(-1.761362977721121 0.2491052561099801 0)
(3.257204871407279 2.076179670455335 0)
(8.955549509395743 1.721974867899473 0)
(-2.441198810019556 -3.405953145517126 0)
(-1.859639463642662 -0.6986050096917471 0)
(1.431247277901896 4.846971804967572 0)
(7.474252288047237 4.581303068441101 0)
(-2.143118149871376 -3.562693958976191 0)
(-1.612516594691338 1.57036161892398 0)
(0.6431504282680015 11.00753585599884 0)
(7.171301477658729 9.431395954127842 0)
(-1.485937923459169 -1.876343567006996 0)
(1.420945031617589 5.817371491751618 0)
(3.474530609796176 15.53274985872619 0)
(9.56229981058406 12.46319712032645 0)
(14.79478012597386 13.70255860063314 0)
(20.88396411341063 16.27467620625617 0)
(26.91625988874481 14.84456569147493 0)
(25.24555215960424 8.949484612144172 0)
(12.96391850206592 17.64773545112229 0)
(26.95841580261362 22.84415666760932 0)
(32.41793204330899 20.25331514832585 0)
(26.54997795098371 11.97680109272721 0)
(10.50059346703842 8.115729350988939 0)
(20.99813981894592 18.1662691532114 0)
(29.51998623807292 27.19254244122049 0)
(27.87854340332099 12.2138710756041 0)
(0.1828323830677977 0.3633753605890086 0)
(2.761777971825517 5.960606089347151 0)
(12.5061184747173 19.11935420149642 0)
(20.2797598441355 15.69235486335668 0)
(28.70438400664615 2.200644082381326 0)
(13.13698137516189 -1.046206014288372 0)
(3.943773327367275 -1.591273983251205 0)
(-0.7671586577035727 -1.516021110643632 0)
(24.73967293833793 3.961105808682117 0)
(16.15273373482427 5.335206353086519 0)
(8.751645114879697 3.718163995969128 0)
(1.188050792583044 1.808400635314487 0)
(24.25441908466932 5.46047908199345 0)
(21.18254703213005 6.291743083032626 0)
(16.86994542960259 5.349463405558322 0)
(8.862992010858202 4.135504719058786 0)
(24.61344324749907 5.364338671292725 0)
(23.5505521420189 5.282948241989419 0)
(21.11892433754097 5.39147289529143 0)
(14.99172375274373 6.472483486646667 0)
(1.289462167887377 -1.228427550718673 0)
(2.099702061990949 -0.615718563649563 0)
(1.905510330575948 -0.6609636200691851 0)
(1.704131553798983 0.1032295449046221 0)
(0.6143141625663532 -2.796713297010162 0)
(0.585752273800375 -1.718751719828368 0)
(0.07964318177585776 -1.556408665801954 0)
(-0.4361186802544949 -0.4019807306637764 0)
(0.4643072051804112 -4.373795409929708 0)
(0.7762585528324828 -2.689662356929803 0)
(0.1824274972675364 -1.731589638085927 0)
(-0.1263516338352502 -0.3787257710637778 0)
(-0.4729534814961083 -4.876198589750337 0)
(0.8506070250530486 -3.126245956735376 0)
(0.3803528435583312 -1.698276687616828 0)
(0.08113379140018714 -0.1996186484388336 0)
(2.649790742281549 1.507885091043453 0)
(6.000575793792904 5.728232912434573 0)
(21.89209567047024 6.053065064354059 0)
(26.89710903109 -3.506622638273094 0)
(0.1685732607092004 1.615442130133086 0)
(1.527357525556983 6.849217111776781 0)
(17.93398647691042 5.68395017227624 0)
(27.50168427335645 -3.552366549908091 0)
(-0.01277987282867123 1.541599197850219 0)
(-0.05867220961061521 4.62351312964646 0)
(10.38065552259437 7.262285889683426 0)
(29.1436514624245 -1.370602718201789 0)
(-0.1783128585010105 1.47283579894766 0)
(-1.368227124757326 2.028882656380613 0)