/*--------------------------------*- C++ -*----------------------------------*\
  =========                 |
  \\      /  F ield         | OpenFOAM: The Open Source CFD Toolbox
   \\    /   O peration     | Website:  https://openfoam.org
    \\  /    A nd           | Version:  11
     \\/     M anipulation  |
\*---------------------------------------------------------------------------*/
FoamFile
{
    format      ascii;
    class       surfaceScalarField;
    location    "0.1";
    object      phi;
}
// * * * * * * * * * * * * * * * * * * * * * * * * * * * * * * * * * * * * * //

dimensions      [0 3 -1 0 0 0 0];

internalField   nonuniform List<scalar> 
8667
(
8.3938984
1.2217108
1.4210855e-14
3.9821588
0.7929141
6.6613381e-15
1.1439339
0.27886461
1.110223e-14
0.18326142
0.037593683
-3.3306691e-15
0.01954353
0.0001355845
2.1316282e-14
0.0017064629
-0.0004900439
1.0214052e-14
0.00013679639
-0.00011108581
-3.2196468e-15
9.5092236e-06
-1.5280341e-05
-1.3655743e-14
-1.1472392e-06
-3.663736e-15
3.5693591e-07
8.2885319
2.4264623
3.8393862
1.5500147
1.0630027
0.55747888
0.16210651
0.090782795
0.016448496
0.0070978707
0.0013342522
0.00031473963
9.5219183e-05
-2.0207846e-05
4.8025654e-06
-5.1083792e-06
-4.3824096e-07
-3.3270793e-08
8.1873814
3.618548
3.7188396
2.2469491
1.0014424
0.78087755
0.14782858
0.12615463
0.014672249
0.011144249
0.0011712172
0.00068436747
8.4553994e-05
4.1282571e-06
5.2265153e-06
-6.3034854e-06
-1.6490403e-06
3.0769411e-07
8.0742325
4.7927889
3.5900467
2.907008
0.93832966
0.98151156
0.13383829
0.15673922
0.01294578
0.014797999
0.0010029711
0.0010692467
6.934886e-05
4.7473835e-05
3.7870789e-06
-1.0858074e-06
-6.5139101e-07
2.103451e-08
7.9613662
5.9482609
3.4669169
3.5229982
0.88016614
1.152701
0.12149386
0.18010028
0.011476148
0.017405711
0.0008666471
0.0013191361
5.8289504e-05
7.1858956e-05
3.2063049e-06
6.9008438e-07
-8.644706e-07
1.4445556e-07
7.8433809
7.0869642
3.3438238
4.1091497
0.82462762
1.3050329
0.11027988
0.19907161
0.010182502
0.01940315
0.00074961298
0.0015033301
4.8870556e-05
9.0430282e-05
2.5530611e-06
2.6384008e-06
-4.3678294e-07
3.9879007e-08
7.7362326
8.2062639
3.2346546
4.6472168
0.77620844
1.426154
0.10071992
0.21130919
0.0090970726
0.020512711
0.00065360417
0.0015892679
4.1364316e-05
9.8367336e-05
2.0901595e-06
3.4769515e-06
-3.4832619e-07
6.1809833e-08
7.6069855
9.3022692
3.1061358
5.1640301
0.72190137
1.546407
0.090675344
0.22511356
0.0080021495
0.02186443
0.00055993742
0.0017057758
3.4358469e-05
0.00010787736
1.6730927e-06
4.3216288e-06
-1.8791269e-07
3.2398884e-08
7.5129574
10.380273
3.025801
5.6448291
0.69120061
1.6314997
0.085332155
0.22710074
0.007445786
0.021292565
0.00051538886
0.0016233806
3.0916608e-05
0.00010104702
1.4612226e-06
4.2357439e-06
-1.0481783e-07
3.1053673e-08
11.37598
7.4025968
12.368948
7.2239775
13.162251
7.0926329
14.307934
6.7566148
14.628758
6.9988027
15.85058
5.8995358
16.757096
7.262391
16.835347
5.1677381
6.9355045
16.408221
5.9903795
2.9004946
6.3067382
2.7376079
6.4468849
2.603618
6.8790907
2.3897233
6.5355278
2.4420601
7.3719704
1.8709736
6.9846184
2.5677567
6.8311241
1.2767523
2.5097018
8.0928333
1.6250449
0.63242968
1.615446
0.56895828
1.5712489
0.51640524
1.5954136
0.45620347
1.4365136
0.44443768
1.6150998
0.32598336
1.3538057
0.45379509
1.4570834
0.16371807
0.47940179
1.4732453
0.20744975
0.07394981
0.19455483
0.063287982
0.18182834
0.054946529
0.17614722
0.04711237
0.15539969
0.043425758
0.16765473
0.032247868
0.13296397
0.041440137
0.14917875
0.014157464
0.045477102
0.15116323
0.017852505
0.0062306323
0.016069429
0.005121897
0.014677933
0.0043011206
0.013826316
0.0036076543
0.01214163
0.0031812914
0.012548689
0.0024124866
0.0096582678
0.0028062008
0.010602554
0.0010251388
0.0030146177
0.010601387
0.0012244951
0.00042152487
0.001036692
0.00033016209
0.00091518321
0.000267273
0.00083751043
0.00021770664
0.00072529775
0.00018429108
0.00072867925
0.00013997249
0.00055920085
0.00015047321
0.00060163525
5.9895787e-05
0.00015732716
0.00061580893
6.5811411e-05
2.5620582e-05
5.1260001e-05
1.9171028e-05
4.3307361e-05
1.49213e-05
3.8681449e-05
1.1757363e-05
3.2974193e-05
9.5425819e-06
3.2087145e-05
7.1921295e-06
2.4223426e-05
7.0638541e-06
2.4731436e-05
3.0596706e-06
6.7885111e-06
2.7051651e-05
2.121454e-06
1.3115492e-06
1.3394503e-06
9.3268897e-07
1.0633354e-06
6.9500816e-07
9.5070571e-07
5.250645e-07
8.172866e-07
4.069353e-07
8.1927825e-07
3.0012118e-07
6.4215379e-07
2.73872e-07
6.5768842e-07
1.2713835e-07
2.4957138e-07
9.2471269e-07
-1.0219807e-07
2.7109271e-08
-9.1999475e-08
1.9323063e-08
-6.4967019e-08
1.2751902e-08
-4.4292534e-08
8.9395225e-09
-2.9808468e-08
6.3393545e-09
-1.8483596e-08
4.4221419e-09
-1.0893804e-08
3.5308489e-09
-6.149971e-09
1.7461795e-09
1.7673578e-08
2.6372453e-09
13.690492
-0.11376344
11.276429
-0.31349307
7.7878974
-0.39810018
3.7171273
-0.29183974
1.1347545
-0.1106539
0.2431612
-0.024668829
0.04448809
-0.004447966
0.0075363718
-0.00070473929
-0.00011279169
0.0012196902
5.1161827
-0.14877546
1.6778275
-0.072499127
0.0035376023
0.02610308
-0.18997825
0.032725353
-0.085558358
0.013008811
-0.026688061
0.0038509165
-0.0063123352
0.00081004438
-0.0014143214
0.00017993739
2.9365732e-05
-0.00025541318
0.50449202
-0.0080109996
0.15407378
-0.0014515022
0.071605124
-0.0061097373
0.031199572
-0.0033720367
0.012471922
-0.0016081929
0.0035420827
-0.00041743742
0.0010039091
-0.000128248
0.00020745373
-2.3600534e-05
-5.8609528e-06
4.6984716e-05
0.044660516
-0.00048719998
0.0076197139
0.00054671065
-0.00045174348
0.00027276321
-0.0018908454
0.0003414961
-0.00080378479
0.00010247844
-0.00035141689
4.9157799e-05
-8.6253775e-05
9.8539939e-06
-2.6059126e-05
3.3596289e-06
5.105214e-07
-4.7199065e-06
0.0031332428
-4.0156594e-06
0.00086685706
2.0240254e-05
0.00047595122
-4.7630046e-05
0.00017806101
-1.3391284e-05
9.5750883e-05
-1.2190347e-05
2.6027013e-05
-2.4995658e-06
1.0084579e-05
-1.255562e-06
2.0048439e-06
-1.947787e-07
-7.2494489e-08
6.0015528e-07
0.000179885
1.04363e-06
2.1160185e-05
5.5915865e-06
-1.7080335e-06
4.9423644e-07
-1.1499356e-05
1.9423193e-06
-3.9099613e-06
3.4530956e-07
-2.3957484e-06
3.0954706e-07
-5.2898e-07
4.6095448e-08
-2.1664079e-07
2.541226e-08
3.0907983e-09
-3.64276e-08
8.9910922e-06
6.0553786e-08
2.2413967e-06
2.128262e-07
1.7561363e-06
-1.9214864e-07
5.4130045e-07
-1.4803008e-08
4.3262546e-07
-5.1892971e-08
1.016859e-07
-6.4387302e-09
5.5864171e-08
-6.2212222e-09
9.8490514e-09
-6.8994296e-10
-4.242163e-10
4.0035464e-09
3.5432495e-07
2.3142807e-09
1.2309361e-08
2.0384252e-08
2.7927767e-09
-1.6294266e-09
-4.0258067e-08
6.1551639e-09
-9.8830359e-09
3.7042081e-10
-9.4695689e-09
1.0680558e-09
-1.7355646e-09
9.2302693e-11
-1.0312757e-09
1.0169401e-10
8.540807e-12
-1.5711965e-10
1.2370234e-08
1.1927165e-10
1.6975166e-09
2.7508859e-10
3.9274064e-09
-5.7147009e-11
7.074783e-10
4.3043791e-11
1.185658e-09
-1.3974655e-11
1.9612201e-10
5.1767479e-12
1.8555846e-10
-1.6489865e-12
2.4711344e-11
4.2540971e-13
1.5784485e-11
-1.1643464e-13
2.5672797e-12
-7.6258999e-12
3.5388359e-14
1.4224177e-12
-6.6466277e-13
-1.0408341e-14
1.7497115e-13
-4.0617509e-13
1.4988011e-15
7.860379e-14
-2.917111e-14
-6.6613381e-16
2.220446e-15
-1.4821477e-14
-7.7715612e-16
-2.220446e-15
-1.0547119e-15
7.7715612e-16
4.4408921e-16
-1.3877788e-16
0
4.4408921e-16
1.110223e-16
-1.110223e-16
5.5511151e-17
2.4424907e-15
-1.110223e-16
-7.6977758e-11
4.9329679e-11
-1.1338708e-11
2.5286939e-11
-4.4297899e-12
2.2500612e-12
-5.2291504e-13
9.3297592e-13
-1.6897594e-13
6.7335026e-14
-9.547918e-15
2.4147351e-14
-3.3306691e-15
1.4432899e-15
4.4408921e-16
2.220446e-16
1.110223e-16
1.9984014e-15
6.7021344e-10
-1.4624664e-09
2.4188829e-10
-1.5861529e-10
3.1747938e-11
-5.6904315e-11
9.5021768e-12
-5.0143223e-12
1.0120793e-12
-1.5199508e-12
2.5623947e-13
-1.1024515e-13
1.5987212e-14
-2.9087843e-14
1.9984014e-15
-1.5543122e-15
-2.7755576e-16
1.5543122e-15
-1.2511704e-08
9.965292e-09
-1.8538675e-09
3.1634289e-09
-5.1709903e-10
3.3291625e-10
-6.1798344e-11
8.8719421e-11
-1.4603208e-11
7.641332e-12
-1.4390711e-12
1.7684743e-12
-2.8599345e-13
1.2717605e-13
-1.976197e-14
2.6423308e-14
1.5543122e-15
-3.3306691e-15
1.0109637e-07
-1.5108871e-07
2.646659e-08
-1.8873409e-08
3.5455907e-09
-4.5229804e-09
7.8068596e-10
-4.564002e-10
8.6198604e-11
-9.4510455e-11
1.6384227e-11
-7.8735352e-12
1.5225599e-12
-1.4393486e-12
2.5202063e-13
-1.0053069e-13
-1.6264767e-14
2.0650148e-14
-1.1869963e-06
8.8477297e-07
-1.7916533e-07
1.9074536e-07
-3.7368562e-08
2.2368572e-08
-4.5943673e-09
4.186769e-09
-8.2019525e-10
4.0200743e-10
-8.4471541e-11
6.6440686e-11
-1.3159251e-11
5.3121396e-12
-1.1539658e-12
7.8614892e-13
5.4178884e-14
-1.583178e-13
7.8991684e-06
-5.82838e-06
1.5500185e-06
-7.7315886e-07
2.1150551e-07
-1.3229478e-07
3.5532666e-08
-1.4330668e-08
4.0416812e-09
-2.179294e-09
5.9127947e-10
-1.9529262e-10
5.7190475e-11
-2.6666891e-11
7.3854256e-12
-1.9973467e-12
-2.4735769e-13
6.1772809e-13
-4.8137382e-05
1.565125e-05
-7.2071941e-06
2.2999029e-06
-1.1581282e-06
2.6216745e-07
-1.4446107e-07
3.5398089e-08
-2.0134251e-08
3.3065531e-09
-2.1309337e-09
4.1397907e-10
-2.6083802e-10
3.127465e-11
-2.3781199e-11
3.6952663e-12
2.2049029e-13
-2.5921487e-12
0.00018383065
2.6684178e-05
3.493402e-06
4.481964e-07
5.0721624e-08
5.7632843e-09
5.6602945e-10
5.7302607e-11
4.9062976e-12
4.4297899e-13
-2.3925306e-14
3.5305092e-14
-1.5543122e-15
2.8865799e-15
-3.8857806e-16
-1.5543122e-15
-2.220446e-16
-1.110223e-15
1.6653345e-16
0
-5.5511151e-17
0
1.110223e-16
0
-1.110223e-16
1.110223e-16
1.3322676e-15
-2.0894397e-13
1.6986412e-14
-1.7763568e-14
2.0539126e-15
8.8817842e-16
-3.3306691e-16
4.4408921e-16
-2.220446e-16
0
3.3306691e-16
0
-1.110223e-16
8.8817842e-16
-1.6653345e-16
4.4408921e-16
-1.110223e-16
0
-1.5543122e-15
6.2616579e-14
-6.4948047e-15
3.7747583e-15
2.7755576e-16
1.9984014e-15
-1.6653345e-16
-2.8865799e-15
-3.3306691e-16
-1.5543122e-15
3.8857806e-16
1.3322676e-15
-1.110223e-16
0
-1.6653345e-16
0
0
0
0
-1.4876989e-14
7.2164497e-16
-4.2188475e-15
7.2164497e-16
2.8865799e-15
2.7755576e-16
1.9984014e-15
-4.9960036e-16
-1.5543122e-15
4.4408921e-16
8.8817842e-16
0
1.5543122e-15
-3.8857806e-16
0
5.5511151e-17
-2.2759572e-15
-1.9984014e-15
2.8865799e-15
-4.9960036e-16
-1.9984014e-15
0
0
4.4408921e-16
-1.9984014e-15
-5.5511151e-17
-3.3306691e-15
2.220446e-16
4.6629367e-15
3.3306691e-16
3.3306691e-15
-4.4408921e-16
2.8643754e-14
-5.5511151e-17
-2.1094237e-15
2.9309888e-14
3.3306691e-15
-5.5511151e-17
-4.4408921e-16
-1.110223e-16
-2.8865799e-15
2.7755576e-16
0
1.110223e-16
-1.3322676e-15
-1.110223e-16
-1.110223e-15
2.220446e-16
2.6645353e-15
0
2.6645353e-15
-2.220446e-16
-1.110223e-16
1.110223e-15
8.8817842e-16
0
-8.8817842e-16
1.110223e-16
-4.4408921e-16
1.110223e-16
-1.110223e-15
1.110223e-16
-8.8817842e-16
0
0
0
0
2.220446e-16
1.110223e-15
0
0
0
-2.4424907e-15
-2.7755576e-17
-2.4424907e-15
1.3877788e-16
0
1.110223e-16
0
1.110223e-16
1.3322676e-15
5.5511151e-17
0
-8.3266727e-17
-1.7763568e-15
1.110223e-16
0
5.5511151e-17
5.5511151e-17
6.6613381e-16
2.4424907e-15
-1.110223e-16
-2.8865799e-15
-5.5511151e-17
-2.8865799e-15
0
-4.4408921e-16
-1.110223e-16
0
4.4408921e-16
1.5543122e-15
-1.110223e-16
1.5543122e-15
0
-1.5543122e-15
-1.110223e-16
-1.5543122e-15
-1.110223e-16
5.5511151e-17
2.220446e-15
-1.0547119e-15
2.220446e-16
2.6645353e-15
1.3322676e-15
-1.3322676e-15
1.5543122e-15
3.3306691e-15
-1.5543122e-15
-2.9753977e-14
-1.7763568e-15
-3.3306691e-15
-1.110223e-16
0
1.110223e-16
-8.8817842e-16
4.4408921e-16
0
2.220446e-15
-7.7715612e-16
0
-8.8817842e-16
1.110223e-16
1.3322676e-15
-1.831868e-15
4.6629367e-15
-2.2759572e-15
-2.9087843e-14
-1.110223e-16
-6.6613381e-16
1.110223e-16
0
0
0
-4.4408921e-16
-5.5511151e-17
-1.9984014e-15
0
1.110223e-16
-2.4424907e-15
3.8857806e-16
0
2.220446e-16
0
-1.110223e-16
-5.3290705e-15
0
1.3322676e-15
0
0
-1.110223e-16
4.4408921e-16
8.8817842e-16
-5.5511151e-17
-2.220446e-15
0
0
1.9984014e-15
-1.110223e-16
-1.9984014e-15
-5.5511151e-16
-4.2188475e-15
-3.3306691e-16
-7.1054274e-15
1.110223e-16
1.9984014e-15
1.110223e-16
1.7763568e-15
1.110223e-16
6.6613381e-16
-8.8817842e-16
5.5511151e-17
0
0
1.110223e-16
2.8865799e-15
-2.7755576e-16
4.4408921e-16
-3.8857806e-16
-1.7763568e-15
2.7755576e-16
5.1070259e-15
2.7755576e-16
4.4408921e-16
-1.110223e-16
1.110223e-15
-1.110223e-16
4.4408921e-16
-1.110223e-15
0
0
-7.7715612e-16
1.110223e-16
4.4408921e-16
0
1.3322676e-15
4.4408921e-16
4.4408921e-16
4.4408921e-16
5.7731597e-15
0
-1.7763568e-15
-5.5511151e-17
-1.7763568e-15
0
0
0
0
0
0
0
-4.4408921e-16
0
-1.7763568e-15
-1.110223e-16
-4.4408921e-16
-1.110223e-16
0
-1.110223e-16
-8.8817842e-16
0
-1.7763568e-15
-1.110223e-16
-4.4408921e-16
0
-5.5511151e-17
0
-1.110223e-16
0
-4.4408921e-16
0
-1.3322676e-15
0
-1.3322676e-15
0
0
-1.110223e-16
0
-1.110223e-16
0
1.110223e-16
4.4408921e-16
0
-2.7755576e-17
8.8817842e-16
2.2759572e-15
-1.110223e-16
-2.6645353e-15
0
1.3322676e-15
0
-2.4424907e-15
0
-2.220446e-16
0
-2.220446e-16
5.5511151e-17
0
0
0
4.4408921e-16
1.110223e-16
1.3322676e-15
0
-1.3322676e-15
-1.110223e-16
0
-1.110223e-16
8.8817842e-16
0
0
-1.110223e-16
-1.110223e-15
-2.220446e-16
1.110223e-15
1.110223e-16
-1.9984014e-15
6.6613381e-15
1.6098234e-15
-1.110223e-16
8.8817842e-16
0
4.4408921e-16
1.110223e-16
0
0
2.6645353e-15
-1.110223e-16
-8.437695e-15
1.110223e-16
6.2172489e-15
1.110223e-16
1.3322676e-15
2.2759572e-15
1.3322676e-15
8.437695e-15
-8.9928065e-15
-1.110223e-16
-8.8817842e-16
0
6.6613381e-16
1.110223e-16
0
-3.3306691e-16
-8.8817842e-16
-1.110223e-16
-6.6613381e-15
3.3306691e-16
6.4392935e-15
0
2.220446e-16
3.3306691e-16
1.110223e-15
1.110223e-15
-7.4940054e-16
-1.110223e-16
-8.8817842e-16
0
-4.4408921e-16
-4.4408921e-16
4.4408921e-16
-4.4408921e-16
-3.3306691e-15
7.2164497e-16
9.547918e-15
3.8857806e-16
-1.9984014e-15
-1.110223e-16
-8.8817842e-16
-1.110223e-16
8.8817842e-16
-1.3322676e-15
3.663736e-15
0
4.4408921e-16
0
-8.8817842e-16
0
6.6613381e-16
3.3306691e-16
-8.8817842e-16
2.220446e-16
6.2172489e-15
-3.3306691e-16
-4.2188475e-15
-2.220446e-16
-1.5543122e-15
3.0531133e-16
2.220446e-16
1.7763568e-15
-2.8033131e-15
0
8.8817842e-16
1.110223e-16
0
1.110223e-16
4.4408921e-16
0
4.4408921e-16
-1.110223e-16
-4.4408921e-16
-2.220446e-16
-8.8817842e-16
0
0
1.9428903e-16
-8.8817842e-16
6.2172489e-15
2.553513e-15
-1.110223e-16
-4.4408921e-16
0
4.4408921e-16
1.110223e-16
-8.8817842e-16
0
-4.4408921e-16
0
8.8817842e-16
1.110223e-16
-8.8817842e-16
0
4.4408921e-16
7.2164497e-16
-1.3322676e-15
5.3290705e-15
-5.2458038e-15
0
-4.4408921e-16
0
4.4408921e-16
0
4.4408921e-16
1.110223e-16
0
0
-4.4408921e-16
-1.110223e-16
-8.8817842e-16
1.110223e-16
4.4408921e-16
1.110223e-16
6.6613381e-16
-1.7763568e-15
-6.1062266e-16
0
2.220446e-16
-1.110223e-16
8.8817842e-16
1.110223e-16
2.8865799e-15
1.110223e-16
4.4408921e-16
-1.110223e-16
4.4408921e-16
0
1.110223e-15
1.110223e-16
0
-1.110223e-16
8.8817842e-16
-2.8865799e-15
1.0547119e-15
1.9428903e-16
-2.220446e-15
0
1.110223e-16
-8.8817842e-16
-1.110223e-16
0
-2.220446e-16
4.4408921e-16
0
4.4408921e-16
1.110223e-16
-4.4408921e-16
-1.110223e-16
4.4408921e-16
-2.220446e-16
0
6.6613381e-16
1.110223e-16
-6.6613381e-16
7.7715612e-16
-5.5511151e-17
1.3322676e-15
1.6653345e-16
1.7763568e-15
3.3306691e-16
0
0
-3.7747583e-15
1.110223e-16
0
1.110223e-16
-3.3306691e-15
-1.110223e-16
-8.8817842e-16
0
-1.9428903e-16
1.110223e-15
-1.110223e-16
-2.220446e-16
-8.8817842e-16
-1.6653345e-16
-8.8817842e-16
2.220446e-16
-4.4408921e-16
2.220446e-16
-2.4424907e-15
1.110223e-16
-4.4408921e-16
3.3306691e-16
-8.8817842e-16
2.220446e-16
-1.110223e-15
-8.8817842e-16
0
1.7763568e-15
2.942091e-15
3.8857806e-16
-2.4424907e-15
2.220446e-16
-4.4408921e-16
-1.110223e-16
-8.8817842e-16
1.110223e-16
2.6645353e-15
1.110223e-16
-1.110223e-15
-5.5511151e-17
1.3322676e-15
0
4.4408921e-16
4.4408921e-16
-1.110223e-16
2.220446e-16
-3.6082248e-16
-1.110223e-16
1.9984014e-15
-1.6653345e-16
0
-2.220446e-16
1.110223e-15
-1.6653345e-16
1.5543122e-15
1.110223e-16
1.3322676e-15
0
0
1.110223e-16
1.7763568e-15
-4.4408921e-16
0
-1.9984014e-15
3.6082248e-15
-1.110223e-16
3.7747583e-15
1.110223e-16
-1.3322676e-15
-2.220446e-16
4.4408921e-16
-3.3306691e-16
6.6613381e-16
0
2.6645353e-15
1.110223e-16
-6.6613381e-16
-2.7755576e-16
2.8865799e-15
4.4408921e-16
3.0531133e-16
-2.4424907e-15
1.2767565e-15
-2.220446e-16
0
0
1.9984014e-15
0
-8.8817842e-16
-1.110223e-16
1.110223e-15
-1.110223e-16
-6.6613381e-16
-3.3306691e-16
1.3322676e-15
-4.4408921e-16
1.110223e-15
8.8817842e-16
3.0531133e-16
2.8865799e-15
-5.5511151e-17
-1.110223e-16
-2.4424907e-15
-2.220446e-16
1.3322676e-15
1.110223e-16
4.4408921e-16
1.110223e-16
-6.6613381e-16
1.110223e-16
-1.5543122e-15
1.6653345e-16
1.9984014e-15
-1.110223e-16
-3.3306691e-15
0
-5.2735594e-16
2.220446e-15
-1.0269563e-15
2.220446e-16
-4.4408921e-16
0
-8.8817842e-16
-5.5511151e-17
0
2.7755576e-16
-6.6613381e-16
3.3306691e-16
-1.9984014e-15
2.220446e-16
4.4408921e-16
1.6653345e-16
-1.7763568e-15
-4.4408921e-16
2.7755576e-16
-4.4408921e-16
4.4408921e-16
1.110223e-15
-1.6653345e-16
-1.5543122e-15
-2.220446e-16
-8.8817842e-16
1.110223e-16
1.3322676e-15
-1.110223e-16
-2.220446e-16
1.110223e-16
4.4408921e-16
-4.4408921e-16
4.4408921e-16
-3.5527137e-15
1.4432899e-15
1.110223e-16
0
-4.9960036e-16
0
-6.1062266e-16
-1.9984014e-15
2.7755576e-16
1.9984014e-15
3.3306691e-16
4.4408921e-16
2.220446e-16
-2.220446e-16
1.110223e-16
0
-3.3306691e-16
-6.6613381e-16
-1.3322676e-15
-3.2751579e-15
-1.110223e-16
0
-1.6653345e-16
8.8817842e-16
2.7755576e-16
-4.4408921e-16
2.7755576e-16
1.5543122e-15
0
0
-2.7755576e-16
-2.220446e-16
-3.3306691e-16
-1.3322676e-15
1.110223e-16
3.9968029e-15
-4.4408921e-16
0
2.7755576e-16
1.7763568e-15
3.8857806e-16
8.8817842e-16
1.110223e-16
-1.3322676e-15
1.110223e-16
-2.220446e-16
0
-2.220446e-16
0
4.4408921e-16
1.0547119e-15
1.5543122e-15
7.2164497e-16
1.7763568e-15
-3.9968029e-15
1.4432899e-15
3.3306691e-16
4.4408921e-16
-4.9960036e-16
-3.7747583e-15
-4.9960036e-16
-1.5543122e-15
-4.4408921e-16
1.3322676e-15
-2.220446e-16
-8.8817842e-16
4.9960036e-16
2.220446e-16
-1.6653345e-16
2.220446e-15
-1.6653345e-15
-3.3306691e-15
-3.3306691e-15
2.1649349e-15
-8.3266727e-16
-4.4408921e-16
-7.2164497e-16
-2.4424907e-15
3.3306691e-16
8.8817842e-16
4.9960036e-16
1.5543122e-15
0
0
1.110223e-16
1.5543122e-15
0
8.8817842e-16
-5.5511151e-17
-1.5543122e-15
1.9984014e-15
3.8857806e-16
-2.220446e-16
-4.4408921e-16
4.4408921e-16
2.4424907e-15
5.5511151e-16
1.3322676e-15
-1.110223e-16
-8.8817842e-16
3.8857806e-16
8.8817842e-16
5.5511151e-16
1.7763568e-15
-1.110223e-16
-1.5543122e-15
1.110223e-16
-1.7763568e-15
-1.3322676e-15
-4.1078252e-15
1.110223e-16
0
3.3306691e-16
2.220446e-15
-2.7755576e-16
0
0
-1.3322676e-15
2.220446e-16
4.4408921e-16
-6.1062266e-16
-1.7763568e-15
-8.3266727e-16
-2.4424907e-15
-1.2212453e-15
2.8865799e-15
-6.6613381e-16
2.8865799e-15
1.110223e-16
0
1.110223e-16
-2.4424907e-15
0
-4.4408921e-16
0
0
-5.5511151e-16
-8.8817842e-16
-3.8857806e-16
-2.220446e-15
8.8817842e-16
4.4408921e-16
1.831868e-15
6.2172489e-15
4.4408921e-15
-2.2759572e-15
-6.6613381e-16
-1.5543122e-15
-3.3306691e-16
-1.9984014e-15
0
4.4408921e-16
1.110223e-16
0
0
-8.8817842e-16
2.7755576e-17
1.3322676e-15
-3.0531133e-16
6.6613381e-16
-6.3837824e-16
-1.9984014e-15
-2.6645353e-15
9.9920072e-16
-2.7755576e-16
-1.5543122e-15
2.7755576e-16
1.9984014e-15
2.220446e-16
1.9984014e-15
0
8.8817842e-16
0
1.7763568e-15
-1.110223e-16
1.110223e-15
5.2735594e-16
-8.8817842e-16
1.7486013e-15
-6.6613381e-15
-6.4392935e-15
-5.6066263e-15
3.3306691e-16
8.8817842e-16
4.4408921e-16
2.4424907e-15
1.110223e-16
8.8817842e-16
1.6653345e-16
2.4424907e-15
-8.3266727e-17
4.4408921e-16
0
-1.5543122e-15
2.4980018e-16
-1.7763568e-15
4.1633363e-16
-1.5543122e-15
3.3306691e-15
3.8302694e-15
1.110223e-16
1.5543122e-15
-1.110223e-16
4.4408921e-16
1.6653345e-16
-4.0634163e-14
-1.110223e-16
4.4408921e-16
-1.110223e-16
-3.7747583e-15
1.9428903e-16
-1.7763568e-15
8.3266727e-17
-4.4408921e-16
-5.2735594e-16
2.4424907e-15
1.9984014e-15
2.7755576e-16
0
-4.4408921e-16
-5.3845817e-15
-4.8849813e-15
-3.8302694e-15
-4.3964832e-14
-3.8857806e-16
8.8817842e-16
0
-2.4424907e-15
1.110223e-16
4.4408921e-16
-2.4980018e-16
8.8817842e-16
1.9428903e-16
1.9984014e-15
-4.6629367e-15
-3.7192471e-15
-3.3306691e-15
-1.3322676e-15
-2.8865799e-15
-6.6613381e-15
2.2759572e-15
3.9745984e-14
2.0539126e-15
2.6645353e-15
-1.110223e-16
1.3322676e-15
-3.3306691e-16
1.5543122e-15
-1.110223e-16
1.5543122e-15
8.3266727e-17
-1.110223e-15
-5.3290705e-15
-1.110223e-15
-3.3306691e-16
-8.8817842e-16
5.2180482e-15
-1.7763568e-15
3.663736e-15
4.5075055e-14
0
-1.5543122e-15
0
-4.8849813e-15
5.5511151e-17
1.110223e-15
1.6653345e-16
8.8817842e-16
7.2164497e-16
-8.8817842e-16
-6.2172489e-15
-8.8817842e-16
-2.220446e-16
-4.4408921e-16
1.110223e-16
8.8817842e-16
0
5.3290705e-15
-2.7755576e-16
-1.3322676e-15
0
-6.4392935e-15
5.5511151e-17
4.4408921e-16
-5.5511151e-17
-1.9984014e-15
1.9428903e-16
-2.220446e-15
-7.7715612e-15
-6.1062266e-16
0
0
4.4408921e-16
1.110223e-15
0
2.8865799e-15
-3.3306691e-16
8.8817842e-16
1.9428903e-16
7.327472e-15
1.9428903e-16
1.5543122e-15
5.5511151e-17
-2.220446e-15
1.2490009e-15
1.5543122e-15
-5.3290705e-15
-5.1070259e-15
-1.110223e-16
3.3306691e-15
2.553513e-15
-1.110223e-16
1.7763568e-15
-5.5511151e-17
3.3306691e-15
-3.6082248e-16
1.110223e-15
-6.6613381e-16
9.547918e-15
-2.220446e-16
2.4424907e-15
-3.8857806e-16
-3.3306691e-15
-3.3306691e-16
4.4408921e-16
0
-1.110223e-16
6.6613381e-15
-2.3869795e-15
-5.5511151e-17
-2.8865799e-15
0
3.3306691e-15
-5.5511151e-17
-2.8865799e-15
-3.3306691e-16
6.2172489e-15
2.220446e-16
1.3322676e-15
4.9960036e-16
-1.9984014e-15
1.110223e-16
-8.8817842e-16
-1.110223e-15
-8.3266727e-17
-2.4424907e-15
1.4710455e-15
0
-5.5511151e-15
-5.5511151e-17
-6.6613381e-16
-2.4980018e-16
-3.7747583e-15
-5.5511151e-16
4.4408921e-16
-2.220446e-16
-7.1054274e-15
-2.220446e-16
6.6613381e-16
2.220446e-16
-1.5543122e-15
-8.8817842e-16
-5.5511151e-17
4.4408921e-16
-2.7755576e-16
1.6653345e-16
1.3322676e-15
1.3877788e-16
1.5543122e-15
4.4408921e-16
-1.110223e-15
1.0547119e-15
-5.7731597e-15
9.4368957e-16
-7.327472e-15
3.3306691e-16
-2.4424907e-15
2.220446e-16
-8.8817842e-16
0
3.0531133e-16
7.5495166e-15
1.3877788e-16
0
7.1054274e-15
5.5511151e-17
2.6645353e-15
5.5511151e-17
0
1.110223e-16
-1.9984014e-15
3.3306691e-16
5.7731597e-15
2.7755576e-16
-1.9984014e-15
5.5511151e-17
-4.4408921e-16
-4.4408921e-16
5.5511151e-17
-1.1990409e-14
-1.9706459e-15
-5.5511151e-17
3.1086245e-15
0
-8.8817842e-16
2.220446e-16
1.7763568e-15
-2.220446e-16
4.4408921e-16
-6.1062266e-16
7.9936058e-15
-5.5511151e-17
8.8817842e-16
2.220446e-16
8.8817842e-16
0
-4.7184479e-16
-2.3314684e-14
-2.2482016e-15
-5.5511151e-17
-3.3306691e-15
-1.6653345e-16
-6.6613381e-16
-3.3306691e-16
5.7731597e-15
-3.8857806e-16
4.2188475e-15
-3.8857806e-16
8.8817842e-16
-3.8857806e-16
1.7763568e-15
-3.8857806e-16
1.5543122e-15
-8.8817842e-16
-4.7184479e-16
1.5543122e-15
-4.9960036e-16
0
-4.8849813e-15
-2.7755576e-17
-3.3306691e-15
-4.7184479e-16
-6.6613381e-16
-4.4408921e-16
5.9952043e-15
-1.110223e-16
-8.8817842e-16
0
1.7763568e-15
2.220446e-16
0
6.6613381e-16
2.4980018e-16
1.1546319e-14
1.2490009e-15
0
-1.5543122e-15
5.5511151e-17
-3.3306691e-15
8.3266727e-17
-6.6613381e-15
0
1.7763568e-15
0
-1.5543122e-15
-2.220446e-16
8.8817842e-16
-3.3306691e-16
-8.8817842e-16
2.6645353e-15
2.220446e-16
5.7731597e-15
2.5257574e-15
-2.220446e-16
-8.8817842e-16
2.220446e-16
0
5.5511151e-16
0
6.6613381e-16
-1.3322676e-15
2.220446e-16
0
0
-8.8817842e-16
0
0
-8.8817842e-16
-9.4368957e-16
7.5495166e-15
-2.026157e-15
4.9960036e-16
0
0
2.6645353e-15
-2.220446e-16
-8.8817842e-16
-3.3306691e-16
-8.8817842e-16
2.220446e-16
0
3.3306691e-16
-8.8817842e-16
3.3306691e-16
0
-4.4408921e-16
-1.110223e-16
4.4408921e-15
-7.2164497e-16
-7.2164497e-16
2.6645353e-15
-1.110223e-16
2.220446e-15
6.6613381e-16
-1.7763568e-15
4.4408921e-16
4.4408921e-16
2.220446e-16
-8.8817842e-16
-2.220446e-16
0
0
0
4.4408921e-16
-1.3877788e-15
4.8849813e-15
-1.179612e-14
1.110223e-16
-8.8817842e-16
0
-2.220446e-15
-5.5511151e-16
1.7763568e-15
-4.4408921e-16
2.220446e-15
0
2.220446e-15
0
0
0
0
0
2.220446e-16
4.8849813e-15
-2.5812685e-15
2.7755576e-16
-3.5527137e-15
2.220446e-16
-2.6645353e-15
-1.110223e-16
-1.7763568e-15
-8.8817842e-16
-2.6645353e-15
-6.6613381e-16
1.7763568e-15
-2.220446e-16
-8.8817842e-16
0
-8.8817842e-16
-1.7763568e-15
-8.3266727e-16
8.437695e-15
-1.1768364e-14
2.220446e-16
-8.8817842e-16
3.3306691e-16
0
9.9920072e-16
-2.220446e-15
7.7715612e-16
-1.3322676e-15
3.3306691e-16
8.8817842e-16
7.7715612e-16
-1.3322676e-15
7.7715612e-16
-8.8817842e-16
-2.220446e-15
-2.7755576e-16
7.9936058e-15
2.3869795e-15
0
1.7763568e-15
2.220446e-16
0
0
-1.7763568e-15
-6.6613381e-16
8.8817842e-16
-2.220446e-16
1.3322676e-15
2.220446e-16
0
0
0
-1.3322676e-15
-1.2212453e-15
1.9984014e-14
-6.9944051e-15
-1.6653345e-16
6.6613381e-15
2.220446e-16
0
4.4408921e-16
4.4408921e-16
0
-1.7763568e-15
-5.5511151e-16
-1.7763568e-15
-2.220446e-16
8.8817842e-16
4.4408921e-16
0
0
-2.2759572e-15
-6.3837824e-15
1.0658141e-14
-7.2164497e-16
6.6613381e-15
-1.110223e-16
1.7763568e-15
0
-8.8817842e-16
5.5511151e-16
-8.8817842e-16
6.6613381e-16
-4.4408921e-16
0
-4.4408921e-16
-3.3306691e-16
4.4408921e-16
5.7731597e-15
0
-3.5527137e-15
-6.2450045e-17
8.8817842e-16
0
3.5527137e-15
0
0
-1.3322676e-15
1.3322676e-15
0
0
-3.9968029e-15
0
-2.6645353e-15
2.6645353e-15
0
0
0
0
8.8817842e-16
0
0
0
8.8817842e-16
-2.6645353e-15
-2.6645353e-15
-4.1633363e-17
-4.8849813e-15
1.9428903e-16
5.5511151e-17
9.7699626e-15
0
0
-1.110223e-16
-8.8817842e-16
0
3.9968029e-15
0
0
0
0
0
0
-3.1086245e-15
1.110223e-16
-1.8207658e-14
0
-5.5511151e-17
0
0
1.7763568e-15
0
0
0
5.3290705e-15
0
0
-1.110223e-16
0
0
8.8817842e-16
8.437695e-15
1.110223e-16
-3.1086245e-15
6.2450045e-17
8.3266727e-17
-6.6613381e-15
0
8.8817842e-16
0
-1.7763568e-15
-1.110223e-16
0
0
8.8817842e-16
0
-8.8817842e-16
-2.220446e-16
0
6.6613381e-15
0
1.0214052e-14
1.9428903e-16
5.5511151e-17
3.5527137e-15
1.110223e-16
-8.8817842e-16
1.110223e-16
-2.6645353e-15
0
-3.5527137e-15
0
1.3322676e-15
4.4408921e-16
-8.8817842e-16
0
-8.8817842e-16
-8.437695e-15
0
1.6431301e-14
0
0
-3.9968029e-15
0
-8.8817842e-16
1.110223e-16
-8.8817842e-16
1.110223e-16
-1.7763568e-15
0
4.4408921e-16
-2.220446e-16
8.8817842e-16
2.220446e-16
8.8817842e-16
-5.3290705e-15
-5.5511151e-17
2.3536728e-14
0
5.5511151e-17
-7.5495166e-15
-1.110223e-16
0
-1.110223e-16
3.5527137e-15
0
2.6645353e-15
0
-8.8817842e-16
0
8.8817842e-16
-2.220446e-16
3.5527137e-15
2.220446e-15
-1.5265567e-16
1.1546319e-14
0
0
8.8817842e-16
0
0
0
3.1086245e-15
1.110223e-16
-8.8817842e-16
0
-1.3322676e-15
-2.220446e-16
0
-4.4408921e-16
4.4408921e-16
-8.8817842e-16
-5.5511151e-17
1.6653345e-16
-3.9968029e-15
0
3.1086245e-15
0
0
0
0
1.110223e-16
-8.8817842e-16
2.220446e-16
-8.8817842e-16
2.220446e-16
0
2.220446e-16
-2.6645353e-15
-8.8817842e-16
-4.9960036e-16
-7.9936058e-15
-3.6082248e-15
2.6645353e-15
2.220446e-16
8.8817842e-16
8.8817842e-16
-1.110223e-16
-8.8817842e-16
8.8817842e-16
0
0
4.8849813e-15
-2.220446e-16
8.8817842e-16
8.8817842e-16
-4.4408921e-16
-1.7763568e-15
1.7763568e-15
-3.3306691e-16
-8.8817842e-16
0
0
0
8.8817842e-16
8.8817842e-16
0
-7.2164497e-16
-5.3290705e-15
-5.4400928e-15
-1.110223e-16
-1.3322676e-15
2.220446e-16
0
2.220446e-16
1.7763568e-15
0
-1.3322676e-15
-1.110223e-16
-8.8817842e-16
1.110223e-16
8.8817842e-16
4.4408921e-16
0
8.8817842e-16
-3.8857806e-16
-5.7731597e-15
-2.8588243e-15
-2.220446e-16
8.8817842e-16
0
-8.8817842e-16
-3.3306691e-16
-1.7763568e-15
-6.6613381e-16
4.4408921e-16
2.220446e-16
0
0
8.8817842e-16
0
0
2.220446e-15
-6.1062266e-16
-8.437695e-15
-6.6335826e-15
1.110223e-16
4.4408921e-15
-5.5511151e-16
2.220446e-15
0
-1.7763568e-15
7.7715612e-16
1.7763568e-15
2.220446e-16
0
4.4408921e-16
8.8817842e-16
8.8817842e-16
8.8817842e-16
1.7763568e-15
-3.3306691e-16
-6.6613381e-15
-1.3045121e-15
6.1062266e-16
1.7763568e-15
4.4408921e-16
3.5527137e-15
-2.220446e-16
0
-6.6613381e-16
-2.6645353e-15
-2.220446e-16
-1.7763568e-15
2.220446e-16
8.8817842e-16
4.4408921e-16
8.8817842e-16
-8.8817842e-16
-6.1062266e-16
-5.7731597e-15
-5.689893e-15
-1.110223e-16
-3.9968029e-15
0
-3.1086245e-15
-2.220446e-16
3.5527137e-15
-6.6613381e-16
-4.4408921e-16
-2.220446e-16
-1.3322676e-15
1.110223e-16
0
0
0
-1.3322676e-15
-7.2164497e-16
-4.8849813e-15
1.4432899e-15
-8.3266727e-16
-4.4408921e-16
0
-2.6645353e-15
7.7715612e-16
1.3322676e-15
0
8.8817842e-16
-4.4408921e-16
-8.8817842e-16
-5.5511151e-16
0
-4.4408921e-16
-8.8817842e-16
4.4408921e-16
-1.110223e-16
8.437695e-15
3.0531133e-16
7.2164497e-16
8.8817842e-16
2.220446e-16
1.3322676e-15
-2.220446e-16
-1.3322676e-15
-1.110223e-16
-1.3322676e-15
0
0
1.110223e-16
-8.8817842e-16
3.3306691e-16
0
8.8817842e-16
1.5543122e-15
7.5495166e-15
8.5487173e-15
-2.220446e-16
3.3306691e-15
0
1.7763568e-15
-5.5511151e-16
-2.4424907e-15
-4.4408921e-16
-3.9968029e-15
-2.220446e-16
0
-5.5511151e-16
2.4424907e-15
0
2.4424907e-15
-3.3306691e-15
1.110223e-16
0
4.4408921e-16
2.220446e-16
8.8817842e-16
4.4408921e-16
-1.110223e-16
-2.8865799e-15
-1.3322676e-15
-1.110223e-16
4.4408921e-16
0
3.6082248e-16
7.1054274e-15
7.7715612e-15
3.3306691e-16
4.4408921e-16
-4.8849813e-15
1.3877788e-16
-2.220446e-15
-1.110223e-15
-2.4980018e-16
1.7763568e-15
1.5543122e-15
1.0658141e-14
-7.327472e-15
2.747802e-15
0
-6.6613381e-16
-1.6653345e-16
0
-1.110223e-16
-1.110223e-15
8.3266727e-16
4.4408921e-16
3.6082248e-16
1.1546319e-14
-1.6653345e-16
-5.5511151e-15
-1.110223e-16
-3.3306691e-15
-1.6653345e-16
-1.5543122e-15
1.1324275e-14
-2.220446e-15
-2.220446e-16
-8.8817842e-16
1.110223e-16
-6.6613381e-16
1.110223e-16
0
3.3306691e-16
4.4408921e-16
0
-4.2188475e-15
0
-1.3322676e-15
2.7755576e-16
-6.6613381e-16
-4.7184479e-16
-4.6629367e-15
-1.3322676e-15
7.3552275e-15
0
0
-3.3306691e-16
-8.8817842e-16
0
-8.8817842e-16
-8.3266727e-16
-4.8849813e-15
-4.9960036e-16
-8.6597396e-15
0
6.6613381e-16
0
4.4408921e-16
3.0531133e-16
2.4424907e-15
-8.2156504e-15
-4.7184479e-16
-1.6653345e-16
-4.4408921e-16
-1.110223e-16
-1.7763568e-15
-4.9960036e-16
0
-4.4408921e-16
-7.7715612e-15
5.5511151e-17
1.5543122e-15
1.6653345e-16