/*--------------------------------*- C++ -*----------------------------------*\
  =========                 |
  \\      /  F ield         | OpenFOAM: The Open Source CFD Toolbox
   \\    /   O peration     | Website:  https://openfoam.org
    \\  /    A nd           | Version:  11
     \\/     M anipulation  |
\*---------------------------------------------------------------------------*/
FoamFile
{
    format      ascii;
    class       volScalarField;
    location    "0.1695";
    object      T;
}
// * * * * * * * * * * * * * * * * * * * * * * * * * * * * * * * * * * * * * //

dimensions      [0 0 0 1 0 0 0];

internalField   nonuniform List<scalar> 
880
(
300
300
300.0000000113508
300.0012599641352
300
300
300.0000000564924
300.0048082484858
300
300
300.0000003987932
300.0212412237289
300.0000000000001
300.00000000003
300.0000051731495
300.067176739151
300
300
299.9999999994735
299.9999999983003
300.0000000267993
299.9999996323091
300.0000048848533
299.9999676058173
299.9999544965097
300.0003060999309
300.0613991006108
299.9149640899244
301.9095745203788
306.342326265742
310.0979714873047
311.6401482209234
300.0000095403967
300.0001614361926
300.0002281875393
300.0002484221661
300.0004360467169
300.001060955719
300.0038556594256
300.0039090316625
300.1656878079588
300.3438656873926
300.5922052187983
300.7831612704558
313.4983934157758
315.4342080437734
317.2750375232052
319.5168187118364
318.683204183313
315.6573077296547
312.9332716447459
311.3384434672299
301.4089701930991
302.7911348818149
303.462277024872
303.5182441245681
300.0121750320881
300.0444191765312
300.091633389296
300.1264177440716
300.0007439910642
300.002394753556
300.0062757843156
300.009170639924
300.0093009752389
300.0078939163173
300.005360949986
300.0026846029032
300.1378632091578
300.1260884278328
300.1051798658982
300.0770374772214
303.3043622594532
302.8195167177975
302.2703578755921
301.7213093730659
310.2813217984372
309.0994949238998
307.4403191180971
305.8058514357614
304.401792201806
301.1932182926556
300.0445704310821
300.0008399635844
303.2805554485121
300.7111333952006
300.017244814544
300.0001228577084
301.7881228571723
300.2441921250946
300.0028661526637
299.9999684695522
306.2669845307666
300.1057851567809
300.0004706752463
300.0000787182393
299.9999327241426
300.0000297287669
300.2729924793808
332.4346736079193
300.0001036359612
300.0054568635162
301.3643427962994
353.2506700402348
300.0006180850615
300.0142581775529
303.0661328301628
364.061336691474
300.0023508508745
300.0481068049435
305.5922403773308
372.9479652330091
379.8923340567324
308.9296868720202
300.0930528639329
300.0049314250934
386.8729919004406
313.0930002163265
300.1967533141143
300.0113430530925
393.46135619101
318.352315668331
300.3468596024697
300.0170673660201
400.255268177256
324.2382144525545
300.5700970536918
300.0307119238406
300.0433300643521
300.8784956071491
330.9133748198067
404.6148389035072
300.0706321222447
301.4081329640872
336.4018023369156
404.0361271118279
300.1814533372291
301.6317829608583
332.5053334293018
390.4389509870501
299.9597324720091
301.0465812426752
322.5460844389873
366.344635290772
300.1779982247584
301.9996731439505
319.3309905675016
342.9474659492871
300.2204046746342
302.0664291680925
310.8235890957336
320.5436573661982
300.0994873964689
301.3924555576749
307.9361291723049
310.3398386221074
300.013214535846
300.9109099486127
308.7168486257469
321.0147339400756
327.4072666552571
306.8035259231863
300.1709735552536
299.9915568152656
323.54411591206
303.7658635412207
299.8118346308968
299.9769984502645
318.3624929310666
300.9075095286047
299.6320738413596
299.9775772503397
310.7230803824445
298.579766793796
299.5545978149548
299.9897101457863
300.6180394921395
297.8460317589615
299.7401537142734
299.997235634675
286.260686121888
297.8019556027124
299.9195903354308
299.9994381829232
277.0303860849621
297.9797912254031
299.9636377578996
299.9998089895898
276.6600489099783
299.0151576319681
299.9937428424644
299.999926946098
302.1689508685725
299.1562589001131
299.87337402905
299.9978071261087
300.3443539052022
299.1391352700873
299.8753382257563
299.9977532916929
298.0413398672139
299.0539304323056
299.8923042958527
299.9978582876407
297.3655947287403
299.1136661373017
299.8936738489008
299.9975471330804
276.6600489094656
299.0151576312916
299.9937428407833
299.9999269495003
277.0303860846503
297.9797912256763
299.9636377546516
299.9998089884491
286.2606861212402
297.8019556041017
299.9195903360285
299.9994381837934
300.618039492012
297.846031760928
299.74015371441
299.9972356335439
299.9915568158957
300.170973556602
306.8035259227361
327.4072666571691
299.9769984511848
299.8118346315325
303.765863541977
323.544115913109
299.9775772488554
299.6320738434537
300.9075095276498
318.3624929313811
299.9897101462827
299.554597816122
298.579766796328
310.7230803819041
321.0147339351871
308.7168486239442
300.9109099461425
300.013214534819
310.3398386210669
307.9361291708078
301.3924555567297
300.0994873928762
320.5436573666328
310.82358909438
302.0664291682502
300.2204046743457
342.9474659494715
319.3309905671258
301.9996731424163
300.1779982310234
300.0433300634983
300.8784956100364
330.9133748206541
404.6148389044289
300.0706321222201
301.4081329675376
336.4018023379101
404.0361271118808
300.1814533299173
301.6317829609777
332.505333429275
390.4389509872685
299.9597324845654
301.046581243332
322.5460844385715
366.3446352908392
400.2552681788414
324.2382144526975
300.5700970542287
300.0307119243598
393.4613561934309
318.352315673488
300.3468596080982
300.0170673661119
386.8729919001301
313.0930002149793
300.196753314924
300.0113430519811
379.8923340574864
308.9296868701211
300.0930528584096
300.0049314239018
299.9999327265568
300.0000297291156
300.2729924793592
332.4346736064808
300.0001036360353
300.0054568658504
301.3643427974151
353.2506700395469
300.0006180839685
300.0142581712685
303.0661328308847
364.061336692536
300.0023508490257
300.0481068129895
305.5922403777309
372.9479652333229
300.0000787165641
299.9999684708392
300.0001228570869
300.0008399624126
300.0004706728253
300.002866154393
300.0172448159871
300.0445704296134
300.1057851573095
300.2441921255607
300.7111333939436
301.1932182930471
306.266984530721
301.7881228573712
303.2805554482723
304.4017922020207
300.0026846004445
300.0770374774553
301.7213093746749
305.8058514364087
300.0053609500961
300.1051798656576
302.2703578774844
307.4403191181994
300.0078939177724
300.1260884281804
302.8195167170696
309.099494923276
300.0093009751323
300.1378632094855
303.3043622603595
310.2813217980085
300.0007439889163
300.0121750303958
301.4089701943733
318.6832041833941
300.0023947509517
300.0444191761093
302.7911348832587
315.657307728924
300.0062757825063
300.0916333909549
303.462277025506
312.9332716445129
300.0091706385523
300.1264177454587
303.5182441245609
311.3384434665683
319.5168187125695
300.7831612736089
300.0039090306079
300.0002484209251
317.2750375234978
300.5922052213346
300.00385565858
300.0002281794287
315.4342080448223
300.343865688209
300.0010609557239
300.0001614447244
313.4983934136303
300.165687802889
300.0004360465237
300.0000095414157
311.6401482198178
299.9149640881372
299.9999676061924
299.9999999992924
310.0979714861458
300.0613990979666
300.0000048851402
299.9999999993494
306.3423262658652
300.0003060993018
299.9999996324801
300
301.9095745210899
299.9999544957138
300.0000000268664
299.9999999999999
300
299.9999999999999
300.0000000120784
300.0012599685065
300.0000000000002
300
300.0000000568133
300.004808251053
300
300
300.0000003989006
300.0212412277933
300
300.0000000000168
300.0000051714329
300.0671767365425
300.0035981960582
300.0127391789278
300.0417554489409
300.4116755509983
300.0127391855995
300.0210397161178
300.0723569803499
301.3896724813699
300.0417554543131
300.0723569796687
300.5935782262669
307.5968117153095
300.4116755163355
301.3896723988784
307.5968115950407
327.8989528893756
356.4631672327017
337.9341653195521
324.8231203976027
312.4687075126773
353.3784368231229
348.251354429547
343.4383182548444
334.6676944140796
351.0886625728271
349.0856583427624
346.8695464635838
343.1171087040156
350.2219981137475
349.1030019685933
348.2345837255326
346.1125279923961
347.2687969210585
346.8829762451454
346.9638134517343
348.1807898731582
348.1921283549427
346.7807962737307
346.3285424231098
347.4557986948136
348.4639141214793
346.761956974244
345.8471661009266
346.4391197915586
348.7404955369256
346.7951407991697
345.8169179574223
341.4686117451436
330.5092161564609
310.7012584730966
301.1441837742194
301.5422966064362
321.5683481735216
303.3956924900172
299.364702905815
301.9823052289681
311.012940854469
298.143493618028
300.1037163384344
303.3813614922204
288.0751902917489
291.3263938450133
299.1842398512788
303.1706555572437
302.7382210250711
303.3705286963024
303.2107562873129
302.7026910877821
304.0507592736945
304.1421762207594
303.8831887350842
303.1611056795266
305.4307653288115
305.1834825564991
304.6836182120357
303.8123649983191
304.9645704929465
304.9217068955171
304.6633913965302
303.9115600789365
302.3117998136256
301.9155008017424
302.5911119626514
343.9025913042478
302.4357255039235
301.9936520127054
303.5296639586711
361.1549607773322
302.7236593343789
302.2253045599757
304.9676040825947
371.1548831518067
302.6716579618845
302.1354698227521
308.0733934722109
378.725587513291
419.0739949190407
427.1817348201071
426.742064554233
426.8081814069746
430.4720986945444
431.1396013203581
428.551232165093
426.6909143160724
431.5110682194544
430.551078473916
429.1373680812349
426.7869733804297
437.2518429709629
433.0612129861505
430.4862887126113
427.0422817248156
425.5382255267661
424.5011632090083
424.6440349050437
426.1438978322082
424.1453326569482
422.412378110167
421.9584059853775
422.8908809100379
422.9344011696963
419.9646402387926
418.6539980494452
419.1584054664837
423.388610364544
419.3965880061294
417.1747906432308
417.340776522107
426.8253969526074
423.614555648198
411.712351818889
393.6099898261662
423.482610229548
420.9138720576871
410.3457410325535
411.6018452652933
419.5599512571777
417.7858227376165
413.7313248459618
427.3316541717484
417.4337522000791
416.9459485314442
419.8226174837361
409.6758095021098
358.7884492631485
300.07356998128
204.2362044998717
185.9299466981137
351.7258317781468
266.8159630777048
176.158030186956
145.487164594468
317.245389017688
213.5135824543569
150.1781431127971
135.2148011815857
241.9030404524109
140.6486940654397
145.4152865170235
134.0221925585833
207.2497432199732
234.6040661598999
254.4631765980735
256.1082665944132
162.0033931870607
197.8353419299183
230.3363791869911
247.128558042219
145.4792254631939
175.3800687573334
213.456428839446
245.6177539146842
142.5803245938743
170.2396663599757
212.5269412458224
250.0146009836319
286.2015445446724
267.8469625346723
251.5119491592003
246.6242015869967
287.2694851275676
274.1549062202559
255.7626829292508
253.4290895736177
278.9927748489832
279.1015263695318
267.4240780833405
268.8218956992436
267.4191325511823
279.8338148791029
275.603543603632
285.8737043540814
226.6355679354396
208.4344551524791
210.6345387797249
212.8889655238181
234.2995124570785
228.6023719783092
227.5284822333277
208.153422920158
239.3096476603777
235.1866665679646
220.5118800166425
194.4523664093482
228.132734823059
228.3013255719456
209.3125735710864
184.7406441199774
173.189283259318
171.5629011983873
172.6772352994427
172.7308015046718
177.4041062904511
173.4456362147425
175.0225605132757
176.0858232652154
195.8418181270117
198.9734778194142
201.1549873869532
201.4441855491113
229.9112242979939
236.6446814359491
234.9555269320119
233.7261287073952
172.7308015047378
176.0858232651626
201.4441855489868
233.7261287072564
172.6772352995993
175.0225605131975
201.1549873869585
234.9555269319652
171.5629011985369
173.4456362148558
198.9734778194918
236.6446814356547
173.189283259456
177.4041062906675
195.8418181272034
229.9112242975274
212.8889655235004
210.6345387792957
208.4344551518971
226.6355679343444
208.1534229201594
227.5284822333235
228.6023719783234
234.2995124562677
194.4523664094567
220.511880016626
235.1866665678339
239.3096476600174
184.7406441200372
209.3125735710327
228.3013255719643
228.1327348229524
285.8737043536577
275.6035436026954
279.8338148772078
267.4191325495177
268.8218956987229
267.4240780826139
279.1015263678678
278.9927748474543
253.429089573045
255.7626829285485
274.1549062188812
287.2694851268898
246.624201586396
251.5119491586549
267.8469625333612
286.2015445444439
256.1082665938287
254.4631765986334
234.6040661611275
207.2497432201514
247.1285580409349
230.3363791870914
197.8353419311274
162.0033931873483
245.6177539131233
213.4564288388297
175.3800687578997
145.4792254634482
250.0146009817631
212.5269412448211
170.2396663599993
142.5803245940642
185.9299466963687
204.2362044986513
300.0735699812129
358.788449263148
145.4871645940757
176.1580301856729
266.8159630771394
351.7258317775009
135.2148011812655
150.1781431113574
213.5135824540235
317.2453890177242
134.0221925585604
145.4152865155442
140.648694064291
241.9030404523196
393.6099898260803
411.7123518190393
423.6145556482539
426.825396953479
411.6018452653005
410.3457410329011
420.9138720581963
423.4826102307779
427.3316541719452
413.731324846473
417.785822738682
419.5599512587947
409.6758095023558
419.8226174847303
416.9459485327521
417.4337522018373
426.1438978340165
424.6440349051591
424.5011632088386
425.538225526899
422.8908809118172
421.9584059857521
422.4123781100042
424.1453326568424
419.1584054681675
418.6539980500193
419.964640238603
422.9344011696994
417.3407765238163
417.174790643896
419.3965880059467
423.3886103646383
426.808181407651
426.7420645548745
427.1817348197356
419.0739949182602
426.6909143169696
428.5512321656824
431.1396013201314
430.472098694479
426.7869733813544
429.137368081713
430.5510784737212
431.5110682203623
427.0422817256563
430.4862887132463
433.0612129859452
437.2518429718144
343.902591302736
302.5911119622253
301.915500801882
302.3117998143051
361.1549607763188
303.529663957827
301.9936520130637
302.4357255046992
371.15488315061
304.9676040815335
302.2253045608329
302.7236593352532
378.7255875123227
308.0733934701834
302.1354698238424
302.6716579629745
302.7026910881106
303.2107562874396
303.3705286958153
302.7382210244729
303.1611056797713
303.8831887352456
304.1421762203196
304.0507592730527
303.812364998658
304.6836182121091
305.183482556111
305.4307653281664
303.9115600795241
304.6633913966658
304.9217068950811
304.964570492504
301.5422966055498
301.1441837736927
310.7012584729071
330.5092161573908
301.9823052277103
299.364702905159
303.3956924896768
321.5683481745366
303.3813614906932
300.1037163379476
298.1434936175316
311.0129408551284
303.1706555554878
299.1842398505706
291.3263938443495
288.0751902919923
348.1807898741604
346.9638134518576
346.8829762462582
347.2687969194715
347.4557986954925
346.3285424227097
346.7807962746485
348.1921283529715
346.4391197916933
345.8471661005348
346.7619569749953
348.463914120229
341.4686117456091
345.8169179570615
346.7951407993845
348.7404955359709
346.1125279912158
343.1171086995864
334.6676944034972
312.4687075279415
348.2345837241683
346.869546459689
343.4383182453494
324.8231203872816
349.1030019684925
349.0856583411538
348.2513544278854
337.9341653127657
350.2219981151085
351.0886625745164
353.3784368280513
356.4631672278119
273.9426412939881
298.3407049936497
299.9631873076191
299.9997539324289
273.0177568968739
298.24402835815
299.9597560845614
299.999659535655
279.9062395976006
298.5610411085509
299.9573691031151
299.9995288069284
291.7094466101635
298.9574909189212
299.9330486383708
299.998773832242
299.9978071270071
299.8733740301553
299.1562588991823
302.1689508695952
299.9977532929356
299.8753382271497
299.139135268517
300.344353904921
299.9978582849866
299.892304297547
299.0539304312641
298.0413398655185
299.9975471281533
299.8936738507589
299.1136661340412
297.3655947271573
299.9987738296392
299.9995288027017
299.9996595280712
299.9997539266171
299.933048639683
299.9573691036587
299.9597560844534
299.9631873057747
298.9574909187396
298.5610411060622
298.2440283587617
298.3407049927533
291.7094466084479
279.9062395963132
273.0177568967715
273.9426412937726
)
;

boundaryField
{
    back
    {
        type            empty;
    }
    inlet
    {
        type            zeroGradient;
    }
    front
    {
        type            empty;
    }
    top
    {
        type            zeroGradient;
    }
    outlet
    {
        type            fixedValue;
        value           uniform 300;
    }
    bottom
    {
        type            zeroGradient;
    }
    wall
    {
        type            zeroGradient;
    }
}


// ************************************************************************* //
