/*--------------------------------*- C++ -*----------------------------------*\
  =========                 |
  \\      /  F ield         | OpenFOAM: The Open Source CFD Toolbox
   \\    /   O peration     | Website:  https://openfoam.org
    \\  /    A nd           | Version:  11
     \\/     M anipulation  |
\*---------------------------------------------------------------------------*/
FoamFile
{
    format      ascii;
    class       surfaceScalarField;
    location    "0.175";
    object      phi;
}
// * * * * * * * * * * * * * * * * * * * * * * * * * * * * * * * * * * * * * //

dimensions      [0 3 -1 0 0 0 0];

internalField   nonuniform List<scalar> 
1652
(
1.706212168242967
0.5337381654508355
-6.661338147750939e-16
1.172474002810262
0.5337381653186679
1.667554982986985e-13
0.6387368526802597
0.5337297186824388
-1.398881011027697e-14
0.5319156541797248
-5.349054532644004e-13
0.1050911472575322
1.706212168246046
1.067476330897745
1.172474002854444
1.067476330456526
0.63873837235603
1.067448261330087
1.060797564396093
0.106147425959963
1.706212168254434
1.601214496347473
1.172474003814806
1.601214494194197
0.6387425921482962
1.601129734748535
1.584897035167832
0.1076120892963154
1.706212168255742
2.134952661796848
1.172474001896327
2.134952659100593
0.638750678914645
2.134694610940652
2.106105943385115
0.105689315327013
2.651191215300162
1.723711780224756
3.167429768726784
1.723711780210858
3.683668322806088
1.723711780504717
1.723711812528341
4.199906391526389
2.651191205764369
1.207473230249254
3.167429675310688
1.207473211498722
3.68366276733606
1.207473270864892
1.207475335866657
4.199900114863951
2.651049028867875
0.6907222715941534
3.167511169691639
0.6900931012559
3.68427709282353
0.6894052296059565
0.6898995588728928
4.199764690528458
2.64978924282833
0.1244788645076265
3.262907624701938
0.05013407713744833
3.890365076246128
0.02484741083914593
4.521377106330009
0.01678329727299316
4.164907052695757
0.03499782702860665
4.129902664280243
0.03499979411253584
4.094897608932964
0.0350032356406621
0.03494657908066612
4.059894718543564
4.164934186508806
0.06991578130189807
4.130026532246128
0.06976880613531394
4.095294580441762
0.06942799820715811
0.06917395734685206
4.060566508446377
4.171725986045372
0.09279280540469509
4.146468118075276
0.08663677569927175
4.12443844517835
0.08036047492541809
0.07522355512992068
4.103913193476187
4.569071572091663
0.008533120481967971
4.610571629608318
0.006561166605293878
4.647534301233302
0.008477030239183614
4.68872109232816
0.006651278238863023
4.676289568404838
0.07678836024777747
-0.06707090100262894
4.621391349426681
0.07742668148146531
-0.01655679071828023
4.567300083173267
0.06994219925852035
-0.00906285037902696
0.06006001520101917
4.526871046714952
-0.008250915217541566
4.152752817621939
0.003562994363052463
4.198571303280506
0.007405109295581358
4.232745837858047
0.01163777225063756
0.01499219585003081
4.254940905859177
4.062010376425922
0.0002123237269869849
4.065245529735406
0.0006064293118249742
4.070395645654648
0.001279102429039281
0.001981252061328376
4.076262711154793
4.059893682326665
4.059937269006917
4.059954474057308
4.059958147906112
4.059823014478829
-0.002339076011933394
4.059673963858763
-0.002243270492578664
4.059588373179922
-0.001990124867591203
-0.001552442719917502
4.059580799150255
4.079836690833738
-0.01603936561009583
4.0796152782022
-0.01455568020267373
4.077725874797697
-0.01240924054893783
-0.009794980612756243
4.074139386654132
4.261196721235274
-0.04964879916541387
4.252150993799601
-0.03941231421517627
4.233582700386121
-0.03080130367910028
-0.02380820525864208
4.207149475845413
4.505642046711344
-0.005231356555216671
4.485202745929444
-0.001504151847942448
4.452706614754844
0.0005756022102570424
4.412265243010213
0.001265622458155813
0.0203890986594264
4.363872971193602
0.0006731758005995014
0.007182789365021591
4.176675255353483
0.001040358038858158
4.069540401716047
4.059652765395441
0.01332083501723641
4.319627703441569
-0.000300564036956108
0.004789263713748604
4.142173564243147
0.0005746438847351598
4.064998015503607
4.059759932627363
0.006237421692549538
4.308069263834238
-0.08031307898947793
0.00131839356494784
4.103952156661825
0.0001595659860490484
4.061300095071392
4.05986148486811
0.02468437875788621
4.207161252533999
-0.1440410001914511
0.0006448462179161618
4.084855298104081
4.495083994415783e-05
4.060223758811301
4.059896369148929
0.09326492348688875
3.966588011966053
0.185512233105578
3.966946943233949
0.2218460467421086
3.989419331699557
4.009594386280301
0.1237674214376117
0.09316543853788078
3.873276297428442
0.1840015952432266
3.873972240257252
0.1936004885873098
3.901294406829648
3.842709252438398
0.09311718674965064
0.09279148182240243
3.780077493855801
0.180099514973141
3.781691103238909
0.141853971275081
3.822991576685167
3.688372602294613
0.05740065719610588
0.09209921695746254
3.686919744857828
0.1728077963058744
3.690078744607418
0.08556424431070586
3.748953337229446
3.537302095600569
0.03940966385323841
-0.01999740745998568
3.353017765365977
0.03877305504327477
-0.1597171829890121
3.672111083386047
-0.09048935875854242
3.599705351165832
3.594132861006959
0.03936916520449862
3.170403474052143
0.03642319989471554
-0.1399174182845644
3.584715637411442
-0.08801426830651699
3.510265323725037
3.501484532182133
0.09316395525653753
2.995343707874973
0.02816166546656573
-0.10843034713933
3.473813283975606
-0.08367905831597383
3.421631117907658
3.409518556548647
0.1361867318917014
2.807124205414784
0.02963389090580881
-0.066041645422245
3.368235578650186
-0.07711705019019682
3.331687996442529
3.318071867867117
0.09277644408299968
3.201753010608552
0.05936631352394273
3.218235985025351
-0.09899249874212401
3.243899049773815
2.717128263981574
0.03731053540161178
0.0881932384588906
3.084843840703926
0.08039398832618738
3.094256281667072
0.006311946783596367
3.149630528160869
2.770703030357704
0.03716658663936712
0.09494229478571814
2.95940626360221
0.1269818201524625
2.971008019922543
0.1062976175736433
3.045062327571192
2.852017973420471
0.1130179244220062
0.1037262548508038
2.839242570792871
0.1749701579639728
2.846584499238537
0.216561274354632
2.924869707859
2.878664370013893
0.2482987448502617
-0.2220641962545085
3.043244630308443
-0.4836014887716162
3.062101318921406
-0.7460982797676897
3.168889942545896
3.010279217353593
-0.8165078569352462
-0.2183783433127402
3.244656252575475
-0.4636097171913305
3.283222617308832
-0.6537886030318255
3.361420835175877
2.746776438273247
-0.2822171800032163
-0.2101632667466898
3.44407188173264
-0.4256862059628357
3.483165748776315
-0.5843664937032894
3.537449938658905
2.3470668774057
-0.04601451016178525
-0.2035559910981285
3.642939999478281
-0.4019163324025146
3.672665473668605
-0.4914197568826858
3.667546065569152
2.026409597923228
-0.0272764359865558
0.1947980379866367
1.950460904648563
-0.0118680636104399
0.1957940112328359
3.723603851847394
0.1016148689090939
3.762561734122645
3.745340949216923
0.1622385004625721
1.946886449789566
-0.007167969152271393
0.189069767484787
3.759576538206649
0.1040995048912149
3.850239170302825
3.850212363466664
0.1418071261579844
1.937297959449384
-0.004043274238702349
0.187965342722473
3.778086519473919
0.1041390245918225
3.944673117995397
3.95489593509194
0.1227312429994659
1.937002234254795
0.0005352838144848382
0.1845276496253792
3.782442501866482
0.1041129396993661
4.042492690842657
4.059638768066473
-0.1996876958592732
2.267378240972414
0.05349858597663412
-0.03736861924934609
3.768943338123877
-0.001252016972282277
4.045612873129728
4.059759781607108
-0.147528821609758
2.399977769471128
0.1076385737280881
-0.02298901490189431
3.809651698190788
-0.0005408375763615858
4.052022042525144
4.059857306061598
-0.1078962858125955
2.49144670108445
0.1049918767045357
-0.0125963788602429
3.876361182301403
-0.0002204645886072498
4.057365345408153
4.059896396800337
-0.08846749679880539
0.1150434546352705
2.574324206960667
-0.006952955700265662
3.942107547227189
-8.441503607148348e-05
4.056224713485808
4.059901895768919
0.56777802982216
-0.3698997629784522
-0.004438778149995
-4.04121180963557e-13
1.174761987256703
-0.5123858784505577
-5.191402863147232e-13
1.714218201891898
-0.5242613480605813
-4.392042285417119e-13
-0.5249670983227408
-1.522337811366015e-12
0.5600369860064792
-0.6736713564677901
-0.00580917173668381
1.174898559672241
-1.020390719848082
1.714297943990144
-1.048413541222606
-1.049937066890754
0.5418533887393233
-0.9422263345531463
-0.009253107470777931
1.174392171668401
-1.518100675888507
1.714378800639489
-1.572694850374284
-1.574920053562429
0.5199212964760046
-0.01447999167735031
-1.217189980752432
1.173635596131433
-2.008745944130065
1.714465437877477
-2.096756519458145
-2.099910476479582
-0.08846749679825627
-2.491446701082883
0.1150434546352348
2.574324206958687
-0.006952955698236174
-3.876361182303125
3.94210754722546
-8.44150353895845e-05
-4.05736534540727
4.056224713480209
-4.059896396801222
4.059901895767504
-0.1078962858121357
-2.399977769469438
0.1049918767045556
-0.01259637886104337
-3.809651698193744
-0.000220464590464875
-4.052022042527248
-4.059857306062865
-0.1475288216102563
-2.267378240970796
0.1076385737280196
-0.02298901490354277
-3.768943338128496
-0.0005408375768067852
-4.045612873131306
-4.059759781607274
-0.1996876958592259
-1.937002234251265
0.05349858597649389
-0.03736861925036428
-3.782442501871065
-0.001252016972975944
-4.042492690842263
-4.059638768065764
-0.1016148689030185
3.745340949238757
-3.642939999505787
-0.1957940112204409
3.762561734143713
-3.672665473696251
-0.1947980379809361
3.723603851823873
-3.667546065538048
1.950460904629873
-2.026409597897728
-0.0118680636105553
-0.1040995048834275
3.850212363483295
-0.1890697674713891
3.850239170317744
-0.1622385004568215
3.759576538192881
1.946886449776867
-0.007167969152281566
-0.1041390245851233
3.954895935098648
-0.187965342708402
3.944673118001671
-0.1418071261522929
3.7780865194684
1.937297959441031
-0.004043274238644382
-0.1041129396923801
-0.1845276496107422
-0.1227312429938991
0.0005352838145490091
0.4914197568862655
-2.347066877386065
-0.02727643598642553
0.401916332416857
-3.537449938638298
0.2035559911045909
-3.483165748796787
-3.444071881753045
0.5843664937082702
-2.746776438259231
-0.04601451016110906
0.425686205977245
-3.361420835163726
0.2101632667541291
-3.283222617319722
-3.244656252589365
0.6537886030396916
-3.010279217347977
-0.2822171800019989
0.4636097172057
-3.168889942539398
0.218378343318829
-3.062101318922424
-3.043244630316093
0.7460982797750823
-2.878664370013487
-0.8165078569373149
0.4836014887836326
-2.924869707858069
0.2220641962590819
-2.846584499232257
-2.839242570794177
0.09277644408743035
3.201753010617287
-3.318071867882657
0.05936631353426802
3.218235985042134
-3.331687996457011
-0.09899249873777449
3.243899049762661
-3.368235578630564
2.717128263969688
-2.807124205401208
0.03731053539947915
0.08819323846315541
3.084843840709377
0.08039398833428801
3.094256281674686
0.006311946788213008
3.149630528155138
2.770703030351201
0.03716658663864358
0.09494229479140759
2.959406263597357
0.1269818201585207
2.971008019923981
0.106297617577694
3.045062327566675
2.852017973417043
0.1130179244218481
0.1037262548527986
0.1749701579725385
0.2165612743579484
0.2482987448501722
0.1361867318957409
-2.995343707867739
0.02963389090560675
-0.06604164540989887
-3.473813283961332
-0.07711705018813253
-3.42163111791034
-3.409518556560399
0.09316395525999743
-3.170403474046653
0.0281616654651814
-0.1084303471248881
-3.584715637413491
-0.08367905830923689
-3.510265323755611
-3.501484532185017
0.03936916520739664
-3.353017765359205
0.03642319989392218
-0.139917418284181
-3.672111083379423
-0.08801426830651948
-3.599705351169718
-3.59413286101349
-0.01999740745503942
-3.537302095601653
0.03877305504469586
-0.1597171829730163
-3.748953337227734
-0.09048935875069469
-3.690078744603047
-3.686919744855796
0.09326492348692872
3.966588011966148
-4.059896369148887
0.1855122331056965
3.9669469432328
-4.060223758810296
0.2218460467410122
3.98941933169707
-4.084855298102023
4.009594386277223
-4.207161252534094
0.1237674214372722
0.09316543853816694
3.873276297429071
0.1840015952437422
3.873972240254829
0.1936004885869014
3.90129440682994
3.842709252438627
0.09311718674938607
0.09279148182203562
3.780077493856594
0.1800995149721991
3.78169110324457
0.1418539712750062
3.822991576689641
3.688372602297984
0.05740065719595788
0.09209921695860546
0.172807796308927
0.08556424431135179
0.03940966385258815
-4.059861484868422
-4.49508395428122e-05
-4.05975993262781
-0.0001595659859798815
-4.059652765395324
-0.000574643884372672
-0.001040358039368638
-4.059580799149545
-4.061300095070519
-0.0006448462174523661
-4.064998015503636
-0.001318393565043263
-4.069540401716896
-0.004789263714118808
-0.007182789365659636
-4.074139386654308
-4.103952156661359
-0.02468437875775176
-4.142173564242805
-0.006237421692405709
-4.176675255353212
-0.0133208350174947
-0.02038909865958943
-4.207149475845872
-4.308069263834126
-0.1440410001918397
-4.319627703441616
-0.08031307898921319
-4.363872971193294
-0.0003005640370574159
-4.412265243010107
0.0006731758004731025
-0.001552442719913283
-4.05958837317841
-0.009794980612709836
-4.077725874797093
-0.02380820525822264
-4.233582700386998
-4.452706614754633
0.0012656224581854
-0.001990124867497722
-4.059673963857638
-0.01240924054816039
-4.079615278201819
-0.03080130367859252
-4.252150993799904
-4.485202745928602
0.0005756022107406555
-0.002243270492446325
-4.0598230144789
-0.01455568020232556
-4.079836690836009
-0.03941231421552682
-4.26119672123498
-4.50564204671042
-0.001504151848378765
-0.00233907601240102
-4.059958147906896
-0.01603936561031938
-4.076262711170056
-0.04964879916502746
-4.254940905858392
-4.526871046714415
-0.005231356555098099
-0.0002123237295954539
4.05989368234775
-4.059894718564799
-0.003562994363248251
4.062010376356938
-4.060566508373288
-0.07678836025343827
4.152752817644817
-4.103913193495361
4.676289568413069
-4.688721092339886
-0.06707090100265864
-0.0006064293129365295
4.059937269017706
-0.007405109299444046
4.065245529704952
-0.07742668148598264
4.198571303296318
4.621391349432665
-0.01655679071820082
-0.001279102430718937
4.059954474056429
-0.01163777225774126
4.070395645661757
-0.06994219926220707
4.232745837862746
4.567300083175524
-0.009062850379274429
-0.001981252064865435
-0.01499219585700956
-0.06006001520387577
-0.008250915217632659
-0.07522355513524859
-4.647534301241142
0.006651278239207137
-0.06917395736344056
-4.124438445179269
-0.034946579088041
-4.095294580404718
-4.094897608960876
-0.08036047493206339
-4.610571629612053
0.008477030238886962
-0.06942799821001183
-4.146468118067248
-0.03500323550369022
-4.130026532283558
-4.129902664143037
-0.08663677570483946
-4.569071572089475
0.006561166604835023
-0.06976880615059022
-4.171725986035382
-0.03499979414676746
-4.164934186502587
-4.164907052684321
-0.09279280540911439
-4.521377106323573
0.008533120481693024
-0.06991578131941539
-4.199764690507426
-0.03499782703861221
-4.199900114881236
-4.199906391515285
-0.689899558869974
-3.890365076242742
0.01678329727306538
-1.207475335855543
-3.684277092811794
-1.723711812523492
-3.683662767348357
-3.683668322801867
-0.6894052296048352
-3.262907624700765
0.02484741083932623
-1.207473270859879
-3.167511169685091
-1.723711780504385
-3.167429675320612
-3.167429768725132
-0.690093101255508
-2.649789242828939
0.05013407713727264
-1.207473211494545
-2.651049028864652
-1.723711780211632
-2.651191205768451
-2.65119121529957
-0.6907222715938098
-2.106105943386333
0.1244788645073123
-1.207473230245178
-2.134694610940988
-1.723711780226145
-2.134952659100987
-2.134952661795732
1.706212168246007
0.533738165447786
1.172474002814391
0.5337381653184623
0.6387368526836519
0.5337297186837033
0.5319156541824372
0.1050911472578611
1.706212168246562
1.067476330894333
1.172474002855006
1.067476330455444
0.638738372356475
1.067448261331525
1.060797564399735
0.1061474259596356
1.706212168253665
1.601214496344463
1.172474003813049
1.601214494193179
0.6387425921472444
1.601129734749522
1.584897035171836
0.1076120892958083
1.70621216825296
1.172474001892993
0.6387506789114565
0.1056893153258981
0.1049659595485508
0.1049659595489298
0.1045901041926599
0.1061326271717806
0.1048874227446275
0.1067524882237062
0.1039975698154838
0.1057422617603475
0.1061326271718862
0.1045901041932549
0.1058669291384634
0.1058669291388809
0.1060987423327929
0.1057598417685212
0.1001812642243744
0.1089918974046788
0.1067524882243774
0.1048874227450246
0.1057598417690694
0.1060987423332947
0.1053064811032445
0.1053064811024286
0.0967189107591756
0.1079009089597991
0.1039975698166081
0.1057422617607272
0.1001812642252028
0.1089918974054642
0.09671891076009682
0.107900908958915
0.09636861413116971
0.09636861413198869
-0.039600175239006
0.1345551980968987
-0.06536263430861383
0.1321171803642495
-0.09483252379120893
0.1368131010233022
0.1336876322439694
-0.008802486307265434
0.1417022716619684
-0.01974321099903081
0.1414574370476576
-0.0319447749282184
0.1474145152884784
0.1502046900723111
-0.004081279336077992
0.1444573054856192
-0.01167514736685854
0.1475883256463007
-0.01834042611381037
0.1526169532439729
0.1550297871566728
-0.003711444574964973
0.1472954803165142
-0.009420740045001375
0.1522380218629046
-0.01348012243408964
0.1555230412844368
0.1569859962271229
0.1576095077645531
0.007415542572228706
0.1585582191519631
0.005243900838326598
0.1595833032564301
0.00744697267154365
0.006467630982446626
0.1602427739231645
0.1566956432916906
0.005901829363417543
0.1582211100565106
0.003384844596753533
0.1600977486081345
0.005557695853668665
0.003186034141620442
0.1639047683622044
0.1546886464783527
0.00313807746513034
0.1569627683387792
0.0009982386391976794
0.1599444917820026
0.00260835022680489
-0.01027532645368101
0.1739637019963474
0.1500481542060157
0.1509704115008641
0.1537358435762465
0.144008391621114
0.149437023268093
-0.05529056885255199
0.141488901642065
-0.007036017554453822
0.1408977077178336
-0.007105342907944595
-0.007607601646397344
0.1416421273159543
0.1518242648025511
-0.04233664531581388
0.1479775034335092
-0.001921266679959788
0.1463025458400166
-0.004056676155922645
-0.004835469206110499
0.1449077394980605
0.1575797898306626
-0.02549365720993022
0.153788664975545
0.003154218596322506
0.1507873919091924
0.0003451049056523159
-0.0001951815120628808
0.147493599232655
0.118688662831697
0.1230743285920657
0.1248042852697089
0.1260001504496533
0.1431163107094425
-0.005168287120840581
0.1449617768539715
-0.001732524066750452
0.1462698440533503
0.0007163672079127936
0.001682049526757212
0.1465947500983213
0.1445828287185099
-0.003282369879356484
0.1451286171723331
-0.0006695725429585186
0.1462769004598134
0.001013880364619302
0.002069868853689816
0.1466501365673633
0.1455627408645268
0.0001095116880985014
0.1451540732276976
0.001290816715826149
0.145620939903805
0.001738796978384582
0.002236932298772365
0.1461843489495375
0.1277240158783827
0.1305970143562321
0.1338080875231426
0.1369982827564344
0.1464923400569658
0.001108075817332688
0.1465463708476434
-0.0007377278277159172
0.1506566033536302
-0.09144782456248984
-0.1262139004986504
0.1254392250204681
0.1466150933930943
0.001458864504136903
0.1466716577822914
-0.001778686221676928
0.1412272696025259
-0.09332679257505844
-0.08871705399860003
0.09869430233917
0.1462980711083837
0.001539699996161326
0.1448143029081067
-0.001904921913334801
0.1052221292706205
-0.06126878727302132
-0.05030129819572232
0.06368972938159612
0.139143145564349
0.1357438494382262
0.06642875383129764
0.01317658276500049
0.1361783719266954
0.1076215261206495
0.1380531702549001
0.08698748228763631
0.1411224279347797
0.05067691071965308
0.0323858757952854
0.145771123942397
0.1258483796142724
0.07645098851887722
0.1357366207723742
0.0733139685301003
0.1404150951497613
0.04246376755000614
0.02535959833414736
0.1452152853517025
0.1004635617667245
0.03552327437160296
0.1248948333733835
0.04516222198415831
0.1348407939029209
0.0290340097615539
0.01659318731773307
0.1417424353637899
0.04522372890764069
0.08669100088578562
0.1121298182300138
0.1267144536802307
0.1522605726608246
0.03034914840353597
0.1538237424833349
0.02683380030049498
0.1501148208286442
0.02108037613727121
0.02589825808901869
0.1496493766476679
0.1514564535786713
0.0221621804478912
0.1529188289504413
0.0179577995104746
0.1499075983565337
0.01323431898820859
0.01891895323811332
0.1507849575112474
0.1489234583438637
0.01350243143010699
0.1506908444205061
0.01013244543745562
0.1491227127738953
0.00623723421732858
0.009823610715691711
0.1515837699707054
0.1383376517427937
0.1423847593796634
0.1408599759402672
0.1440661113585996
0.1599355566265664
0.0295784493583412
0.1675295944411674
0.03526248371161633
0.1945699399170625
0.09244633666152136
0.1975390398378343
0.2513356638943456
0.1608986791224047
0.01980094520513842
0.170367668564957
0.03103628139534331
0.1947462026895926
0.07427605713327179
0.1332815048651404
0.2641953545493267
0.161231595026131
0.01062861818639238
0.1716801580743362
0.02537740767032293
0.1990850940581372
0.05367283843868653
0.03582843654757711
0.3017955562367926
0.1555141066809116
0.1844931799802589
0.2443008962042438
0.2858389948107301
0.131318182249916
-0.69178801478312
0.01637259268789211
-0.165948052577366
-0.000325072646347303
-0.02709655635329489
-0.02008375171606325
-0.002756996271821252
0.09492036148540937
-0.5204291057159349
0.005355072632930242
-0.07530621541827957
-0.004568732191547152
-0.01503118304073623
-0.01304047717712066
-0.007369205608990644
0.05040540460797289
-0.2677014186537403
0.0006618347834989741
-0.02465419821007842
-0.007106811357074012
-0.004992667672022392
-0.006539630191561757
-0.009433899438879021
0.01894035312323987
-0.004396181923834219
-0.007017056856668877
-0.009686275844136292
-0.0009550096651661424
-0.01022204451440874
0.001009092617161035
-0.005548229623349173
0.002063669792649898
-0.002088811825251564
0.001270348008255942
0.002098661907728706
-0.006061139093306883
-0.007710933930381213
-0.003814970663356716
-0.004204389899696778
-0.002017115691594375
-0.001244337830927894
0.0004766398773700942
-0.001356541538759134
-0.008475839150451114
-0.004252426261118519
-0.006225177331116721
-0.00252869127145143
-0.004520944994846465
-0.0006616260847412958
0.001409655155155301
-0.006488570859229492
-0.009149493308175003
-0.007755677088772941
-0.006855635221289749
-0.007169800438866593
0.03065585039491021
0.02489769114771025
0.05573334277189858
0.08114467713405933
0.07523622668095785
0.08450029492411153
0.09611241587696903
0.09452826964597816
0.01514905605273213
0.008341434145921894
0.04540767956510923
0.04907915849968089
0.06710028679117026
0.06103737236893747
0.07253418507772785
0.09026242166476324
0.0015860243441407
-0.0001659486971557905
0.0298581441546759
0.01905591591400983
0.05500856051041793
0.0334909774709274
0.04515857800030207
0.08090478262850395
-0.007538756351173126
0.01050354547892037
0.04139169381040861
0.08455247233269808
0.07998151128507505
-0.07451983239140417
0.0880221323451721
0.06310988494045786
-0.06580414851002989
0.07985103627886454
0.04245944566396809
-0.05427262658766444
0.06949730744738206
-0.03355515885288163
0.02505316389786445
0.0485763196819182
0.07210228806505817
-0.05554200699884546
0.05353684598171739
-0.04723077877249074
0.03185292583984406
-0.0358285633166196
-0.02088967797796707
0.01645253938861682
0.06133420885312107
-0.03575573158445193
0.04300494265676282
-0.02802254980572086
0.02407459622827204
-0.01660476521595728
-0.007196052418389925
0.00977934704263627
0.04925844616943802
0.02267367162543702
0.006875871982208695
-0.0001309057765824725
-0.002476956867436
0.001562427402773427
-0.003005426808777766
-0.0001849722673905249
-0.001987361603820605
-0.001064115369678761
-0.001423999991027314
-3.011479954295737e-15
0.00409452172490294
0.005751950172388033
0.001143918127031754
0.0009079636365756198
0.0001037586425930576
-0.001206542561710357
-0.001610080646096454
-7.070732888081466e-15
0.01158027785955286
0.009079387964585725
0.007509941751290272
0.003436636218495381
0.003777529301462593
0.001072597557319813
0.0007077988469500543
1.144917494144693e-14
0.01810390525068851
0.01070990936687546
0.004722184145253959
3.490263633665336e-15
-0.001423999991031686
0.001987361603819474
-0.001610080646101724
-0.0001037586425997813
0.000707798846923801
-0.003777529301437085
-0.004722184145224607
0.004438778149953967
-0.001064115369680006
0.003005426808778633
-0.001206542561713524
-0.001143918127021984
0.001072597557317815
-0.007509941751278913
-0.01070990936684438
0.005809171736689222
-0.0001849722673910072
0.002476956867439123
0.0009079636365723238
-0.004094521724888216
0.00343663621849799
-0.01158027785955826
-0.01810390525069405
0.009253107470819276
0.001562427402777303
0.0001309057765832566
0.005751950172381642
-0.009779347042620831
0.009079387964580431
-0.01645253938863481
-0.02505316389788662
0.01447999167736784
-0.04245944566398695
-0.03355515885286227
0.04857631968191317
-0.06310988494042671
-0.05427262658764143
0.06949730744734003
-0.07998151128504845
-0.06580414851001166
0.07985103627888564
-0.07451983239137608
-0.09452826964594198
0.08802213234515401
-0.03185292583985044
-0.02088967797795569
-0.05353684598171028
-0.035828563316628
-0.07210228806505255
-0.04723077877249521
-0.05554200699883434
-0.09026242166475304
-0.02407459622824627
-0.007196052418392298
-0.04300494265673753
-0.01660476521595797
-0.06133420885310324
-0.02802254980572151
-0.03575573158444906
-0.08090478262848483
-0.006875871982211346
-0.02267367162544243
-0.0492584461694409
-0.08455247233270023
-0.04139169381042376
-0.04515857800028966
-0.01050354547892252
-0.03349097747091102
0.00753875635114639
-0.01905591591395807
0.0001659486971677393
0.007169800438848871
-0.05500856051040998
-0.07253418507771281
-0.02985814415465153
-0.06103737236892168
-0.001586024344135038
-0.04907915849957276
-0.008341434145868867
0.006488570859204429
-0.0671002867911616
-0.09611241587695797
-0.04540767956507026
-0.08450029492410167
-0.01514905605266208
-0.08114467713394093
-0.02489769114758691
0.001356541538776485
-0.07523622668095123
-0.05573334277185363
-0.03065585039480813
-0.002098661907622756
-0.002063669792599514
0.001270348008363786
-0.001009092617120006
-0.00208881182518255
0.0009550096652089449
-0.005548229623357957
-0.0102220445144898
0.002756996271842221
0.002017115691613142
0.0004766398774733033
0.003814970663387006
-0.001244337830867866
0.006061139093337225
-0.004204389899696702
-0.007710933930450817
0.00736920560901727
0.004520944994871896
0.001409655155206552
0.006225177331139555
-0.0006616260847007449
0.0084758391504893
-0.002528691271457266
-0.004252426261161242
0.009433899438913401
0.006855635221308418
0.007755677088804673
0.009149493308221046
0.009686275844172722
0.0003250726464364591
-0.02008375171603352
-0.01637259268734701
-0.02709655635305519
-0.1313181822488892
-0.1659480525766476
-0.6917880147841702
-0.2513356638943595
0.004568732191596325
-0.01304047717713274
-0.00535507263271319
-0.01503118304066788
-0.09492036148472983
-0.07530621541802721
-0.5204291057162925
-0.2641953545493829
0.007106811357105274
-0.006539630191569272
-0.0006618347834099064
-0.004992667672016279
-0.05040540460766428
-0.02465419821004654
-0.2677014186538789
-0.3017955562366879
0.007017056856700015
0.004396181923870892
-0.0189403531231789
-0.2858389948107702
-0.1945699399171681
0.1975390398376878
-0.16752959444121
0.09244633666118074
-0.1599355566263452
0.03526248371091145
0.02957844935674359
-0.1496493766476335
-0.1947462026896197
0.1332815048648964
-0.170367668564904
0.07427605713287111
-0.1608986791222357
0.03103628139490777
0.01980094520408759
-0.1507849575111794
-0.1990850940581078
0.03582843654745788
-0.1716801580742945
0.05367283843835213
-0.1612315950259987
0.02537740767006214
0.01062861818592076
-0.1515837699706868
-0.2443008962042501
-0.1844931799803316
-0.1555141066810027
-0.1440661113587169
-0.1501148208283707
0.02589825808839197
-0.1538237424830492
0.02108037613602431
-0.1522605726607932
0.02683380029987625
0.0303491484048235
-0.1457711239422954
-0.1499075983563836
0.01891895323741666
-0.1529188289502404
0.01323431898767924
-0.1514564535787054
0.01795779951013365
0.02216218044896778
-0.1452152853516435
-0.1491227127737875
0.009823610715246067
-0.1506908444204179
0.006237234217182142
-0.1489234583439747
0.0101324454373245
0.01350243143071417
-0.1417424353636907
-0.1408599759403178
-0.1423847593795582
-0.138337651742706
-0.1267144536799439
-0.1411224279348404
0.03238587579476038
-0.1380531702548713
0.05067691071948854
-0.1361783719265621
0.08698748228737363
0.1076215261203949
-0.1254392250204455
-0.1404150951498199
0.02535959833368606
-0.1357366207723305
0.04246376754990533
-0.1258483796141446
0.07331396852987926
0.07645098851870258
-0.09869430233918675
-0.1348407939029263
0.01659318731742776
-0.1248948333733386
0.02903400976149917
-0.1004635617666809
0.04516222198406217
0.035523274371561
-0.06368972938169985
-0.112129818230075
-0.08669100088576173
-0.04522372890763857
-0.01317658276507729
-0.1506566033536445
-0.1262139004989313
-0.1465463708476632
-0.0914478245622205
-0.1464923400569857
-0.0007377278277833077
0.001108075817273735
-0.1465947500983762
-0.1412272696026523
-0.08871705399871954
-0.1466716577822947
-0.09332679257490772
-0.1466150933931168
-0.001778686221699965
0.001458864504090718
-0.1466501365673976
-0.105222129270864
-0.05030129819563062
-0.1448143029081435
-0.06126878727305896
-0.1462980711083811
-0.001904921913367885
0.001539699996071064
-0.1461843489495511
-0.06642875383122791
-0.1357438494382054
-0.1391431455643285
-0.1369982827564808
-0.1462698440533744
0.001682049526763096
-0.1449617768538655
0.0007163672082578509
-0.143116310709511
-0.001732524066960089
-0.005168287120816628
-0.141642127315916
-0.1462769004597954
0.00206986885366145
-0.1451286171722325
0.001013880364833075
-0.1445828287185574
-0.0006695725430236887
-0.00328236987938052
-0.1449077394980482
-0.1456209399038381
0.00223693229881966
-0.1451540732276455