/*--------------------------------*- C++ -*----------------------------------*\
  =========                 |
  \\      /  F ield         | OpenFOAM: The Open Source CFD Toolbox
   \\    /   O peration     | Website:  https://openfoam.org
    \\  /    A nd           | Version:  11
     \\/     M anipulation  |
\*---------------------------------------------------------------------------*/
FoamFile
{
    format      ascii;
    class       volScalarField;
    location    "0.1495";
    object      p;
}
// * * * * * * * * * * * * * * * * * * * * * * * * * * * * * * * * * * * * * //

dimensions      [0 2 -2 0 0 0 0];

internalField   nonuniform List<scalar> 
880
(
80
80
80.0000000021312
80.00078221278747
80
80
80.00000001324149
80.00307827235748
80
79.99999999999999
80.00000010627396
80.01650688817432
80
80
80.00000183650106
80.0451408946948
80
80.00000000000001
79.99999999999994
79.99999999780303
79.99999999999999
80
79.99999999999983
80
79.99998256696936
80.00005920630463
80.04126002128673
79.94805156922385
81.45042237769324
84.79276472501063
87.26833022981739
88.27350103443692
80.00000765050471
80.00008091236609
80.000131816474
80.0001186058679
80.00024200451918
80.00058994802032
80.00210356187161
80.00210166321162
80.094466982748
80.19739459690258
80.35562846023389
80.46268746195334
89.50611450010626
91.10291628025618
92.64925315142671
94.63695995357966
94.11874275631784
91.22211521738235
88.77327647172419
87.7427607383372
80.8420955673885
81.71884963759396
82.06833720874617
82.08709824208732
80.00618929066867
80.02206813638313
80.04453140899373
80.05913051887711
80.00035892728889
80.00109438162229
80.00265651572781
80.00348781787419
80.00324939376382
80.00245097659386
80.00130644680429
80.00041846758204
80.06002446454957
80.05278360662066
80.04007425909829
80.02305808160006
81.8799439990851
81.59221125774151
81.25280321563002
80.86891885328974
87.11164441976877
86.1306153838793
84.97770825761063
83.82820519130148
82.71096604166152
80.4706330747736
80.0079097392111
80.00005163896402
81.70844473032237
80.16144695412054
80.00124754542355
80.00000259807341
80.59424444270363
80.01835070318386
80.0000428307584
79.99999702880088
83.67577708742554
80.03698597984115
79.99996422574949
80.00000967476817
79.99994090137264
79.99995068416611
80.15643800826456
103.4624918376413
80.0000258956329
80.00300033332877
80.82188399794617
121.5881544334341
80.00030091266098
80.00718075754071
81.69904887093686
132.2568839259831
80.00117009074326
80.02289900979703
83.03016598805951
141.3283282710997
147.5562656833446
84.65338415207451
80.03840220718564
80.00217342533281
154.9828160535959
86.73022130136181
80.08048103030261
80.00472735056896
162.2595259822712
89.22306546394151
80.12118433841148
80.00613156231681
171.760974336677
91.99796688132396
80.18889955489067
80.01084142862172
80.01415505801261
80.27735516629659
95.74034712454403
179.642248797048
80.02284873961462
80.4222862707916
99.10238932858881
179.3133818372909
80.0520178830949
80.54082507199985
97.81594577106131
162.3527629550269
79.99231547762419
80.3084349926186
91.77377027542042
134.3965597394788
80.06959995512761
80.92543938693797
90.06923654876356
101.1933589740642
80.09218247334053
80.90926281073099
83.28649945495307
68.94801785920994
80.03975786838916
80.42307814547178
80.59244119801225
50.52311148790524
79.99907617706828
80.09562524917585
78.21689995526661
43.89847182197174
44.20348394844585
76.57424673039093
79.8501519384707
79.99554965307483
43.17704622039291
75.19475343554056
79.7540268559502
79.99503589460943
42.54728746973061
74.34759919046019
79.7364672334061
79.99709957600453
39.9222665092952
73.47212225313127
79.72405596582685
79.99789679397489
44.16530007768199
75.10261359563223
79.87235664389294
79.99925479671019
48.03242966817762
77.026127707345
79.95631610510964
79.99980258168883
52.19087429075073
78.24700187887997
79.9825776981381
79.99993515333961
57.64105903486391
79.36349835536795
79.99661891537087
79.99997589450177
69.9476908001259
78.69201865657885
79.94748447181678
79.9994065081106
69.713252246138
78.76344464161568
79.94828514166676
79.99939430754085
69.10611784264343
78.79509935658228
79.95012418634866
79.99937714456979
69.58805614499201
78.93944276466642
79.9532670585337
79.99936064610412
57.64105903467902
79.36349835492901
79.99661891477393
79.99997589529185
52.1908742904234
78.24700187859443
79.98257769607824
79.99993515294783
48.03242966771671
77.02612770765718
79.95631610489325
79.9998025821701
44.16530007774521
75.10261359669859
79.87235664381257
79.99925479620499
79.99554965434992
79.85015193978816
76.57424673050417
44.20348394829343
79.99503589454532
79.75402685657863
75.19475343614641
43.1770462205776
79.99709957499044
79.7364672347971
74.34759919039732
42.54728746977477
79.99789679438658
79.72405596639587
73.47212225498076
39.92226650912524
43.8984718209782
78.21689995408667
80.09562524805862
79.99907617672346
50.52311148686355
80.59244119696793
80.42307814468312
80.03975786640567
68.94801785927039
83.28649945386422
80.90926281097569
80.09218247179665
101.1933589742369
90.06923654853512
80.92543938596212
80.0695999575841
80.01415505756415
80.27735516976929
95.740347124634
179.6422487977837
80.02284873982997
80.42228627142963
99.10238932877355
179.3133818374212
80.05201788107613
80.54082507156606
97.81594577001223
162.3527629550205
79.99231548375271
80.3084349923996
91.77377027468197
134.3965597394181
171.7609743387827
91.99796688032737
80.18889955441176
80.01084142865925
162.2595259865963
89.22306546961822
80.12118434165934
80.00613156267463
154.9828160541536
86.73022130166378
80.08048103247566
80.00472735005722
147.5562656831122
84.65338414913846
80.03840220529752
80.00217342487404
79.9999409029564
79.99995068455823
80.15643800834494
103.4624918361681
80.00002589526771
80.00300033277841
80.82188399823431
121.5881544329134
80.00030091175057
80.00718075677527
81.69904887170935
132.2568839278981
80.00117008968338
80.02289901073947
83.03016598835831
141.3283282711418
80.00000967387963
79.99999702940129
80.00000259799326
80.00005163863173
79.99996422427606
80.00004283123111
80.00124754692173
80.00790973815769
80.03698598020281
80.01835070363407
80.16144695294264
80.47063307453925
83.67577708748161
80.59424444282642
81.70844473013834
82.71096604172821
80.00041846613334
80.02305808172423
80.86891885420427
83.82820519189096
80.00130644650747
80.04007425876078
81.25280321715184
84.97770825798953
80.00245097758753
80.0527836066301
81.59221125720188
86.13061538367491
80.00324939410389
80.06002446465058
81.87994399981943
87.11164441948918
80.00035892580371
80.00618928938071
80.84209556710064
94.11874275627071
80.00109438019658
80.02206813635287
81.71884963699425
91.22211521650266
80.00265651508283
80.04453141042936
82.06833720849555
88.77327647136534
80.00348781735426
80.05913051991092
82.08709824224184
87.74276073759111
94.63695995426569
80.46268746454085
80.00210166233325
80.00011860511128
92.64925315178058
80.35562846408189
80.00210356145084
80.00013181374776
91.10291628128977
80.19739459867318
80.00058994797017
80.00008091500297
89.50611449872444
80.09446698001696
80.00024200433418
80.00000765100367
88.27350103375302
79.94805156683263
80
79.99999999827692
87.26833022921686
80.04126001989805
80
79.99999999999999
84.79276472528076
80.00005920596233
80
79.99999999999999
81.45042237760822
79.99998256644929
80
79.99999999999989
80
79.99999999999997
80.00000000241926
80.00078221820512
80.00000000000003
80.00000000000001
80.0000000133775
80.00307827371267
80
80
80.00000010631177
80.01650688777134
80
80
80.00000183557901
80.04514089384783
80.0021675091959
80.00810115404283
80.02874427551717
80.31041064251941
80.00810116724919
80.01234247453026
80.04624625968569
81.10753150189407
80.02874428267822
80.04624625096143
80.46958938426609
86.29855304029316
80.31041056957298
81.10753138372664
86.29855313039215
104.7906633643846
134.6943887542238
114.056484586975
102.5809731061127
91.02661097955959
129.6894645749693
125.1916813470603
123.137991427255
114.2579683048104
127.4121592285378
125.9674411256637
125.4832541053542
121.4392840251535
126.8289685473081
125.9420815721829
126.0283068042162
123.5154799629786
124.7474797485714
124.5419047059268
125.0076752100342
126.3546794201222
126.3582067120052
125.36226885756
125.691247967822
127.1353415463578
126.8101146438395
125.8929115332795
125.9342446979662
126.9584376021032
127.3501002991745
126.1513208924152
125.9659943273739
124.1002874668815
105.5838815609475
84.11817382456303
77.60756654660005
78.93377577504066
96.13906298406243
77.03496508901691
75.73522547903708
78.57036290735532
86.62043063078598
74.4102728515126
76.43447657718382
79.51008197124139
68.90575629207726
69.71705105371365
75.39763227877084
78.80585190993348
80.7499708411159
81.63865745642323
81.88271235839684
81.90524964833611
80.59953233025476
81.39634382371918
81.54469618744099
81.54223211128499
81.10041903883111
81.57883357306174
81.61782264349731
81.59600781693122
80.33560351213421
81.02018266173326
81.28317632042229
81.25921326023338
81.80497551698139
81.76777497849389
81.40122583583656
113.6799560525808
81.70417250953916
81.62848601451104
81.80746758819454
128.6493608349894
81.81367454867828
81.74587361990038
82.59055418179943
135.7890589626785
81.44646512367321
81.69909580550996
83.59662532403095
140.8116156770644
208.9930299501023
219.8101860734831
219.3158370036287
217.8378952427339
227.4139599472389
226.4765037939894
221.9546166785543
219.2935490364823
223.7756715578332
222.6058929737431
221.7737812946619
220.5483710530322
232.7027296106194
226.7009019141993
223.6259835145572
221.2015366712504
211.2718821543712
209.1508383568315
208.8767101587113
212.7849314906466
212.2411859558609
209.6853367448849
208.8260723777188
212.2695685883018
213.0620653056617
209.8436145422635
209.0366287985415
211.9152028919265
214.740437111455
210.1780973254683
208.9710439474748
211.5455334392041
215.6085720139415
210.3572666924667
193.5141369012781
160.8340029817103
215.1534028678549
211.240446542279
193.9135497407752
171.4586015102458
214.8885956248296
212.1298510539411
196.8685118127994
181.9656120471761
214.5440033961702
213.1859790348416
200.9141790922667
202.4535437141848
94.76717051182123
18.68327742458631
3.488306679922394
4.819092245586519
74.85101251842649
10.92130582226917
4.254805460258212
4.968943833842772
51.2499241789865
5.665935374830806
3.619358245781283
5.535875113917967
28.19361566322709
2.175459353190502
3.950640856583611
5.800733895951151
7.55509511625065
9.740497471858033
11.50828863369664
11.1001634203686
7.42589326514479
9.910545318969895
11.55926731296059
11.37268466602169
8.10734553140834
10.53350120325162
11.83297662375269
12.11077607239749
8.418497850474239
11.26980696198845
12.42967667589082
13.48360245565105
19.99974406472609
24.45679399297498
28.45563267805624
34.6352908288068
18.82072189382595
23.44372411507658
26.4454289961686
32.96000558229181
16.95299158555974
21.88960369401983
25.04461344081324
30.82561334111779
14.880844368633
19.5249064498923
22.7302000498672
30.74365931277641
24.58698038972915
14.12382134573201
11.96152535521216
12.87656934941526
22.46486823610748
13.34639150516955
15.52730214935729
14.00283304911574
18.0041316261863
15.52185722780053
16.84251324047334
13.80594587245395
13.86963224555221
17.06088029558607
16.55969312568865
15.11053692219732
13.36701282034391
12.56281875136469
12.83567390361371
12.88260456525559
11.28359833358162
10.89483521340938
11.28099446762042
11.546353328559
11.35865075478821
11.77073726250367
12.3915645736506
12.93833368331942
15.86070500384967
17.49354363035587
17.54486265232574
17.60529674031394
12.88260456525974
11.54635332856437
12.93833368333697
17.60529674031174
12.83567390362928
11.28099446762421
12.39156457367687
17.54486265227477
12.56281875136713
10.89483521342831
11.7707372625116
17.49354363027876
13.36701282033456
11.28359833359407
11.35865075481606
15.86070500382757
12.87656934938546
11.96152535514949
14.1238213455954
24.58698038945345
14.0028330491126
15.52730214936765
13.34639150516629
22.46486823594409
13.80594587244665
16.84251324046431
15.52185722779525
18.00413162612167
15.11053692217477
16.55969312568637
17.06088029558858
13.86963224552979
30.74365931266357
22.73020004964357
19.5249064494882
14.88084436835966
30.82561334100768
25.04461344068666
21.88960369364896
16.95299158522922
32.96000558214543
26.44542899607271
23.44372411474182
18.82072189350931
34.63529082862969
28.45563267795289
24.45679399267215
19.99974406443939
11.1001634201827
11.50828863368697
9.740497471886764
7.555095116208919
11.37268466586227
11.55926731289986
9.910545318989353
7.425893265117343
12.1107760722492
11.83297662368154
10.53350120323554
8.107345531404725
13.48360245545718
12.42967667579142
11.26980696195853
8.41849785046181
4.819092245576157
3.488306679719459
18.68327742435925
94.76717051151033
4.968943833788845
4.254805460155729
10.92130582213775
74.85101251794154
5.535875113852849
3.619358245679959
5.665935374770421
51.24992417879454
5.800733895911512
3.950640856513667
2.175459353127997
28.19361566309362
160.8340029813868
193.5141369019206
210.3572666930735
215.6085720156028
171.4586015100418
193.9135497412961
211.2404465429717
215.153402869664
181.9656120470364
196.868511813149
212.1298510548505
214.8885956267153
202.4535437139953
200.9141790927133
213.1859790359211
214.5440033981874
212.7849314934978
208.876710160498
209.1508383569982
211.2718821549039
212.2695685911344
208.8260723792656
209.6853367452857
212.2411859564123
211.9152028946115
209.0366287999181
209.843614542706
213.0620653061199
211.5455334419539
208.9710439488046
210.1780973259976
214.7404371118064
217.8378952426966
219.3158370043042
219.8101860725918
208.9930299479886
219.2935490365923
221.9546166793255
226.476503793412
227.4139599460081
220.5483710531434
221.7737812953935
222.605892973512
223.7756715569317
221.2015366710532
223.6259835158119
226.7009019137677
232.7027296095427
113.679956051328
81.40122583540344
81.76777497933367
81.80497551751557
128.6493608326078
81.80746758720888
81.62848601559237
81.70417251040628
135.7890589594737
82.5905541803734
81.74587362117275
81.81367454943867
140.8116156741464
83.59662532230433
81.69909580678319
81.44646512470368
81.90524964890724
81.88271235873344
81.63865745636419
80.74997084085308
81.54223211172884
81.54469618768996
81.39634382364873
80.59953232993453
81.59600781716951
81.6178226436752
81.57883357295772
81.10041903845486
81.25921326032389
81.28317632081608
81.02018266153327
80.33560351178168
78.9337757742785
77.60756654605672
84.11817382401122
105.5838815611433
78.57036290645132
75.73522547842263
77.03496508845706
96.13906298454455
79.51008197032226
76.43447657663165
74.41027285090537
86.62043063144378
78.80585190892569
75.39763227811146
69.7170510529244
68.90575629252056
126.3546794201913
125.0076752095386
124.5419047074401
124.7474797486861
127.1353415461527
125.6912479676105
125.3622688591462
126.3582067114502
126.9584376017211
125.9342446975847
125.8929115347306
126.8101146439485
124.1002874672412
125.9659943268614
126.1513208935903
127.3501002991717
123.5154799627395
121.4392840234126
114.2579683055775
91.02661100118431
126.02830680284
125.4832541034286
123.1379914276824
102.5809730935821
125.9420815716562
125.967441125349
125.1916813417782
114.0564845327205
126.8289685464333
127.4121592279864
129.6894645682414
134.6943887447029
59.4838359703241
79.00326615178437
79.98571927101162
79.99992565298537
60.22769866405535
78.9733852887251
79.98347451596834
79.99988459789839
63.83908602602448
79.04312138018972
79.97991073405328
79.99982464106152
67.08615970032173
79.01685757243989
79.96824722313163
79.9996178607617
79.99940650846339
79.94748447268908
78.6920186551886
69.94769079890861
79.99939430806255
79.94828514265002
78.76344464061779
69.71325224492605
79.99937714354179
79.95012418684556
78.79509935652406
69.10611784203702
79.99936064362528
79.95326705942918
78.9394427634179
69.58805614459921
79.99961785940376
79.99982463968664
79.9998845947313
79.9999256499861
79.96824722375892
79.97991073411265
79.98347451574226
79.98571927024587
79.016857571827
79.04312137865367
78.97338528946821
79.00326615151526
67.08615969996922
63.83908602499537
60.22769866342917
59.48383597084652
)
;

boundaryField
{
    back
    {
        type            empty;
    }
    inlet
    {
        type            zeroGradient;
    }
    front
    {
        type            empty;
    }
    top
    {
        type            zeroGradient;
    }
    outlet
    {
        type            fixedValue;
        value           uniform 80;
    }
    bottom
    {
        type            zeroGradient;
    }
    wall
    {
        type            zeroGradient;
    }
}


// ************************************************************************* //
