/*--------------------------------*- C++ -*----------------------------------*\
  =========                 |
  \\      /  F ield         | OpenFOAM: The Open Source CFD Toolbox
   \\    /   O peration     | Website:  https://openfoam.org
    \\  /    A nd           | Version:  11
     \\/     M anipulation  |
\*---------------------------------------------------------------------------*/
FoamFile
{
    format      ascii;
    class       volVectorField;
    location    "0.1495";
    object      U;
}
// * * * * * * * * * * * * * * * * * * * * * * * * * * * * * * * * * * * * * //

dimensions      [0 1 -1 0 0 0 0];

internalField   nonuniform List<vector> 
880
(
(25 -7.768126373978579e-16 0)
(25 3.794601784876237e-16 0)
(25.00000000002767 -3.37128867065586e-10 0)
(24.99997240040408 3.513731343438429e-06 0)
(25 1.210301178234613e-15 0)
(25 -2.171173513486889e-15 0)
(25.0000000000026 -2.247054840296107e-09 0)
(24.99972876397373 -0.0005667727684651649 0)
(25 0 0)
(25.00000000000001 2.535613030115412e-15 0)
(25.00000000152305 -2.012751405370761e-08 0)
(25.00008037044897 -0.001665213985393719 0)
(25 0 0)
(25 -1.704454933500167e-15 0)
(25.00000005372618 -1.327405747963391e-07 0)
(24.99652353031659 -0.01373735382491557 0)
(25 -5.303765634129242e-16 0)
(25 -5.04210942673142e-15 0)
(25.00000000000001 -1.760206180810941e-11 0)
(24.99999999862522 3.883568330868706e-09 0)
(25 -1.320748244018276e-14 0)
(25 2.977470641521899e-14 0)
(25.00000000000003 3.11845264326811e-12 0)
(25 -6.605083611850927e-12 0)
(25.00002480107778 -2.002056419711878e-05 0)
(24.99993214777168 5.246417467540445e-05 0)
(24.99815377420667 0.009567092250886533 0)
(25.00872944892165 -0.01640850633640506 0)
(24.81747788362549 0.01301277568659831 0)
(24.35169065550732 0.3323742222529468 0)
(24.13391656565157 0.7518563907474178 0)
(24.07493715303271 1.038150461914448 0)
(24.99999931609926 -1.303495721296788e-06 0)
(25.00000159173103 6.866770411503704e-06 0)
(24.99997823893336 -3.665540052744722e-05 0)
(24.99997790382588 -1.722863923101489e-05 0)
(24.99996393508854 2.051475784232848e-06 0)
(24.99987757977592 5.961159988355927e-05 0)
(24.99982713444276 0.0003693222238423447 0)
(24.99984347824044 0.000315316989431579 0)
(24.98039542787771 0.003823349001459956 0)
(24.96670182517664 0.02619588581489286 0)
(24.96435673437263 0.05462324525505141 0)
(24.96203245271546 0.0631317757631283 0)
(24.07071502353165 1.311178829592039 0)
(23.95426645245333 1.688886098076839 0)
(24.07749966033796 1.847100288137197 0)
(23.85077186194654 2.162250272105191 0)
(24.37189789703324 2.475959461295267 0)
(24.83590270406136 2.409599286424514 0)
(25.24809193535042 2.117363072209512 0)
(25.5105118692945 1.676102405362779 0)
(24.93929969569067 0.1141369236425054 0)
(24.88847130132562 0.2507742052834999 0)
(24.94268163548972 0.3721428093329706 0)
(25.03811894049614 0.3612491738076459 0)
(24.99954068323192 0.0009236503305891915 0)
(24.99791829349131 0.003090511690534247 0)
(24.99669574406997 0.007641827496554041 0)
(24.99867361008817 0.01092584378991585 0)
(24.99994835001081 -4.585684058697905e-05 0)
(24.99986070851838 -0.0001358888048865178 0)
(24.99968145865335 -0.0003396572406835033 0)
(24.99945179684133 -0.0004556063620412587 0)
(24.99939003240453 -0.0004389139415534331 0)
(24.99942802153328 -0.0003549409400728978 0)
(24.99958039210057 -0.0002143448365566187 0)
(24.99979368418438 -9.177282615930206e-05 0)
(25.00107472572284 0.01062243278574346 0)
(25.0022784469209 0.009395834159277599 0)
(25.00280639139589 0.006646832730450771 0)
(25.0020643223196 0.003434658800879357 0)
(25.07976360226025 0.3247649680430681 0)
(25.10771781927021 0.2598196248725284 0)
(25.10872169085435 0.1847583223840281 0)
(25.08723114289868 0.1144286728869406 0)
(25.67990351417122 1.176544034062453 0)
(25.69083568188494 0.7896919010459356 0)
(25.62031014756215 0.5310062829564303 0)
(25.50694367451426 0.3566145396716561 0)
(25.37351164377561 0.2298996144402422 0)
(25.05107436413287 0.05555011258260301 0)
(25.00080667857551 0.001055384065288763 0)
(24.99994248144605 -2.347689270514731e-05 0)
(25.23969289732842 0.1344902417217535 0)
(25.01810321110987 0.01749747514028166 0)
(25.00013458036006 0.0001563734010441624 0)
(24.9999926449238 -2.848528176941322e-06 0)
(25.08434738974302 0.0459703975652139 0)
(25.0025155389987 0.00177183469803268 0)
(25.00000485750837 3.756045664987398e-06 0)
(24.99999933132528 -1.152116616833713e-07 0)
(24.65211894008033 0.3125650827455815 0)
(24.99711301161035 0.004334173479851648 0)
(25.00002110362312 1.874409681001311e-05 0)
(25.00001325425634 2.313099197599979e-08 0)
(24.99999777911201 -6.469938325759894e-06 0)
(24.99999734656631 -1.456995609774567e-05 0)
(24.97629518673944 0.01007570612497291 0)
(21.99903152180468 1.031850697811477 0)
(24.99998088843567 -1.144409901363869e-05 0)
(24.99980931234869 0.0001956332876992185 0)
(24.89478302560698 0.04591110488214706 0)
(20.20182114420241 2.439945953313176 0)
(24.99997717622989 -4.809203079357305e-05 0)
(24.99871550949897 0.0009017604484820826 0)
(24.7571352745255 0.1598180668571048 0)
(19.31888030169184 3.949726341235705 0)
(24.99982407184255 -0.0001505036239226808 0)
(24.99811371409899 0.002662107820015146 0)
(24.64062253299616 0.2998055403472042 0)
(19.08372161421646 5.273565374050366 0)
(18.74383863027937 6.65068086334918 0)
(24.46487194324492 0.5642226125812143 0)
(24.99532338400294 0.005988947443377838 0)
(24.99975934369294 -0.0003193691476157415 0)
(18.75812258632876 7.618194178116457 0)
(24.33887704015219 0.8550710629712582 0)
(24.99459854977362 0.01247963145250139 0)
(24.99929999069291 -0.0006474765804846032 0)
(18.6808574645835 8.47976697675711 0)
(24.21396088894236 1.184940716280192 0)
(24.99122386681269 0.01820536405522613 0)
(24.99911412740231 -0.0009228034178133487 0)
(18.73746794942105 9.023027603126394 0)
(24.03431759208874 1.598365944894628 0)
(24.98769156531502 0.03182305651614821 0)
(24.99844094315733 -0.001512969869960195 0)
(24.99769434072325 -0.002149579015074349 0)
(24.98489968691255 0.04057624139184803 0)
(23.84912230800168 1.956025909874192 0)
(18.60127043306585 9.56740329900226 0)
(24.99678792543913 -0.003348942849277434 0)
(24.9700415119203 0.06727332784334533 0)
(23.63537472977378 2.501355177699582 0)
(19.20120160264833 9.717297296314218 0)
(24.99852508548466 -0.005880772010933015 0)
(24.97580030621324 0.09051076027828561 0)
(23.94402184360353 2.43355448007412 0)
(20.63068417363919 9.096157893144417 0)
(24.9899201795837 -0.003513801404877568 0)
(24.9738996906924 0.05101692947668435 0)
(24.3445207898282 1.79163261338711 0)
(22.63727392535978 7.236338841195138 0)
(24.99484430031549 -0.003255450231061131 0)
(24.98970485097286 0.179555923511472 0)
(25.21162627131751 1.806723868894476 0)
(26.26357770749835 4.727018799970185 0)
(24.98726916136361 -0.001495722303463351 0)
(25.10228392414975 0.1503662343349358 0)
(25.88177095495285 1.014378304653013 0)
(28.72485668541183 2.028570637338266 0)
(24.99457316941601 -0.0008939607029832777 0)
(25.11213369551265 0.0536370866912935 0)
(25.84755475131618 0.1594280587808828 0)
(28.83615376761194 -0.2854866010853482 0)
(25.00095735171398 -0.000773823345834756 0)
(25.04638160396162 -0.0130040748717676 0)
(25.372993831455 -0.4879214449429391 0)
(25.68129332787095 -2.299344089472272 0)
(22.00481447973723 -3.631207850041641 0)
(24.91971840583697 -0.8161009860156602 0)
(25.00073045603718 -0.03788133302059022 0)
(25.00020663224612 -0.0007494965766753922 0)
(19.49743352212604 -4.857100275271518 0)
(24.49294326660584 -0.9549986150197759 0)
(24.97888094341208 -0.04461525717062444 0)
(24.99971622212138 -0.000845882735468457 0)
(18.17254072819863 -4.414339439389398 0)
(24.20224528854558 -0.8191633558891117 0)
(24.97131266329867 -0.03697569923154927 0)
(24.9998174173514 -0.0002901231876313893 0)
(16.6845703217687 -3.76939230082519 0)
(23.93956348342914 -0.7613367025785829 0)
(24.96221552057411 -0.03503563149706552 0)
(24.99979279856096 -0.0002812786338731839 0)
(17.70717693093519 -1.797574475409212 0)
(24.13457918730332 -0.3664526644705875 0)
(24.97830973979917 -0.01336506899924129 0)
(24.99991124920403 -8.810024456754508e-05 0)
(19.44937626635726 -0.0909403115030944 0)
(24.46227403192142 -0.1656500061830027 0)
(24.99207037274032 -0.004679728110386739 0)
(24.99997493407567 -2.339873891486431e-05 0)
(21.13445274697177 0.518214474275343 0)
(24.71299132073116 -0.0831398800339111 0)
(24.99724052087417 -0.00176054541175602 0)
(24.999993221627 -7.794515445347947e-06 0)
(22.75010121917834 0.6033517887391537 0)
(24.90569052966365 -0.1039859733285664 0)
(24.99986509420417 -0.001261851190644001 0)
(24.99999838411822 -4.4829964157267e-06 0)
(22.72952551336002 -0.3149312755606557 0)
(24.78584053601184 -0.01361554573119654 0)
(24.9920422086332 -0.0001693252283353495 0)
(24.99991094203671 -7.385426776989833e-07 0)
(22.90153755396302 -0.7293773173829418 0)
(24.79880637785715 -0.03152455150870147 0)
(24.99222640875357 -0.0003927642951322957 0)
(24.99990953505475 -1.552041794638436e-06 0)
(22.81635322735812 -0.9715152099907217 0)
(24.78833770459435 -0.05900333269934473 0)
(24.99232305954013 -0.0007878484206083588 0)
(24.99990800114987 -2.180783560741748e-06 0)
(22.77018161348112 -0.9523383252019422 0)
(24.80230514996202 -0.07727092228604095 0)
(24.99280346213878 -0.001719243338586483 0)
(24.99990591282792 -1.251226596829048e-05 0)
(22.75010121924688 -0.603351788831386 0)
(24.90569052971934 0.1039859733614216 0)
(24.99986509432385 0.001261851287248284 0)
(24.99999838392005 4.483314675952636e-06 0)
(21.13445274698987 -0.5182144740737694 0)
(24.71299132081544 0.08313988008493248 0)
(24.99724052112375 0.001760545523694862 0)
(24.99999322159011 7.794348114541786e-06 0)
(19.44937626631532 0.09094031172159733 0)
(24.46227403181942 0.165650006393098 0)
(24.99207037272989 0.004679728330551316 0)
(24.99997493408365 2.339877153075688e-05 0)
(17.7071769308089 1.797574475313374 0)
(24.13457918709045 0.3664526643009481 0)
(24.9783097397419 0.01336506890062926 0)
(24.99991124927132 8.81002171197851e-05 0)
(25.00020663204384 0.0007494964244425525 0)
(25.00073045595513 0.0378813327053515 0)
(24.91971840576272 0.8161009859040101 0)
(22.00481447966978 3.631207850024481 0)
(24.99971622174509 0.0008458829263824287 0)
(24.97888094333271 0.04461525714600047 0)
(24.49294326657034 0.954998614880334 0)
(19.49743352204105 4.857100275113416 0)
(24.99981741761867 0.0002901231344724401 0)
(24.9713126630986 0.03697569917309968 0)
(24.20224528854638 0.8191633558828105 0)
(18.17254072816607 4.414339439262272 0)
(24.99979279852821 0.0002812786264071578 0)
(24.96221552050078 0.03503563158456014 0)
(23.93956348321848 0.7613367024054116 0)
(16.68457032181704 3.769392300896051 0)
(25.68129332806913 2.299344089604455 0)
(25.37299383161838 0.4879214450320217 0)
(25.04638160411975 0.01300407476461921 0)
(25.00095735195194 0.0007738231475057964 0)
(28.83615376784829 0.2854866011741881 0)
(25.84755475151259 -0.1594280587472787 0)
(25.11213369574473 -0.05363708641443656 0)
(24.99457316985363 0.0008939607050077942 0)
(28.72485668540289 -2.028570637351554 0)
(25.88177095515084 -1.014378304634668 0)
(25.10228392427131 -0.1503662343270753 0)
(24.98726916127856 0.001495722766764556 0)
(26.26357770748484 -4.727018800000184 0)
(25.21162627142122 -1.806723868936946 0)
(24.98970485096671 -0.1795559231981041 0)
(24.99484429964291 0.003255450329904369 0)
(24.99769434077625 0.002149579185861133 0)
(24.98489968702176 -0.04057624137303809 0)
(23.84912230784923 -1.956025909750756 0)
(18.60127043294386 -9.567403298920953 0)
(24.99678792544213 0.003348942865014735 0)
(24.97004151165968 -0.06727332809806502 0)
(23.6353747297035 -2.501355177635721 0)
(19.20120160262298 -9.717297296229789 0)
(24.99852508435039 0.005880772100957503 0)
(24.97580030619575 -0.09051076020972078 0)
(23.94402184366237 -2.433554479977312 0)
(20.6306841736524 -9.096157893118022 0)
(24.98992018065944 0.003513800997597027 0)
(24.97389969054613 -0.05101692927430485 0)
(24.34452078981252 -1.791632613255783 0)
(22.63727392538122 -7.236338841192466 0)
(18.7374679491788 -9.023027603136557 0)
(24.03431759183053 -1.598365945205871 0)
(24.98769156452505 -0.03182305695262914 0)
(24.99844094316945 0.001512969763617731 0)
(18.68085746439619 -8.479766976661383 0)
(24.21396088883091 -1.184940716071873 0)
(24.99122386734083 -0.01820536381813682 0)
(24.99911412729714 0.0009228033993120329 0)
(18.75812258629699 -7.61819417810113 0)
(24.33887704016784 -0.855071062847747 0)
(24.99459854937208 -0.01247963188672312 0)
(24.99929999078809 0.0006474765881497089 0)
(18.74383863012533 -6.65068086342308 0)
(24.46487194341847 -0.5642226129987711 0)
(24.99532338402691 -0.005988947407634353 0)
(24.99975934379113 0.0003193691466993408 0)
(24.99999777907448 6.470016683570617e-06 0)
(24.99999734644691 1.456996007007533e-05 0)
(24.97629518678552 -0.01007570603761748 0)
(21.99903152186212 -1.03185069776912 0)
(24.99998088854107 1.144410312663916e-05 0)
(24.99980931264107 -0.000195633230347089 0)
(24.89478302542459 -0.04591110496179418 0)
(20.20182114442511 -2.439945953265268 0)
(24.99997717640985 4.809202089116044e-05 0)
(24.99871550945297 -0.0009017602954058984 0)
(24.75713527447163 -0.1598180667527136 0)
(19.31888030156053 -3.949726341239451 0)
(24.99982407208567 0.0001505036297977041 0)
(24.99811371390625 -0.002662107990853007 0)
(24.64062253303468 -0.2998055403425152 0)
(19.08372161424206 -5.27356537402037 0)
(25.0000132540706 -2.3159702677161e-08 0)
(24.99999933122088 1.152136805812209e-07 0)
(24.99999264491553 2.848518253145782e-06 0)
(24.9999424814764 2.347693338462916e-05 0)
(25.00002110376207 -1.874410370923705e-05 0)
(25.0000048574669 -3.756057967636699e-06 0)
(25.00013458014351 -0.0001563733750310204 0)
(25.00080667871196 -0.001055384010231277 0)
(24.99711301155801 -0.004334173493496032 0)
(25.00251553893063 -0.001771834660328479 0)
(25.0181032113186 -0.01749747508423652 0)
(25.05107436410325 -0.05555011282135676 0)
(24.65211894008541 -0.3125650826699255 0)
(25.08434738969992 -0.04597039754566376 0)
(25.23969289730772 -0.1344902419219778 0)
(25.3735116438025 -0.2298996142552029 0)
(24.99979368442681 9.177279429464686e-05 0)
(25.00206432232341 -0.003434658911202758 0)
(25.08723114271143 -0.1144286729168639 0)
(25.50694367442622 -0.3566145396339618 0)
(24.99958039214145 0.0002143447950350984 0)
(25.00280639145977 -0.006646832716407568 0)
(25.10872169071692 -0.1847583221873362 0)
(25.62031014754857 -0.5310062828444889 0)
(24.99942802135691 0.0003549409927078975 0)
(25.00227844693486 -0.009395834214930338 0)
(25.10771781931928 -0.259819624967384 0)
(25.6908356819117 -0.7896919010735357 0)
(24.99939003237789 0.0004389140233523101 0)
(25.0010747256606 -0.01062243294249758 0)
(25.07976360220786 -0.3247649679656888 0)
(25.67990351428963 -1.176544034016622 0)
(24.9999483502643 4.585673235890284e-05 0)
(24.99954068337989 -0.0009236504490471989 0)
(24.93929969543806 -0.1141369239990291 0)
(24.37189789703265 -2.475959461385274 0)
(24.99986070876957 0.0001358887276986315 0)
(24.9979182935737 -0.003090511616808882 0)
(24.88847130125356 -0.2507742053553806 0)
(24.83590270418325 -2.409599286535285 0)
(24.99968145877132 0.0003396572644709821 0)
(24.99669574386759 -0.007641827377557803 0)
(24.94268163544115 -0.3721428093212796 0)
(25.24809193546575 -2.117363072289594 0)
(24.99945179693518 0.0004556063864287786 0)
(24.99867360992748 -0.01092584380441487 0)
(25.03811894052541 -0.3612491737442858 0)
(25.5105118693948 -1.676102405437724 0)
(23.85077186194519 -2.16225027196925 0)
(24.96203245249669 -0.06313177581811748 0)
(24.9998434783925 -0.0003153170476298274 0)
(24.99997790402181 1.722859647687208e-05 0)
(24.07749966021461 -1.847100288136878 0)
(24.96435673441595 -0.05462324503782914 0)
(24.9998271344944 -0.00036932227566394 0)
(24.99997823824839 3.665568663114364e-05 0)
(23.95426645230035 -1.688886097860572 0)
(24.96670182570289 -0.0261958854302993 0)
(24.9998775797536 -5.96115526321508e-05 0)
(25.00000159226344 -6.867037202623521e-06 0)
(24.07071502338723 -1.311178829744373 0)
(24.98039542820428 -0.003823349383627384 0)
(24.99996393512911 -2.051451473798258e-06 0)
(24.99999931603028 1.303497543740998e-06 0)
(24.0749371529239 -1.038150461900279 0)
(25.00872944819058 0.01640850629538665 0)
(25 6.812409984612734e-12 0)
(24.99999999857295 -3.855856891182953e-09 0)
(24.13391656570757 -0.7518563907068304 0)
(24.99815377482988 -0.009567092023620469 0)
(25 -3.216718515456295e-12 0)
(25.00000000000001 1.776117773726496e-11 0)
(24.35169065547694 -0.3323742221706192 0)
(24.99993214784543 -5.246415675716056e-05 0)
(25 -1.762979152924317e-14 0)
(25.00000000000001 3.997604083621033e-15 0)
(24.81747788336417 -0.01301277579248301 0)
(25.0000248011283 2.002055339220295e-05 0)
(25 -3.199870381544318e-16 0)
(25.00000000000002 -7.562898247441696e-15 0)
(25 1.420908939734042e-15 0)
(25 2.577163448080996e-15 0)
(24.99999999997582 3.438320408589571e-10 0)
(24.99997240225552 -3.513904996835525e-06 0)
(24.99999999999999 -2.843418720158383e-19 0)
(25 4.761389860908921e-15 0)
(24.99999999997829 2.24490830089696e-09 0)
(24.99972876517486 0.0005667730743112712 0)
(25 -1.366459512028481e-15 0)
(25 -3.605266618573124e-15 0)
(25.00000000151191 2.011221036625498e-08 0)
(25.00008037065653 0.00166521420011224 0)
(25 -3.105007988744972e-15 0)
(25 -2.097854896255864e-15 0)
(25.00000005385863 1.327045463211985e-07 0)
(24.99652353050391 0.01373735350814366 0)
(24.99990775246875 -9.623041654730064e-10 0)
(24.99971787065249 0.0007892706739971073 0)
(24.99875347898259 0.003705622369805058 0)
(24.96442214483291 0.005923025828194525 0)
(24.99971786773978 -0.0007892773296331485 0)
(24.99938526184116 -6.446658244880559e-09 0)
(24.99590395601319 -0.0003275475190608232 0)
(24.85835692195361 -0.04558934517244078 0)
(24.99875347362332 -0.003705628735504473 0)
(24.99590395233972 0.0003275343786133018 0)
(24.9312822941164 1.084845381275422e-08 0)
(24.12680484999203 -0.1884812583437985 0)
(24.96442213671202 -0.005923015299375601 0)
(24.85835692540286 0.04558933859917067 0)
(24.12680487080293 0.1884812895924033 0)
(21.47936695846403 -9.143756937837209e-09 0)
(19.10178377369179 2.461116934914973 0)
(20.13430116426055 3.117665475499774 0)
(22.63878577042713 2.302068282900119 0)
(23.98944302944949 1.072242451106735 0)
(19.7051431774821 4.457737506730435 0)
(19.89649775749002 4.588276713193131 0)
(20.87925635828334 4.393725536899829 0)
(22.13255652865666 3.66565362287172 0)
(19.84973284239975 5.590104581092886 0)
(20.71666843184401 4.87277710729616 0)
(21.49198181683966 5.097137047181139 0)
(22.37157400197694 4.812870450939438 0)
(20.44739469380629 5.980803657159456 0)
(21.35638031973291 5.022367702547052 0)
(21.94250466148269 5.200097120995337 0)
(22.50513969028032 5.030887720259812 0)
(22.65970141921765 5.181913998815032 0)
(22.80842837740737 5.336641751872448 0)
(22.97134210954553 5.395454101171923 0)
(22.95034887060719 5.608918668039506 0)
(22.2808796276491 5.373689124960514 0)
(22.61787768358347 5.495366542726972 0)
(22.81638001198796 5.518982605450133 0)
(23.40503011337562 5.881321695525361 0)
(21.77528630261982 5.243943603840912 0)
(22.34015978664789 5.464464395909368 0)
(22.61378460411933 5.554144850048131 0)
(24.85931446145821 6.298090133093438 0)
(20.68292962293295 6.270229087443637 0)
(20.8575364446338 6.157420449832124 0)
(21.09299631665529 5.714987834997167 0)
(26.60957601539653 7.523799498108291 0)
(25.08936467797704 4.11201157088846 0)
(26.91223283776359 1.596649081939737 0)
(26.43129069981384 0.2739723191471914 0)
(26.18267960488844 0.2593124346807766 0)
(26.49603092391743 3.267130254367177 0)
(28.48851791412642 0.5155769977084845 0)
(27.5864886869033 0.01261860366465317 0)
(27.03648533100508 0.1948126299140248 0)
(29.2778428690784 2.588821135645754 0)
(29.96214567250622 -0.046311301630631 0)
(28.37855753754043 -0.1484732056230014 0)
(27.45191324870927 0.07100726149544226 0)
(21.63989838382314 1.540296646929682 0)
(22.2635733912042 0.7116667109547223 0)
(22.51553817584041 0.1718687128089159 0)
(22.51689512132984 -0.0077928358729254 0)
(26.00445115236935 0.2070314239176138 0)
(25.91004592584379 0.08610235438673562 0)
(25.7644472008395 0.0380680962278279 0)
(25.6137197381163 0.03930440799144918 0)
(26.53793730838038 0.1969879022397834 0)
(26.25032614105567 0.1064138595283505 0)
(26.01471488260834 0.003245595959793514 0)
(25.78609095040261 -0.00632088950523468 0)
(26.79854139626997 0.03489319973899152 0)
(26.42577154130842 -0.04248921256599144 0)
(26.15553919709046 -0.1061766303755498 0)
(25.91542630490578 -0.08028530542273724 0)
(22.65002318124917 -0.1734732110547146 0)
(23.06357147256493 -0.3923913185647394 0)
(23.6078727470546 -0.5363705263023404 0)
(24.08030675765892 -0.5326938841276674 0)
(25.46456801332451 0.0496185281673393 0)
(25.38861023201906 0.01056171447325505 0)
(25.19261486701973 0.06337722799254684 0)
(21.80955719982831 3.26712773085302 0)
(25.60652562615808 0.01240487476467594 0)
(25.49605863419551 -0.01666633634118646 0)
(25.27778371143371 0.0989064364292862 0)
(19.02637976865954 3.595134100600775 0)
(25.72984065154164 -0.04522104623617259 0)
(25.58426172359571 -0.0461372109939345 0)
(25.29506621989081 0.1466203577528884 0)
(16.1379001038349 2.429816760198253 0)
(24.4918305559768 -0.4078667769947913 0)
(24.79775174930088 -0.2881937471720413 0)
(24.38484409016688 -0.08019313224264307 0)
(10.93072041081728 0.5139213625386899 0)
(14.62949465728942 7.557283374284657 0)
(14.77897607617349 7.706165179284217 0)
(14.89950279462181 8.446430055847699 0)
(15.51687424009783 9.322874791692806 0)
(12.70729321702385 7.782619660880998 0)
(13.99511109875912 7.894231786994713 0)
(14.69644512427331 8.619942949201814 0)
(15.43744201892634 9.497973357056496 0)
(10.20309882671799 6.609178060263311 0)
(12.22956322564851 7.450517558453115 0)
(13.81667790905594 8.597572487735674 0)
(15.01857211326135 9.576844940321202 0)
(6.312762154361256 2.721885989510737 0)
(8.536743213824767 3.96825178906897 0)
(11.2118365138603 5.854520409065428 0)
(13.20815289357593 7.861916391474074 0)
(15.88650355968865 10.18621641568695 0)
(16.06696330877987 10.6540755076342 0)
(16.26145943414308 10.93857589974269 0)
(16.36247771338806 10.99708680510133 0)
(15.89443478364492 10.19851349152839 0)
(16.06183556354545 10.56520970852591 0)
(16.21003201502084 10.79451742474555 0)
(16.31896503448078 10.86283407990075 0)
(15.67917435960792 10.19068065291405 0)
(15.92995776833794 10.53273491245021 0)
(16.10210982473061 10.73006000540067 0)
(16.20840437666389 10.80382270619121 0)
(14.60117586833336 9.43016420068842 0)
(14.93540580263791 10.44452978904194 0)
(15.25253911962477 10.68000102267235 0)
(15.22981301852442 10.7819331659559 0)
(16.69352157265894 11.18546483074132 0)
(17.37240593786476 11.21548190155885 0)
(19.1003603243333 10.88271460906451 0)
(21.31566658476112 9.779059947697293 0)
(16.66206084973818 11.04867192841276 0)
(17.3410594791765 11.12701580637564 0)
(18.83320098786607 10.88833664386558 0)
(22.00966225054137 11.50787119346975 0)
(16.53918524963625 10.98017127618007 0)
(17.11523083500037 11.08104973110851 0)
(18.9845552157951 11.38399953416409 0)
(27.38873490672458 16.71097295227636 0)
(15.74591318714808 11.03304454942484 0)
(16.62097798513384 10.83608128541482 0)
(19.39136506413658 11.74330288113595 0)
(37.838070212712 22.52309621261485 0)
(26.72432229992681 5.366076918242001 0)
(30.52069750064346 -2.481044457176189 0)
(9.125755117136212 -5.007640094723821 0)
(6.415159887028747 -0.1114780454469149 0)
(27.70963833180814 4.874541667656053 0)
(25.6749381004934 -2.20131832947776 0)
(5.107676935174336 -3.902186542352718 0)
(3.435308934416151 1.872560448388872 0)
(27.31414263619895 3.948687331222099 0)
(18.05453243063578 -6.304974508722172 0)
(2.052619558883706 -0.7948756501079612 0)
(1.803334273876964 2.397790885862099 0)
(17.56258826226524 -6.680393785323276 0)
(6.989526380292675 -7.100292126516438 0)
(0.09264885589626495 1.865649998576683 0)
(0.2489838626435785 1.820562961936956 0)
(3.553849824370957 0.278326949893641 0)
(1.361597091214 -0.6120628749455663 0)
(-0.03772794391250577 -0.9781027086058607 0)
(-1.490843708462697 0.1388972189829334 0)
(2.010106426098116 2.367431714640591 0)
(0.33926387862991 1.803303455676589 0)
(-0.6954401352972709 1.636415947962957 0)
(-1.126588300959087 2.221191632474633 0)
(1.056909939988678 2.125166384033794 0)
(0.5955985858316615 2.362380161161048 0)
(0.2703871145860851 3.023517531902889 0)
(-0.5104844862141499 3.460681451179999 0)
(0.07690239333070478 1.579692766238866 0)
(-0.0009900015500683419 2.420802245408357 0)
(-0.290952527553532 3.638330223063056 0)
(-1.004519971461646 3.600904566898698 0)
(5.076405803513314 -4.666949401044382 0)
(12.01248045614191 -5.602362978794262 0)
(16.73561163552827 -4.927426187076515 0)
(20.97660024831394 -4.492898452754127 0)
(1.956191633068964 -2.087572421375516 0)
(8.944667605563206 -3.676928351937946 0)
(14.37636393064906 -3.93968642557956 0)
(19.26925341263188 -4.675678261709502 0)
(-1.260818047681113 -1.507434508110847 0)
(3.778367258903678 -3.16359649412177 0)
(10.32433175303579 -3.908702394620469 0)
(18.24293342174607 -3.591546899561936 0)
(-1.8795144845322 0.6327177161881945 0)
(1.226191831900324 0.1924343398308281 0)
(8.496829909100825 1.167838424630251 0)
(20.667535573809 -1.864236602728723 0)
(22.08940109029421 -8.063881809594832 0)
(23.02092200964073 -13.93457596063762 0)
(22.76315994698726 -16.55983772561578 0)
(19.21501695875132 -12.67820290594103 0)
(20.48639539161965 -8.796048189529234 0)
(20.72574953700531 -13.29456529045758 0)
(18.82686359183835 -9.082462543727107 0)
(13.96728177632921 -4.378751198223177 0)
(19.87142265374669 -9.986980517827135 0)
(16.53165838376244 -9.636314754583173 0)
(11.57342845699183 -2.681666480703617 0)
(5.422902846447197 -1.21183721779917 0)
(13.9498598773182 -10.02950008287585 0)
(6.230909687311311 -2.906273082008566 0)
(3.345737918178303 0.9807069269798335 0)
(1.520313531986105 2.051224722280883 0)
(-0.2561093324082949 2.70029677826057 0)
(-1.37236734761726 2.354707009786826 0)
(-2.095153790020983 1.567926133494198 0)
(-2.140751461526409 0.5110157519827304 0)
(1.870911783360898 1.834582032916964 0)
(-0.9773171832391948 1.939494424827187 0)
(-2.988998984420609 1.425575875604364 0)
(-3.814977987242106 0.4208122470240527 0)
(5.861905329080684 -2.989762625523583 0)
(0.2357716920998135 -0.6226873380960849 0)
(-2.65181745537368 -0.06392419346158675 0)
(-3.3870828490177 -0.1363781204151985 0)
(13.25244470034309 -6.407045829203533 0)
(7.731179217535128 -3.198689035390065 0)
(4.969658723294155 -1.975656312065745 0)
(4.329957603793984 -0.6277661366915721 0)
(-2.140751461525176 -0.5110157519572569 0)
(-3.814977987243347 -0.4208122470243562 0)
(-3.387082849012104 0.1363781203430738 0)
(4.329957603665932 0.6277661364747021 0)
(-2.095153790014099 -1.567926133478429 0)
(-2.988998984420336 -1.425575875606667 0)
(-2.6518174553685 0.06392419337743838 0)
(4.969658723290719 1.975656311909297 0)
(-1.372367347619269 -2.354707009799358 0)
(-0.9773171832527493 -1.939494424833614 0)
(0.2357716920814303 0.6226873380033111 0)
(7.731179217527282 3.198689035297031 0)
(-0.2561093324162892 -2.700296778283312 0)
(1.870911783335783 -1.834582032950442 0)
(5.861905329028567 2.989762625447866 0)
(13.25244470029281 6.407045829109633 0)
(19.21501695876443 12.67820290585501 0)
(22.76315994704219 16.55983772555958 0)
(23.02092200973501 13.93457596059347 0)
(22.08940109038203 8.063881809619664 0)
(13.96728177631375 4.378751198193761 0)
(18.82686359183661 9.082462543694625 0)
(20.72574953701751 13.29456529041407 0)
(20.4863953916628 8.796048189534961 0)
(5.422902846429771 1.211837217767742 0)
(11.5734284569739 2.681666480674315 0)
(16.53165838374148 9.636314754542626 0)
(19.87142265373969 9.986980517819365 0)
(1.520313531980075 -2.051224722310521 0)
(3.345737918168116 -0.9807069269839924 0)
(6.230909687324218 2.90627308196233 0)
(13.94985987729873 10.02950008285029 0)
(20.66753557379894 1.864236602725241 0)
(8.496829909071716 -1.16783842466056 0)
(1.22619183186827 -0.192434339866043 0)
(-1.879514484502887 -0.6327177161727446 0)
(18.2429334217304 3.591546899557248 0)
(10.32433175295588 3.908702394630359 0)
(3.778367258794471 3.163596494043709 0)
(-1.260818047675381 1.507434508078762 0)
(19.26925341264481 4.675678261706715 0)
(14.37636393055038 3.939686425636341 0)
(8.944667605414896 3.676928351824944 0)
(1.956191633022709 2.08757242131222 0)
(20.97660024836296 4.492898452734714 0)
(16.73561163539752 4.927426187189984 0)
(12.01248045600265 5.602362978709077 0)
(5.076405803442667 4.666949400956907 0)
(-1.4908437083574 -0.1388972189553558 0)
(-0.03772794396872128 0.978102708634451 0)
(1.36159709109472 0.6120628748251699 0)
(3.55384982431695 -0.2783269500598133 0)
(-1.126588300843778 -2.221191632435597 0)
(-0.6954401353059015 -1.63641594789426 0)
(0.3392638785344452 -1.803303455749945 0)
(2.010106426088971 -2.36743171483602 0)
(-0.5104844861634495 -3.460681451126106 0)
(0.2703871145780359 -3.023517531824268 0)
(0.5955985857730324 -2.362380161202744 0)
(1.056909939977661 -2.125166384232116 0)
(-1.004519971434037 -3.600904566839477 0)
(-0.2909525275361177 -3.638330222981461 0)
(-0.0009900015733338701 -2.420802245442738 0)
(0.07690239330740226 -1.579692766368943 0)
(6.415159887080724 0.1114780457201339 0)
(9.125755117076462 5.007640094249136 0)
(30.52069750069062 2.481044457164243 0)
(26.72432229997472 -5.366076918274548 0)
(3.435308934508495 -1.872560448542497 0)
(5.10767693532374 3.902186542261755 0)
(25.6749381005677 2.201318329396219 0)
(27.70963833190742 -4.87454166771045 0)
(1.803334273923741 -2.397790886017864 0)
(2.052619558872389 0.7948756500269704 0)
(18.05453243069847 6.304974508710738 0)
(27.31414263629375 -3.948687331299062 0)
(0.2489838626319389 -1.820562962085647 0)
(0.0926488558689194 -1.865649998669707 0)
(6.989526380368985 7.100292126520032 0)
(17.56258826233422 6.680393785282919 0)
(21.31566658476935 -9.77905994767092 0)
(19.1003603243037 -10.88271460902954 0)
(17.37240593781728 -11.2154819014953 0)
(16.69352157260069 -11.18546483065704 0)
(22.00966225056046 -11.50787119346888 0)
(18.83320098785843 -10.88833664383575 0)