/*--------------------------------*- C++ -*----------------------------------*\
  =========                 |
  \\      /  F ield         | OpenFOAM: The Open Source CFD Toolbox
   \\    /   O peration     | Website:  https://openfoam.org
    \\  /    A nd           | Version:  11
     \\/     M anipulation  |
\*---------------------------------------------------------------------------*/
FoamFile
{
    format      ascii;
    class       volScalarField;
    location    "0.043";
    object      rho;
}
// * * * * * * * * * * * * * * * * * * * * * * * * * * * * * * * * * * * * * //

dimensions      [0 0 0 0 0 0 0];

internalField   nonuniform List<scalar> 
880
(
0.3733250556165154
0.3733250556165154
0.3733250556165154
0.3733250558345723
0.3733250556165154
0.3733250556165154
0.3733250556165152
0.3733250540450521
0.3733250556165154
0.3733250556165153
0.3733250556165154
0.3733254699581739
0.3733250556165154
0.3733250556165154
0.3733250556165154
0.373328038154536
0.3733250556165154
0.3733250556165155
0.3733250556165152
0.3733250556165154
0.3733250556165154
0.3733250556165154
0.3733250556165151
0.3733250556165154
0.3733250556164291
0.3733250556097354
0.3733253362288335
0.3733234887821197
0.3737455175570748
0.3755878035856306
0.3773578430290164
0.3778578816279666
0.3733250556504243
0.3733250556605499
0.3733250556657863
0.3733250556347457
0.3733250586444324
0.3733250597675755
0.3733250603258303
0.3733250576369211
0.3733313414781766
0.3733319505559506
0.3733325833581775
0.3733305729209143
0.3781716998463676
0.3785727981297743
0.3787924937499673
0.378991992646444
0.3795353579525987
0.3774795080480227
0.3750293858869793
0.3736434398025291
0.3733422508706921
0.3733387090846436
0.3733313826924781
0.3733263117015808
0.3733250717051892
0.3733250689349444
0.3733250618270303
0.3733250567858371
0.3733250558131108
0.3733250557651082
0.3733250556708649
0.3733250556232605
0.3733250556165152
0.3733250556165152
0.3733250556165154
0.3733250556165155
0.373325055676297
0.3733250556169838
0.3733250556165154
0.3733250556165155
0.3733251247959868
0.3733250561069709
0.3733250555569703
0.3733250555861453
0.3733424574835442
0.3733251682559372
0.3733250370638091
0.3733250489534344
0.3733250551114494
0.3733250556143877
0.3733250556165154
0.3733250556165154
0.3733250501772608
0.3733250554097984
0.3733250556113423
0.3733250556165153
0.3733271534091578
0.3733251453434526
0.3733250558105113
0.3733250556185223
0.3723601121775715
0.3733183273122037
0.3733250484732653
0.3733250556118634
0.373325055616108
0.3733250559961294
0.3733271893341532
0.3788671669549855
0.3733250557466443
0.3733250682425162
0.3733467771856098
0.3899981169582196
0.3733250558367055
0.3733250769942226
0.3733581316376081
0.3945468824634586
0.3733250558961569
0.3733250822042801
0.3733636859650579
0.3961236904215196
0.3973767053316682
0.373369854846639
0.3733250886682061
0.3733250559739839
0.398886601668195
0.3733778691680936
0.3733250975516179
0.3733250560811822
0.4003814388301147
0.3733868229969362
0.3733251081967322
0.3733250562175794
0.402489156569123
0.3734019597165896
0.3733251281709398
0.3733250564790695
0.3733250562763412
0.3733251114801618
0.3733942509245541
0.4034453371838762
0.3733250563445369
0.3733251172995042
0.3733982114929244
0.4033003137713096
0.3733250566320515
0.3733251265554584
0.3734020893037672
0.4018697856822237
0.373325055992429
0.3733251009261263
0.3733699324152188
0.3898958025651708
0.3733250081946329
0.3733199430338509
0.3733009493666142
0.3748721712132829
0.3733250516581334
0.373322334983147
0.3727521405681805
0.3434344330033662
0.3733250533261188
0.3733223397526619
0.372275040842074
0.3124716174463809
0.3733250536763747
0.373321953895273
0.3717927358132786
0.2947954348936089
0.3082397217221616
0.3725649024008918
0.3733234686869183
0.3733250540022949
0.3126716190628035
0.3726478719311858
0.3733237458747371
0.3733250544275665
0.320492049912066
0.3728605907013286
0.3733242413942112
0.3733250549458645
0.3132589641691382
0.3727290997737985
0.3733240554280449
0.3733250547734255
0.3476371162665837
0.3732057538172946
0.373324885671868
0.3733250554726277
0.3682990497995473
0.3733155383770045
0.3733250454420347
0.3733250556111689
0.3726021111785475
0.3733237426764789
0.3733250541628759
0.3733250556156946
0.3722494467884121
0.3733219254525916
0.3733250510967782
0.3733250556090201
0.3669954640724781
0.3732768501311223
0.3733249246879106
0.3733250556904862
0.3670042848801229
0.3732769089817685
0.3733249246419498
0.3733250556866056
0.3669977976005967
0.3732768356622255
0.3733249233855751
0.3733250556483204
0.3670921848371627
0.3732772040720753
0.3733249222084452
0.3733250555817314
0.372249446788172
0.3733219254521566
0.3733250510961946
0.3733250556093447
0.3726021111777301
0.3733237426759335
0.3733250541616003
0.3733250556157347
0.3682990497992729
0.3733155383770596
0.3733250454419612
0.3733250556112893
0.3476371162672244
0.3732057538183958
0.3733248856719711
0.3733250554723536
0.3733250540033194
0.3733234686882986
0.3725649024013631
0.3082397217227919
0.3733250544280082
0.3733237458750303
0.3726478719317063
0.312671619062772
0.373325054945053
0.3733242413949881
0.3728605907013264
0.3204920499130477
0.3733250547736712
0.373324055428165
0.3727290997752319
0.3132589641681641
0.2947954348919407
0.3717927358127143
0.3733219538948588
0.3733250536762206
0.3124716174449002
0.3722750408412691
0.3733223397513117
0.3733250533247718
0.3434344330028891
0.3727521405670586
0.3733223349831239
0.373325051656774
0.3748721712135775
0.3733009493661812
0.3733199430333942
0.3733250081962359
0.3733250562760916
0.3733251114808502
0.3733942509252017
0.4034453371849074
0.3733250563447391
0.3733251172997175
0.3733982114929147
0.4033003137709915
0.3733250566328549
0.3733251265554885
0.3734020893029592
0.401869785682056
0.3733250559938761
0.3733251009261164
0.373369932414664
0.3898958025650989
0.402489156571132
0.3734019597156907
0.3733251281720684
0.373325056478903
0.4003814388319386
0.3733868229979448
0.3733251081971492
0.3733250562178264
0.3988866016687563
0.37337786916987
0.3733250975525104
0.3733250560809971
0.3973767053317611
0.3733698548461075
0.3733250886683523
0.3733250559737523
0.3733250556165151
0.3733250559969682
0.3733271893340764
0.3788671669534759
0.3733250557460013
0.373325068241787
0.3733467771860927
0.3899981169584054
0.3733250558364333
0.3733250769942321
0.3733581316380364
0.3945468824640889
0.3733250558958128
0.3733250822045077
0.3733636859637225
0.3961236904221235
0.373325055611787
0.3733250556186439
0.3733250556165154
0.3733250556165154
0.3733250484719752
0.3733250558102492
0.373325055612061
0.3733250556165153
0.3733183273123895
0.3733251453442004
0.3733250554092363
0.3733250556142829
0.3723601121775251
0.3733271534092418
0.3733250501773017
0.3733250551114372
0.3733250556165152
0.3733250556165154
0.37332505558625
0.3733250489536651
0.3733250556165154
0.3733250556165153
0.3733250555581925
0.3733250370638412
0.3733250556165154
0.3733250556169824
0.3733250561065123
0.3733251682560513
0.3733250556165163
0.3733250556760258
0.3733251247966399
0.3733424574833025
0.3733250558122624
0.3733250717041613
0.3733422508699796
0.3795353579523064
0.37332505576436
0.3733250689353477
0.3733387090847769
0.3774795080470587
0.3733250556707355
0.3733250618284233
0.3733313826921978
0.3750293858868596
0.3733250556231553
0.3733250567863672
0.373326311701673
0.3736434398018803
0.3789919926467219
0.3733305729221125
0.3733250576362349
0.3733250556344054
0.378792493749555
0.3733325833602185
0.3733250603255391
0.3733250556660107
0.3785727981310159
0.373331950556718
0.3733250597677899
0.3733250556603562
0.378171699846106
0.3733313414752654
0.3733250586442021
0.3733250556505798
0.3778578816285105
0.3733234887829874
0.3733250556165154
0.3733250556165154
0.3773578430286673
0.3733253362272781
0.3733250556165154
0.3733250556165154
0.3755878035862293
0.3733250556096435
0.3733250556165154
0.3733250556165153
0.3737455175566689
0.3733250556163748
0.3733250556165154
0.3733250556165151
0.3733250556165154
0.3733250556165154
0.3733250556165154
0.3733250558832894
0.3733250556165152
0.3733250556165155
0.3733250556165153
0.3733250540462027
0.3733250556165154
0.3733250556165154
0.3733250556165154
0.3733254699592592
0.3733250556165154
0.3733250556165154
0.3733250556165151
0.373328038154175
0.373324999474181
0.3733244674493867
0.3733240980485144
0.3735083224594532
0.3733244674618173
0.3733213330624545
0.3733186446127343
0.3735573048996541
0.3733240980487318
0.373318644608839
0.3734733895303667
0.3801226426795629
0.3735083224614588
0.3735573048999387
0.380122642680191
0.4246510948964001
0.5096200031094196
0.443813690550875
0.4144986202179587
0.3870754708762315
0.5099195595753721
0.4902755622690205
0.4771138671877687
0.439947803443579
0.509479087531662
0.5104147428796981
0.5064035689039564
0.4832771416072407
0.5162060119029491
0.523853871868194
0.5207278217692362
0.4989128497053719
0.5039612641153521
0.5050164493167346
0.505484003160542
0.517300325339653
0.524864512923552
0.525092444719598
0.5252029100511905
0.5452716341294536
0.5275551242200096
0.5274759108947478
0.5274778349192617
0.5451798468210445
0.5178487155743465
0.51755248126942
0.5175410368393248
0.5261894265920496
0.4633445476843621
0.4164202252079082
0.386596578868288
0.3754143659021915
0.4529528195448143
0.3920050688242885
0.3791746640934929
0.3748073416188015
0.3908039153450126
0.3631521145155589
0.3765566216535977
0.3756003561967771
0.352188365613031
0.3605448978684354
0.3696750177543804
0.3725875344954097
0.3734252319954586
0.373324209643011
0.3733248219736121
0.3733250305298227
0.3734144252380865
0.373323063288732
0.3733250064899262
0.373325056404937
0.373503010460519
0.3733245121986671
0.3733250136192852
0.3733250577631644
0.3731775594450973
0.3733138298703487
0.3733244934358254
0.37332503928771
0.3733250540892488
0.3733250554872078
0.3733257017467311
0.3707299485218045
0.3733250551392581
0.3733250553481073
0.3733253686348126
0.3956704514782398
0.3733250554981577
0.3733250555231125
0.3733251355322604
0.4233941044356751
0.3733250554433635
0.3733250555898498
0.3733250855502215
0.43102397165275
0.5930144290944055
0.6765730600400847
0.7045079400651575
0.7103701461065034
0.6780150199797931
0.711310591573672
0.7442098400235934
0.7529512766369639
0.6910300374770389
0.6968770038668528
0.7274609687952008
0.7388923269119023
0.7237528781202655
0.6972832588517283
0.7178215070329836
0.7308030302868547
0.7112693499821369
0.7120076163264751
0.7126868639501126
0.7132936096801853
0.7535531823936882
0.7536455001564266
0.7536646555780737
0.7532716668757152
0.7397614912307031
0.7397953064692616
0.7397208789195091
0.739108560553986
0.7322620023336998
0.7323700171007165
0.7323943310210129
0.7316698947168029
0.7099050384814152
0.7057883491322527
0.6845221632062523
0.5977718201510901
0.754098537482085
0.7517159337148691
0.7272738808936552
0.6545932262684532
0.7429182619325627
0.7428931201014098
0.7186417847825154
0.6547499857307961
0.7327072772966344
0.7297621670566408
0.7000830667642058
0.7094062198285982
0.3835833175385358
0.1640528703826231
0.08107544859290983
0.06491986202224871
0.3501114693558516
0.1086765400775195
0.06416058667943732
0.05368436486856129
0.2621551189874937
0.08052290825284145
0.0681190530079232
0.06089848501314001
0.1720964093290742
0.03508268765440199
0.06437698755343119
0.06824154220371749
0.06478004713060302
0.06550687479283333
0.0689257457060722
0.06084185280341807
0.05180557990783643
0.05292743276493807
0.05936844144450915
0.05550578316746346
0.05914452725729623
0.06207685236324885
0.07118309145898272
0.06167457678907693
0.06608566217537924
0.07006091843938253
0.07995830377771126
0.05722568426308404
0.1948985923186883
0.3013059978362762
0.3453928616972004
0.3413629587747021
0.1499983871421287
0.2506338575852281
0.3073034527794117
0.330862856348987
0.1232522244094815
0.2187491908354038
0.2788692559503002
0.3311788730681227
0.0735856405708492
0.1660175480038651
0.2482598441308028
0.310583248550087
0.3162870721225193
0.2890362534756992
0.2597247781494628
0.2068713674821208
0.2392609195488386
0.1784099287942223
0.2140435685618642
0.1952484798112989
0.2044647469270976
0.09667752269148019
0.1024937319599089
0.153398911080952
0.1494748107815465
0.08202713378346194
0.07334046140553423
0.08139262852629332
0.08288620363704613
0.06545893346224735
0.04741548533558425
0.04379664240525447
0.1466720150029146
0.1050679565537136
0.07105008750273591
0.06545354130574516
0.1458144991343389
0.1084542167999503
0.09624759163799113
0.0947222611684583
0.163694334357383
0.1461239388668305
0.1421779803417519
0.1414801955778855
0.04379664240522026
0.06545354130583292
0.0947222611684241
0.1414801955770248
0.04741548533548151
0.07105008750290329
0.09624759163786169
0.1421779803409504
0.06545893346221732
0.1050679565536695
0.1084542167996947
0.1461239388671864
0.08288620363719562
0.1466720150027562
0.1458144991341607
0.1636943343569498
0.2068713674819014
0.2597247781486892
0.2890362534751376
0.3162870721214656
0.1952484798110664
0.2140435685618941
0.1784099287944866
0.2392609195482609
0.1533989110809123
0.1024937319600581
0.09667752269129795
0.2044647469269057
0.08139262852638929
0.07334046140548707
0.08202713378349036
0.1494748107813061
0.3105832485496104
0.2482598441306136
0.1660175480040813
0.07358564057092738
0.3311788730678667
0.2788692559500675
0.2187491908355123
0.1232522244096416
0.3308628563488257
0.3073034527790472
0.2506338575853171
0.1499983871422821
0.3413629587745035
0.3453928616968087
0.3013059978362925
0.1948985923188626
0.06084185280334869
0.06892574570631342
0.06550687479287133
0.06478004713064398
0.05550578316740551
0.0593684414445792
0.05292743276487125
0.05180557990777783
0.0616745767890994
0.07118309145910287
0.06207685236334397
0.05914452725733856
0.0572256842631243
0.07995830377783214
0.07006091843967052
0.06608566217548967
0.06491986202160872
0.08107544859211645
0.1640528703824722
0.3835833175383891
0.05368436486836622
0.06416058667909162
0.108676540077361
0.3501114693547568
0.06089848501314007
0.06811905300772775
0.08052290825293333
0.2621551189867789
0.06824154220380116
0.06437698755348766
0.03508268765447162
0.172096409328844
0.5977718201503597
0.6845221632060234
0.7057883491317981
0.7099050384814429
0.6545932262677251
0.7272738808935328
0.7517159337148878
0.7540985374822354
0.6547499857302856
0.7186417847823942
0.7428931201018436
0.7429182619329906
0.7094062198282494
0.7000830667642888
0.7297621670571097
0.7327072772971476
0.7132936096799593
0.7126868639512645
0.712007616327175
0.7112693499815056
0.7532716668750402
0.7536646555790139
0.753645500157172
0.7535531823931162
0.7391085605538583
0.7397208789202233
0.7397953064697053
0.7397614912304914
0.7316698947167759
0.7323943310214718
0.7323700171009914
0.7322620023336452
0.7103701461066544
0.7045079400654752
0.6765730600404626
0.5930144290945187
0.7529512766369337
0.7442098400240048
0.7113105915735568
0.6780150199800065
0.7388923269116709
0.7274609687957937
0.6968770038666037
0.6910300374769713
0.7308030302865929
0.7178215070337405
0.6972832588510488
0.7237528781200272
0.3707299485218358
0.373325701746229
0.373325055486951
0.3733250540893134
0.3956704514783315
0.3733253686345124
0.3733250553479855
0.3733250551392887
0.4233941044357952
0.3733251355321344
0.37332505552305
0.3733250554981677
0.4310239716527527
0.3733250855501611
0.3733250555898175
0.3733250554433336
0.3733250305298887
0.3733248219737658
0.3733242096431517
0.3734252319952285
0.3733250564049438
0.3733250064897706
0.3733230632891815
0.3734144252375794
0.3733250577631136
0.3733250136190392
0.3733245121996316
0.373503010459797
0.3733250392877306
0.3733244934357523
0.3733138298711206
0.3731775594448868
0.3754143659019706
0.3865965788681163
0.4164202252074886
0.4633445476841465
0.3748073416185292
0.3791746640934263
0.392005068824009
0.4529528195451045
0.3756003561963432
0.3765566216536421
0.3631521145153875
0.3908039153454653
0.3725875344943411
0.3696750177545746
0.3605448978681937
0.3521883656132392
0.5173003253394872
0.5054840031597131
0.5050164493157232
0.5039612641162051
0.545271634129106
0.5252029100506955
0.5250924447188622
0.5248645129241312
0.5451798468206518
0.5274778349189733
0.5274759108940344
0.5275551242200529
0.526189426591772
0.5175410368393226
0.5175524812690013
0.5178487155739704
0.4989128497056295
0.4832771416064103
0.4399478034443515
0.3870754708764289
0.5207278217697227
0.5064035689035106
0.4771138671880094
0.4144986202182952
0.5238538718692224
0.5104147428789797
0.4902755622689873
0.4438136905510839
0.5162060119043901
0.5094790875313241
0.5099195595751198
0.5096200031095836
0.3720842008442319
0.3733184654000425
0.3733250393759956
0.3733250556182028
0.3705646340515054
0.3733068206413434
0.3733250079573061
0.3733250556296625
0.3682015223701922
0.3732884082079511
0.3733249573629243
0.3733250555666011
0.3650186086074599
0.3732679385933897
0.3733249094795619
0.3733250555247878
0.3733250556909767
0.3733249246876292
0.3732768501309771
0.3669954640721593
0.3733250556869694
0.3733249246426378
0.3732769089809068
0.3670042848802906
0.3733250556478945
0.3733249233861862
0.3732768356622237
0.3669977976001641
0.3733250555802978
0.3733249222091953
0.3732772040693848
0.3670921848367706
0.3733250555245695
0.3733250555663998
0.3733250556282109
0.3733250556165043
0.3733249094797273
0.3733249573629192
0.373325007957014
0.3733250393751112
0.3732679385943604
0.3732884082068766
0.3733068206423473
0.3733184653993457
0.3650186086065079
0.3682015223692578
0.3705646340515054
0.3720842008444104
)
;

boundaryField
{
    back
    {
        type            empty;
    }
    inlet
    {
        type            calculated;
        value           nonuniform List<scalar> 
16
(
0.3733250556165154
0.3733250556165154
0.3733250556165154
0.3733250556165154
0.3733250556165154
0.3733250556165155
0.3733250556165152
0.3733250556165154
0.3733250556165154
0.3733250556165154
0.3733250556165154
0.3733250556165151
0.3733250556165154
0.3733250556165152
0.3733250556165154
0.3733250556165154
)
;
    }
    front
    {
        type            empty;
    }
    top
    {
        type            calculated;
        value           nonuniform List<scalar> 
40
(
0.3733250556504243
0.3733250556605499
0.3733250556657863
0.3733250556347457
0.3733250558131108
0.3733250557651082
0.3733250556708649
0.3733250556232605
0.3733250556165152
0.3733250556165152
0.3733250556165154
0.3733250556165155
0.3733250556165154
0.3733250556165154
0.3733250556185223
0.3733250556118634
0.373325055616108
0.3733250557466443
0.3733250558367055
0.3733250558961569
0.3733250559739839
0.3733250560811822
0.3733250562175794
0.3733250564790695
0.3733250562763412
0.3733250563445369
0.3733250566320515
0.373325055992429
0.3733250081946329
0.3733250516581334
0.3733250533261188
0.3733250536763747
0.373325054002295
0.3733250544275665
0.3733250549458645
0.3733250547734255
0.3733250554726276
0.3733250556111689
0.3733250556156946
0.3733250556090201
)
;
    }
    outlet
    {
        type            calculated;
        value           uniform 0.3733250556165154;
    }
    bottom
    {
        type            calculated;
        value           nonuniform List<scalar> 
40
(
0.3733250556093447
0.3733250556157347
0.3733250556112893
0.3733250554723536
0.3733250540033194
0.3733250544280082
0.373325054945053
0.3733250547736712
0.3733250536762207
0.3733250533247718
0.373325051656774
0.3733250081962359
0.3733250562760916
0.3733250563447391
0.3733250566328549
0.3733250559938761
0.373325056478903
0.3733250562178264
0.3733250560809971
0.3733250559737523
0.3733250556165151
0.3733250557460013
0.3733250558364333
0.3733250558958128
0.373325055611787
0.3733250556186439
0.3733250556165154
0.3733250556165154
0.3733250556165152
0.3733250556165154
0.3733250556165154
0.3733250556165163
0.3733250558122624
0.37332505576436
0.3733250556707355
0.3733250556231553
0.3733250556344054
0.3733250556660107
0.3733250556603562
0.3733250556505798
)
;
    }
    wall
    {
        type            calculated;
        value           nonuniform List<scalar> 
104
(
0.5096200031094196
0.5099195595753721
0.509479087531662
0.5162060119029491
0.5178487155743465
0.51755248126942
0.5175410368393248
0.5261894265920496
0.352188365613031
0.3605448978684354
0.3696750177543804
0.3725875344954097
0.3731775594450973
0.3733138298703487
0.3733244934358254
0.37332503928771
0.3733250554433635
0.3733250555898498
0.3733250855502215
0.4310239716527501
0.7237528781202655
0.6972832588517283
0.7178215070329836
0.7308030302868547
0.7322620023336998
0.7323700171007165
0.7323943310210129
0.7316698947168029
0.7327072772966344
0.7297621670566408
0.7000830667642058
0.7094062198285982
0.1720964093290742
0.03508268765440199
0.06437698755343119
0.06824154220371749
0.06608566217537924
0.07006091843938253
0.07995830377771126
0.05722568426308404
0.0735856405708492
0.1660175480038651
0.2482598441308028
0.310583248550087
0.1494748107815465
0.08202713378346194
0.07334046140553423
0.08139262852629332
0.08288620363704613
0.06545893346224735
0.04741548533558425
0.04379664240525447
0.04379664240522026
0.04741548533548151
0.06545893346221732
0.08288620363719562
0.08139262852638929
0.07334046140548707
0.08202713378349036
0.1494748107813061
0.3105832485496104
0.2482598441306136
0.1660175480040813
0.07358564057092738
0.0572256842631243
0.07995830377783214
0.07006091843967052
0.06608566217548967
0.06824154220380116
0.06437698755348766
0.03508268765447162
0.172096409328844
0.7094062198282494
0.7000830667642888
0.7297621670571097
0.7327072772971476
0.7316698947167759
0.7323943310214718
0.7323700171009914
0.7322620023336452
0.7308030302865929
0.7178215070337405
0.6972832588510488
0.7237528781200272
0.4310239716527527
0.3733250855501611
0.3733250555898175
0.3733250554433336
0.3733250392877306
0.3733244934357523
0.3733138298711206
0.3731775594448868
0.3725875344943411
0.3696750177545746
0.3605448978681937
0.3521883656132392
0.526189426591772
0.5175410368393226
0.5175524812690013
0.5178487155739704
0.5162060119043901
0.5094790875313241
0.5099195595751198
0.5096200031095836
)
;
    }
}


// ************************************************************************* //
