/*--------------------------------*- C++ -*----------------------------------*\
  =========                 |
  \\      /  F ield         | OpenFOAM: The Open Source CFD Toolbox
   \\    /   O peration     | Website:  https://openfoam.org
    \\  /    A nd           | Version:  11
     \\/     M anipulation  |
\*---------------------------------------------------------------------------*/
FoamFile
{
    format      ascii;
    class       volScalarField;
    location    "0.359236";
    object      p;
}
// * * * * * * * * * * * * * * * * * * * * * * * * * * * * * * * * * * * * * //

dimensions      [0 2 -2 0 0 0 0];

internalField   nonuniform List<scalar> 
880
(
80.0000000000004
80.00000016385775
80.01345673576215
81.8803488502783
80.00000000017729
80.0000004813165
80.01669055113308
82.76389866740261
80.00000000090172
80.00000187777135
80.03089510927609
83.82259011722091
80.0000000120275
80.00000824571609
80.06380964362641
85.40755832479424
79.9999999446778
80.00000002780087
80.00000611603953
80.00009435555893
80.00003799678963
80.00014606542975
80.00091100128289
80.00134650102265
80.14459868731319
80.23457453118328
80.38548927013667
80.53778905287074
88.3443769320867
91.39560873793675
94.0006743154652
95.23498993847781
80.00023343492467
80.00190271590402
80.00718970183785
80.02228105130106
80.01262423982688
80.05407624947608
80.10847756158242
80.22875742025228
81.27049943181544
81.90766906446672
82.71482451850299
83.76513108268425
96.3850899152315
97.95089592848247
98.27350138207491
97.50850268782827
90.98665983405463
87.50957239411477
85.83751214112141
84.7425833501843
85.69175368801854
86.37142385679087
86.77397793766775
86.80860140417444
80.63880121543205
81.12354365369085
81.63900784891598
82.02324035203475
80.07908865638383
80.19128866168532
80.36116022385475
80.59966025114663
80.87775816548788
81.15709004731632
81.43362790475156
81.64005392640279
82.31286402905823
82.48082017313517
82.56761525940013
82.57335571667134
86.44907235065408
85.94968667940429
85.29455151819811
84.61630528198432
83.58709680982345
82.89853897538248
82.50698564200577
82.07912941009992
82.08344311958291
84.14365864860952
82.52051099676571
81.7663784585758
87.74229810418363
83.86378180507457
82.36950621084928
81.74667078257237
120.5571471844231
85.26204484580184
82.18751454804404
81.49457421107837
158.3476450797649
93.05760794419766
82.67019352943203
81.40187388929593
81.37296168985704
83.39323038140485
102.7713622595671
175.0765567359848
80.87270529877665
84.75159361691288
113.7342310738051
174.2794243262639
81.08512136576914
87.90151942500898
128.3725973360596
176.1372594766947
81.89138565778711
93.58558749110978
142.2709247542533
173.4127620789369
167.7074033031164
149.9507674712696
102.239821874467
83.66781396896121
160.738341468928
151.1909472294181
111.8299076633945
86.84025659832656
153.3431052602869
148.9208888622491
120.1256397971713
91.94277718689219
145.6346776274504
138.9087612240479
121.45882093859
98.31245221568328
103.948948152883
117.3638837322798
126.5676146565112
136.6078170376611
103.137653285969
109.2148648825495
113.4275787046834
123.664950296071
100.8367452413951
101.4842878289752
100.6813089092193
107.3274336034641
97.84658812270544
95.22410243529826
89.17510082158286
88.30751739052008
95.46838028263959
89.32756725301269
78.72371136531528
66.39563704089591
91.68571176469376
83.96083259863737
69.93161993323535
43.06376276456999
88.80547336100611
81.5422086167615
63.23951996026819
26.39393361618832
86.35650500405637
80.46176614526647
58.99096702190175
14.8481414005
15.60557020542795
60.56904272885367
79.58678567120874
84.17250858703343
24.76308803110293
61.36490299162851
78.99417617076665
82.70511838878943
27.33964598657622
61.04514009647138
78.13598538269724
81.7138497818369
25.83944502632406
60.43848656912522
77.52978601914018
81.17537356344491
31.26906666602613
63.06647944196005
77.20208275561529
80.23976050208405
36.95812736753755
65.60882886018457
77.1165623312469
79.68640313102551
43.5963796860408
68.84967746106447
77.3144779203345
79.66585168036909
51.42001072325147
71.09836818479778
77.69927498355132
79.73914394255705
53.28222079110079
58.94012060199648
73.28912742360825
79.26092223774891
51.93660857762247
60.14525949510156
73.514254681005
79.25270065999214
49.49667126263321
61.86257050350101
74.01483311259717
79.25460028900498
47.17462045651359
63.82098442856767
74.73201936915061
79.313115331002
51.42001072326281
71.09836818474261
77.69927498351306
79.73914394223074
43.59637968611496
68.8496774607309
77.31447792016836
79.66585167977988
36.95812736755578
65.60882886001789
77.11656233084506
79.68640313054887
31.26906666607393
63.06647944163656
77.20208275549095
80.23976050184287
84.17250858724304
79.58678567130073
60.56904272880584
15.6055702051548
82.70511838872063
78.99417617073969
61.36490299151498
24.76308803082122
81.71384978191146
78.13598538285322
61.04514009603981
27.33964598652321
81.17537356353327
77.52978601940919
60.43848656901184
25.83944502629938
14.84814140056178
58.99096702185332
80.46176614530397
86.35650500418376
26.39393361607071
63.23951996028323
81.54220861687499
88.80547336096187
43.06376276447551
69.93161993355758
83.96083259869914
91.68571176500123
66.39563704104347
78.72371136513559
89.32756725260205
95.46838028286679
103.9489481532245
117.363883732934
126.5676146570212
136.6078170375898
103.1376532858462
109.2148648823948
113.4275787049627
123.664950296092
100.8367452409832
101.4842878288558
100.6813089092416
107.3274336035202
97.84658812261127
95.22410243506422
89.17510082140599
88.30751739070553
145.6346776274222
138.9087612240867
121.4588209389561
98.31245221648786
153.3431052601589
148.9208888622677
120.1256397973397
91.94277718698399
160.738341468963
151.1909472292319
111.8299076631544
86.84025659863241
167.7074033028508
149.9507674715831
102.2398218748313
83.66781396896543
81.37296168976098
83.39323038139314
102.7713622595252
175.0765567356606
80.87270529925061
84.75159361707162
113.7342310737906
174.2794243258501
81.08512136649659
87.90151942573007
128.3725973359888
176.1372594764898
81.89138565790292
93.5855874910917
142.2709247543121
173.4127620787494
81.40187388931207
81.49457421097436
81.74667078294797
81.76637845863792
82.67019352903284
82.18751454778996
82.36950621103134
82.5205109967057
93.05760794372375
85.26204484580288
83.86378180478121
84.14365864849552
158.347645079203
120.5571471840448
87.74229810433948
82.08344311959007
81.64005392668071
82.57335571683038
84.61630528215683
82.07912941014071
81.43362790445661
82.56761525951723
85.2945515182562
82.50698564202737
81.15709004731838
82.48082017316609
85.94968667943996
82.89853897503716
80.87775816522091
82.31286402879088
86.4490723508769
83.58709680989597
80.07908865625241
80.63880121516104
85.69175368819892
90.98665983418613
80.19128866146909
81.12354365331176
86.371423857026
87.50957239395538
80.36116022419684
81.63900784842694
86.77397793771759
85.83751214052376
80.59966025097178
82.02324035193881
86.80860140432756
84.74258334990115
97.50850268773199
83.76513108281318
80.22875742011158
80.0222810515744
98.27350138202907
82.71482451859885
80.10847756142465
80.00718970181138
97.95089592846811
81.90766906433318
80.05407624874428
80.001902715775
96.38508991526938
81.27049943159014
80.01262423958551
80.00023343515259
95.23498993832827
80.53778905298886
80.00134650104496
80.00009435601159
94.00067431501775
80.38548927012999
80.00091100109333
80.00000611632666
91.39560873753391
80.23457453113784
80.00014606530951
80.0000000276608
88.34437693177317
80.14459868717015
80.00003799655551
79.99999994537085
80.00000000002807
80.00000016396199
80.01345673577195
81.8803488501609
80.00000000026193
80.00000048100623
80.01669055120955
82.76389866727736
80.00000000110963
80.00000187755403
80.03089510930657
83.82259011752262
80.00000001233936
80.00000824563634
80.06380964367763
85.40755832495566
83.5239922429587
85.09528125904511
87.64369064125056
92.78683525877717
85.09528125933387
87.15060677302621
90.99717851200619
98.69104162619186
87.6436906413917
90.99717851197158
97.31194585670431
106.820808052778
92.78683525892211
98.69104162588275
106.8208080531846
117.1819681247377
127.9924068090958
119.0251793842677
115.1013373875617
106.8655729195471
126.2796912246707
123.6456345101563
123.6040564842784
119.5301054980544
126.3198279968446
125.4943291954493
125.0506685812681
123.6401283250929
123.7373543529038
123.3302707509928
123.2434685657005
122.3928736921011
119.676794653924
117.8559423496667
114.2518162616855
109.3401037707333
119.942913825911
118.0398080973348
114.3867964479837
109.8050872054193
120.278600087293
118.221578343033
114.3689927000819
110.2398980943276
120.4533797158683
118.1133167387094
114.5207735929006
108.5601466070233
82.83050147811666
71.90503523989567
70.60491452518133
70.9854765323791
75.8208685721106
69.03043247927653
69.657062386281
70.38172137956657
69.99731321416243
68.89583877287319
70.22943191709663
70.92987919835791
60.7366083030175
66.59796648855561
69.23780882726982
70.19842133023033
70.93006408759203
71.29234349565353
72.10772111576894
73.05114494835951
70.47274853052639
70.85093747400488
71.7355300479429
72.92902712619504
70.90449336376579
71.13421479746827
71.87251005762728
72.80675503969408
70.29690413851439
70.61807701784954
71.55368260710895
72.8465589630942
78.67362147290476
114.0349629676324
165.0705331274566
181.427455410881
81.36342771274141
121.5216102635534
162.539233239666
173.2945926781546
83.49449535495359
125.2963615082247
161.3139363309693
171.9958624964005
84.86368243254702
130.7123215563692
161.6592517393188
171.9729532330786
218.1625899626488
209.3375275844857
201.7906052401354
190.5375293368429
219.3305157436762
212.1165579462662
203.9476652763856
192.3780754608712
218.3263383816367
213.6472127124947
205.0481315870487
193.4987763036284
213.2095756419289
215.5721358009524
206.9710409786165
195.2368112715769
178.1483897058902
167.8956028963142
158.2746249102407
153.3866648883305
180.1467153850336
169.2800070433119
158.9647452367704
153.7600033876016
181.2952170589532
169.4890477191497
159.512499649657
153.7252903455342
183.7015424574699
170.9142755158318
161.1739193987936
154.8235048877053
148.5697857548553
140.6582033407981
126.7741750438703
105.8850743309456
149.2635927383163
142.1818839378003
128.8939446258647
114.3599935475228
149.2079411918136
142.6097644014156
130.6897935822962
119.6674711337117
150.3700927755465
144.9549148600837
134.043700525039
134.5834640182996
64.62302746157043
16.54899317029522
2.690614255304975
1.28362263562071
49.95163193288015
10.39446619678329
2.242191288135414
1.464414691793849
34.73868273965905
6.571949250056377
1.963428524486526
1.620810615265455
19.55113723275724
3.060999839968356
1.726197885966028
1.813266506799029
1.929261874031873
4.153508248373113
6.785752877013279
10.67158565007885
2.736359178860877
5.087887024388357
7.800710169541185
11.94482568494355
3.199562667809214
5.472982827567104
8.646003594476106
12.6469559195321
3.753868326341035
6.199472507196077
10.09295522701152
13.79309537544691
12.51725918399866
18.9402773702143
26.03303797663334
34.74105722190603
12.12981464968404
17.87731241465758
24.72001015165104
33.23099195398153
12.44052338249934
16.35108134831738
22.87552053089485
32.23957117001004
11.69547763092182
14.46077690577948
19.06070391971666
30.28213683057471
35.03385017419671
33.20772194621809
32.54788687417844
33.17745692194262
31.86522866094536
31.78646408604483
32.24761055383815
32.35378200511929
31.01256338494055
32.65717454230706
32.9867086033376
33.02247848189777
29.23684929025605
31.45586555270354
31.77609371070169
32.50250211886231
32.92042916973026
33.23134932718953
33.49134399232422
33.61788966415935
32.97862118563255
32.93621245174706
32.8447236880406
32.95091333374394
32.92856953108609
33.39767740113415
33.83631023835614
34.09494887351173
34.75150046429942
35.80222740572391
36.54012520604128
36.54219570752879
33.61788966416118
32.95091333373485
34.09494887352369
36.54219570753332
33.49134399233748
32.84472368803082
33.83631023836215
36.54012520605576
33.23134932717093
32.9362124517658
33.39767740118418
35.80222740575649
32.92042916978781
32.97862118562156
32.92856953111765
34.75150046433421
33.17745692205146
32.54788687420608
33.20772194628131
35.03385017423623
32.35378200514182
32.2476105538863
31.78646408609088
31.86522866099223
33.02247848195
32.98670860342257
32.65717454234866
31.01256338499755
32.50250211888066
31.77609371073058
31.45586555274808
29.23684929030676
30.28213683066618
19.06070391984312
14.46077690588062
11.69547763100755
32.23957117008793
22.87552053096968
16.35108134842419
12.44052338262344
33.23099195405953
24.72001015175945
17.87731241477117
12.12981464978523
34.74105722196872
26.03303797674402
18.94027737029672
12.51725918414802
10.67158565013957
6.78575287704149
4.153508248335515
1.929261874061462
11.94482568500101
7.800710169587893
5.087887024377418
2.736359178865199
12.64695591959594
8.64600359454238
5.472982827562227
3.199562667805539
13.79309537551013
10.09295522705916
6.199472507212121
3.753868326339731
1.283622635659355
2.690614255268011
16.54899317017108
64.62302746155322
1.464414691811353
2.242191288121275
10.39446619671902
49.95163193286367
1.620810615266094
1.963428524475733
6.571949250055848
34.73868273971021
1.813266506795489
1.726197885954476
3.060999839968527
19.55113723276696
105.8850743310038
126.7741750438475
140.658203340538
148.5697857549064
114.3599935473917
128.893944625646
142.1818839377015
149.2635927380435
119.6674711337226
130.6897935821398
142.6097644015881
149.2079411917665
134.5834640184235
134.0437005247711
144.9549148602468
150.3700927753956
153.3866648882687
158.2746249099726
167.8956028960983
178.1483897052544
153.7600033875182
158.9647452367549
169.2800070424596
180.146715384329
153.7252903457466
159.5124996492912
169.4890477184261
181.2952170583789
154.8235048875639
161.1739193986395
170.9142755154396
183.7015424570014
190.5375293364129
201.7906052398271
209.3375275842106
218.1625899627412
192.3780754606162
203.9476652761468
212.1165579458978
219.3305157437312
193.4987763034909
205.0481315867747
213.6472127122685
218.3263383815729
195.2368112714786
206.9710409784687
215.5721358004336
213.2095756421976
181.4274554108831
165.0705331271972
114.0349629676957
78.67362147318715
173.2945926780704
162.5392332394923
121.5216102635936
81.36342771304031
171.9958624963102
161.3139363308217
125.2963615082148
83.49449535526607
171.9729532327669
161.6592517391754
130.7123215563552
84.86368243287006
73.05114494858141
72.10772111549593
71.29234349513894
70.93006408721629
72.92902712645059
71.73553004784944
70.85093747347885
70.47274853030488
72.80675503997342
71.87251005747389
71.13421479696187
70.90449336354463
72.84655896336915
71.55368260688124
70.61807701732465
70.29690413814338
70.98547653193511
70.60491452483771
71.90503524002405
82.83050147825459
70.3817213791371
69.65706238586388
69.03043247949643
75.82086857219747
70.92987919792978
70.22943191666489
68.89583877312856
69.99731321421187
70.19842132979474
69.2378088267556
66.5979664887966
60.73660830309753
109.3401037707674
114.2518162617061
117.8559423499737
119.6767946537998
109.8050872054492
114.3867964482375
118.0398080975014
119.9429138256655
110.2398980943134
114.3689927000619
118.2215783430834
120.2786000871098
108.5601466070002
114.5207735931671
118.1133167390213
120.4533797157091
122.392873691502
123.6401283241012
119.5301054973132
106.8655729195249
123.2434685648296
125.0506685803905
123.6040564830212
115.1013373870705
123.3302707503061
125.4943291943946
123.6456345086951
119.0251793831382
123.7373543521668
126.3198279959103
126.2796912227776
127.9924068069526
54.09190812542897
71.27153735136869
77.56391202465301
79.75944175318514
50.8185584496105
69.89468601203308
76.9356955099538
79.66603773476822
48.22200949539634
68.23886482310304
76.32176976388821
79.54989863376858
46.3989895369407
65.93400340004106
75.5043869734576
79.42096437966514
79.26092223764795
73.28912742363219
58.94012060197226
53.28222079119711
79.25270065984996
73.51425468100479
60.14525949505646
51.93660857765006
79.25460028896194
74.0148331127067
61.8625705034144
49.49667126271715
79.31311533090782
74.7320193691025
63.82098442850587
47.17462045658984
79.42096437944699
79.54989863367642
79.66603773459349
79.75944175289898
75.50438697320844
76.32176976377569
76.93569550953778
77.56391202437565
65.9340034001344
68.23886482302744
69.89468601217585
71.27153735155598
46.3989895369298
48.22200949533389
50.81855844960835
54.091908125499
)
;

boundaryField
{
    back
    {
        type            empty;
    }
    inlet
    {
        type            zeroGradient;
    }
    front
    {
        type            empty;
    }
    top
    {
        type            zeroGradient;
    }
    outlet
    {
        type            fixedValue;
        value           uniform 80;
    }
    bottom
    {
        type            zeroGradient;
    }
    wall
    {
        type            zeroGradient;
    }
}


// ************************************************************************* //
