/*--------------------------------*- C++ -*----------------------------------*\
  =========                 |
  \\      /  F ield         | OpenFOAM: The Open Source CFD Toolbox
   \\    /   O peration     | Website:  https://openfoam.org
    \\  /    A nd           | Version:  11
     \\/     M anipulation  |
\*---------------------------------------------------------------------------*/
FoamFile
{
    format      ascii;
    class       volScalarField;
    location    "0.359236";
    object      rho;
}
// * * * * * * * * * * * * * * * * * * * * * * * * * * * * * * * * * * * * * //

dimensions      [0 0 0 0 0 0 0];

internalField   nonuniform List<scalar> 
880
(
0.2239950333699092
0.2239950336977215
0.2240219311961134
0.2277382398199067
0.2239950333702082
0.223995034333608
0.2240283849879609
0.2294906792414141
0.2239950333717012
0.2239950371321023
0.2240567385540268
0.2315875307523922
0.2239950333941023
0.2239950499075351
0.2241222552027262
0.2347099869784612
0.223995033259515
0.2239950334139612
0.2239950459401247
0.2239952242250021
0.2239951096726625
0.2239953271703806
0.2239968608647452
0.2239977477402623
0.2242817659611682
0.2244566849360119
0.2247513431578798
0.2250683376925137
0.2401924783482483
0.2455343251521419
0.2500084821308745
0.2520201846229366
0.2239955037668354
0.2239988445271587
0.2240094182073958
0.2240395952474163
0.224020168986867
0.2241022658197388
0.2242088527503445
0.2244460986880049
0.2264582990753852
0.2276524951638141
0.2291734862828657
0.2311937773513371
0.2539939445509499
0.2568432843891284
0.2574509049380683
0.2560354307924755
0.2436279854006926
0.2366721005276357
0.2331385306030531
0.230824933005855
0.2347449021831934
0.2358606681236631
0.2365383484992284
0.2365730216206612
0.2252532853126854
0.2262087688309785
0.227217075380321
0.2279428548441733
0.2241532000055061
0.2243777845642183
0.2247180571512834
0.2251948678667653
0.2257495194971149
0.2263070059921533
0.2268586594492414
0.2272746933572151
0.2284637077863257
0.2287683347546931
0.2289177019296779
0.228956239592471
0.2358869480163867
0.2349358129305553
0.2336846434200499
0.2323892225079086
0.2284543783893098
0.2270998762737759
0.2263600907998706
0.2255256181212062
0.2257913949252222
0.2314865506905172
0.2288735374214594
0.2275322265971104
0.2365886431234468
0.2310972117222698
0.2286240035199364
0.2274951267450704
0.2954155154324502
0.2338487930631373
0.2283256693395834
0.2269978102060291
0.3573531941394276
0.2486712344433567
0.2292792742999366
0.2268111462976427
0.2267524084587177
0.2306964165893283
0.2665977324175765
0.3845281113959189
0.2257541399833352
0.2332911259391598
0.2862189848724131
0.3841151861506571
0.2261775320344635
0.2392094249277773
0.311679600355478
0.3875968390277147
0.2277762696865229
0.2496191655709603
0.3348897219172157
0.3832617504839427
0.3736731897130051
0.3470975740045494
0.265150964622177
0.2312645348457971
0.3618911818464426
0.3484420131286862
0.2820883405474311
0.2373725877289644
0.3493507323142221
0.3444410285158662
0.2966028218601968
0.2469823033628649
0.3360857658760887
0.3272445529456949
0.2987920994314439
0.2586677996958942
0.2688481158928708
0.2915294527061238
0.305628123688689
0.3202638134516163
0.267470890542114
0.2769600507156936
0.2821379659342623
0.2973622368375762
0.2634547801554311
0.2629450765686157
0.2588575858592895
0.2680360490971362
0.2581466760274689
0.2516078694501883
0.2376536218991593
0.233081284868672
0.2537298753487522
0.2402838175936061
0.2167389956815678
0.1875799809758336
0.2465604384579332
0.2298995252295569
0.199000842260512
0.1311077102025582
0.2410505064498122
0.22559816987523
0.1852431777708619
0.0869181925969971
0.2363159206922968
0.2232416445997724
0.1728893569187722
0.05198499587493725
0.05321581034711857
0.1741786403912478
0.2213941588825347
0.2320721664583591
0.07253526050149879
0.1742443705733717
0.2201203856377976
0.229199383341634
0.07399479224576033
0.1723932274906595
0.2183943775562784
0.2272665456223432
0.06823140437249174
0.1690866368225477
0.2169799635394369
0.2262495706581354
0.08121611073229022
0.1750671667406476
0.216609192171235
0.2244899334321668
0.09692927158879748
0.1821352373885912
0.2169353409585297
0.223464734677492
0.1160787095113825
0.191440515691934
0.2176618296018304
0.2234194801179049
0.1390486570790345
0.1994238058557212
0.2188313789125542
0.2235311422070441
0.1554764192593508
0.175785976265784
0.2098487353697769
0.2225128421320044
0.1533132107447714
0.1786601377093077
0.2102829704851416
0.2224898325373169
0.1489452042263773
0.1829369041563482
0.2113252481580857
0.2224888436683067
0.1437272766490802
0.1876060092915057
0.2129160633191529
0.222613230126789
0.1390486570790495
0.1994238058557157
0.218831378912308
0.2235311422062458
0.1160787095115616
0.1914405156912572
0.2176618296013893
0.2234194801166468
0.09692927158883828
0.1821352373883555
0.2169353409579019
0.2234647346765488
0.08121611073240051
0.1750671667400564
0.2166091921709795
0.2244899334317221
0.2320721664588328
0.2213941588826624
0.174178640391038
0.05321581034631222
0.229199383341501
0.2201203856377019
0.1742443705728903
0.07253526050082261
0.2272665456225317
0.2183943775566287
0.1723932274897328
0.07399479224563826
0.2262495706584176
0.216979963540004
0.1690866368224346
0.06823140437238223
0.05198499587486462
0.172889356918633
0.2232416445998163
0.236315920692564
0.08691819259662303
0.185243177770905
0.2255981698753607
0.2410505064497296
0.1311077102022513
0.1990008422611566
0.2298995252297192
0.2465604384586496
0.1875799809760738
0.2167389956811932
0.2402838175927814
0.2537298753493022
0.2688481158937104
0.2915294527074359
0.3056281236895818
0.3202638134511895
0.2674708905420213
0.2769600507154674
0.2821379659348487
0.2973622368373221
0.2634547801547229
0.2629450765684432
0.258857585859367
0.2680360490971087
0.2581466760273364
0.2516078694497767
0.2376536218988184
0.2330812848689684
0.3360857658758187
0.3272445529455392
0.2987920994321919
0.2586677996975525
0.3493507323136287
0.3444410285156558
0.2966028218605581
0.2469823033631434
0.361891181846215
0.34844201312803
0.2820883405469886
0.2373725877297762
0.3736731897121036
0.3470975740050735
0.2651509646229069
0.2312645348458591
0.2267524084585185
0.2306964165893169
0.2665977324175308
0.3845281113951488
0.2257541399843196
0.2332911259394201
0.2862189848723252
0.3841151861496124
0.2261775320360343
0.2392094249292453
0.3116796003550703
0.3875968390272927
0.2277762696868413
0.2496191655709804
0.3348897219170218
0.3832617504833899
0.2268111462977603
0.2269978102058214
0.2274951267458604
0.2275322265972164
0.2292792742991522
0.228325669339032
0.2286240035204071
0.2288735374213649
0.2486712344424429
0.2338487930631613
0.2310972117217032
0.2314865506902663
0.3573531941382224
0.2954155154317304
0.2365886431238046
0.2257913949253001
0.2272746933577579
0.2289562395927582
0.2323892225082117
0.2255256181211655
0.2268586594485061
0.2289177019298416
0.2336846434200952
0.2263600907998448
0.226307005992159
0.2287683347546834
0.2349358129306396
0.2270998762731009
0.2257495194965617
0.2284637077856763
0.2358869480168844
0.228454378389434
0.2241532000053678
0.2252532853120726
0.2347449021834858
0.2436279854008734
0.2243777845638801
0.2262087688301145
0.2358606681240572
0.2366721005271887
0.2247180571520405
0.2272170753791464
0.2365383484991737
0.2331385306018026
0.2251948678664711
0.2279428548439361
0.2365730216209606
0.2308249330052865
0.2560354307922075
0.2311937773516017
0.2244460986876577
0.224039595248017
0.2574509049378964
0.229173486283059
0.2242088527500177
0.2240094182073858
0.2568432843889042
0.227652495163496
0.2241022658182368
0.2239988445270027
0.253993944550949
0.2264582990749035
0.2240201689863609
0.2239955037672292
0.252020184622652
0.2250683376926968
0.2239977477402281
0.2239952242259381
0.250008482129917
0.2247513431578448
0.2239968608643377
0.2239950459407107
0.2455343251513489
0.2244566849359055
0.2239953271701822
0.2239950334137216
0.2401924783476279
0.2242817659608356
0.2239951096722411
0.2239950332612173
0.2239950333699093
0.2239950336979472
0.2240219311961723
0.2277382398196837
0.2239950333704065
0.2239950343328749
0.2240283849881597
0.2294906792410771
0.2239950333721685
0.2239950371315927
0.2240567385540779
0.2315875307529993
0.2239950333946447
0.2239950499073844
0.2241222552028295
0.2347099869787724
0.2309860240013891
0.2340818142435651
0.2390621424055731
0.2488978818925154
0.2340818142441492
0.238117299460259
0.2455746978739255
0.2600339981328084
0.2390621424058249
0.2455746978738124
0.2575887941588675
0.2748615960607851
0.2488978818928535
0.2600339981320727
0.2748615960615406
0.292812740707673
0.3104166327920391
0.2953224913796931
0.289112797090304
0.2745362551299972
0.3072130852315546
0.3028630525411361
0.3034057680771454
0.2963689205798885
0.3073448836559741
0.3059054793658018
0.3051217220591058
0.3025786622119228
0.3028575645527801
0.3020908840073071
0.3018049145420765
0.3000916335640684
0.2950240125768423
0.2917401273918616
0.2853881267740817
0.2766609340518512
0.2958574462035075
0.2924022264997151
0.2858384028111929
0.2774974362586407
0.2966768955606477
0.2929358194056239
0.2859251213237299
0.2782979052850331
0.2970753779839961
0.2928005444566227
0.2862005317972528
0.2758410564384025
0.2263160520117191
0.2042670321382447
0.2017444564163994
0.202624929992435
0.2115210440390174
0.1977466593065614
0.1990277467142807
0.2006370808444554
0.1993451714021927
0.1972927236917874
0.2000145450992011
0.201485570995865
0.180941760758093
0.1925853874956208
0.1978577664769023
0.19991020434763
0.2023253147048844
0.2029380520406748
0.2046257169744795
0.2066685892438605
0.2009345673160795
0.2018168523803225
0.2037636606835907
0.2063170199698141
0.2016265940377222
0.202270720157271
0.2039852918134947
0.2060235146852963
0.2003334754292969
0.2011786503977719
0.2033035827554788
0.206092540932261
0.2180897794952738
0.2812245167580941
0.3614442421340796
0.3822065789479813
0.2229325953014976
0.2927330975330215
0.3544347278034544
0.3674467119838458
0.2263443800385454
0.2975605286656114
0.3517792349962774
0.3643076018706597
0.2283716171666707
0.3061291268589761
0.3524199553162822
0.3640316178102327
0.4398970585086676
0.4300654047533742
0.4215545882433707
0.4060842201714029
0.4369342311363633
0.4303676164330147
0.4218069637510105
0.4064955077608276
0.4312654010490211
0.4288337343954745
0.4202850561680646
0.4055026627506274
0.4223955458870235
0.4303392289358977
0.4216465754848873
0.4068341170925709
0.3875014612432532
0.3713089273745327
0.3555408640981069
0.3469265891469658
0.3887684596149807
0.3719727304512535
0.3555329066250446
0.3465954108453258
0.3881574734316716
0.3703912825288465
0.3547424478961207
0.3453439289358761
0.3906694691608163
0.3717219855273192
0.356460658336047
0.3464652071713133
0.3381630830818788
0.3240653728063262
0.3003142746961533
0.2623605648746022
0.3387633138042233
0.3267217028968387
0.3038970617742486
0.2701431000766926
0.3380921229320301
0.3272109527223493
0.3035346197260816
0.2700298577189829
0.3396838909506863
0.3305056951965731
0.3044647858170665
0.3119512330676896
0.1731391581249568
0.05034377518958015
0.008911933778503373
0.004212803112545868
0.1365655474458238
0.0344846022837076
0.01027400051866673
0.008104240428798402
0.1037545873138261
0.02499455224562679
0.01089997850171558
0.009786693477305805
0.07437612511775286
0.0151646070031805
0.01060714413230221
0.01059519696071523
0.007180922525631744
0.01439560984410113
0.0201657592234599
0.02856987697689443
0.01249886730603121
0.01872662563025424
0.02471770834852802
0.03400881962925992
0.01535751623311048
0.02183515746411163
0.02993100613551614
0.03977559173963403
0.01757990809866884
0.02469623767576427
0.03513803046058191
0.04478699862212373
0.03597864702577881
0.05195655885515359
0.0715627759085995
0.0954240992738167
0.03896835419181763
0.05280896344619523
0.07024358924369736
0.09111900740808578
0.04275492117978606
0.05287654175703904
0.06805803832513853
0.08778036342414174
0.04171627372246496
0.04958592668545202
0.0599565003960153
0.08265011554694073
0.09972287572091265
0.09878553494258424
0.09918757063117906
0.1010378455496864
0.09008944733772686
0.09155979250128808
0.09365986664565372
0.09517701742076552
0.08610361156382655
0.09010302544939756
0.09206423367224627
0.09461475586307802
0.08127593423042863
0.08658442685778452
0.08919855417611317
0.09399553801077402
0.09891498476423173
0.1032402033299852
0.106021919910626
0.1069890426189344
0.09791346398374959
0.1011867976190293
0.1034642119885304
0.1045903723389365
0.09812563943994274
0.1013573396411257
0.1046580049690951
0.1063074015997986
0.1051230676428241
0.1089086890226875
0.1123102477496406
0.1130949429510705
0.1069890426189489
0.1045903723389146
0.1063074015998318
0.1130949429510616
0.1060219199107088
0.103464211988535
0.1046580049691145
0.1123102477496219
0.1032402033299909
0.1011867976191495
0.1013573396412991
0.108908689022742
0.09891498476449426
0.09791346398375758
0.09812563944005313
0.105123067642895
0.1010378455499896
0.09918757063125692
0.0987855349427077
0.09972287572097781
0.09517701742082529
0.0936598666457755
0.09155979250136778
0.09008944733781839
0.09461475586326104
0.09206423367250763
0.09010302544950283
0.08610361156397371
0.0939955380108695
0.08919855417621034
0.08658442685791772
0.08127593423057493
0.08265011554717519
0.05995650039635631
0.04958592668572455
0.04171627372270611
0.08778036342433596
0.06805803832529708
0.05287654175731232
0.04275492118013912
0.09111900740826927
0.07024358924396168
0.05280896344647005
0.03896835419206315
0.09542409927396305
0.07156277590887695
0.05195655885532978
0.03597864702615853
0.02856987697706785
0.02016575922354633
0.01439560984402484
0.007180922525570503
0.03400881962942411
0.02471770834866214
0.01872662563024626
0.01249886730603751
0.03977559173980839
0.02993100613570244
0.02183515746410901
0.01535751623310373
0.04478699862228876
0.0351380304606999
0.02469623767580654
0.01757990809866383
0.004212803112458168
0.008911933778340732
0.05034377518920064
0.1731391581247731
0.008104240428788106
0.01027400051860443
0.03448460228351603
0.1365655474457019
0.009786693477302362
0.01089997850166988
0.02499455224558239
0.103754587313829
0.01059519696068602
0.01060714413225558
0.01516460700314888
0.07437612511768305
0.262360564874574
0.3003142746958944
0.3240653728054444
0.338163083081821
0.2701431000762288
0.3038970617736439
0.3267217028964767
0.3387633138033531
0.2700298577188757
0.303534619725712
0.3272109527228255
0.3380921229318015
0.311951233067571
0.3044647858164812
0.3305056951970578
0.3396838909502021
0.3469265891464943
0.3555408640972705
0.3713089273741464
0.3875014612418533
0.3465954108448479
0.3555329066249888
0.3719727304495521
0.3887684596136265
0.3453439289362405
0.354742447895206
0.3703912825274997
0.388157473430598
0.3464652071707795
0.3564606583355845
0.3717219855265348
0.3906694691600361
0.4060842201705925
0.4215545882429609
0.4300654047530206
0.4398970585089851
0.4064955077604966
0.4218069637505292
0.4303676164323397
0.436934231136702
0.4055026627505401
0.4202850561676733
0.4288337343953764
0.4312654010489118
0.4068341170925566
0.4216465754846997
0.4303392289349297
0.4223955458878599
0.3822065789479919
0.3614442421336586
0.2812245167582688
0.2180897794958565
0.3674467119837481
0.3544347278032326
0.2927330975331676
0.2229325953020719
0.3643076018705968
0.3517792349961408
0.2975605286656893
0.2263443800391426
0.3640316178094805
0.3524199553161537
0.3061291268590578
0.228371617167293
0.2066685892442162
0.2046257169737442
0.2029380520395118
0.2023253147039839
0.2063170199702676
0.2037636606833817
0.2018168523792216
0.2009345673156177
0.2060235146858184
0.2039852918131961
0.2022707201562378
0.2016265940373103
0.2060925409327735
0.2033035827549842
0.2011786503967092
0.2003334754285513
0.2026249299914937
0.2017444564156743
0.2042670321384503
0.2263160520119316
0.2006370808435388
0.1990277467134328
0.1977466593069792
0.2115210440391379
0.2014855709949649
0.2000145450983665
0.1972927236923354
0.1993451714022474
0.199910204346717
0.1978577664759028
0.1925853874961681
0.1809417607582466
0.2766609340518514
0.2853881267740085
0.2917401273922849
0.2950240125766067
0.2774974362586165
0.2858384028117489
0.2924022264998237
0.2958574462030046
0.278297905285077
0.285925121323665
0.292935819405546
0.2966768955603494
0.2758410564383343
0.2862005317978781
0.2928005444572954
0.2970753779837229
0.3000916335630801
0.3025786622100799
0.2963689205785366
0.2745362551298803
0.3018049145404603
0.3051217220577643
0.3034057680749608
0.2891127970893298
0.3020908840061995
0.3059054793641617
0.302863052539051
0.2953224913778698
0.3028575645514684
0.3073448836546983
0.3072130852287821
0.3104166327888133
0.1499154346200748
0.200657976879218
0.2185670269253581
0.2235520871675571
0.1465637777014466
0.1988682950954547
0.2174186083046595
0.2233523658456731
0.1435238940363599
0.196407266481063
0.2163008422494201
0.2231149429567851
0.1411690500907681
0.1921317235902653
0.214628933320483
0.222845717165125
0.222512842131903
0.2098487353698356
0.1757859762657356
0.1554764192596038
0.222489832537083
0.2102829704850835
0.1786601377092226
0.1533132107447389
0.222488843668191
0.2113252481582205
0.1829369041561991
0.1489452042265323
0.2226132301265113
0.2129160633189317
0.1876060092914079
0.1437272766492691
0.2228457171646163
0.2231149429565764
0.2233523658451054
0.223552087166711
0.2146289333198866
0.2163008422491857
0.2174186083037143
0.2185670269246174
0.1921317235904648
0.196407266480744
0.1988682950956378
0.2006579768795713
0.1411690500907894
0.1435238940362505
0.1465637777014376
0.149915434620241
)
;

boundaryField
{
    back
    {
        type            empty;
    }
    inlet
    {
        type            calculated;
        value           nonuniform List<scalar> 
16
(
0.2239950333699092
0.2239950333702082
0.2239950333717012
0.2239950333941023
0.223995033259515
0.2239950334139612
0.2239950459401247
0.2239952242250021
0.2239952242259381
0.2239950459407107
0.2239950334137216
0.2239950332612173
0.2239950333699093
0.2239950333704065
0.2239950333721685
0.2239950333946447
)
;
    }
    front
    {
        type            empty;
    }
    top
    {
        type            calculated;
        value           nonuniform List<scalar> 
40
(
0.2239955037668354
0.2239988445271587
0.2240094182073958
0.2240395952474163
0.2241532000055061
0.2243777845642183
0.2247180571512834
0.2251948678667653
0.2257495194971148
0.2263070059921533
0.2268586594492414
0.227274693357215
0.2275322265971104
0.2274951267450704
0.2269978102060291
0.2268111462976427
0.2267524084587177
0.2257541399833352
0.2261775320344635
0.2277762696865229
0.2312645348457971
0.2373725877289644
0.2469823033628649
0.2586677996958942
0.2688481158928708
0.267470890542114
0.2634547801554311
0.2581466760274689
0.2537298753487522
0.2465604384579332
0.2410505064498122
0.2363159206922968
0.2320721664583592
0.229199383341634
0.2272665456223432
0.2262495706581354
0.2244899334321668
0.223464734677492
0.2234194801179049
0.2235311422070441
)
;
    }
    outlet
    {
        type            calculated;
        value           uniform 0.2239950333699093;
    }
    bottom
    {
        type            calculated;
        value           nonuniform List<scalar> 
40
(
0.2235311422062458
0.2234194801166468
0.2234647346765488
0.224489933431722
0.2320721664588328
0.229199383341501
0.2272665456225317
0.2262495706584176
0.2363159206925639
0.2410505064497296
0.2465604384586496
0.2537298753493022
0.2688481158937104
0.2674708905420213
0.2634547801547229
0.2581466760273364
0.2586677996975525
0.2469823033631434
0.2373725877297761
0.2312645348458591
0.2267524084585185
0.2257541399843196
0.2261775320360343
0.2277762696868413
0.2268111462977603
0.2269978102058214
0.2274951267458604
0.2275322265972163
0.2272746933577579
0.2268586594485062
0.226307005992159
0.2257495194965617
0.2241532000053678
0.2243777845638801
0.2247180571520406
0.2251948678664711
0.224039595248017
0.2240094182073858
0.2239988445270027
0.2239955037672292
)
;
    }
    wall
    {
        type            calculated;
        value           nonuniform List<scalar> 
104
(
0.3104166327920391
0.3072130852315546
0.3073448836559741
0.3028575645527801
0.2970753779839961
0.2928005444566227
0.2862005317972528
0.2758410564384025
0.180941760758093
0.1925853874956208
0.1978577664769023
0.19991020434763
0.2003334754292969
0.2011786503977719
0.2033035827554787
0.206092540932261
0.2283716171666707
0.3061291268589761
0.3524199553162822
0.3640316178102327
0.4223955458870235
0.4303392289358977
0.4216465754848873
0.4068341170925709
0.3906694691608163
0.3717219855273192
0.356460658336047
0.3464652071713133
0.3396838909506863
0.3305056951965731
0.3044647858170665
0.3119512330676896
0.07437612511775286
0.0151646070031805
0.01060714413230221
0.01059519696071523
0.01757990809866884
0.02469623767576427
0.03513803046058191
0.04478699862212373
0.04171627372246496
0.04958592668545202
0.0599565003960153
0.08265011554694073
0.08127593423042863
0.08658442685778452
0.08919855417611317
0.09399553801077402
0.09891498476423173
0.1032402033299852
0.106021919910626
0.1069890426189344
0.1069890426189489
0.1060219199107088
0.1032402033299909
0.09891498476449426
0.0939955380108695
0.08919855417621034
0.08658442685791772
0.08127593423057493
0.08265011554717519
0.05995650039635632
0.04958592668572455
0.04171627372270611
0.04478699862228876
0.0351380304606999
0.02469623767580654
0.01757990809866383
0.01059519696068602
0.01060714413225558
0.01516460700314888
0.07437612511768305
0.311951233067571
0.3044647858164812
0.3305056951970578
0.3396838909502021
0.3464652071707795
0.3564606583355846
0.3717219855265348
0.3906694691600361
0.4068341170925566
0.4216465754846997
0.4303392289349297
0.4223955458878599
0.3640316178094805
0.3524199553161537
0.3061291268590578
0.228371617167293
0.2060925409327735
0.2033035827549842
0.2011786503967093
0.2003334754285513
0.199910204346717
0.1978577664759027
0.1925853874961681
0.1809417607582466
0.2758410564383343
0.2862005317978781
0.2928005444572954
0.2970753779837229
0.3028575645514684
0.3073448836546983
0.3072130852287821
0.3104166327888133
)
;
    }
}


// ************************************************************************* //
