/*--------------------------------*- C++ -*----------------------------------*\
  =========                 |
  \\      /  F ield         | OpenFOAM: The Open Source CFD Toolbox
   \\    /   O peration     | Website:  https://openfoam.org
    \\  /    A nd           | Version:  11
     \\/     M anipulation  |
\*---------------------------------------------------------------------------*/
FoamFile
{
    format      ascii;
    class       volScalarField;
    location    "12.6";
    object      p;
}
// * * * * * * * * * * * * * * * * * * * * * * * * * * * * * * * * * * * * * //

dimensions      [0 2 -2 0 0 0 0];

internalField   nonuniform List<scalar> 
5472
(
97.862711
95.540289
93.212176
90.921208
88.657279
86.418248
84.262335
82.189158
80.209331
78.341157
76.577958
74.950397
73.435515
72.076183
70.871649
69.812194
69.00763
68.368051
67.887531
98.604711
96.452311
94.283654
92.123566
89.964486
87.820088
85.74206
83.728022
81.788043
79.946847
78.20799
76.587694
75.076109
73.72084
72.513017
71.457167
70.635942
69.917171
69.415597
99.283277
97.321614
95.321223
93.285748
91.235375
89.196436
87.19411
85.232617
83.357725
81.530787
79.810654
78.191529
76.69345
75.340607
74.124217
73.0874
72.226363
71.510203
71.015563
99.891168
98.113052
96.271333
94.378275
92.447292
90.495344
88.580688
86.69865
84.862898
83.086485
81.397425
79.780388
78.289307
76.933774
75.719211
74.672988
73.795769
73.097425
72.577844
100.46541
98.839453
97.127635
95.371038
93.554054
91.71364
89.877825
88.063789
86.298172
84.568935
82.91215
81.324267
79.840383
78.49601
77.280021
76.240943
75.366357
74.663322
74.138924
100.97336
99.476445
97.900081
96.277766
94.589787
92.858979
91.106372
89.38582
87.686983
85.9956
84.364852
82.804496
81.350266
80.015634
78.81173
77.783765
76.903178
76.21483
75.700371
101.40289
100.02653
98.590682
97.095381
95.519963
93.897946
92.248125
90.618015
88.985972
87.358926
85.765259
84.236858
82.80622
81.492124
80.310537
79.284871
78.408529
77.708515
77.171962
101.78891
100.52034
99.199543
97.811666
96.360797
94.862519
93.314626
91.756645
90.196302
88.650188
87.109041
85.618463
84.208405
82.910812
81.752639
80.74594
79.88678
79.209811
78.69462
102.09394
100.9651
99.773607
98.478546
97.129246
95.73257
94.294751
92.824351
91.333174
89.84793
88.363943
86.933556
85.561589
84.28906
83.150901
82.145052
81.295386
80.623686
80.110995
102.34614
101.33117
100.24904
99.070854
97.832226
96.520994
95.187487
93.819114
92.41489
90.984436
89.556595
88.168184
86.832263
85.610676
84.504251
83.519525
82.687002
82.015971
81.510329
102.60938
101.69189
100.68362
99.592281
98.447304
97.237768
95.996432
94.712009
93.398034
92.039842
90.688147
89.344296
88.056204
86.863918
85.776812
84.822708
84.009261
83.351478
82.857061
102.80658
101.98016
101.07548
100.09534
99.021204
97.900386
96.752964
95.554484
94.307561
93.011377
91.726124
90.452132
89.218491
88.056598
87.009634
86.074882
85.279853
84.635301
84.14814
102.99223
102.22617
101.39348
100.49181
99.518327
98.502439
97.43111
96.314085
95.143435
93.932438
92.704002
91.486947
90.307602
89.18639
88.171926
87.255398
86.486788
85.859325
85.390058
103.1408
102.46554
101.71879
100.88075
99.976881
99.030505
98.034671
97.001043
95.89971
94.756683
93.593012
92.443031
91.318461
90.252505
89.272383
88.38554
87.634365
87.017326
86.563268
103.26681
102.62811
101.95996
101.21887
100.39674
99.513295
98.593159
97.634614
96.615662
95.541203
94.429696
93.33384
92.256931
91.241729
90.297305
89.447869
88.724466
88.132687
87.689446
103.39659
102.83275
102.20434
101.5071
100.7589
99.943242
99.089616
98.191698
97.24063
96.235906
95.198925
94.15783
93.138039
92.162317
91.247486
90.431291
89.722719
89.16137
88.743484
103.47932
102.9815
102.41171
101.77673
101.08739
100.34367
99.557224
98.713344
97.816785
96.86955
95.899617
94.916513
93.957835
93.024054
92.150685
91.361602
90.677118
90.129622
89.720725
103.59749
103.13194
102.60462
102.01914
101.37718
100.69318
99.966991
99.182564
98.339399
97.449539
96.532066
95.605865
94.695014
93.805276
92.971995
92.211227
91.563245
91.037707
90.645873
103.6831
103.26981
102.79409
102.25304
101.65202
101.01692
100.34316
99.612669
98.823721
97.985861
97.116138
96.241191
95.373423
94.527117
93.72325
92.990783
92.360175
91.85829
91.49109
103.77819
103.39813
102.95915
102.45602
101.90211
101.30889
100.67481
99.992056
99.254273
98.468341
97.649445
96.820395
95.993664
95.183628
94.417929
93.723005
93.105246
92.604438
92.244624
103.87498
103.53694
103.1346
102.66994
102.15591
101.59659
100.99581
100.34945
99.647774
98.90294
98.12843
97.334099
96.542309
95.764712
95.027907
94.369706
93.798065
93.328913
92.967838
103.95529
103.64973
103.2853
102.85649
102.37828
101.86082
101.30013
100.68912
100.02155
99.312868
98.575355
97.81857
97.053543
96.287579
95.557977
94.890053
94.314858
93.867921
93.542676
104.06948
103.79553
103.45986
103.06074
102.6101
102.1156
101.57839
100.99485
100.36152
99.685424
98.975108
98.255029
97.538665
96.825357
96.145199
95.516435
94.949525
94.478781
94.119829
104.14439
103.91631
103.62366
103.26993
102.85844
102.39506
101.88055
101.31296
100.68929
100.01357
99.301073
98.565124
97.828171
97.099952
96.408498
95.782634
95.254643
94.840152
94.52229
104.23319
104.03695
103.78155
103.46629
103.09244
102.66883
102.19852
101.6804
101.1102
100.48792
99.820708
99.125215
98.412879
97.697339
97.004274
96.343876
95.757666
95.277889
94.920594
104.31287
104.16808
103.95911
103.6744
103.31717
102.89163
102.40395
101.85756
101.25575
100.60921
99.919705
99.202485
98.472485
97.75372
97.06477
96.438531
95.906031
95.465592
95.135109
104.35693
104.29981
104.18111
103.99708
103.74269
103.41463
103.0086
102.52507
101.96956
101.34283
100.6557
99.920166
99.146278
98.358029
97.574564
96.843016
96.200331
95.677621
95.319962
67.612264
67.386929
67.388001
67.633023
67.967482
68.529662
69.209574
69.900906
70.771179
71.638505
72.638601
73.658336
74.760747
75.883537
77.024391
78.174511
79.310514
80.349177
81.317619
69.051013
68.914721
69.049208
69.29831
69.740047
70.405054
71.143406
72.025641
73.015638
74.066829
75.23663
76.439247
77.697177
78.951986
80.247501
81.531252
82.783281
83.934629
85.030366
70.64723
70.551437
70.668224
70.97372
71.534347
72.247008
73.114993
74.155912
75.255749
76.476395
77.788004
79.147247
80.529125
81.93502
83.337634
84.742695
86.077119
87.38423
88.581888
72.22537
72.127711
72.257498
72.652703
73.289166
74.087358
75.101223
76.24078
77.470339
78.831747
80.248425
81.717054
83.202713
84.696853
86.19859
87.685248
89.130654
90.543877
91.875152
73.753815
73.67792
73.848517
74.31473
75.02307
75.927981
77.046883
78.277057
79.630769
81.081041
82.596224
84.158402
85.716816
87.28714
88.85791
90.414005
91.940135
93.432791
94.881337
75.338709
75.247787
75.436696
75.971351
76.736357
77.745003
78.932155
80.276771
81.733491
83.267733
84.859397
86.476319
88.0959
89.727278
91.350274
92.955134
94.521452
96.062989
97.527451
76.792765
76.72728
76.992478
77.56984
78.415774
79.519421
80.779106
82.224797
83.738243
85.34908
86.989751
88.657093
90.327099
91.987667
93.631498
95.24169
96.796046
98.316256
99.720626
78.330502
78.259377
78.535848
79.157666
80.070685
81.2418
82.584824
84.090955
85.667816
87.332844
89.008428
90.714325
92.394841
94.05741
95.679441
97.241312
98.734201
100.15486
101.41988
79.734818
79.666418
80.019719
80.675727
81.674998
82.903554
84.311352
85.864351
87.492331
89.188368
90.888659
92.593168
94.253631
95.878084
97.424279
98.898575
100.26536
101.49913
102.56561
81.140017
81.121472
81.483349
82.179747
83.240016
84.497147
85.974324
87.551061
89.228367
90.934085
92.624598
94.300206
95.908113
97.448192
98.885082
100.21364
101.37649
102.40083
103.23953
82.493974
82.490711
82.869069
83.630367
84.717521
86.021789
87.540889
89.139048
90.839531
92.509573
94.184216
95.792483
97.314017
98.740651
100.0272
101.16983
102.14108
102.94707
103.55953
83.789355
83.806771
84.221425
85.017787
86.120353
87.479928
89.016459
90.639111
92.315512
93.951336
95.57192
97.075777
98.490259
99.767825
100.89047
101.85142
102.63475
103.26569
103.75296
85.03711
85.078805
85.518125
86.332539
87.45786
88.856895
90.387655
92.005474
93.638758
95.227295
96.754524
98.15118
99.445835
100.56333
101.52326
102.30494
102.94162
103.45786
103.84458
86.22576
86.28659
86.733834
87.566606
88.724769
90.141106
91.655051
93.255456
94.82748
96.340414
97.759116
99.041162
100.1887
101.14749
101.95966
102.58075
103.09889
103.47862
103.73493
87.35339
87.418574
87.882375
88.738268
89.916763
91.320432
92.814032
94.372156
95.864936
97.294271
98.602635
99.757557
100.75015
101.56614
102.22047
102.68794
103.05809
103.24659
103.33391
88.42385
88.482886
88.965016
89.837174
91.018823
92.394373
93.865858
95.355761
96.764231
98.09759
99.275223
100.29187
101.13467
101.8077
102.29329
102.61364
102.81157
102.84604
102.76676
89.41266
89.476354
89.985675
90.852677
92.025144
93.380148
94.8192
96.216747
97.543035
98.766038
99.809529
100.69304
101.38861
101.90992
102.23742
102.42938
102.49916
102.47242
102.37483
90.333392
90.409732
90.9226
91.774279
92.93634
94.25417
95.614075
96.943107
98.185962
99.286885
100.19985
100.95419
101.51407
101.89901
102.12196
102.24972
102.28502
102.28639
102.29934
91.185341
91.272094
91.767144
92.627696
93.780716
95.049855
96.357889
97.599991
98.74524
99.719246
100.51319
101.14068
101.58697
101.87741
102.05996
102.18616
102.26613
102.35424
102.45498
91.958804
92.039924
92.529103
93.386837
94.497392
95.731659
96.968178
98.133517
99.172394
100.03653
100.73884
101.26624
101.64191
101.88897
102.06977
102.23261
102.36811
102.51208
102.64564
92.668047
92.748269
93.244256
94.094593
95.187715
96.386215
97.536512
98.615196
99.553113
100.3314
100.95533
101.40115
101.7326
101.96947
102.17112
102.36298
102.52263
102.68532
102.81619
93.26975
93.351027
93.836667
94.661286
95.719401
96.827315
97.962331
98.989961
99.86592
100.58225
101.13423
101.53579
101.85234
102.09739
102.32184
102.51694
102.67487
102.80361
102.85884
93.823699
93.915624
94.407216
95.256469
96.302269
97.407833
98.455651
99.404487
100.21245
100.84785
101.3365
101.71695
102.00497
102.24734
102.45033
102.57884
102.66446
102.68718
102.60715
94.251431
94.333249
94.814566
95.635756
96.648906
97.714604
98.763846
99.690143
100.45152
101.05634
101.53913
101.91686
102.1999
102.41213
102.52716
102.56731
102.53681
102.37501
102.13055
94.638556
94.739428
95.281089
96.173747
97.226902
98.299166
99.273074
100.13281
100.83565
101.38094
101.78337
102.07227
102.2563
102.34441
102.3493
102.27448
102.08213
101.80196
101.51648
94.864969
94.959586
95.486785
96.34215
97.367376
98.426523
99.461015
100.34696
101.04274
101.57767
101.96559
102.22109
102.36222
102.38961
102.29315
102.07095
101.74713
101.38265
101.00004
95.0345
95.193134
95.876536
96.912647
98.07578
99.209469
100.18455
100.97034
101.54582
101.92147
102.1413
102.23186
102.17245
101.99743
101.72791
101.39569
101.04868
100.7104
100.42093
82.222853
82.987985
83.631539
84.162441
84.455197
84.605767
84.626725
84.307253
83.679956
82.966195
81.750525
79.920797
78.114054
76.121872
73.536298
71.014284
68.567968
66.554127
65.779206
85.995004
86.813332
87.456292
88.028244
88.370534
88.651454
88.789313
88.676587
88.30899
87.576462
86.491597
84.92632
82.849856
80.338522
77.464584
74.32803
70.904041
67.825511
65.092491
89.699645
90.583255
91.307887
91.931398
92.315031
92.690532
92.984447
92.957584
92.641837
92.047319
90.890376
88.974376
86.776802
83.924846
80.100042
75.63054
70.831788
65.917894
60.792981
93.123861
94.097481
94.917509
95.509383
96.019588
96.504948
96.849968
96.963052
96.686684
95.953089
94.595964
92.706966
90.12003
86.211071
81.278355
75.573095
68.846423
60.923037
52.099349
96.197644
97.249738
98.014802
98.642787
99.227511
99.782811
100.2292
100.3718
100.09731
99.396734
98.007342
95.874331
92.504766
87.692997
81.6763
74.332475
65.386572
54.582175
41.699477
98.856925
99.872605
100.59641
101.25917
101.89766
102.56433
103.02983
103.23682
103.10343
102.4159
100.97924
98.380829
94.21563
88.961167
83.169655
76.257644
67.794713
58.088109
43.074372
100.99512
101.91188
102.61331
103.29095
104.01152
104.69945
105.225
105.51069
105.34137
104.62219
103.14734
100.24243
95.925011
91.095402
85.722147
79.567295
72.448805
64.300275
55.092905
102.53847
103.32841
103.99002
104.63304
105.3274
105.94792
106.43159
106.62171
106.40309
105.70619
104.32468
101.89443
98.35731
94.332985
89.732412
84.693887
79.144168
73.152102
67.176066
103.46398
104.11297
104.66836
105.193
105.75605
106.19702
106.51281
106.58718
106.38059
105.8812
104.98406
103.3178
100.71919
97.490506
93.708325
89.595213
85.469912
81.392104
77.494036
103.89372
104.41717
104.83503
105.23208
105.61924
105.88249
106.04971
106.05833
106.04414
105.77811
105.00134
103.54629
101.36983
98.649437
95.697864
92.492673
89.340428
86.689587
84.688055
104.09061
104.51076
104.83163
105.16311
105.44771
105.6469
105.73602
105.71201
105.6254
105.15535
104.11425
102.31
99.985213
97.273422
94.634178
92.289863
90.06311
88.126369
86.87422
104.19675
104.51746
104.77334
105.02687
105.18313
105.18191
104.90962
104.64291
104.35306
103.36512
101.47822
98.898905
95.914859
92.884108
90.187119
88.265755
87.09192
86.521221
86.526061
104.18884
104.42958
104.65342
104.826
104.80202
104.55593
103.87738
102.81283
100.85649
98.348804
95.320397
91.71015
87.953076
84.552697
82.189777
80.95505
80.746618
81.515674
83.199042
103.92234
104.0893
104.33055
104.45302
104.38742
104.05519
103.09742
101.458
97.573101
92.522178
87.318457
81.660438
76.26901
71.785602
68.016164
65.63
66.095175
68.902488
73.104441
103.25987
103.35288
103.51257
103.53929
103.38807
102.98319
102.18203
100.83979
97.951991
92.675289
84.694805
75.337698
65.260338
55.76393
47.50272
41.864301
41.072956
45.507923
53.909877
102.50721
102.48215
102.46916
102.26401
101.80535
101.02416
99.778837
97.854084
94.561923
89.153377
81.775234
73.003186
63.624931
54.862049
48.378528
44.764481
45.370393
50.591093
59.091048
102.15116
102.10124
102.01342
101.75433
101.31567
100.63754
99.679406
98.288064
96.286772
93.355371
89.354084
84.536283
79.306835
74.077788
69.868632
67.282558
66.697169
68.611804
72.638199
102.2642
102.29
102.22936
102.10134
101.84191
101.48234
101.00375
100.2858
99.316221
97.968116
96.150093
93.887018
91.236023
88.429173
85.758954
83.383163
81.814012
81.732382
82.825879
102.58299
102.68087
102.68901
102.64298
102.54603
102.41575
102.2363
101.87783
101.38993
100.70764
99.728644
98.48289
96.939241
95.138137
93.199612
91.337042
89.92331
88.82964
88.020277
102.88288
103.06828
103.13563
103.14937
103.22548
103.29034
103.29962
103.18623
102.97738
102.58042
101.99521
101.15777
100.03071
98.720232
97.205615
95.368448
93.338552
91.173757
88.909086
103.06197
103.21376
103.29145
103.43394
103.59848
103.77438
103.83283
103.86438
103.97077
103.5955
102.42049
101.29876
100.5753
99.372494
97.29167
94.434106
90.864403
86.715965
82.594653
102.98122
103.07751
103.19607
103.38312
103.54276
103.6855
103.81306
103.77805
103.58779
103.22597
102.90971
102.41009
101.61211
100.27608
98.286332
95.715331
92.481675
88.722622
84.743568
102.52175
102.59721
102.79001
102.94594
103.09021
103.17766
103.31439
103.25257
103.15378
102.76065
101.61265
100.80899
99.983378
98.616157
97.09281
95.431557
93.669453
91.952815
90.472407
101.86483
101.92092
102.05057
102.14985
102.24312
102.26684
102.28908
102.16632
101.98069
101.80861
100.37331
97.867174
95.533004
93.961306
92.993216
92.541725
92.563114
93.030331
93.959208
101.21614
101.20985
101.25212
101.28534
101.27081
101.23474
101.21311
101.13506
100.88698
100.25654
99.311323
98.485652
97.417864
96.003172
94.266181
92.582992
92.016643
92.175774
92.962203
100.66549
100.56321
100.51573
100.44729
100.33423
100.20974
100.04903
99.826844
99.618109
99.294246
98.568165
97.666907
96.390945
94.852836
93.508117
92.676079
92.636509
93.338946
94.58102
100.21495
100.20767
100.17522
100.10096
99.995023
99.857792
99.692794
99.466307
99.12278
98.63314
97.959937
97.0858
96.522645
96.572081
96.800861
97.118904
97.527406
98.020097
98.596191
66.304615
68.008795
71.112291
76.119213
82.8512
90.979657
100.08736
108.69828
116.19199
121.72277
124.91577
125.80595
122.99939
120.13399
117.15154
114.28271
111.6364
109.11593
106.79195
63.033028
62.612649
64.175911
67.577183
73.058307
80.534437
89.625785
98.933453
107.51086
114.62922
119.82988
122.86934
122.15067
119.88345
117.28617
114.76025
112.37766
110.16154
108.10949
56.27487
53.171683
52.037224
53.567113
57.8595
64.557642
73.981434
84.967133
95.31201
104.25171
111.44001
116.00929
117.82791
117.51373
116.12862
114.41502
112.51348
110.73065
109.00308
43.22279
35.410676
30.201451
29.430823
33.833014
42.126516
53.48389
66.611316
78.959148
89.562158
98.569385
105.75121
109.86094
111.68036
112.08869
111.73234
110.92012
109.90844
108.8079
28.297729
15.330806
4.7158747
-0.17842121
2.6962952
12.574592
27.358862
44.651953
61.738417
77.341763
87.187542
94.274584
100.35839
103.97891
106.14566
107.18594
107.54767
107.46932
107.21477
30.414716
17.629862
6.8556215
0.90401623
1.0653659
7.6384951
19.351376
34.153419
49.8588
64.464372
76.795305
86.225462
93.16316
97.705999
100.74851
102.69756
103.83521
104.48967
104.90968
45.80492
37.187086
30.685575
27.697243
28.714081
33.567993
41.455826
51.008455
61.149014
70.681758
79.216155
86.082884
91.348104
95.309176
98.121226
100.13851
101.43486
102.295
103.01252
61.663943
57.036403
53.95515
53.305671
55.21862
58.945394
63.972117
69.65056
75.3822
80.818798
85.603999
89.742382
93.042502
95.772629
97.949539
99.561708
100.70627
101.44403
102.08843
74.188531
72.091083
71.373403
71.57207
72.449817
74.486246
77.62514
81.294496
84.872475
88.197075
91.034225
93.511787
95.633816
97.366701
98.897256
100.08522
100.98372
101.55255
101.98042
83.250626
82.201198
81.496683
81.605589
82.891338
84.739275
86.741137
88.861339
91.028213
93.10074
94.945823
96.535535
97.923553
99.084677
100.11554
101.00425
101.67709
102.15147
102.41109
86.391907
86.581719
87.281738
88.131529
89.255572
90.712555
92.312624
93.8994
95.399073
96.799847
97.979107
99.021701
99.930169
100.69923
101.36115
101.99849
102.49701
102.84481
103.02399
87.093942
88.160756
89.672426
91.355274
92.842385
94.332109
95.848462
97.149
98.281836
99.373379
100.28474
101.0151
101.62751
102.12428
102.55305
102.97525
103.33379
103.5573
103.62972
85.319025
87.553696
89.977446
92.387453
94.434028
96.101999
97.807669
99.183748
100.22344
101.0438
101.77153
102.37123
102.8598
103.22419
103.52395
103.80684
104.06281
104.25008
104.25377
77.723105
82.195919
86.508755
90.478977
93.680123
96.019974
98.053167
99.801943
100.94534
101.81464
102.55868
103.12787
103.58199
103.90659
104.17425
104.40086
104.57727
104.71497
104.73003
63.85395
73.254104
81.216312
87.624111
92.28974
95.395542
97.902238
100.06828
101.38349
102.27046
103.03198
103.66297
104.13298
104.44558
104.66743
104.86852
105.00624
105.0779
105.05763
68.383986
76.973121
84.326694
90.364629
94.662589
97.620332
99.503167
101.10171
102.90741
103.80642
104.168
104.57615
104.94888
105.18799
105.30857
105.38357
105.46041
105.47264
105.3901
77.676715
82.995505
88.126709
92.69815
96.443579
99.387839
101.75167
103.45649
103.63025
103.63431
104.71559
105.48543
105.75755
105.84627
105.89246
105.86063
105.84369
105.81247
105.68806
84.639904
86.98714
89.715341
92.53664
95.210362
97.663593
99.851926
101.65718
103.13336
104.17726
104.89837
105.37277
105.72897
106.0261
106.05629
106.01524
105.93024
105.8908
105.79211
87.822445
88.245271
89.324805
90.889389
92.635168
94.443773
96.086779
97.874716
99.890628
102.02798
104.2076
105.22791
105.64473
105.95323
105.9972
105.94113
105.80823
105.66782
105.60045
86.824805
85.050679
83.747697
83.318022
84.008192
85.874084
88.421639
92.452165
97.766078
101.85089
103.91847
104.7218
105.13377
105.30096
105.33614
105.31158
105.20589
105.07058
104.99805
79.064405
76.678803
75.819768
76.454012
78.414857
84.908289
88.797357
92.881665
96.514039
99.552666
101.90058
103.0734
103.60746
103.94178
104.14558
104.27499
104.29335
104.25783
104.25044
81.054538
78.483083
77.461783
78.114235
80.634358
84.771626
89.211709
93.372767
96.886488
99.463376
101.11008
102.14235
102.74866
103.16199
103.41929
103.6077
103.70409
103.74307
103.80291
89.478081
89.420595
90.486918
92.129848
93.992568
96.134201
98.302511
100.14546
101.5352
102.42062
102.92407
103.22081
103.37124
103.4976
103.53078
103.56225
103.54966
103.50635
103.51939
95.154708
96.479116
98.099525
99.869783
101.39876
102.51559
103.43745
103.91019
103.94132
103.91173
103.90904
103.83049
103.68357
103.58777
103.50324
103.42902
103.35882
103.2991
103.26046
94.327072
95.985181
97.452095
98.795277
100.13893
101.14786
101.62342
102.07315
102.95839
103.49283
103.56097
103.48934
103.38064
103.21171
103.11433
103.02348
102.92751
102.8219
102.79281
96.179502
97.91058
99.458252
100.69989
101.60075
102.05607
101.97242
101.97944
102.75895
102.76658
102.74162
102.68581
102.61174
102.55921
102.4505
102.37011
102.28379
102.1198
102.04423
99.253752
99.985535
100.75979
101.52259
102.24662
102.89109
103.60876
103.39001
102.71413
102.16925
101.81902
101.56174
101.34772
101.28095
101.22713
101.21147
101.21133
101.14169
101.08475
104.59302
102.5718
100.66117
98.884247
97.211931
95.687155
94.305586
93.038501
91.88914
90.840956
89.90491
89.045167
88.305032
87.661712
87.114221
86.654293
86.339054
86.111203
86.04419
106.16014
104.26191
102.45137
100.73109
99.099773
97.563776
96.137898
94.791341
93.546388
92.386373
91.348509
90.398355
89.549415
88.817869
88.201755
87.689262
87.356383
87.124275
87.049497
107.37263
105.7111
104.05593
102.44478
100.8761
99.363118
97.906543
96.504769
95.186573
93.938674
92.785941
91.742657
90.798689
89.966723
89.294655
88.73563
88.348665
88.137931
88.05021
107.64826
106.41544
105.06531
103.68111
102.24271
100.81433
99.399297
98.001951
96.656131
95.377887
94.155051
93.028477
92.0214
91.119239
90.363552
89.781916
89.336809
89.122511
89.05797
106.82825
106.20393
105.33553
104.30243
103.12925
101.85986
100.55842
99.243905
97.921026
96.646871
95.420497
94.247934
93.184317
92.245067
91.422104
90.804114
90.339371
90.085905
90.048846
105.29156
105.31571
105.01539
104.40319
103.59412
102.5793
101.47871
100.26706
99.023516
97.784435
96.574451
95.399769
94.299555
93.330738
92.480556
91.799965
91.333097
91.049375
91.023397
103.75311
104.19199
104.34645
104.14324
103.69754
102.98271
102.13851
101.09281
99.957443
98.784534
97.621887
96.473508
95.365165
94.353094
93.494329
92.772241
92.292353
92.004775
91.974103
102.77309
103.3114
103.64472
103.73912
103.57502
103.15424
102.55075
101.71226
100.74041
99.661566
98.559884
97.443795
96.363933
95.33741
94.468336
93.73864
93.22747
92.946601
92.91137
102.47818
102.85384
103.13764
103.35969
103.3766
103.19595
102.7938
102.15996
101.36186
100.40447
99.397068
98.319695
97.283257
96.265366
95.380717
94.654408
94.126217
93.85696
93.812495
102.65026
102.81576
102.99061
103.14282
103.20816
103.16853
102.9208
102.46582
101.83604
101.02692
100.11561
99.109572
98.121627
97.139226
96.243989
95.528579
94.984129
94.734723
94.699729
103.08238
103.08749
103.1191
103.16658
103.18926
103.17333
103.00806
102.6948
102.196
101.52762
100.71138
99.82234
98.876364
97.95261
97.06869
96.358174
95.806084
95.563966
95.558085
103.59286
103.51651
103.43283
103.36842
103.3249
103.27247
103.11634
102.88655
102.48168
101.94769
101.23089
100.44562
99.568037
98.692027
97.840129
97.140202
96.599146
96.339278
96.379064
104.11606
103.97488
103.82669
103.69224
103.5613
103.45052
103.27598
103.07342
102.7389
102.2932
101.68843
100.9898
100.1778
99.360856
98.559727
97.873952
97.371079
97.080082
97.157258
104.59691
104.42948
104.23673
104.05239
103.86345
103.70304
103.50293
103.2847
102.9836
102.60023
102.08108
101.46495
100.73324
99.972168
99.227017
98.544845
98.094976
97.805549
97.865823
104.91558
104.80347
104.62479
104.41561
104.19339
103.9849
103.75673
103.52621
103.23407
102.88479
102.42843
101.882
101.24788
100.50333
99.824642
99.174399
98.738453
98.504954
98.546732
105.17206
105.07895
104.92963
104.74072
104.50949
104.2834
104.03484
103.77876
103.48354
103.15218
102.76696
102.24953
101.68392
100.99376
100.35677
99.772652
99.328137
99.142921
99.1864
105.44472
105.32194
105.15947
104.99269
104.78994
104.56042
104.3098
104.04628
103.75535
103.40603
103.06445
102.58629
102.06341
101.46423
100.83667
100.31669
99.882703
99.717858
99.789703
105.5946
105.48383
105.32926
105.17072
104.99789
104.79044
104.56334
104.28547
104.0106
103.63786
103.30049
102.8952
102.40135
101.87037
101.27212
100.78769
100.3982
100.24164
100.343
105.53692
105.51168
105.41641
105.28928
105.15271
104.96501
104.77223
104.51908
104.25992
103.98939
103.59477
103.19472
102.72114
102.24328
101.68666
101.21702
100.87695
100.7273
100.85281
105.16665
105.27871
105.32543
105.28341
105.20728
105.06395
104.89492
104.68388
104.40762
104.11757
103.76105
103.39712
102.96488
102.4858
102.01425
101.58279
101.28295
101.15781
101.30238
104.55773
104.79842
105.00679
105.10945
105.13617
105.08928
104.97284
104.82188
104.59936
104.34884
104.03493
103.67346
103.2751
102.81139
102.38388
101.94086
101.66343
101.57286
101.72062
104.04331
104.3041
104.58154
104.81185
104.94142
104.9961
104.95924
104.85418
104.67515
104.4419
104.15019
103.79844
103.43672
103.02041
102.60513
102.22885
101.96138
101.89277
102.05555
103.6637
103.89451
104.1334
104.39409
104.61651
104.77132
104.84778
104.8383
104.74678
104.57495
104.34927
104.04879
103.68227
103.28167
102.86367
102.4984
102.25618
102.21348
102.39059
103.32885
103.6112
103.88202
104.13072
104.37479
104.58199
104.72519
104.7732
104.73602
104.60702
104.39337
104.11969
103.78452
103.40821
103.02247
102.67595
102.46342
102.43792
102.61189
102.92145
103.19241
103.44097
103.68812
103.93
104.17698
104.39984
104.56332
104.64307
104.62583
104.51243
104.30417
104.01109
103.63488
103.228
102.86594
102.65697
102.64666
102.84433
102.46532
102.90788
103.28688
103.59552
103.87528
104.14026
104.35162
104.52093
104.61826
104.6291
104.5331
104.34226
104.0603
103.70052
103.31087
102.95576
102.75141
102.77892
102.95836
101.55011
101.94539
102.35975
102.76099
103.16039
103.52279
103.85138
104.14034
104.3751
104.51714
104.55368
104.4857
104.29942
103.95534
103.51379
103.1114
102.84195
102.8402
103.06606
86.114128
86.336736
86.728999
87.230726
87.860821
88.657306
89.591269
90.646785
91.841273
93.160743
94.571121
96.062573
97.660202
99.326174
101.01379
102.75942
104.54072
106.34988
108.15331
87.15783
87.360824
87.765444
88.31224
88.983972
89.805442
90.737729
91.79514
92.986756
94.287221
95.671957
97.14464
98.683679
100.26625
101.87614
103.54466
105.21596
106.84294
108.50879
88.183155
88.415714
88.818397
89.39301
90.085348
90.917372
91.875238
92.932907
94.113597
95.393888
96.752173
98.195123
99.676766
101.18983
102.72615
104.27888
105.80675
107.32815
108.85389
89.191633
89.465164
89.893412
90.459256
91.171739
92.009954
92.971577
94.037781
95.196778
96.462102
97.785657
99.190196
100.62257
102.05418
103.49191
104.92201
106.36863
107.76688
109.10529
90.192907
90.476987
90.917696
91.503068
92.223491
93.074597
94.022578
95.088215
96.23788
97.47661
98.771203
100.12792
101.50253
102.85774
104.20536
105.505
106.81488
108.1129
109.33839
91.188123
91.490622
91.938781
92.54692
93.26228
94.113491
95.058966
96.106793
97.240871
98.441127
99.698946
100.98985
102.31273
103.59116
104.8233
106.02671
107.21166
108.34972
109.46006
92.158432
92.475898
92.924072
93.529195
94.263399
95.104416
96.054337
97.074822
98.182166
99.346042
100.56227
101.79723
103.0252
104.23613
105.3915
106.46313
107.52189
108.57881
109.61387
93.112894
93.440738
93.910614
94.501179
95.24062
96.068704
96.997163
98.008921
99.083945
100.19942
101.36916
102.54256
103.69871
104.80245
105.84289
106.85078
107.81008
108.74996
109.65165
94.037973
94.365885
94.827025
95.420575
96.16635
96.991516
97.902438
98.877173
99.916715
100.99264
102.10597
103.21134
104.27966
105.3202
106.26037
107.1531
108.02962
108.86097
109.68154
94.942954
95.282825
95.759255
96.353055
97.073686
97.861685
98.750482
99.705121
100.69628
101.72819
102.76384
103.81471
104.80864
105.73608
106.60148
107.41719
108.19823
108.96985
109.69894
95.796715
96.136097
96.603093
97.174221
97.879272
98.688927
99.545355
100.47639
101.43201
102.41238
103.37941
104.3413
105.25711
106.11538
106.90572
107.64622
108.34893
109.01424
109.65685
96.625739
96.971892
97.436886
98.027559
98.708023
99.484568
100.30935
101.19552
102.09842
103.00992
103.92353
104.81941
105.66673
106.45241
107.17195
107.82676
108.43995
109.02738
109.60327
97.409467
97.760821
98.207604
98.779992
99.433786
100.18641
100.99383
101.83802
102.70573
103.56214
104.4163
105.24236
106.01549
106.73035
107.38059
107.9736
108.52159
109.03032
109.53208
98.14248
98.495604
98.94758
99.503629
100.14708
100.87013
101.65293
102.45529
103.27201
104.06801
104.85435
105.61145
106.31669
106.96179
107.54579
108.06867
108.56049
109.02803
109.46054
98.847111
99.188788
99.643697
100.18041
100.80405
101.49518
102.23926
102.99739
103.75817
104.49715
105.22411
105.91972
106.57159
107.16887
107.69999
108.17532
108.60567
109.00528
109.37765
99.495947
99.833519
100.27974
100.80336
101.40002
102.06013
102.76853
103.49414
104.21663
104.90802
105.57577
106.21627
106.80814
107.346
107.81306
108.22473
108.59466
108.94288
109.27482
100.10253
100.4393
100.87358
101.38178
101.9553
102.59139
103.26488
103.94944
104.621
105.25922
105.86199
106.44208
106.97992
107.4689
107.89289
108.27722
108.62166
108.92833
109.20978
100.65838
100.99252
101.4145
101.90945
102.46403
103.07174
103.70335
104.34311
104.96599
105.56433
106.12406
106.65474
107.15097
107.60696
107.99815
108.33206
108.61823
108.87498
109.12658
101.16953
101.49838
101.91129
102.3914
102.92191
103.49956
104.09279
104.69476
105.28161
105.84036
106.36406
106.84677
107.29358
107.7007
108.04963
108.34702
108.60295
108.82852
109.05027
101.62291
101.94847
102.35384
102.81542
103.32402
103.87508
104.4388
105.01378
105.57173
106.08613
106.5632
107.00214
107.41078
107.79036
108.11239
108.38556
108.62258
108.82745
109.02539
102.04222
102.36344
102.75655
103.20956
103.70405
104.23681
104.77992
105.31265
105.82246
106.29388
106.73488
107.15014
107.53577
107.88445
108.18066
108.42068
108.63272
108.81393
108.97788
102.38146
102.70755
103.09045