/*--------------------------------*- C++ -*----------------------------------*\
  =========                 |
  \\      /  F ield         | OpenFOAM: The Open Source CFD Toolbox
   \\    /   O peration     | Website:  https://openfoam.org
    \\  /    A nd           | Version:  11
     \\/     M anipulation  |
\*---------------------------------------------------------------------------*/
FoamFile
{
    format      ascii;
    class       volScalarField;
    location    "0.051";
    object      Ma;
}
// * * * * * * * * * * * * * * * * * * * * * * * * * * * * * * * * * * * * * //

dimensions      [0 0 0 0 0 0 0];

internalField   nonuniform List<scalar> 
880
(
1.443353270571932
1.443353270571932
1.443353270571932
1.443353269946706
1.443353270571932
1.443353270571932
1.443353270571934
1.443353441240543
1.443353270571932
1.443353270571933
1.443353270571932
1.443351889413366
1.443353270571932
1.443353270571932
1.443353270572066
1.443317713309048
1.443353270571932
1.443353270571932
1.443353270571933
1.443353270571932
1.443353270571932
1.443353270571932
1.443353270571935
1.443353270571932
1.443353270667405
1.443353269397329
1.443354040983346
1.443352474427265
1.441753127515426
1.43506142387494
1.42952176131067
1.428856406624789
1.443353270020147
1.44335326970686
1.443353269551738
1.443353270276349
1.443353253711572
1.443353251825218
1.443353250509183
1.443353247518982
1.443326887963562
1.443323359934164
1.443322229337773
1.443312930685889
1.428089582415969
1.427641775098445
1.427904325853466
1.42313837873712
1.433440507893265
1.442523278552746
1.446357111665784
1.444852582298858
1.443303126555739
1.443324636906543
1.443351515634582
1.443357330072511
1.443353216734196
1.443353237361058
1.443353265947589
1.443353273531174
1.443353267112257
1.443353267271603
1.44335326863279
1.443353270062433
1.443353270533507
1.443353270572063
1.443353270571932
1.443353270571932
1.443353271172311
1.443353270587857
1.443353270570812
1.443353270572012
1.443354068795417
1.443353294806648
1.443353270830592
1.443353270564584
1.443570045049241
1.443360706267827
1.443353318881515
1.44335326222554
1.443353265193995
1.443353270549961
1.443353270571932
1.443353270571932
1.443353265635341
1.443353270666387
1.44335327058269
1.443353270571932
1.443350720623189
1.443353113842727
1.443353266679007
1.443353270487033
1.444900392836646
1.443399816017843
1.443353323324109
1.443353270602163
1.443353270575739
1.443353155088763
1.44331993143054
1.400935251339873
1.443353268664959
1.443353138204901
1.443149873537229
1.33976204140853
1.443353265848146
1.443353082351719
1.443049530194759
1.323959735732367
1.44335326437869
1.44335303441679
1.442994853523907
1.319851355794876
1.314273344172016
1.442935591530992
1.44335297435841
1.443353262661248
1.30888063681877
1.442864106151928
1.443352897516805
1.443353260102155
1.301283141173412
1.442769124074195
1.443352784602227
1.443353257404474
1.294545271607994
1.442644387920705
1.44335263318628
1.443353250622599
1.443353253275188
1.44335272923617
1.442649015918568
1.287529010269104
1.443353250955252
1.44335261043374
1.44256912884576
1.286196018139665
1.443353247057979
1.443352505711505
1.442530263817355
1.295889654880582
1.443353251275932
1.443352809308616
1.442867471745173
1.353339237915582
1.443353251914418
1.443356322017342
1.443693306855862
1.442373583817051
1.443353339944395
1.44335477459228
1.442461027604283
1.418684114240142
1.443353264521991
1.443344699698181
1.440606217605357
1.34816896464874
1.443353261321867
1.443337184028878
1.437944411003341
1.28280445146344
1.29217021975109
1.440259059132012
1.443347388120795
1.443353267108217
1.314059791558157
1.440654590490001
1.443347669847573
1.443353266813407
1.335412971034937
1.441649057713564
1.443350597594631
1.443353269155133
1.317050681789056
1.441029448178508
1.443349198684928
1.443353268161757
1.380082069877924
1.442648912463182
1.443352252161034
1.443353269928262
1.428001698112541
1.443276427530521
1.443353200780572
1.443353270533084
1.442712504755134
1.443353563925052
1.443353273736138
1.443353270575907
1.445794775642899
1.443368299154504
1.443353303014048
1.443353270572472
1.427500601858045
1.443149453438523
1.44335246875765
1.443353269491595
1.427551631574989
1.44314987137489
1.443352469561136
1.44335326947853
1.427608578734557
1.443150211466481
1.443352466580904
1.443353269399652
1.426938741193784
1.443149305655618
1.443352465400203
1.443353269256562
1.445794775647449
1.443368299157566
1.443353303018367
1.443353270569736
1.442712504759805
1.443353563928714
1.443353273744755
1.443353270575198
1.428001698112564
1.443276427529165
1.443353200780085
1.443353270533279
1.380082069872353
1.442648912454572
1.443352252160286
1.443353269930371
1.443353267102532
1.443347388109303
1.440259059128656
1.292170219747441
1.443353266809171
1.443347669846722
1.440654590485858
1.314059791556957
1.443353269159957
1.443350597589359
1.441649057713336
1.335412971026506
1.443353268161149
1.443349198682522
1.441029448171817
1.31705068179192
1.282804451469264
1.437944411009048
1.443337184035421
1.443353261323962
1.348168964654126
1.440606217610575
1.44334469970695
1.44335326453211
1.418684114240342
1.44246102761088
1.443354774592383
1.44335333995091
1.442373583815325
1.443693306858305
1.443356322019852
1.443353251902776
1.443353253277814
1.443352729230337
1.442649015916019
1.287529010263398
1.443353250954063
1.443352610430882
1.442569128845148
1.286196018139559
1.443353247052421
1.44335250571168
1.442530263821964
1.295889654880916
1.443353251266352
1.443352809308812
1.442867471748359
1.353339237916221
1.294545271597934
1.442644387926136
1.443352633178004
1.443353250623647
1.30128314116554
1.442769124060997
1.443352784601397
1.443353257402898
1.30888063682274
1.4428641061424
1.443352897508623
1.4433532601035
1.314273344164726
1.4429355915429
1.443352974359095
1.443353262662797
1.443353270571755
1.443353155082487
1.443319931431658
1.400935251346945
1.443353268669149
1.443353138210996
1.443149873533385
1.339762041410882
1.443353265850303
1.443353082351392
1.443049530193262
1.32395973572707
1.443353264381344
1.443353034415245
1.442994853525709
1.31985135579647
1.443353270603126
1.443353270485834
1.443353270571932
1.443353270571932
1.443353323331597
1.443353266679996
1.443353270578382
1.443353270571932
1.443399816015805
1.443353113839251
1.4433532706695
1.443353270551391
1.444900392836492
1.443350720622836
1.443353265635095
1.443353265193756
1.443353270571934
1.443353270571989
1.443353270562601
1.443353262223849
1.443353270571932
1.443353270571792
1.443353270822102
1.443353318881233
1.443353270572061
1.443353270587836
1.443353294811669
1.443360706267027
1.443353270532825
1.443353271172823
1.443354068789107
1.443570045051583
1.443353267118304
1.443353216739822
1.443303126559963
1.433440507894497
1.443353267276776
1.443353237360623
1.44332463690745
1.442523278557457
1.44335326863438
1.44335326594015
1.443351515636224
1.446357111667011
1.443353270063672
1.443353273527731
1.443357330072627
1.44485258230389
1.423138378734808
1.443312930673665
1.443353247522425
1.443353270279115
1.427904325855521
1.443322229323794
1.443353250510507
1.443353269550219
1.427641775089632
1.44332335992915
1.443353251824545
1.443353269708518
1.428089582418421
1.443326887987483
1.44335325371303
1.443353270018668
1.42885640662186
1.443352474422876
1.443353270571932
1.443353270571932
1.429521761312343
1.443354040991476
1.443353270571932
1.443353270571933
1.43506142387162
1.443353269399721
1.443353270571932
1.443353270571933
1.441753127516184
1.44335327066667
1.443353270571932
1.443353270571934
1.443353270571932
1.443353270571933
1.443353270571932
1.443353269803944
1.443353270571931
1.443353270571932
1.443353270571932
1.443353441262966
1.443353270571932
1.443353270571932
1.443353270571932
1.44335188943192
1.443353270571932
1.443353270571932
1.443353270571993
1.443317713312914
1.443353842673254
1.443355151620644
1.443356188777531
1.443058012267126
1.443355151555276
1.443361109751775
1.443371119824761
1.440685579786225
1.443356188784053
1.443371119826093
1.442610351777404
1.415302796230429
1.443058012242551
1.440685579800684
1.415302796240769
1.257169232310234
1.102012592075911
1.20082553219233
1.346899684505054
1.409982970978638
1.155491970500886
1.181932847599388
1.253339770330771
1.313870475801184
1.2153978759818
1.244319953682536
1.268780603031624
1.295516256031298
1.240300441852278
1.292120461527025
1.297239037153036
1.307233681557042
1.311516476783431
1.313075737392591
1.31369927788121
1.295704168496129
1.308005550737498
1.310918129648095
1.311741962367031
1.30918470419269
1.311016853981084
1.315500967035112
1.316427378240185
1.367551564067202
1.242392494207739
1.243064099578804
1.243428673148403
1.465047586609877
1.422833431118195
1.502312192949494
1.485515110771311
1.456365723365655
1.522604382697178
1.622679735671574
1.517335865790061
1.46607748930289
1.651132608121871
1.627698274789549
1.542401317290686
1.482388554846334
1.250366629988876
1.27194651226287
1.347958778435921
1.40633761338093
1.444860673508953
1.443414972444842
1.443354164541268
1.443353293714198
1.446395853243008
1.44349504864779
1.443356586837841
1.443353389351113
1.45002392034433
1.443709390540147
1.443361179939026
1.443353500988477
1.436173660747884
1.442913460311281
1.443340193537476
1.443352871454211
1.443353254574826
1.44335327995504
1.443351159390568
1.416165644767526
1.443353264490924
1.443353272259369
1.443352435769562
1.320192121563478
1.443353271386258
1.443353270828521
1.443353185351091
1.215742645229777
1.443353266102954
1.443353270030555
1.443352900108452
1.079592659836688
0.9279483915621577
0.9748358949505592
1.015022623944666
1.028313281435623
0.7834622673493286
0.9333013918978719
1.015363189420868
1.038627501522347
0.6901295717057463
0.8965050644427311
1.007741702031072
1.03708176512831
0.6279883704242596
0.7998298604920304
0.8820505623239302
0.9113124770763729
1.02930730281433
1.029063878431968
1.028039151765928
1.028728792029099
1.041198404142374
1.041537306837744
1.041664908234132
1.043182670461784
1.040123261932979
1.040249516511793
1.040347366401797
1.041294040250496
0.9173208822597908
0.9173244644174225
0.9171895434864842
0.9146864019330826
1.023691604994865
1.026770584859696
1.0525192138072
1.108114091201251
1.041244617041885
1.04461224468469
1.073089765424574
1.154987092756048
1.041674663099944
1.046519853833526
1.089199496039047
1.418180938015262
0.9224594832973323
0.9288350188266723
1.039343879526377
1.871272164984674
1.379925164580057
1.231881122484187
0.4791370671283091
0.2004554053379132
1.328372364455605
1.060919039681218
0.3510891041953967
0.29075252230599
1.418158044728437
0.9502205596409062
0.3735494162255867
0.2765988315062369
1.073745065150127
0.5201289389745563
0.2882808420977387
0.2063252456486687
0.2206021270196737
0.2508692465332606
0.2951521128324288
0.3049245605811576
0.2999602781917868
0.2865751502489536
0.2554705528377163
0.4711666817649968
0.2955443169299174
0.2905744864220044
0.3664382229655612
0.6218252534526587
0.2041987624840864
0.228620857901714
0.3797846301284395
0.749596408000354
1.236507870397378
1.362269033300308
1.442534088806396
1.483597053794635
0.8648835755127838
1.201924753502531
1.39607050814644
1.518276254664059
0.4015156690594096
0.8717911752610705
1.252273889004434
1.629822364216453
0.3836175903565123
0.6896037934599084
1.049955907012321
2.00555616162393
1.596649430335558
1.666739472189737
1.326778754143693
1.034908294941016
1.854561485987398
2.49164810673864
1.870459651502293
1.171394880126049
2.072612974272559
2.556814570375641
1.871283428258367
1.235822697479554
1.512138696449572
1.891675308443823
1.3581352366268
0.8127968418454015
0.6174325620904403
0.5782267919931267
0.4337627469396849
0.1093487811951189
0.9996663072094747
0.9169445516093297
0.7006050143848045
0.1827703173411701
0.9224712866029862
0.6903821871243243
0.3325904748073986
0.1215371396794213
0.793926494852035
0.6533853536756312
0.5827789909420164
0.5721146694955932
0.109348781196838
0.1827703173416522
0.1215371396805797
0.5721146694926664
0.4337627469408991
0.7006050143856685
0.3325904748074989
0.5827789909436908
0.5782267919934144
0.9169445516092014
0.690382187125662
0.6533853536772387
0.6174325620896568
0.9996663072086075
0.9224712866045767
0.793926494853137
1.034908294941891
1.326778754146101
1.666739472193591
1.596649430344474
1.171394880127987
1.870459651496078
2.491648106736005
1.854561485991832
1.235822697478436
1.871283428255437
2.556814570377506
2.072612974274499
0.8127968418439722
1.358135236626555
1.89167530844379
1.512138696449098
2.005556161625386
1.04995590701193
0.6896037934596106
0.3836175903549665
1.629822364219337
1.252273889007758
0.8717911752614408
0.4015156690592064
1.51827625466721
1.396070508151523
1.201924753502809
0.8648835755112204
1.483597053798064
1.442534088810482
1.362269033300568
1.236507870393394
0.3049245605795329
0.295152112828258
0.2508692465322337
0.2206021270194126
0.4711666817626474
0.2554705528374869
0.2865751502481352
0.2999602781903438
0.6218252534516585
0.3664382229652257
0.2905744864196192
0.2955443169262697
0.7495964080003277
0.3797846301300936
0.2286208579013662
0.2041987624826426
0.2004554053398818
0.4791370671284377
1.231881122475396
1.379925164579843
0.2907525222982711
0.3510891041949638
1.060919039676854
1.328372364459454
0.2765988314953346
0.3735494162235038
0.950220559635789
1.418158044732538
0.2063252456436081
0.2882808420978974
0.5201289389708137
1.073745065151744
1.108114091202374
1.05251921380689
1.026770584858751
1.023691604991079
1.154987092757926
1.0730897654244
1.044612244683205
1.041244617038741
1.418180938017627
1.089199496039204
1.046519853832549
1.041674663098628
1.871272164988363
1.039343879528492
0.9288350188301592
0.9224594833029065
1.028728792024612
1.028039151762892
1.029063878433327
1.029307302810534
1.043182670459695
1.041664908231462
1.0415373068373
1.041198404140831
1.041294040250365
1.040347366400084
1.040249516511208
1.040123261932987
0.9146864019386526
0.9171895434878525
0.9173244644178009
0.9173208822628152
1.028313281437018
1.015022623941932
0.9748358949521234
0.9279483915636796
1.038627501523542
1.015363189418637
0.9333013918996931
0.7834622673497899
1.037081765129268
1.007741702029393
0.8965050644440372
0.6901295717059629
0.911312477076705
0.8820505623248495
0.7998298604925754
0.6279883704235241
1.416165644767204
1.443351159392209
1.443353279956211
1.44335325457428
1.320192121563057
1.443352435770209
1.443353272259984
1.443353264490595
1.215742645229297
1.443353185351219
1.443353270828745
1.44335327138618
1.079592659835974
1.443352900108914
1.4433532700306
1.44335326610278
1.443353293712893
1.443354164539344
1.443414972444539
1.444860673512042
1.443353389350042
1.443356586833088
1.443495048652162
1.446395853240446
1.443353500987627
1.443361179932095
1.443709390548162
1.450023920338653
1.443352871454741
1.443340193537133
1.442913460313351
1.436173660751969
1.456365723371072
1.485515110772041
1.502312192953525
1.422833431119011
1.466077489307414
1.517335865789772
1.622679735673895
1.522604382697488
1.482388554850791
1.542401317290186
1.627698274791727
1.651132608123125
1.40633761337635
1.347958778437299
1.271946512264211
1.250366629989781
1.295704168495676
1.313699277881395
1.313075737389794
1.311516476782286
1.309184704195272
1.311741962366736
1.310918129646923
1.308005550734961
1.367551564071609
1.316427378240692
1.315500967036618
1.311016853980195
1.46504758661593
1.243428673155164
1.243064099585061
1.242392494203833
1.307233681555124
1.295516256032861
1.313870475798584
1.40998297097927
1.297239037152405
1.268780603032531
1.253339770330353
1.346899684504991
1.292120461524666
1.24431995368506
1.181932847600182
1.200825532192024
1.240300441857117
1.215397875988248
1.155491970501437
1.102012592077098
1.442346189949297
1.443331705739439
1.443353187782455
1.44335327046069
1.437708892537127
1.443287489198931
1.443353025983067
1.443353270231431
1.428756015033033
1.443208550017563
1.443352740421758
1.443353269715532
1.420850001198641
1.443116643296743
1.443352419113224
1.443353269163714
1.443353269488352
1.443352468759379
1.443149453438214
1.427500601857245
1.443353269475993
1.443352469557079
1.443149871379622
1.427551631571732
1.443353269402751
1.443352466576164
1.443150211468144
1.427608578740353
1.443353269266309
1.443352465394834
1.443149305674301
1.426938741196853
1.443353269164757
1.443353269717278
1.443353270241632
1.443353270471901
1.443352419112496
1.443352740421764
1.443353025985224
1.443353187788456
1.443116643291616
1.443208550022701
1.443287489192851
1.443331705744583
1.420850001205487
1.42875601503809
1.437708892534871
1.442346189949355
)
;

boundaryField
{
    back
    {
        type            empty;
    }
    inlet
    {
        type            calculated;
        value           nonuniform List<scalar> 
16
(
1.443353270571932
1.443353270571932
1.443353270571932
1.443353270571932
1.443353270571932
1.443353270571932
1.443353270571932
1.443353270571932
1.443353270571932
1.443353270571932
1.443353270571932
1.443353270571933
1.443353270571932
1.443353270571932
1.443353270571932
1.443353270571932
)
;
    }
    front
    {
        type            empty;
    }
    top
    {
        type            calculated;
        value           uniform 0;
    }
    outlet
    {
        type            calculated;
        value           nonuniform List<scalar> 
16
(
1.443353269124535
1.443353269108485
1.443353268992964
1.443353268794993
1.443353270416224
1.443353270108491
1.443353269407194
1.443353268661862
1.443353269122434
1.443353269106805
1.443353268994943
1.443353268801352
1.443353268662531
1.44335326940822
1.443353270115026
1.443353270423527
)
;
    }
    bottom
    {
        type            calculated;
        value           uniform 0;
    }
    wall
    {
        type            calculated;
        value           uniform 0;
    }
}


// ************************************************************************* //
