/*--------------------------------*- C++ -*----------------------------------*\
  =========                 |
  \\      /  F ield         | OpenFOAM: The Open Source CFD Toolbox
   \\    /   O peration     | Website:  https://openfoam.org
    \\  /    A nd           | Version:  11
     \\/     M anipulation  |
\*---------------------------------------------------------------------------*/
FoamFile
{
    format      ascii;
    class       volVectorField;
    location    "0.051";
    object      U;
}
// * * * * * * * * * * * * * * * * * * * * * * * * * * * * * * * * * * * * * //

dimensions      [0 1 -1 0 0 0 0];

internalField   nonuniform List<vector> 
880
(
(25 -7.768126373978579e-16 0)
(25 -7.338532492390346e-16 0)
(25 2.684859456609591e-15 0)
(24.99999996038831 6.902912379246082e-09 0)
(25 1.035816819485623e-15 0)
(25 -1.15837318425509e-15 0)
(25.00000000000002 -5.878797793978584e-14 0)
(25.00000395029486 -5.540475747893553e-06 0)
(25 0 0)
(25.00000000000001 1.601869706231805e-15 0)
(25 -2.38320585925473e-12 0)
(24.9999919706246 -3.284660374345549e-05 0)
(25 0 0)
(25 -1.058794152545905e-15 0)
(24.99999999999926 1.435486509338365e-11 0)
(24.9993817458672 -0.0004728083356124045 0)
(25 -7.502478532904885e-16 0)
(25 -6.292461621970819e-16 0)
(25.00000000000001 -7.46264326551662e-16 0)
(25 2.293263624769874e-12 0)
(25 -9.308111847479067e-16 0)
(25 2.088490129852907e-15 0)
(25.00000000000003 7.445283909796634e-15 0)
(25 7.359156143562737e-15 0)
(25.00000000160038 -1.387962016546827e-09 0)
(24.99999998079898 1.831064654233937e-08 0)
(25.00003221518048 5.587854046312102e-05 0)
(24.99989722661975 -0.0002927565889683098 0)
(24.98171207986452 0.02550722482522204 0)
(24.91306850453511 0.1505190433603663 0)
(24.87250961004684 0.3075234386740676 0)
(24.88506006651694 0.3836143657482593 0)
(24.99999999256381 -6.251390326162591e-09 0)
(24.9999999878629 -9.428639336486716e-09 0)
(24.99999998556308 -1.094529601305878e-08 0)
(24.99999999614122 -4.794768432264401e-09 0)
(24.99999986725809 5.087209272460194e-07 0)
(24.99999990362401 7.485443854359962e-07 0)
(24.99999991516284 8.674128246064713e-07 0)
(24.99999972621568 3.604565280903163e-07 0)
(24.99983932101248 0.0008469107562474034 0)
(24.9998119496664 0.0009403244175489091 0)
(24.99982073827513 0.001038943703975127 0)
(24.99960003149345 0.0007786291150801687 0)
(24.88504585079831 0.4208659808787353 0)
(24.89101469674483 0.463135401003412 0)
(24.89825773428018 0.4788821323883444 0)
(24.83626889556896 0.5175890416121323 0)
(25.00395055785389 0.5364115662256133 0)
(25.10448520356983 0.3947931218230358 0)
(25.10951190686245 0.1764786411655497 0)
(25.04262972531471 0.04462290012775472 0)
(24.99989200139982 0.002268487482490078 0)
(25.00015074920715 0.002081846831031999 0)
(25.00033331982006 0.001236042071278078 0)
(25.00017616291946 0.0003489631693493236 0)
(24.9999998978661 2.787345642420539e-06 0)
(25.00000017290963 2.593383457856693e-06 0)
(25.00000035839161 1.546701257008993e-06 0)
(25.00000017662443 4.291072739209132e-07 0)
(24.99999995183988 -3.468806685621672e-08 0)
(24.99999995275932 -3.138345992513989e-08 0)
(24.99999997121233 -1.662946912434578e-08 0)
(24.9999999921369 -3.995149970794514e-09 0)
(24.99999999936726 -3.211571890078488e-10 0)
(24.99999999999997 -5.61960655636162e-12 0)
(25 -1.06674024260232e-15 0)
(24.99999999999999 -3.050007281703425e-15 0)
(25.00000002254634 3.910378554321006e-08 0)
(25.00000000052444 7.282280487261118e-10 0)
(24.99999999998649 -1.399182819212656e-11 0)
(25 -6.99346985050935e-12 0)
(25.00002512183691 3.375958957773392e-05 0)
(25.00000068653091 6.936174585871473e-07 0)
(25.00000000082608 -1.422383177089576e-08 0)
(24.99999999807752 -6.403011503838696e-09 0)
(25.00575357568826 0.004756000559987571 0)
(25.0001889262216 0.0001284596200402154 0)
(25.00000074412915 -9.224137721387662e-07 0)
(24.99999968299034 -6.177948142508976e-07 0)
(24.99999985737566 -1.330416161311352e-07 0)
(24.999999999228 -1.283021012965815e-09 0)
(25 -1.075445308675937e-12 0)
(25 1.013634249489354e-15 0)
(24.99999982094997 -4.494790603426506e-07 0)
(24.99999999637604 -1.94607597378187e-08 0)
(25.00000000000215 -6.22906879111804e-10 0)
(25 -1.166205599418354e-12 0)
(24.99997856009859 0.0001256318337640015 0)
(24.99999909376866 6.290900486131358e-06 0)
(24.99999997068169 1.320568370845696e-07 0)
(24.99999999884317 -9.06969239352923e-10 0)
(25.02100114458493 -0.01423991755825746 0)
(25.00046259332083 -0.001168004113924669 0)
(25.00000021022056 -2.49043092211216e-06 0)
(25.00000000015094 -1.35483996299156e-09 0)
(24.99999999995233 -3.506121818477752e-10 0)
(24.99999794168952 -6.009068614039732e-07 0)
(24.9994533798416 -0.0001668958969339826 0)
(24.48970088552055 0.2391824969667255 0)
(24.99999997559775 -2.792531492700158e-08 0)
(24.99999844783809 1.998789831181434e-06 0)
(24.9977682075561 0.002555800877783006 0)
(23.79258961658585 1.102484159514829 0)
(24.99999993593094 -5.917466716184333e-08 0)
(24.99999842170747 4.589829490049791e-06 0)
(24.99726233209007 0.005100883437441769 0)
(23.7405030181553 1.764989662657386 0)
(24.99999991573205 -7.843477720072473e-08 0)
(24.99999807090861 5.901365412470336e-06 0)
(24.99687543319891 0.006252185528413426 0)
(23.74622456829761 1.979285437427133 0)
(23.6822346537584 2.087070733706111 0)
(24.99633305868488 0.007261484571853809 0)
(24.99999755631554 7.360273301595219e-06 0)
(24.99999989246293 -1.003639758934441e-07 0)
(23.62538946909508 2.203964270025746 0)
(24.99575067733359 0.008619792258482207 0)
(24.9999969852905 9.453092356380231e-06 0)
(24.99999985736209 -1.31243799359694e-07 0)
(23.52364108935462 2.311278655044554 0)
(24.99474666733887 0.009969609985020954 0)
(24.9999958365631 1.172536272012268e-05 0)
(24.99999982165077 -1.68048740289172e-07 0)
(23.45242323675956 2.493744112708189 0)
(24.99392572616647 0.01285040807282423 0)
(24.99999506281986 1.696038106424276e-05 0)
(24.99999972797701 -2.481242292877617e-07 0)
(24.99999976196782 -2.205095506355326e-07 0)
(24.99999577130738 1.416447592505243e-05 0)
(24.99389005976045 0.01248541565957199 0)
(23.36220720737993 2.665089197612726 0)
(24.99999973194135 -2.520765623312562e-07 0)
(24.99999452153655 1.635481112846444e-05 0)
(24.99310419054463 0.01376120571906793 0)
(23.34528031051267 2.715363229609301 0)
(24.99999968557437 -3.141411617986589e-07 0)
(24.99999376996331 1.961348839747746e-05 0)
(24.99276474456983 0.01474499469395612 0)
(23.46239427588332 2.595993031106791 0)
(24.99999972429534 -2.256631056049375e-07 0)
(24.99999636970704 1.324526006776729e-05 0)
(24.99471498626422 0.01007499329982735 0)
(24.15837780594424 1.742179965488245 0)
(24.99999450790163 -1.51000537832531e-05 0)
(25.00002580297739 -0.0001970533989369219 0)
(25.01488784704388 0.005286530030393701 0)
(25.40721847564689 0.8086822350407458 0)
(25.00000007139584 -5.075729353567979e-07 0)
(24.99969943878199 -0.0004524184386122741 0)
(24.98064098467185 -0.02344266515969934 0)
(24.75859243580626 -0.7348891934709233 0)
(24.99999976466859 -3.56856173439275e-07 0)
(24.99973222020243 -0.0002074480456839665 0)
(24.94197104729735 -0.03408288235618263 0)
(23.24391007468108 -1.012037343820777 0)
(24.99999973782276 -3.210804756980585e-07 0)
(24.99962023148507 -0.000223874271622097 0)
(24.88841006511548 -0.02589870737221198 0)
(21.92413624928761 -0.3539089973578467 0)
(22.08940556009059 -0.1444760708232781 0)
(24.93615181305533 -0.02778516278501895 0)
(24.99985522858444 -0.0001545191905144992 0)
(24.99999987204439 -2.484982978262783e-07 0)
(22.44097619797946 0.1217378676410208 0)
(24.94415127673021 -0.01854903179295616 0)
(24.9998673213465 -0.0001137165789526943 0)
(24.99999988327544 -1.833180308887114e-07 0)
(22.90268129185542 -0.0343595077222331 0)
(24.96481342168715 -0.01602806295351158 0)
(24.99993316200572 -7.366655949062087e-05 0)
(24.99999994707867 -1.068523195907819e-07 0)
(22.60203803426757 0.1499074912622667 0)
(24.95322597908026 -0.01588948280053732 0)
(24.99990526563789 -8.375782250158087e-05 0)
(24.99999992551827 -1.225692854314508e-07 0)
(23.69020795495012 0.2597683824352189 0)
(24.98607104582605 -0.00462915840229546 0)
(24.99997778985039 -1.746794679214093e-05 0)
(24.99999998232664 -2.502413904762136e-08 0)
(24.6205883365625 0.09698821166037626 0)
(24.9983298690575 -0.0008623227296136548 0)
(24.99999827982528 -1.753203539260945e-06 0)
(24.99999999882872 -1.83077350618148e-09 0)
(24.95759119120818 -0.03273366518056087 0)
(24.99993471604436 -0.0002255350483119573 0)
(24.9999999579468 -3.294288151475564e-07 0)
(24.99999999997694 -3.214099918295565e-10 0)
(25.01714160842383 -0.08504043006947191 0)
(25.00015139068675 -0.0004385245199509268 0)
(25.00000036521352 -9.129520751685357e-07 0)
(24.99999999969827 -1.158602490562079e-09 0)
(24.67910359512068 -0.0004929077615103793 0)
(24.99560597206269 -3.061622121369804e-06 0)
(24.99998164293765 -5.192428023921332e-09 0)
(24.99999997492996 7.453470229635213e-12 0)
(24.67949726507714 -0.001228932018215362 0)
(24.9956109947759 -3.539272146712277e-06 0)
(24.99998165322144 7.543144797113437e-09 0)
(24.99999997465195 2.780499338684768e-10 0)
(24.67898400555048 -0.003235773835222732 0)
(24.99560541592578 1.29205296083126e-05 0)
(24.99998155820882 1.009638452252701e-07 0)
(24.99999997265105 1.58939797600019e-09 0)
(24.67048597920967 0.009799481685467352 0)
(24.99559029664022 0.0001579090235013874 0)
(24.99998149958696 5.068727505488078e-07 0)
(24.99999996922203 2.553606252168545e-09 0)
(25.01714160848634 0.08504043006130101 0)
(25.00015139072373 0.0004385245281085987 0)
(25.00000036526368 9.129544018060834e-07 0)
(24.99999999966587 1.163646300319971e-09 0)
(24.957591191264 0.03273366518917566 0)
(24.99993471608826 0.000225535047325843 0)
(24.99999995804858 3.294450031708599e-07 0)
(24.99999999996882 3.206056556360884e-10 0)
(24.6205883365776 -0.09698821159131028 0)
(24.99832986904443 0.0008623227573660786 0)
(24.99999827982065 1.75322395859608e-06 0)
(24.99999999883072 1.829571634434708e-09 0)
(23.69020795487188 -0.2597683824595166 0)
(24.98607104572548 0.004629158403845709 0)
(24.99997778984093 1.746794328487274e-05 0)
(24.9999999823499 2.502275625312704e-08 0)
(24.99999987197276 2.484797325638308e-07 0)
(24.99985522845686 0.0001545192336508053 0)
(24.9361518130002 0.02778516276266389 0)
(22.08940556004815 0.1444760708911448 0)
(24.99999988322868 1.83348721023875e-07 0)
(24.99986732133661 0.0001137165694897172 0)
(24.94415127668562 0.01854903182054591 0)
(22.44097619795927 -0.1217378677096207 0)
(24.99999994713664 1.068605088800944e-07 0)
(24.99993316194468 7.366654444892672e-05 0)
(24.96481342168699 0.01602806296453665 0)
(22.90268129176124 0.03435950769414501 0)
(24.99999992551082 1.225563560045462e-07 0)
(24.99990526561159 8.375783692325894e-05 0)
(24.95322597900003 0.01588948275127859 0)
(22.60203803428065 -0.149907491208087 0)
(21.92413624933181 0.3539089972750308 0)
(24.88841006518314 0.0258987073349412 0)
(24.99962023154877 0.0002238741958796902 0)
(24.99999973784596 3.210602315621669e-07 0)
(23.24391007474084 1.012037343878795 0)
(24.94197104735898 0.03408288235537639 0)
(24.99973222030599 0.0002074480598510451 0)
(24.99999976478486 3.568445388592028e-07 0)
(24.75859243580689 0.7348891934868672 0)
(24.98064098474869 0.02344266517487389 0)
(24.99969943878646 0.0004524184404341641 0)
(25.00000007148017 5.076157180929216e-07 0)
(25.40721847562589 -0.8086822350494711 0)
(25.01488784708057 -0.005286530029624619 0)
(25.00002580300644 0.0001970534200695162 0)
(24.99999450776476 1.51000657111021e-05 0)
(24.99999976199782 2.205071382999283e-07 0)
(24.99999577124026 -1.416448327149801e-05 0)
(24.99389005972618 -0.01248541566378665 0)
(23.36220720730039 -2.665089197607433 0)
(24.99999973192689 2.520725346875944e-07 0)
(24.99999452150622 -1.635481005639878e-05 0)
(24.99310419053579 -0.01376120571061213 0)
(23.34528031051702 -2.715363229601792 0)
(24.99999968550844 3.141394798463119e-07 0)
(24.99999376996485 -1.961347829140714e-05 0)
(24.99276474462785 -0.01474499468063989 0)
(23.46239427588963 -2.595993031107128 0)
(24.99999972418237 2.256527168923374e-07 0)
(24.9999963697087 -1.324524318813295e-05 0)
(24.99471498630071 -0.01007499329357809 0)
(24.15837780595122 -1.74217996548693 0)
(23.45242323661951 -2.493744112715713 0)
(24.99392572623071 -0.01285040805264993 0)
(24.99999506272346 -1.696039384620733e-05 0)
(24.99999972798854 2.481261244470633e-07 0)
(23.52364108924478 -2.311278655038532 0)
(24.99474666720186 -0.009969609980990491 0)
(24.99999583655078 -1.172536857285467e-05 0)
(24.99999982163047 1.680494242709537e-07 0)
(23.62538946915358 -2.203964270023844 0)
(24.99575067721209 -0.008619792276392894 0)
(24.99999698519726 -9.453098331344695e-06 0)
(24.99999985737975 1.312430676386403e-07 0)
(23.68223465365021 -2.087070733729041 0)
(24.99633305881141 -0.007261484563887247 0)
(24.99999755631926 -7.360277826561635e-06 0)
(24.99999989248173 1.003639369630889e-07 0)
(24.99999999990656 3.51262218755752e-10 0)
(24.99999794161324 6.009031538795282e-07 0)
(24.99945337985649 0.0001668959047275664 0)
(24.48970088561496 -0.2391824969708261 0)
(24.99999997564998 2.792360215923893e-08 0)
(24.99999844791159 -1.998789611093508e-06 0)
(24.99776820750388 -0.002555800886568643 0)
(23.79258961660786 -1.102484159500173 0)
(24.99999993595578 5.917449378184605e-08 0)
(24.99999842170129 -4.589831474552522e-06 0)
(24.99726233208462 -0.005100883447345326 0)
(23.74050301808824 -1.764989662661006 0)
(24.99999991576387 7.843467912188123e-08 0)
(24.99999807089352 -5.901368470541927e-06 0)
(24.99687543322343 -0.006252185515598971 0)
(23.74622456831749 -1.979285437419666 0)
(25.00000000016166 1.355152515079146e-09 0)
(24.99999999882859 9.074578666186175e-10 0)
(25 1.016229223098688e-12 0)
(25 -1.696701287891344e-15 0)
(25.00000021031103 2.490440612727608e-06 0)
(24.99999997069524 -1.320591373556806e-07 0)
(24.99999999994902 6.255846861524753e-10 0)
(25 1.037549233725158e-12 0)
(25.00046259329782 0.001168004102455888 0)
(24.99999909372507 -6.290894475846663e-06 0)
(24.99999999641366 1.945673832945917e-08 0)
(24.9999999992454 1.282512329589701e-09 0)
(25.02100114458361 0.01423991755809572 0)
(24.99997856009501 -0.0001256318291846367 0)
(24.9999998209476 4.49479229002443e-07 0)
(24.99999985737328 1.33039548982184e-07 0)
(25.00000000000002 -2.959960950491191e-15 0)
(25 6.950197576886575e-12 0)
(24.9999999980568 6.390367176169495e-09 0)
(24.99999968296985 6.17797691370639e-07 0)
(25 1.48133707340992e-14 0)
(24.99999999999719 1.386679347169332e-11 0)
(25.00000000072546 1.422403423904166e-08 0)
(25.00000074412613 9.22419811149365e-07 0)
(24.99999999999995 5.615546104811313e-12 0)
(25.00000000052459 -7.2811371683112e-10 0)
(25.00000068658525 -6.93601057292841e-07 0)
(25.00018892621191 -0.0001284596259699224 0)
(24.99999999935914 3.214281000696734e-10 0)
(25.00000002255485 -3.910714039905814e-08 0)
(25.00002512176821 -3.375961502902053e-05 0)
(25.005753575713 -0.004756000533982963 0)
(24.99999995191219 3.468101791410738e-08 0)
(24.99999989793456 -2.787348454087755e-06 0)
(24.99989200145052 -0.002268487501559349 0)
(25.00395055787335 -0.5364115662282731 0)
(24.9999999528198 3.138105650704152e-08 0)
(25.00000017290248 -2.593358809173848e-06 0)
(25.00015074921824 -0.002081846815756722 0)
(25.1044852036262 -0.3947931218394614 0)
(24.99999997122966 1.66378078036304e-08 0)
(25.00000035829821 -1.546700926149222e-06 0)
(25.0003333198379 -0.001236042069680185 0)
(25.10951190687766 -0.1764786411645115 0)
(24.99999999215055 3.997334497619397e-09 0)
(25.00000017658201 -4.291280419593606e-07 0)
(25.00017616291567 -0.0003489631414733915 0)
(25.04262972537478 -0.04462290012304299 0)
(24.83626889553095 -0.5175890415743906 0)
(24.99960003136292 -0.0007786291946205429 0)
(24.99999972625879 -3.60464557365832e-07 0)
(24.99999999617442 4.788606037942927e-09 0)
(24.89825773430812 -0.4788821323828429 0)
(24.99982073811216 -0.001038943720936026 0)
(24.99999991517902 -8.674105938087655e-07 0)
(24.99999998554504 1.094720522020473e-08 0)
(24.89101469665236 -0.4631354010741557 0)
(24.99981194958805 -0.0009403243461575956 0)
(24.99999990362256 -7.485604788968069e-07 0)
(24.99999998788172 9.431556607215423e-09 0)
(24.88504585082124 -0.420865980857422 0)
(24.99983932124417 -0.0008469105146956795 0)
(24.99999986727056 -5.087094718363946e-07 0)
(24.99999999254668 6.249361037581999e-09 0)
(24.88506006648215 -0.3836143657423354 0)
(24.99989722663248 0.0002927563553486186 0)
(25 -7.163771963004399e-14 0)
(25 -2.248432468515494e-12 0)
(24.87250961006391 -0.3075234386796786 0)
(25.0000322152496 -5.58784594705538e-05 0)
(25 5.786810595746405e-16 0)
(25.00000000000001 4.665106585177662e-15 0)
(24.91306850449106 -0.1505190433372632 0)
(24.99999998082819 -1.831325313794479e-08 0)
(25 3.709941798090211e-16 0)
(25.00000000000001 3.698587781909657e-15 0)
(24.98171207986345 -0.02550722478707195 0)
(25.00000000158877 1.382439730111783e-09 0)
(25 -1.366735753036184e-15 0)
(25.00000000000002 -4.607039633138967e-15 0)
(25 1.420908939734042e-15 0)
(25 1.990345621817316e-15 0)
(25 -9.033062682377563e-16 0)
(24.99999995855774 -6.320698004496778e-09 0)
(24.99999999999999 -2.843418720158383e-19 0)
(25 1.513113396916045e-15 0)
(25 4.978395431857113e-14 0)
(25.00000395070598 5.539752393673575e-06 0)
(25 -1.366459512028481e-15 0)
(25 -1.332427219018033e-15 0)
(25 1.926051395028579e-12 0)
(24.99999197093348 3.284661990231261e-05 0)
(25 -1.165855004061114e-15 0)
(25 -2.62723198855497e-16 0)
(25.00000000000005 -1.004873560571438e-11 0)
(24.99938174591097 0.0004728083052659086 0)
(25.00000800289458 1.995621881967396e-09 0)
(25.0000260201866 1.391292573299385e-05 0)
(25.00005792367729 7.277289237256514e-05 0)
(24.99774263711539 -0.003984636730591632 0)
(25.00002601966902 -1.391316544113377e-05 0)
(25.00010354454006 -4.758307855206231e-10 0)
(25.00025318876477 -0.0002828748286241592 0)
(24.96191770286476 -0.03315395001961718 0)
(25.00005792374144 -7.277195842003605e-05 0)
(25.00025318869303 0.0002828749147222429 0)
(24.99048073139164 3.635108635738048e-10 0)
(24.63607618656362 -0.1032411363942356 0)
(24.99774263680237 0.003984637028060397 0)
(24.96191770306297 0.03315394938945179 0)
(24.63607618678953 0.1032411366970493 0)
(22.50564287410869 -6.7811477087805e-11 0)
(20.43889316383871 2.406641352725678 0)
(21.54326419023166 2.979773894813442 0)
(23.85518681516636 1.813802552368746 0)
(24.6380269923849 0.6644572165902206 0)
(20.98583498688695 4.639579804419892 0)
(21.26068309892264 4.775007969021128 0)
(22.53879094588856 4.209413630695837 0)
(23.47544008891571 2.955486756163681 0)
(21.83765130263559 5.396113405485487 0)
(22.35142852481649 5.451331891307099 0)
(22.81526816096275 5.327798045746079 0)
(23.30846591237298 4.722253015352491 0)
(22.30586634834962 5.524698794979098 0)
(23.23868655641685 5.868683318803527 0)
(23.35448145069387 5.88466009555036 0)
(23.56059521062715 5.4891891239796 0)
(23.65131060173705 5.766657627456627 0)
(23.68328575917186 5.816097443535083 0)
(23.69742520545092 5.824557640572046 0)
(23.37505118006686 6.153857174209492 0)
(23.57237048043258 6.123321429966335 0)
(23.63327588658368 6.164305793619405 0)
(23.65195729372227 6.164154702140135 0)
(23.63447723645383 6.601349286633559 0)
(23.61932280585285 5.971065204293214 0)
(23.714126111558 5.980841324243421 0)
(23.73562884920729 5.978276758417137 0)
(24.67861709123471 6.654201643564151 0)
(22.36586328910378 5.529405011162247 0)
(22.38569700241638 5.525799192754947 0)
(22.39665835293322 5.527540376895672 0)
(25.98484123637849 7.722946475416504 0)
(25.5168575451507 4.631796673586462 0)
(26.63175235702995 2.089539887700417 0)
(25.98203447253011 0.5621525899447476 0)
(25.29851411642758 0.1179767758954284 0)
(27.24025932844773 3.847983766080975 0)
(28.35461993793565 0.3989978230369307 0)
(26.3775465495413 -0.1243343879100305 0)
(25.44384179985218 -0.04310830311724577 0)
(28.95167032918283 1.997668863246431 0)
(28.0676070171993 -0.9016666544075916 0)
(26.7937107977628 -0.6143736406020069 0)
(25.75667276798625 -0.2289702835974742 0)
(21.2678862772045 1.389189615006968 0)
(21.92147559685296 0.4408972847669411 0)
(23.39829126320454 -0.3309993462854063 0)
(24.38775630695951 -0.2623429400005082 0)
(25.03594024225529 0.0122871308054208 0)
(25.00138606278668 4.041348908836912e-05 0)
(25.00001292106343 -1.652167284256674e-05 0)
(24.99999968351584 -3.854362528688763e-06 0)
(25.0619125031415 -0.003479915765245559 0)
(25.00273089468096 -0.0004993989679300656 0)
(25.00005126469412 -3.197778220428322e-05 0)
(25.00000102895774 -1.690617176614678e-06 0)
(25.13658045739972 -0.04307586120517886 0)
(25.0068594489336 -0.002719600349632369 0)
(25.00012543945428 -8.551080811237609e-05 0)
(25.00000147466115 -2.473460803896372e-06 0)
(24.87420414657917 -0.05790338886345697 0)
(24.9913478964866 -0.004280747921853116 0)
(24.99969948039869 -0.0001261988158592715 0)
(24.99999116949656 -2.4093034065672e-06 0)
(24.99999963805321 -2.515517121210972e-07 0)
(25.00000011568486 1.71363234507786e-07 0)
(24.99998457146981 -7.372521565986662e-05 0)
(24.79609173450778 0.9235412142039999 0)
(24.99999985194224 2.920271321726128e-08 0)
(25.00000000146507 7.085918980086214e-08 0)
(24.99999751418013 -4.25069038152086e-05 0)
(23.46391073765428 1.933392576926304 0)
(24.99999995236502 -1.658735885184267e-08 0)
(24.99999998846002 2.526338043224676e-08 0)
(25.00000264296082 -1.662849432975094e-05 0)
(21.99702043268968 1.373649696584297 0)
(24.99999989109549 -2.056841651180617e-08 0)
(24.99999998333821 -7.003014093023085e-09 0)
(24.99999574669125 3.628449020378885e-06 0)
(19.6097811436668 -0.1745636900236612 0)
(17.01345731151527 6.499232714486138 0)
(17.2509424948327 9.267149849750327 0)
(17.68814757103248 10.73180701023138 0)
(17.84289527097099 11.18884016500596 0)
(14.05333121504372 7.136686232977784 0)
(16.15908841577011 9.711307632139093 0)
(17.28900618691855 11.3634948339556 0)
(17.67933775197627 11.80485404359454 0)
(12.21101945864931 6.749407756202269 0)
(15.29507283746417 9.572333550953362 0)
(17.18777291241812 10.97006496099999 0)
(17.7474567672626 11.3862032365325 0)
(11.70276255908312 5.26399416582059 0)
(13.8774869694969 8.286819811217205 0)
(14.81772310294608 9.989018106828963 0)
(15.44549140906974 10.27151318805895 0)
(17.84598454274175 11.25536145258458 0)
(17.84246517681046 11.27375279709942 0)
(17.81668012200527 11.29246148031105 0)
(17.82839403518641 11.32602816272972 0)
(17.72576712065816 11.84961280350919 0)
(17.73543935434994 11.84757070218473 0)
(17.73776292455744 11.84582106916696 0)
(17.76987921527811 11.84594028237782 0)
(17.80603894339614 11.44237659678928 0)
(17.80741299144828 11.4433393753708 0)
(17.80552637766612 11.44598133302655 0)
(17.82196686222495 11.44140704519214 0)
(15.60329309741756 10.2967461206015 0)
(15.60564647377633 10.29521617749504 0)
(15.60243093269391 10.29476372583251 0)
(15.55698898124571 10.26399600941363 0)
(17.79794796175904 11.29435860110541 0)
(17.86384921961847 11.24595847611425 0)
(18.52180323717634 10.70208644225912 0)
(20.00139378199859 8.604457278573191 0)
(17.7542339995759 11.84015513307616 0)
(17.83406117076529 11.79210326647168 0)
(18.5667405754091 11.34609709202369 0)
(20.61750833589331 10.46389132272649 0)
(17.82115707514897 11.45682039424157 0)
(17.93464677643019 11.40232951292305 0)
(18.87310736600213 11.29676856303299 0)
(24.88117802497582 14.19307216722069 0)
(15.71879196342285 10.28880370168527 0)
(15.89058927214015 10.209975386157 0)
(17.99712425983265 10.96109602296722 0)
(32.43026349749795 18.61730627284768 0)
(25.15149572010721 4.324412399775253 0)
(21.61716957105759 -4.142804739357022 0)
(5.928851451139725 -4.383501628157725 0)
(2.821788772262875 -0.3249581520209613 0)
(24.26779983985675 4.903773660001026 0)
(16.85892038586087 -5.56114478511626 0)
(0.3163482793194756 -4.919884499144328 0)
(-3.639023752110672 -0.5499484399409557 0)
(24.86429296140056 0.7183493243581893 0)
(10.83018441163408 -10.26097519029933 0)
(-2.203820891545037 -4.314362649356872 0)
(-3.085452996485373 -0.81827289475009 0)
(15.06072106961483 -7.200679451965293 0)
(6.013860415386655 -2.631025773206499 0)
(-2.918228728035249 -1.816732636682959 0)
(-2.181627969344754 -0.6714695379927167 0)
(3.150250780413068 -0.0430550299812535 0)
(3.57081627759246 0.265169748774183 0)
(4.157603057236448 0.6502651431052101 0)
(2.95381100147099 2.981345947170341 0)
(-3.73460365048992 0.002437423525123857 0)
(-3.516749174542024 0.6475218424004754 0)
(-2.131591239019075 2.462976342136264 0)
(-1.063267348598999 5.832908612812931 0)
(-3.344494224385559 -0.1657012102736715 0)
(-3.139601093609507 1.10471768842231 0)
(-1.43769185464172 4.117117780606296 0)
(-0.5764085124350912 7.879250503540653 0)
(-2.215029711847019 -0.1934689882258352 0)
(-2.332707276717895 0.9564959602080194 0)
(-1.313380605307079 4.190585678197062 0)
(-0.4922463766766475 9.253316523142425 0)
(19.44672305950697 -4.898877658216959 0)
(22.55590095078256 -2.978379679980538 0)
(24.2461849601854 -2.027991212771958 0)
(25.04176710692175 -2.005394870426628 0)
(13.0882785332387 -5.006803988510085 0)
(19.35996295793255 -4.422078956124341 0)
(22.84582284835435 -3.62200872990255 0)
(25.53068449340804 -2.178663837990273 0)
(5.725234228767173 -2.480849637981603 0)
(14.25819775840742 -2.568925677972456 0)
(20.29690397943557 -4.201547961037066 0)
(27.56998358340886 -1.907350940485425 0)
(3.932539584988267 3.680238331847412 0)
(9.26571398010109 5.755650761923903 0)
(16.96050217455129 2.723627864018199 0)
(33.31846860034013 -0.347803210514576 0)
(26.01911438808628 -4.342447941579391 0)
(25.58348275909867 -8.30539576856108 0)
(19.30658663239175 -9.502301937962512 0)
(13.67721412292384 -9.326420068604289 0)
(28.16322651851297 -8.098298521721549 0)
(32.01895943288967 -12.8030254187979 0)
(20.31045917712457 -17.08610180335526 0)
(11.11459435592118 -13.50744416159059 0)
(29.61675280681128 -10.96228000796286 0)
(30.19080432699794 -15.29280648193599 0)
(17.70039715618638 -12.47954976275255 0)
(7.170008926031949 -13.40871056314528 0)
(18.22476557562204 -9.192879742198125 0)
(10.23707411777406 -15.57302294810784 0)
(3.48238312572135 -13.65835308073855 0)
(0.0840944132992008 -8.54430676933686 0)
(-0.0329874980262999 -6.664249531375872 0)
(-0.2003691478055341 -6.259719442450807 0)
(0.08555288172193064 -4.493040161742994 0)
(0.5660362838319827 -0.8626212843470528 0)
(2.891781416255512 -12.78730124999255 0)
(2.090755434004497 -11.96428465572898 0)
(0.7374788408789275 -8.882265882251662 0)
(-0.3932204725503782 -2.050156351060781 0)
(6.692031900180643 -11.905666080898 0)
(4.114660314524405 -9.00262960420282 0)
(2.467898501272155 -3.718749689960517 0)
(1.506302447397681 -0.3651502147756213 0)
(10.38639881564697 -6.906846247863091 0)
(9.280419848345723 -3.702752821725619 0)
(8.592243686387905 -1.052779566407313 0)
(8.415998567187188 -0.1081666144553286 0)
(0.5660362838259768 0.8626212843707481 0)
(-0.3932204725227938 2.050156351071161 0)
(1.506302447415389 0.3651502147636798 0)
(8.415998567136707 0.1081666143875164 0)
(0.08555288171124946 4.493040161761757 0)
(0.7374788408951209 8.882265882259313 0)
(2.467898501302866 3.718749689939595 0)
(8.592243686409908 1.052779566396893 0)
(-0.2003691478069578 6.259719442457934 0)
(2.090755434008053 11.96428465573084 0)
(4.114660314542414 9.002629604210673 0)
(9.28041984835979 3.702752821746239 0)
(-0.03298749801761741 6.664249531370298 0)
(2.891781416254585 12.78730124998703 0)
(6.692031900202219 11.90566608090819 0)
(10.38639881567933 6.906846247836183 0)
(13.67721412292556 9.326420068614402 0)
(19.30658663242332 9.502301937949772 0)
(25.58348275915062 8.305395768519567 0)
(26.01911438818461 4.342447941605394 0)
(11.11459435592517 13.50744416161515 0)
(20.31045917707978 17.08610180330862 0)
(32.01895943286763 12.8030254187713 0)
(28.16322651855894 8.098298521706207 0)
(7.170008926020453 13.40871056313646 0)
(17.70039715614669 12.47954976273965 0)
(30.19080432699732 15.29280648192405 0)
(29.61675280682653 10.96228000795933 0)
(0.08409441329729642 8.54430676932575 0)
(3.482383125731653 13.65835308073976 0)
(10.23707411777019 15.57302294811862 0)
(18.22476557559676 9.192879742197318 0)
(33.31846860034734 0.3478032105187301 0)
(16.96050217454945 -2.723627863984804 0)
(9.265713980133777 -5.755650761885328 0)
(3.932539584987704 -3.680238331827528 0)
(27.56998358343991 1.907350940481697 0)
(20.29690397948494 4.20154796104566 0)
(14.25819775841449 2.568925678019852 0)
(5.725234228763928 2.480849637994327 0)
(25.53068449344494 2.178663837976633 0)
(22.84582284842119 3.622008729915904 0)
(19.35996295793918 4.422078956167002 0)
(13.08827853321095 5.00680398852522 0)
(25.04176710696597 2.005394870415611 0)
(24.24618496023714 2.027991212773119 0)
(22.55590095079172 2.978379680035845 0)
(19.44672305944895 4.898877658216756 0)
(2.953811001480954 -2.981345947121603 0)
(4.157603057183656 -0.6502651431030515 0)
(3.570816277573674 -0.2651697488293113 0)
(3.150250780408454 0.0430550299901958 0)
(-1.063267348579956 -5.832908612788544 0)
(-2.131591239035586 -2.462976342123019 0)
(-3.516749174531066 -0.6475218424177402 0)
(-3.734603650473034 -0.002437423527963363 0)
(-0.576408512424197 -7.879250503539749 0)
(-1.437691854631831 -4.11711778060682 0)
(-3.139601093583615 -1.104717688424642 0)
(-3.344494224346701 0.1657012102806157 0)
(-0.4922463766798244 -9.253316523155268 0)
(-1.313380605298741 -4.190585678220388 0)
(-2.332707276716972 -0.9564959602058706 0)
(-2.215029711834379 0.1934689882346994 0)
(2.821788772286937 0.3249581519608955 0)
(5.928851451095141 4.383501628197451 0)
(21.61716957090803 4.142804739386484 0)
(25.15149572010038 -4.324412399778741 0)
(-3.639023752010891 0.5499484399025484 0)
(0.3163482792873752 4.919884499132932 0)
(16.85892038579457 5.561144785086505 0)
(24.26779983991571 -4.903773660009537 0)
(-3.085452996360472 0.8182728947309705 0)
(-2.203820891559999 4.31436264931176 0)
(10.83018441156421 10.26097519024902 0)
(24.86429296144738 -0.7183493243786752 0)
(-2.181627969295811 0.6714695379831283 0)
(-2.918228728066193 1.81673263662637 0)
(6.013860415322466 2.63102577322715 0)
(15.06072106964464 7.20067945193765 0)
(20.0013937820249 -8.60445727855714 0)
(18.52180323717824 -10.70208644225438 0)