/*--------------------------------*- C++ -*----------------------------------*\
  =========                 |
  \\      /  F ield         | OpenFOAM: The Open Source CFD Toolbox
   \\    /   O peration     | Website:  https://openfoam.org
    \\  /    A nd           | Version:  11
     \\/     M anipulation  |
\*---------------------------------------------------------------------------*/
FoamFile
{
    format      ascii;
    class       volScalarField;
    location    "9.4";
    object      p;
}
// * * * * * * * * * * * * * * * * * * * * * * * * * * * * * * * * * * * * * //

dimensions      [0 2 -2 0 0 0 0];

internalField   nonuniform List<scalar> 
5472
(
98.889129
96.605435
94.324011
92.042056
89.795945
87.622362
85.494008
83.417586
81.440673
79.567492
77.780254
76.130424
74.605148
73.225302
71.997839
70.9329
70.061028
69.338569
68.82241
99.506607
97.402262
95.270047
93.123695
90.981135
88.897223
86.850442
84.833439
82.898256
81.051876
79.291021
77.650301
76.126976
74.760998
73.534709
72.454005
71.565848
70.793088
70.206407
100.0886
98.141359
96.153267
94.159329
92.137832
90.134491
88.161692
86.225102
84.339566
82.518679
80.783006
79.1472
77.639462
76.273368
75.034782
73.961195
73.041033
72.263464
71.697896
100.61782
98.831828
97.004788
95.133995
93.225065
91.323487
89.437241
87.577989
85.738825
83.958012
82.248408
80.623999
79.129718
77.762066
76.528551
75.455823
74.521066
73.766228
73.197464
101.09346
99.443134
97.758493
96.014369
94.229646
92.441111
90.644021
88.859747
87.075692
85.336609
83.647704
82.059018
80.584512
79.221164
77.998416
76.919702
75.995329
75.251864
74.676226
101.4885
100.00254
98.445489
96.805998
95.145637
93.479293
91.790429
90.087737
88.368301
86.6692
85.023978
83.465685
81.994541
80.655584
79.444599
78.370812
77.453825
76.719553
76.143511
101.85372
100.47359
99.040393
97.542223
96.008374
94.43327
92.840056
91.208899
89.572097
87.935417
86.334736
84.814596
83.373153
82.049124
80.842883
79.797169
78.88047
78.11614
77.585748
102.15114
100.91511
99.584969
98.201089
96.790841
95.327246
93.828127
92.277827
90.716236
89.135272
87.589138
86.108226
84.706179
83.403253
82.220477
81.185738
80.275431
79.566037
79.011081
102.39654
101.26565
100.06591
98.80858
97.488157
96.117838
94.721475
93.280557
91.79477
90.275999
88.800404
87.353375
85.984824
84.714829
83.559905
82.528303
81.63621
80.932281
80.392831
102.6213
101.60555
100.49717
99.335128
98.123593
96.872088
95.558313
94.19169
92.782099
91.338062
89.92111
88.53063
87.217023
85.974428
84.848381
83.832267
82.963419
82.26621
81.748476
102.81259
101.88039
100.88213
99.809753
98.680305
97.530154
96.323306
95.059945
93.715931
92.34978
90.990676
89.653487
88.383284
87.177477
86.08491
85.096617
84.25459
83.560743
83.063372
102.96284
102.12191
101.20809
100.23241
99.215343
98.143292
97.002656
95.817732
94.560837
93.28918
91.997168
90.723737
89.494186
88.334042
87.256759
86.299098
85.488374
84.815124
84.339756
103.10574
102.33121
101.50555
100.61966
99.684325
98.694805
97.645533
96.53167
95.347472
94.140891
92.916164
91.718994
90.542771
89.435236
88.387564
87.454112
86.654573
86.012112
85.553036
103.20233
102.51024
101.76025
100.95411
100.10089
99.184888
98.220236
97.190102
96.088484
94.936078
93.774468
92.62878
91.512671
90.456461
89.455361
88.576741
87.805298
87.177936
86.724208
103.30411
102.68246
101.99593
101.25742
100.46924
99.621129
98.721724
97.764075
96.753352
95.680862
94.59837
93.508281
92.440731
91.413539
90.451016
89.59336
88.844288
88.258344
87.823349
103.38272
102.82171
102.19609
101.52563
100.81188
100.03659
99.194661
98.29226
97.33375
96.332404
95.324583
94.302842
93.300182
92.320209
91.406577
90.594133
89.865622
89.287359
88.866629
103.4514
102.94189
102.37281
101.75793
101.10301
100.40299
99.633724
98.796055
97.895915
96.954599
95.997857
95.028456
94.073344
93.13907
92.252259
91.431878
90.782492
90.233703
89.838742
103.52668
103.06687
102.54909
101.97628
101.36449
100.71091
99.998225
99.228167
98.397112
97.52565
96.630883
95.717086
94.802206
93.910472
93.066944
92.306762
91.66059
91.13219
90.750324
103.59744
103.17595
102.70313
102.18695
101.62993
101.01735
100.34596
99.619005
98.834802
98.022236
97.183832
96.325849
95.461126
94.609028
93.80525
93.086256
92.463501
91.959477
91.591058
103.66609
103.28113
102.84373
102.37112
101.85979
101.29396
100.67362
99.992008
99.256548
98.491981
97.700151
96.887876
96.070007
95.259337
94.485391
93.796489
93.197746
92.714386
92.357528
103.74939
103.40063
102.99684
102.54987
102.0663
101.54316
100.96382
100.32261
99.632897
98.91141
98.162397
97.389459
96.611148
95.848985
95.130345
94.454808
93.873507
93.406174
93.063959
103.82857
103.5151
103.14757
102.73821
102.28681
101.79004
101.24107
100.63704
99.988488
99.304587
98.58881
97.846959
97.088104
96.340745
95.628446
94.999308
94.447154
93.99145
93.659496
103.90619
103.6281
103.29248
102.91425
102.49423
102.02788
101.50962
100.93539
100.31568
99.662231
98.985535
98.2867
97.57914
96.875689
96.196043
95.558224
95.007209
94.560759
94.236904
103.99872
103.75406
103.4559
103.10796
102.71495
102.27607
101.7826
101.23229
100.62821
99.982229
99.303876
98.596659
97.877521
97.179862
96.511974
95.914148
95.385276
94.948286
94.634072
104.07604
103.87565
103.61811
103.30267
102.93859
102.52929
102.07252
101.56413
101.00094
100.39718
99.760812
99.099294
98.415542
97.708666
97.024261
96.384672
95.831453
95.382851
95.065375
104.15345
104.00607
103.79152
103.50889
103.1639
102.75834
102.29326
101.76796
101.18917
100.56002
99.894402
99.206124
98.511112
97.829551
97.162707
96.549068
96.002391
95.55905
95.255748
104.21379
104.1472
104.01747
103.82263
103.56363
103.23615
102.83984
102.37356
101.83509
101.23176
100.57026
99.864154
99.13447
98.383466
97.631502
96.910358
96.276166
95.798135
95.469914
68.387088
68.127745
68.09708
68.244508
68.536663
69.010092
69.587662
70.322523
71.139879
72.097525
73.21463
74.405167
75.814738
77.290929
78.947612
80.691101
82.482081
84.458904
86.435789
69.826432
69.623965
69.619885
69.832815
70.216598
70.801425
71.534227
72.460734
73.484068
74.710484
76.06137
77.528263
79.188572
80.880623
82.792407
84.703471
86.758334
88.893183
91.07744
71.313856
71.134398
71.169361
71.449094
71.935711
72.645817
73.536977
74.639316
75.855787
77.316772
78.854329
80.565947
82.390722
84.309743
86.403588
88.488362
90.747775
92.995372
95.348929
72.798924
72.628883
72.714748
73.068069
73.665238
74.500281
75.548797
76.795429
78.210508
79.837583
81.546234
83.433048
85.386887
87.480474
89.64808
91.87152
94.179986
96.461512
98.79959
74.269902
74.12246
74.256683
74.684391
75.387492
76.349593
77.531849
78.922573
80.504954
82.245399
84.110356
86.090841
88.155626
90.31662
92.501613
94.740608
96.951207
99.143525
101.24755
75.738616
75.612611
75.79133
76.304497
77.109533
78.179293
79.481755
81.010673
82.706306
84.559965
86.522704
88.565057
90.686745
92.832569
94.974551
97.095683
99.119202
101.0635
102.82632
77.187145
77.079544
77.316988
77.903682
78.793952
79.961619
81.382807
83.009416
84.808485
86.745633
88.757443
90.833647
92.926416
95.003156
97.02007
98.93994
100.72455
102.37668
103.81658
78.615156
78.53068
78.815222
79.470337
80.442674
81.70763
83.231501
84.936151
86.81619
88.783052
90.813289
92.852522
94.869872
96.822931
98.656047
100.35351
101.88879
103.2441
104.39215
80.014208
79.939543
80.293989
81.014365
82.045177
83.389892
84.980256
86.755351
88.680893
90.647804
92.649763
94.608695
96.519394
98.285411
99.918545
101.38552
102.66094
103.74398
104.62437
81.377118
81.32766
81.740265
82.490769
83.593485
85.014004
86.659892
88.480544
90.397777
92.332358
94.264803
96.116012
97.860591
99.421878
100.84953
102.0557
103.09089
103.89518
104.47152
82.687872
82.695189
83.126229
83.908682
85.080483
86.545813
88.230343
90.06279
91.945877
93.828673
95.65488
97.360589
98.912767
100.27679
101.47229
102.41268
103.17636
103.62845
103.87789
83.974733
84.008958
84.437413
85.286262
86.50511
88.000415
89.697551
91.509736
93.338726
95.135221
96.818225
98.356192
99.713834
100.86757
101.8024
102.47592
102.93688
103.1042
103.08731
85.207041
85.250776
85.693732
86.601648
87.839129
89.360191
91.05316
92.814902
94.558879
96.242222
97.771991
99.134144
100.2858
101.21102
101.89681
102.33624
102.55923
102.59573
102.51167
86.38919
86.426921
86.908602
87.848304
89.099931
90.61961
92.274131
93.97035
95.620592
97.169518
98.537761
99.720295
100.66794
101.37716
101.86942
102.16038
102.28074
102.32823
102.32932
87.501801
87.53505
88.069674
89.015208
90.267628
91.770222
93.378256
94.992221
96.53632
97.943192
99.153906
100.14906
100.91143
101.46504
101.83696
102.0844
102.21994
102.33865
102.47369
88.546331
88.612071
89.169698
90.089555
91.344275
92.808478
94.35119
95.881681
97.32071
98.582356
99.634833
100.45984
101.08877
101.55607
101.88457
102.15305
102.35409
102.5538
102.77631
89.522348
89.626548
90.166818
91.085098
92.342113
93.750994
95.228948
96.676989
97.98662
99.115096
100.02272
100.72073
101.25902
101.70157
102.03988
102.34968
102.61326
102.87654
103.1105
90.44644
90.556958
91.075672
92.015928
93.232774
94.583218
96.005417
97.356982
98.527484
99.528412
100.34098
100.96893
101.47199
101.91036
102.27391
102.6214
102.91298
103.19069
103.42818
91.30294
91.402198
91.940294
92.873699
94.037456
95.35459
96.712278
97.945139
99.021087
99.906818
100.67567
101.24953
101.74094
102.18013
102.56433
102.91527
103.20938
103.48898
103.72765
92.075594
92.169619
92.710585
93.607992
94.749585
96.018888
97.279823
98.442419
99.442336
100.26629
100.97475
101.53548
102.03822
102.46115
102.83838
103.1634
103.45651
103.71875
103.91014
92.793802
92.895139
93.443814
94.320766
95.446199
96.644193
97.820512
98.937058
99.854715
100.65719
101.3
101.84935
102.33203
102.7267
103.08455
103.3656
103.60302
103.77298
103.84002
93.390713
93.493383
94.016875
94.885336
95.97953
97.136506
98.285795
99.342869
100.21907
100.98498
101.60933
102.14423
102.58345
102.95877
103.25069
103.4513
103.57679
103.57742
103.47319
93.979192
94.092204
94.643037
95.525858
96.581898
97.716578
98.816088
99.77946
100.61806
101.33335
101.92189
102.40913
102.79039
103.07638
103.24583
103.32863
103.29249
103.12621
102.91731
94.37743
94.48551
95.018087
95.862563
96.918752
98.060507
99.136556
100.08857
100.93567
101.64547
102.21126
102.64229
102.95605
103.14183
103.20335
103.14269
102.94911
102.70795
102.46612
94.81345
94.961874
95.561648
96.475125
97.561612
98.682231
99.736315
100.68132
101.42216
101.98737
102.43483
102.74882
102.92919
102.97481
102.9063
102.74636
102.54796
102.3381
102.09275
95.002705
95.146933
95.717463
96.595823
97.665882
98.809875
99.88909
100.79728
101.55095
102.18231
102.64197
102.90796
103.01206
102.98221
102.84323
102.63012
102.35116
102.01869
101.6692
95.213313
95.430292
96.157594
97.196617
98.437133
99.651292
100.69929
101.52686
102.16393
102.59443
102.80942
102.87371
102.78112
102.57974
102.31971
102.02194
101.72012
101.44136
101.22729
88.570204
90.706773
92.943145
95.318089
97.690967
100.27559
102.72823
105.26985
107.50773
109.15567
109.93827
108.87588
105.66437
100.74203
93.305932
82.36553
69.408834
55.510303
43.096332
93.355937
95.512918
97.81441
100.11807
102.58737
105.18711
107.67816
110.34291
112.38478
113.6801
113.62446
111.42225
107.24368
102.32204
95.425792
86.974926
77.341163
67.204484
58.36026
97.672486
99.858589
102.04364
104.21632
106.59582
108.93113
111.28092
113.38486
114.88952
115.86087
115.43408
113.42114
109.8206
105.2746
99.302324
92.214029
84.776576
77.499355
71.271671
101.02878
103.06159
104.94473
106.88418
108.87071
110.75562
112.54411
113.97085
115.15398
115.82796
115.70724
114.03246
110.80019
106.59405
101.44915
95.836729
90.233965
84.976441
80.534604
103.18121
104.84607
106.36201
107.92051
109.44707
110.84834
112.12621
113.06937
113.97098
114.46111
114.35098
112.90934
110.06813
106.29652
101.75557
97.083437
92.832801
89.239375
86.364815
104.39474
105.71307
106.90142
108.1102
109.25314
110.24187
111.14018
111.81004
112.48762
112.33721
111.62018
109.77122
106.84485
103.29345
99.453814
95.574543
92.073094
89.447602
87.719073
105.06864
106.09638
106.99369
107.94857
108.76497
109.46892
110.0468
110.24459
110.22729
109.38829
107.55579
104.77932
101.20342
97.337667
93.672359
90.813745
88.404736
86.324526
85.196148
105.3808
106.12171
106.82264
107.50567
107.96208
108.1157
107.60985
107.48122
106.28255
104.13417
100.83915
96.562558
91.675613
87.128758
83.37478
80.875176
79.774281
79.881813
80.818385
105.33685
105.87704
106.46995
106.92201
107.08259
106.59802
105.4936
103.53293
100.43817
96.066688
90.584696
84.264467
77.686781
71.885477
68.003457
66.239016
66.447122
68.627282
71.903625
104.8483
105.262
105.68722
105.94075
105.82183
105.17252
103.39902
99.973992
94.858825
87.479144
78.719576
69.192162
59.658288
50.997233
43.971749
40.655748
41.64869
46.42193
53.263952
103.91197
104.09314
104.27037
104.2121
103.73293
102.71316
100.93047
98.23139
93.215381
84.592076
73.675319
60.215291
43.594644
31.211747
21.114663
16.435848
18.944353
28.008948
39.922745
102.85023
102.75451
102.64991
102.22971
101.33193
99.829769
97.498505
94.008577
88.985327
81.59386
72.117283
61.18343
49.732171
39.575566
32.725658
30.371137
33.004569
40.293844
49.885025
102.2263
102.07088
101.89756
101.47539
100.66567
99.461314
97.76914
95.379176
92.191414
87.926143
82.521785
76.421179
70.088502
64.140297
59.730973
57.349956
57.603359
60.692175
65.826097
102.21089
102.16244
102.05967
101.78178
101.23274
100.55659
99.612079
98.358328
96.718448
94.545411
91.884468
88.899662
85.529234
82.436577
79.97281
77.734238
76.47586
76.974333
79.061615
102.54383
102.58928
102.54063
102.33393
102.01804
101.65105
101.08368
100.37709
99.406619
98.123676
96.637387
94.810056
92.787781
90.810281
88.563569
87.008834
86.703186
86.852181
86.818039
102.95982
103.04662
103.01284
102.89679
102.73335
102.50394
102.17314
101.73641
101.11524
100.30831
99.340281
98.086894
96.747966
95.281122
93.518425
91.834789
90.364587
89.070416
87.890816
103.3472
103.49298
103.5244
103.48922
103.42075
103.31526
103.1238
102.81985
102.35686
101.72857
100.89869
99.883661
98.75153
97.212665
95.211478
93.136741
91.068015
88.966287
86.749857
103.75231
103.95963
104.0442
104.05707
104.12527
104.12618
104.04219
103.84944
103.50945
103.00461
102.38497
101.59837
100.12763
97.77384
95.059218
92.109702
88.271916
83.046164
76.751777
104.07159
104.26353
104.36921
104.49507
104.6478
104.75726
104.77749
104.78875
104.5203
103.44423
102.19932
101.60715
101.27857
100.01643
97.62605
94.214584
89.737613
84.291894
78.21402
104.16135
104.3185
104.45801
104.65221
104.80103
104.90165
104.86101
104.68435
104.37669
103.89597
103.29053
102.86627
101.50055
99.645261
97.291993
94.449174
90.96137
87.0829
83.195703
103.91665
104.02086
104.20945
104.43497
104.60311
104.70184
104.76819
104.54545
104.40016
102.99133
101.51712
100.50089
99.263915
97.559234
95.719629
93.855958
91.959008
90.258569
88.916895
103.31348
103.42213
103.6014
103.7411
103.84577
103.88711
103.91735
103.66323
103.53487
102.41178
99.858495
96.522585
94.417512
92.985104
91.846829
91.034532
90.654052
90.893302
91.812323
102.6778
102.71769
102.78965
102.83944
102.84186
102.78848
102.69477
102.49836
101.96333
100.81769
99.172186
97.173202
94.778336
91.947108
89.134294
87.00459
85.737731
85.606496
86.63503
102.22192
102.18305
102.19049
102.187
102.10113
101.98569
101.77948
101.47347
100.97399
100.01276
98.361821
95.973293
93.118553
90.322726
87.845956
86.174848
85.604655
86.322804
88.215744
101.94316
101.91336
101.90511
101.86282
101.7868
101.7333
101.67031
101.62563
101.59829
101.58483
101.4854
101.2775
101.10695
100.50152
99.03212
97.057768
95.496549
94.757368
94.784671
101.43165
101.5059
101.6357
101.71664
101.76489
101.80141
101.8242
101.79717
101.61442
101.30812
100.79275
99.574772
98.377623
97.824396
98.038237
98.483017
98.765869
98.677034
98.248957
100.99319
101.12371
101.24597
101.33495
101.4277
101.56566
101.74317
101.97224
102.22295
102.57096
103.18386
103.83814
104.00752
103.90095
103.5944
102.92625
102.02609
100.83504
99.441366
34.088855
29.209655
28.664448
31.804369
37.419108
44.343792
51.462817
58.362725
64.621595
70.400878
75.324597
79.485962
82.971919
85.72532
87.96661
89.645
90.904267
91.811526
92.392175
51.952343
48.362861
47.779853
49.619553
53.176671
57.672163
62.574518
67.381164
71.822288
75.750119
79.38117
82.378792
84.956747
87.152851
88.917718
90.370263
91.441138
92.307873
92.888671
66.744939
64.2585
63.715553
64.588123
66.511966
69.139667
72.146599
75.1858
78.306902
81.004659
83.442066
85.688623
87.515243
89.152878
90.551993
91.682033
92.59814
93.311749
93.809683
77.408156
75.714685
74.931385
75.290285
76.434938
78.081554
80.107538
82.129379
83.999605
85.901706
87.588929
89.165336
90.518548
91.645091
92.76739
93.613463
94.260746
94.797947
95.124962
84.088961
82.728863
82.474268
82.963009
83.956613
85.121493
86.419839
87.993454
89.358024
90.540746
91.649389
92.726635
93.669469
94.368491
95.132222
95.802674
96.208717
96.534859
96.671885
86.808238
86.560054
86.885009
87.590077
88.62528
89.864947
91.216225
92.474159
93.534255
94.547787
95.407323
96.092217
96.653216
97.126778
97.567012
98.015368
98.287577
98.417211
98.389425
85.232633
86.108506
87.644147
89.55079
91.306679
92.701193
94.080367
95.543452
96.682747
97.580733
98.300671
98.857821
99.299449
99.568367
99.846007
100.12044
100.30884
100.32695
100.16618
82.483335
84.658046
87.051294
89.713848
92.395453
94.656239
96.263562
97.709746
98.961004
99.917875
100.66989
101.1295
101.45852
101.64569
101.78427
101.9365
102.05972
102.0364
101.79472
75.869072
80.195119
84.352445
88.211662
91.985847
95.311418
97.768247
99.530181
100.92571
101.87406
102.54847
103.04367
103.29489
103.38458
103.41295
103.45965
103.4929
103.4628
103.18012
61.08986
69.1573
76.853616
83.540843
89.352008
94.253447
97.929333
100.36601
102.10565
103.35635
104.05447
104.45703
104.68608
104.75024
104.69773
104.67741
104.64009
104.56818
104.29936
52.146071
63.505243
73.358288
81.421822
87.962784
93.439539
97.648414
100.5017
102.43597
103.85715
104.78301
105.23894
105.45069
105.54917
105.52579
105.46375
105.41769
105.33023
105.1117
59.741223
69.201855
77.631319
84.719703
90.464235
95.102415
98.584415
100.9643
102.69385
103.96418
104.8032
105.35766
105.6417
105.79345
105.8412
105.82505
105.80345
105.73107
105.57113
71.937653
78.241858
84.256892
89.620021
94.094417
97.677095
100.35204
102.17573
103.48917
104.51599
105.0295
105.43715
105.72392
105.90667
105.98919
105.99401
105.99538
105.92797
105.78775
82.119673
85.442719
89.108914
92.716939
95.973933
98.837647
101.16523
102.92454
104.35512
104.99115
105.62298
106.01539
106.14605
106.22087
106.26141
106.22096
106.18212
106.11829
105.95461
87.050129
88.236148
90.093793
92.290504
94.640398
97.095683
99.56187
101.80644
103.71201
104.99807
105.48368
105.6255
106.09624
106.27809
106.36371
106.35364
106.28656
106.22815
106.08192
87.096463
86.909892
87.314201
88.306905
89.866284
92.001082
94.658385
97.315122
99.768822
101.83688
103.68286
105.227
105.57246
106.09746
106.2777
106.31301
106.22521
106.13847
106.05232
84.62001
82.675843
80.910551
80.017451
80.477939
82.417538
85.589998
89.450653
93.624512
97.819528
101.65571
104.21248
105.05587
105.67985
105.87566
105.93954
105.88153
105.74692
105.69147
70.139369
64.149041
60.75988
61.361008
65.515516
71.657662
78.817825
86.203954
92.90885
98.247716
101.71479
103.51226
104.2706
104.70864
104.93971
105.06395
105.07783
104.99434
104.97127
71.849594
65.949112
62.572498
61.834122
63.997961
68.915427
75.666777
82.972111
89.648901
95.038217
98.782883
100.96157
102.22407
103.04109
103.55658
103.9293
104.12326
104.19942
104.25613
79.755666
77.366937
76.648601
77.738331
80.353555
84.007548
88.054055
91.971125
95.429718
98.185203
100.09467
101.40309
102.27712
102.88246
103.29884
103.60865
103.80119
103.90315
103.98419
88.139353
88.277201
89.37484
91.007661
93.016182
95.372685
97.647886
99.514909
100.9403
101.95565
102.64325
103.12751
103.43693
103.6462
103.7838
103.87629
103.95949
103.98142
104.00223
93.045045
94.439253
96.114011
97.936502
99.445905
100.78194
102.04797
102.98566
103.57589
103.95703
104.1654
104.26668
104.29774
104.28139
104.21739
104.12873
104.08444
104.04368
103.99427
88.574138
91.108425
93.862992
96.725299
99.222587
100.91857
101.98678
102.80794
103.60104
104.25362
104.5115
104.46095
104.41871
104.28548
104.18426
104.06688
103.95314
103.88191
103.78553
90.798623
93.604431
96.214694
98.473642
100.27536
101.47575
102.26507
102.53966
104.02655
104.348
104.1733
104.16338
104.10485
103.95485
103.82843
103.70666
103.59222
103.44743
103.36994
95.387573
96.36342
97.462229
98.55274
99.387551
99.79098
100.02333
100.41991
101.93777
102.97978
103.11154
103.29353
103.18649
103.13158
103.03187
102.91126
102.8
102.62963
102.55569
97.617521
97.146423
97.216247
97.875312
98.991966
100.58953
102.19572
103.23843
103.09654
102.50229
102.08808
102.02081
101.90834
101.84157
101.80327
101.75556
101.70241
101.63028
101.64475
98.193332
97.184279
96.313976
95.644269
95.428884
95.70185
96.336159
97.174564
98.101371
99.237854
99.900782
100.12522
100.29752
100.3938
100.47923
100.54983
100.60452
100.63097
100.64585
92.756558
92.874182
92.759903
92.478802
92.076838
91.552913
90.972393
90.324983
89.665138
88.998107
88.287868
87.609846
86.970088
86.326872
85.793344
85.286519
84.933006
84.666032
84.546325
93.286869
93.486912
93.500794
93.323201
93.042802
92.597458
92.091158
91.492321
90.840032
90.192019
89.470198
88.758009
88.094216
87.417689
86.849053
86.370991
85.983528
85.727848
85.61993
94.170486
94.354601
94.373829
94.248647
94.035024
93.664687
93.201674
92.652637
92.015464
91.348519
90.630014
89.893421
89.189966
88.510785
87.885195
87.41229
87.018383
86.763331
86.672085
95.294886
95.368851
95.345905
95.190529
94.963621
94.635854
94.191481
93.678391
93.077337
92.40931
91.70862
90.978907
90.266853
89.563336
88.939881
88.425828
88.042115
87.777896
87.718287
96.630121
96.564157
96.405132
96.174948
95.905577
95.553297
95.120261
94.628817
94.067296
93.423234
92.73207
92.00308
91.302155
90.585783
89.9581
89.426052
89.034205
88.796007
88.738658
98.156462
97.891399
97.585125
97.265398
96.914667
96.503522
96.056557
95.559537
95.003688
94.389095
93.725654
93.000849
92.292574
91.594491
90.942295
90.419088
90.007919
89.797252
89.747855
99.765707
99.310152
98.872083
98.435877
97.986673
97.52073
97.024891
96.498552
95.938906
95.309409
94.66511
93.964651
93.234132
92.557875
91.900284
91.383982
90.968604
90.752351
90.740861
101.31866
100.77087
100.20133
99.642544
99.106444
98.561993
98.015961
97.44908
96.865666
96.231176
95.568543
94.905092
94.168731
93.483036
92.82757
92.300218
91.907111
91.714407
91.697165
102.67518
102.09068
101.48694
100.8407
100.21432
99.617053
99.000316
98.401062
97.768934
97.133251
96.450294
95.780101
95.06592
94.37742
93.726456
93.198925
92.795528
92.623842
92.635432
103.82493
103.24683
102.61547
101.97985
101.29291
100.64474
99.98505
99.340985
98.678704
98.016689
97.32786
96.639279
95.928889
95.241842
94.593771
94.064929
93.67863
93.492066
93.554568
104.69546
104.18791
103.58156
102.96152
102.29045
101.61494
100.92625
100.24728
99.559467
98.871929
98.169143
97.468977
96.760826
96.068945
95.434379
94.889037
94.531971
94.322434
94.419552
105.25234
104.87284
104.36478
103.79356
103.15636
102.49178
101.80626
101.11248
100.40578
99.699786
98.981719
98.268734
97.563287
96.854915
96.240916
95.680139
95.342676
95.157464
95.243947
105.56019
105.29976
104.91618
104.43902
103.8738
103.25554
102.58638
101.8962
101.19588
100.4858
99.759387
99.022267
98.3291
97.608768
96.995029
96.45307
96.098639
95.945926
96.023035
105.72542
105.5455
105.26157
104.89478
104.42279
103.88013
103.26418
102.59436
101.90736
101.19857
100.49536
99.749873
99.048249
98.340284
97.704194
97.187939
96.812122
96.685985
96.7743
105.85249
105.71164
105.47944
105.19158
104.82112
104.36078
103.8191
103.19804
102.55335
101.85172
101.15372
100.42667
99.711893
99.022796
98.372542
97.876231
97.509878
97.384165
97.487052
105.88968
105.76662
105.58818
105.36045
105.08179
104.70135
104.24994
103.68563
103.08404
102.4286
101.74615
101.04616
100.33371
99.665263
99.009382
98.508781
98.150668
98.024214
98.14842
105.69732
105.68703
105.59366
105.43251
105.23833
104.93253
104.56658
104.09121
103.53559
102.92911
102.27992
101.60871
100.90017
100.24591
99.611224
99.100576
98.75658
98.640625
98.775106
105.19126
105.33504
105.4088
105.35479
105.2506
105.04247
104.7485
104.3705
103.88691
103.33128
102.71787
102.08635
101.40894
100.76544
100.16345
99.649703
99.313427
99.191307
99.337824
104.60522
104.84753
105.04113
105.13112
105.13848
105.05113
104.84443
104.55951
104.16134
103.67535
103.11186
102.52189
101.88922
101.23977
100.65341
100.14864
99.827373
99.717969
99.867896
104.19904
104.40894
104.62651
104.8052
104.90353
104.92541
104.81986
104.62489
104.31837
103.91235
103.4068
102.84324
102.2553
101.64487
101.08652
100.59599
100.27707
100.17986
100.30811
104.0505
104.16826
104.32449
104.50197
104.64981
104.74578
104.73732
104.6321
104.41879
104.08877
103.67346
103.16778
102.63436
102.04749
101.48307
101.00896
100.68988
100.61063
100.82311
103.93906
104.04959
104.15765
104.2879
104.42974
104.54301
104.59914
104.56635
104.43607
104.17664
103.82814
103.37239
102.84984
102.31367
101.78892
101.34298
101.04236
100.95498
101.11643
103.74351
103.8957
104.00741
104.12117
104.24149
104.35908
104.45653
104.4841
104.42385
104.24958
103.96875
103.61703
103.1673
102.6641
102.13344
101.66592
101.36485
101.28893
101.48341
103.48441
103.72106
103.88165
104.0215
104.14654
104.2509
104.34033
104.39488
104.37503
104.26125
104.02956
103.68695
103.26634
102.77635
102.29683
101.87718
101.59306
101.52657
101.69721
102.88315
103.22611
103.48504
103.68743
103.86765
104.01472
104.15002
104.26771
104.33011
104.29002
104.13673
103.87888
103.53933
103.12081
102.62414
102.15526
101.82821
101.74977
101.95059
102.14535
102.68635
103.17115
103.54297
103.82325
104.03224
104.1477
104.23371
104.28805
104.27322
104.14543
103.89109
103.52165
103.11071
102.66058
102.23297
101.92696
101.85938
102.0643
101.09109
101.5731
102.0846
102.58313
103.03906
103.41448
103.72592
103.96794
104.14908
104.25506
104.25009
104.11371
103.85315
103.46315
102.99216
102.49447
102.08903
101.94349
102.15238
84.548996
84.764211
85.067658
85.479292
86.092699
86.853346
87.77052
88.835277
90.005564
91.287285
92.697979
94.190263
95.800256
97.46221
99.19752
100.98065
102.80161
104.61112
106.4326
85.638081
85.804467
86.183728
86.674948
87.316796
88.098795
89.013841
90.085749
91.231738
92.520298
93.909065
95.365139
96.941737
98.542998
100.19181
101.87605
103.56383
105.26131
106.92248
86.742388
86.981759
87.312499
87.840886
88.490974
89.318872
90.238601
91.302768
92.462851
93.724924
95.097305
96.523487
98.038699
99.576848
101.14767
102.70452
104.27117
105.84176
107.36691
87.81421
88.072925
88.445509
88.979526
89.668827
90.504419
91.441535
92.484181
93.662965
94.89362
96.215113
97.61265
99.068612
100.54046
102.01673
103.47404
104.91288
106.33054
107.73005
88.888384
89.135128
89.558315
90.115468
90.798561
91.635435
92.58584
93.63277
94.779445
96.002286
97.294027
98.627805
100.01799
101.42484
102.82093
104.17841
105.47555
106.74425
108.0112
89.931518
90.29328
90.652799
91.21
91.904639
92.734526
93.690633
94.736746
95.873714
97.044123
98.305581
99.6072
100.91455
102.24099
103.5293
104.77644
105.97246
107.0979
108.2098
90.932994
91.20581
91.68595
92.256843
92.970661
93.794866
94.744171
95.777693
96.888673
98.045054
99.230685
100.47324
101.72954
102.95388
104.14208
105.27742
106.35511
107.38723
108.39305
91.930004
92.232722
92.704938
93.286787
93.997386
94.826034
95.760324
96.778046
97.838819
98.965512
100.11747
101.27746
102.4507
103.60289
104.69416
105.72542
106.7048
107.63827
108.53352
92.876963
93.215771
93.684593
94.277308
94.977222
95.795878
96.707104
97.706783
98.743821
99.807518
100.89066
101.99546
103.10151
104.16814
105.16367
106.09066
106.96642
107.81819
108.62813
93.806188
94.156923
94.624454
95.211
95.901184
96.714831
97.609725
98.579658
99.582729
100.60626
101.64328
102.67164
103.6784
104.65004
105.56385
106.41218
107.20022
107.94747
108.67009
94.686409
95.043758
95.515274
96.110321
96.799275
97.587522
98.461939
99.394723
100.36109
101.32826
102.29113
103.24365
104.16965
105.06323
105.90664
106.68124
107.38624
108.03204
108.67674
95.547023
95.907338
96.387532
96.961881
97.634198
98.397252
99.240515
100.13159
101.05117
101.97265
102.87298
103.76393
104.63908
105.45847
106.22145
106.90141
107.53139
108.11016
108.6706
96.34586
96.704567
97.176636
97.751895
98.407987
99.148286
99.965456
100.82587
101.71027
102.57588
103.4246
104.24732
105.03227
105.75722
106.43548
107.05346
107.62257
108.14585
108.64886
97.107444
97.468534
97.935389
98.503536
99.144998
99.865048
100.65162
101.46014
102.28995
103.09599
103.87297
104.62606
105.34232
106.01947
106.65462
107.22646
107.7273
108.18641
108.61518
97.825298
98.187589
98.652668
99.204163
99.823532
100.51064
101.25763
102.02429
102.80447
103.57062
104.29741
104.99839
105.66096
106.27887
106.83572
107.32858
107.76042
108.15647
108.53213
98.486872
98.846555
99.286246
99.837041
100.44334
101.10875
101.81873
102.54624
103.27925
104.0018
104.6761
105.30386
105.88849
106.44743
106.95366
107.40587
107.81085
108.17541
108.52054
99.118026
99.478749
99.93889
100.45204
101.02213
101.65484
102.32188
103.00838
103.69403
104.36423
104.98828
105.5634
106.10359
106.62218
107.09917
107.51312
107.8606
108.15049
108.44011
99.677031
100.02713
100.44702
100.96651
101.52699
102.13547
102.77067
103.42023
104.07097
104.69663
105.28076
105.81376
106.31158
106.77223
107.19188
107.55049
107.85774
108.12518
108.37651
100.20784
100.5542
100.97395
101.46903
102.00425
102.58544
103.19319
103.80461
104.41234
104.98918
105.52372
106.01364
106.4668
106.88314
107.26936
107.60851
107.89525
108.13906
108.35855
100.66478
101.00672
101.40738
101.86207
102.40889
102.97991
103.55546
104.1288
104.69245
105.23481
105.73641
106.19512
106.62499
107.00914
107.36286
107.67127
107.9217
108.12684
108.30367
101.12819
101.45525
101.85666
102.3387
102.85393
103.35231
103.88338
104.42716
104.9679
105.48098
105.95445
106.37583
106.76576
107.11448
107.43043
107.71104
107.93971
108.13534
108.30424
101.45445