/*--------------------------------*- C++ -*----------------------------------*\
  =========                 |
  \\      /  F ield         | OpenFOAM: The Open Source CFD Toolbox
   \\    /   O peration     | Website:  https://openfoam.org
    \\  /    A nd           | Version:  11
     \\/     M anipulation  |
\*---------------------------------------------------------------------------*/
FoamFile
{
    format      ascii;
    class       surfaceScalarField;
    location    "9.4";
    object      phi;
}
// * * * * * * * * * * * * * * * * * * * * * * * * * * * * * * * * * * * * * //

dimensions      [0 3 -1 0 0 0 0];

internalField   nonuniform List<scalar> 
10792
(
0.068687237
-0.042929186
-0.069116939
0.043358888
0.068187345
-0.040905246
0.041405138
0.067549941
-0.03862502
0.039262425
0.066846491
-0.036409633
0.037113083
0.066050978
-0.034051482
0.034846995
0.065309182
-0.031710241
0.032452037
0.064483738
-0.029438756
0.030264201
0.063669824
-0.02687752
0.027691433
0.062872555
-0.024546067
0.025343337
0.062105806
-0.021927618
0.022694368
0.061348767
-0.019516121
0.02027316
0.060683129
-0.01685555
0.017521188
0.059998871
-0.014397111
0.01508137
0.05949405
-0.011639896
0.012144718
0.058909582
-0.0092400493
0.0098245172
0.058501222
-0.0063734476
0.0067818089
0.058155084
-0.0040415433
0.0043876813
0.058029998
-0.0011714715
0.0012965586
0.0012480606
0.057950324
-0.0011683858
0.072651591
-0.04249927
-0.073081507
0.072084222
-0.040337877
0.07142552
-0.037966318
0.070735159
-0.035719271
0.070011633
-0.033327956
0.06931655
-0.031015159
0.068488735
-0.028610941
0.067699003
-0.026087788
0.066916186
-0.02376325
0.066152503
-0.021163935
0.065409338
-0.018772956
0.064748527
-0.016194739
0.064068674
-0.013717258
0.063534243
-0.011105465
0.062974422
-0.0086802274
0.062633473
-0.0060324983
0.062296077
-0.0037041469
0.062029158
-0.00090455157
0.0013734162
0.061903803
0.077217848
-0.042118837
-0.077598281
0.076629688
-0.039749717
0.076005267
-0.037341897
0.075404446
-0.035118451
0.074732546
-0.032656056
0.074025223
-0.030307836
0.073158805
-0.027744523
0.072394169
-0.025323151
0.07157588
-0.022944961
0.070794522
-0.020382578
0.07004771
-0.018026143
0.069319429
-0.015466457
0.068653856
-0.013051684
0.068059659
-0.010511267
0.067522566
-0.0081431341
0.067115028
-0.0056249595
0.066729235
-0.0033183536
0.066515803
-0.00069111871
0.0015744754
0.066314744
0.081704812
-0.041669963
-0.082153686
0.08103438
-0.039079285
0.080579458
-0.036886974
0.079941275
-0.034480267
0.079161264
-0.031876045
0.078349116
-0.029495688
0.077536947
-0.026932354
0.076822734
-0.024608939
0.075988405
-0.022110631
0.075273772
-0.019667945
0.074513528
-0.017265899
0.073817853
-0.014770782
0.073197026
-0.012430857
0.072631434
-0.009945674
0.072144981
-0.0076566805
0.071730014
-0.0052099926
0.071368944
-0.002957283
0.071142175
-0.00046434903
0.0017665333
0.070950118
0.086861821
-0.041150787
-0.087380996
0.086348824
-0.038566289
0.08586205
-0.0364002
0.085014536
-0.033632754
0.084333861
-0.03119537
0.083618599
-0.028780426
0.082955722
-0.026269477
0.082196132
-0.023849349
0.081359083
-0.021273582
0.080637082
-0.018945943
0.079814523
-0.016443341
0.079151575
-0.014107833
0.078477636
-0.011756919
0.077929206
-0.0093972435
0.077392325
-0.0071197992
0.076934374
-0.0047520403
0.076525084
-0.0025479925
0.076228419
-0.0001676839
0.0019845275
0.076010425
0.092110235
-0.040481443
-0.092779579
0.091500293
-0.037956347
0.090800972
-0.035700878
0.090055336
-0.032887118
0.089488319
-0.030628353
0.08872359
-0.028015697
0.088023172
-0.025569058
0.087194787
-0.023020964
0.086461746
-0.020540542
0.085715749
-0.018199945
0.084964518
-0.01569211
0.084336235
-0.01347955
0.083628454
-0.011049137
0.083084811
-0.0088536006
0.082506166
-0.0065411533
0.082123987
-0.0043698605
0.081773531
-0.0021975366
0.081594637
1.1211168e-05
0.0021455294
0.081433635
0.097898299
-0.039849153
-0.098530589
0.097376614
-0.037434662
0.096698795
-0.035023059
0.096118397
-0.03230672
0.095473256
-0.029983212
0.094638271
-0.027180712
0.093973277
-0.024904064
0.093165406
-0.022213093
0.092517933
-0.019893069
0.091713762
-0.017395775
0.091025817
-0.015004165
0.090279993
-0.012733725
0.08958461
-0.010353753
0.089002758
-0.0082717479
0.088427932
-0.0059663267
0.088023009
-0.0039649377
0.087582663
-0.00175719
0.087350227
0.00024364709
0.0024008267
0.08709493
0.1041204
-0.039077053
-0.1048925
0.10348613
-0.036800388
0.10271912
-0.034256048
0.10213785
-0.031725454
0.10133906
-0.029184422
0.10059893
-0.026440579
0.099910237
-0.024215373
0.099114355
-0.021417211
0.098484765
-0.019263479
0.097639233
-0.016550243
0.097008648
-0.01437358
0.096262234
-0.011987311
0.095702527
-0.0097940456
0.095074884
-0.0076441041
0.094569092
-0.0054605342
0.094125758
-0.0035216036
0.093771013
-0.0014024446
0.093533715
0.0004809455
0.0026061257
0.093328416
0.11086743
-0.038436539
-0.11150794
0.11018975
-0.036122703
0.10931231
-0.033378612
0.10861259
-0.031025738
0.10789509
-0.028466916
0.10737864
-0.025924129
0.10660147
-0.023438209
0.10586711
-0.020682845
0.10510852
-0.018504896
0.10431337
-0.015755088
0.10369191
-0.013752124
0.10292162
-0.011217021
0.10236308
-0.0092355045
0.10166897
-0.0069499888
0.10122322
-0.0050147865
0.100672
-0.0029703853
0.1003368
-0.0010672444
0.10002382
0.00079392656
0.0027597961
0.099870154
0.11806175
-0.037711217
-0.11878707
0.11738611
-0.035447063
0.11667089
-0.032663394
0.11592853
-0.030283376
0.11501957
-0.027557963
0.11437623
-0.025280789
0.11363892
-0.02270089
0.11310573
-0.02014966
0.11229876
-0.017697929
0.11161262
-0.015068943
0.1108848
-0.013024307
0.11018342
-0.010515637
0.10959756
-0.0086496443
0.10895994
-0.0063123678
0.1085516
-0.0046064437
0.10800506
-0.0024238494
0.10771508
-0.00077726636
0.10732919
0.0011798202
0.0028773255
0.10721166
0.1257581
-0.037011986
-0.12645733
0.12492378
-0.03461274
0.12417013
-0.031909747
0.12348455
-0.029597799
0.12271046
-0.02678387
0.12190887
-0.024479193
0.12100677
-0.021798796
0.12038924
-0.01953213
0.11958547
-0.016894162
0.11898525
-0.014468722
0.11813383
-0.012172881
0.11749182
-0.0098736242
0.1168095
-0.0079673245
0.11627742
-0.0057802899
0.11577556
-0.0041045843
0.11529818
-0.0019464665
0.11497886
-0.00045795304
0.11463869
0.00152
0.002982966
0.11453305
0.13451183
-0.03620882
-0.135315
0.13349673
-0.033597633
0.13271075
-0.031123772
0.13176184
-0.028648892
0.13098675
-0.026008774
0.13016683
-0.023659274
0.12937283
-0.021004798
0.12867492
-0.018834216
0.12792842
-0.016147669
0.12736418
-0.013904473
0.12659372
-0.011402425
0.12604609
-0.0093259888
0.12530282
-0.0072240568
0.12485674
-0.0053342103
0.12426452
-0.0035123653
0.12392243
-0.0016043725
0.12352892
-6.4442169e-05
0.12324237
0.0018065503
0.0031755534
0.12304978
0.14316033
-0.035274565
-0.14409458
0.14220053
-0.032637832
0.14139653
-0.030319773
0.14046162
-0.027713981
0.13971039
-0.025257549
0.13877851
-0.022727397
0.13803664
-0.020262929
0.13717882
-0.017976387
0.13643038
-0.015399228
0.13573564
-0.013209736
0.13499192
-0.010658703
0.13437441
-0.0087084785
0.13366192
-0.0065115725
0.13320954
-0.0048818254
0.13260768
-0.002910504
0.13231357
-0.0013102613
0.1318339
0.00041522953
0.13165643
0.0019840164
0.0034309209
0.13140106
0.15330233
-0.034051597
-0.1545253
0.152293
-0.031628496
0.15128428
-0.029311055
0.15025904
-0.026688746
0.14939539
-0.024393895
0.14847105
-0.021803058
0.14775533
-0.019547209
0.14684186
-0.017062911
0.14621999
-0.014777361
0.14544796
-0.012437702
0.14481983
-0.010030575
0.14410729
-0.0079959395
0.14348387
-0.005888154
0.14291942
-0.0043173694
0.1424195
-0.0024105873
0.14212596
-0.001016722
0.14169793
0.00084325816
0.14150122
0.0021807249
0.0037911389
0.14114101
0.16332321
-0.032714646
-0.16466016
0.16216843
-0.030473717
0.16105393
-0.028196549
0.16011881
-0.025753626
0.15917919
-0.02345428
0.15828839
-0.020912256
0.15740411
-0.018662932
0.15647094
-0.016129743
0.15578685
-0.014093263
0.15497769
-0.011628549
0.15446717
-0.0095200541
0.15378596
-0.0073147299
0.15329152
-0.0053937097
0.1526193
-0.0036451506
0.15223885
-0.0020301335
0.151829
-0.00060687786
0.15166786
0.0010044066
0.15155905
0.0022895316
0.0038662496
0.15148394
0.17547301
-0.031287756
-0.1768999
0.17416829
-0.029168999
0.17292311
-0.026951374
0.17184538
-0.024675889
0.1707709
-0.022379805
0.1698742
-0.02001556
0.16891857
-0.0177073
0.16809666
-0.015307828
0.16725027
-0.013246875
0.16647591
-0.010854188
0.16586384
-0.0089079869
0.16520137
-0.0066522572
0.16464719
-0.0048395312
0.16392749
-0.0029254447
0.16343846
-0.001541103
0.16283939
-7.8095702e-06
0.16260967
0.0012341231
0.16231873
0.0025804721
0.0038295356
0.16235545
0.18735035
-0.029716012
-0.18892209
0.18582779
-0.027646443
0.18443974
-0.025563321
0.18315823
-0.023394381
0.18199076
-0.021212339
0.18102904
-0.019053838
0.18008699
-0.01676525
0.17927935
-0.014500182
0.17836066
-0.012328191
0.17761082
-0.010104345
0.17692283
-0.0082199992
0.17641723
-0.0061466501
0.17598811
-0.0044104114
0.17560694
-0.0025442736
0.17524172
-0.0011758866
0.1748174
0.00041651398
0.1745902
0.0014613212
0.17432072
0.002849954
0.003820015
0.17433024
0.20142892
-0.027917421
-0.20322751
0.19975042
-0.025967943
0.19825032
-0.02406322
0.19683418
-0.021978244
0.19560477
-0.019982925
0.19446693
-0.017915996
0.1934614
-0.015759722
0.19255602
-0.013594807
0.19162164
-0.011393801
0.19077448
-0.0092571861
0.18989039
-0.0073359136
0.18918945
-0.0054457118
0.18854338
-0.0037643416
0.18808416
-0.0020850459
0.1876261
-0.00071783072
0.18732801
0.00071460355
0.18706
0.0017293277
0.18690204
0.0030079171
0.003854073
0.18686798
0.21555094
-0.025827118
-0.21764125
0.21363615
-0.02405315
0.21187098
-0.022298054
0.21029639
-0.020403646
0.20887446
-0.018560995
0.20753577
-0.016577312
0.20643696
-0.014660911
0.20549675
-0.012654598
0.20470691
-0.010603957
0.20400931
-0.0085595898
0.20333355
-0.0066601529
0.20272524
-0.0048373963
0.20215157
-0.0031906773
0.20172919
-0.0016626648
0.20131073
-0.0002993715
0.20108482
0.00094052096
0.2008464
0.0019677427
0.20079128
0.0030630404
0.0038686414
0.20077671
0.23186606
-0.023408437
-0.23428474
0.22973663
-0.021923723
0.22776343
-0.020324851
0.22600472
-0.018644941
0.22440081
-0.016957083
0.22294873
-0.01512523
0.22163156
-0.013343749
0.2204428
-0.011465832
0.21945293
-0.0096140926
0.21866183
-0.0077684871
0.21800883
-0.0060071502
0.21743737
-0.0042659325
0.21692637
-0.0026796866
0.21649927
-0.0012355608
0.21613189
6.8012191e-05
0.21585515
0.001217258
0.2156567
0.0021661971
0.21560754
0.0031121999
0.0038401015
0.21563608
0.24858089
-0.020838656
-0.25115067
0.24619197
-0.019534799
0.24397637
-0.018109255
0.2420618
-0.016730367
0.24028984
-0.015185126
0.23881305
-0.013648437
0.23743048
-0.011961182
0.23621923
-0.010254586
0.23515465
-0.0085495036
0.2342449
-0.0068587431
0.23351372
-0.0052759641
0.23298608
-0.0037383017
0.23255494
-0.0022485464
0.23222528
-0.00090589908
0.23200208
0.00029121461
0.23182657
0.0013927673
0.23176642
0.0022263489
0.23179331
0.0030853101
0.003693988
0.23193942
0.26745085
-0.018044571
-0.27024493
0.26480727
-0.016891218
0.2623383
-0.015640281
0.26001608
-0.014408149
0.25798342
-0.013152466
0.25621633
-0.011881355
0.25469398
-0.010438826
0.25343669
-0.0089972995
0.2523357
-0.007448509
0.25142295
-0.0059459965
0.25060969
-0.0044627033
0.2499958
-0.0031244075
0.24950655
-0.0017593005
0.24917614
-0.00057548721
0.24893779
0.00052956254
0.24886706
0.0014635002
0.24889171
0.0022016967
0.24904385
0.0029331684
0.0034012028
0.24933664
0.28720016
-0.015135814
-0.29010891
0.28445599
-0.014147053
0.28194203
-0.013126317
0.27950795
-0.011974076
0.27729247
-0.010936985
0.27524271
-0.009831591
0.27348709
-0.0086832101
0.27200875
-0.0075189598
0.270772
-0.0062117521
0.26977812
-0.0049521176
0.26894868
-0.0036332691
0.26828441
-0.0024601322
0.26781163
-0.0012865258
0.26757506
-0.00033890889
0.2674733
0.00063132167
0.2674647
0.001472093
0.26757912
0.0020872795
0.26778953
0.0027227618
0.0030953354
0.2680954
0.30856251
-0.011839446
-0.31185888
0.30544324
-0.011027782
0.30254813
-0.010231199
0.29994253
-0.0093684802
0.29752575
-0.0085202091
0.29534749
-0.0076533321
0.29342568
-0.0067613906
0.29176307
-0.0058563527
0.29041924
-0.0048679193
0.289373
-0.0039058771
0.28861857
-0.0028788413
0.28808225
-0.0019238186
0.28773449
-0.00093875915
0.28748782
-9.2244363e-05
0.28749103
0.00062811424
0.28765794
0.0013051876
0.28797442
0.0017707959
0.28840065
0.0022965294
0.0025463103
0.28894968
0.33187817
-0.0083322148
-0.33538541
0.32855791
-0.007707517
0.32544259
-0.007115878
0.32258211
-0.0065079997
0.31995609
-0.0058941899
0.31758609
-0.0052833383
0.31547617
-0.0046514674
0.31361643
-0.0039966128
0.31206842
-0.0033199114
0.31081089
-0.0026483386
0.30985902
-0.0019269764
0.30921651
-0.0012813076
0.30885457
-0.00057681435
0.30884227
-7.9945961e-05
0.3089547
0.00051567743
0.3092707
0.00098919609
0.30971299
0.0013285019
0.31020576
0.0018037596
0.0018879017
0.31086417
0.35661397
-0.0043761157
-0.36057007
0.35297858
-0.0040721229
0.34960211
-0.0037394135
0.34649988
-0.003405765
0.34367032
-0.0030646286
0.3411317
-0.0027447213
0.33887413
-0.0023938919
0.33690812
-0.0020306114
0.33527032
-0.0016821108
0.33393617
-0.0013141893
0.33298222
-0.00097302441
0.3323419
-0.00064098185
0.33207129
-0.00030620405
0.33202587
-3.4525739e-05
0.33231757
0.00022397219
0.33293203
0.00037474211
0.33364112
0.0006194088
0.3344693
0.00097557502
0.00090779611
0.33544941
0.38426944
-0.38864555
0.38019731
0.3764579
0.37305214
0.36998751
0.36724279
0.36484889
0.36281828
0.36113617
0.35982198
0.35884896
0.35820798
0.35790177
0.35786725
0.35809122
0.35846596
0.35908537
0.36006095
0.36096874
0.057769211
0.0042402198
-0.0040591066
0.05793079
0.0065003275
-0.0066619068
0.058236941
0.0092341651
-0.0095403153
0.058804064
0.011626077
-0.012193199
0.059525631
0.014102584
-0.014824151
0.060529507
0.016638094
-0.01764197
0.061603799
0.018956627
-0.020030919
0.062920065
0.021687628
-0.023003894
0.064350456
0.023666218
-0.025096609
0.065830557
0.02646953
-0.02794963
0.067648721
0.028172236
-0.0299904
0.069208052
0.030764144
-0.032323474
0.071251963
0.032673632
-0.034717543
0.072894022
0.034667449
-0.036309508
0.074941476
0.036887958
-0.038935412
0.077015233
0.038069491
-0.040143248
0.078766912
0.04012054
-0.041872218
0.080992558
0.041082273
-0.043307919
0.042506793
0.082464617
-0.043978851
0.061805175
0.0043388479
0.061996286
0.006309217
0.062380576
0.0088498756
0.06308074
0.010925913
0.063873114
0.01331021
0.064967623
0.015543584
0.066092754
0.017831497
0.067511937
0.020268445
0.068851363
0.022326792
0.070393425
0.024927469
0.071891732
0.02667393
0.07336028
0.029295596
0.074973635
0.031060277
0.076221507
0.033419577
0.077741807
0.035367658
0.078721165
0.037090134
0.079862571
0.038979133
0.080661392
0.040283452
0.042106245
0.08106194
0.066254339
0.0043992525
0.066362675
0.0062008817
0.06673981
0.0084727398
0.067359715
0.010306008
0.068111076
0.01255885
0.069101224
0.014553436
0.070148978
0.016783743
0.0714716
0.018945823
0.072703371
0.021095023
0.074211538
0.023419302
0.075396786
0.025488682
0.076869272
0.02782311
0.077964703
0.029964847
0.079057107
0.032327173
0.079858259
0.034566506
0.080160782
0.036787612
0.080346134
0.03879378
0.079795392
0.040834195
0.042872218
0.079029419
0.070886802
0.004462568
0.071021218
0.0060664664
0.071447036
0.0080469224
0.072057397
0.0096956469
0.072888046
0.011728202
0.073857394
0.013584088
0.074952586
0.015688551
0.076108922
0.017789487
0.077289389
0.019914556
0.078506761
0.022201931
0.079494981
0.024500463
0.080544831
0.02677326
0.081086474
0.029423204
0.081704864
0.031708783
0.081619105
0.034652265
0.081318873
0.037087844
0.080216195
0.039896459
0.078573856
0.042476533
0.045297901
0.076148173
0.075846911
0.0046260817
0.075916415
0.0059969629
0.076283469
0.0076798686
0.076864645
0.00911447
0.077621095
0.010971752
0.07851811
0.012687073
0.079509613
0.014697048
0.080531375
0.016767726
0.081525258
0.018920673
0.082455803
0.021271387
0.083268874
0.023687393
0.083767222
0.026274911
0.084012598
0.029177828
0.083871773
0.031849608
0.083169189
0.03535485
0.082148198
0.038108835
0.079942942
0.042101715
0.077491429
0.044928047
0.049156766
0.073632564
0.081383851
0.0046758659
0.081500004
0.0058808106
0.081907461
0.0072724116
0.082417346
0.008604586
0.083123921
0.010265177
0.083913459
0.011897535
0.084758733
0.013851774
0.085625526
0.015900934
0.086298259
0.018247941
0.086940113
0.020629534
0.087216768
0.023410739
0.087263384
0.026228297
0.086877897
0.029563315
0.085988205
0.0327393
0.084717161
0.036625894
0.082796774
0.040029221
0.080138064
0.044760425
0.076994302
0.048071809
0.053447034
0.072704033
0.086950316
0.0048204804
0.086969162
0.0058619648
0.087286498
0.0069550754
0.08776233
0.0081287542
0.088484481
0.0095430265
0.089212927
0.011169089
0.090027823
0.013036878
0.090673108
0.01525565
0.091233426
0.017687624
0.091511298
0.020351663
0.091465555
0.023456483
0.091059244
0.026634608
0.090105672
0.030516888
0.088794626
0.034050346
0.086853815
0.038566705
0.084413511
0.042469525
0.081537195
0.04763674
0.077714516
0.051894489
0.05794176
0.073219789
0.093247776
0.0049011214
0.093307998
0.0058017436
0.093685839
0.0065772346
0.094168366
0.0076462275
0.094730479
0.0089809141
0.095260849
0.01063872
0.095796812
0.012500917
0.096140863
0.0149116
0.096458331
0.017370156
0.096278862
0.020531134
0.095992407
0.023742939
0.095022431
0.027604584
0.093950455
0.031588864
0.092088319
0.035912482
0.089919399
0.040735625
0.087090648
0.045298276
0.08384811
0.050879279
0.079909387
0.055833212
0.062271378
0.075579769
0.099681557
0.0050897184
0.099653765
0.0058295352
0.099968015
0.0062629849
0.10038074
0.0072335062
0.10094547
0.0084161826
0.10150126
0.010082932
0.10198603
0.012016142
0.1022448
0.014652834
0.10226985
0.017345109
0.10186392
0.020937063
0.10127494
0.024331921
0.099992922
0.028886598
0.098670498
0.032911288
0.096423068
0.038159911
0.094419036
0.042739658
0.091301121
0.048416191
0.088666018
0.053514382
0.085331849
0.059167382
0.065159522
0.082443705
0.10693291
0.0053684697
0.10701764
0.0057448044
0.10725808
0.0060225509
0.10750902
0.0069825681
0.10788036
0.0080448358
0.10817151
0.0097917825
0.10833072
0.011856931
0.10832316
0.014660401
0.10808984
0.017578431
0.10755192
0.021474983
0.10667017
0.025213671
0.10536444
0.030192322
0.10387865
0.034397082
0.10199008
0.040048482
0.10031686
0.044412878
0.098062958
0.050670093
0.097033539
0.054543801
0.095534692
0.060666229
0.064212273
0.096481941
0.11418716
0.0057143539
0.11435039
0.0055815727
0.1144483
0.0059246404
0.11478298
0.0066478902
0.11521791
0.0076099039
0.11551759
0.0094921021
0.11558516
0.011789367
0.11552109
0.014724465
0.11514388
0.017955646
0.11444505
0.022173814
0.11340411
0.026254612
0.11231231
0.031284124
0.11105512
0.035654267
0.11001422
0.041089383
0.10917788
0.045249222
0.10907388
0.050774084
0.11031227
0.05330541
0.11286402
0.058114481
0.057864193
0.1192121
0.12281431
0.0059498277
0.12284747
0.0055484084
0.1227081
0.0060640101
0.12293253
0.0064234589
0.12304492
0.0074975147
0.12321386
0.0093231669
0.12320619
0.011797033
0.12304392
0.014886738
0.12245553
0.01854403
0.12182379
0.022805557
0.12103616
0.027042246
0.12053999
0.031780287
0.12004438
0.036149877
0.1203676
0.040766163
0.12130813
0.044308701
0.12425195
0.047830256
0.12862426
0.048933108
0.13588678
0.050851956
0.047641533
0.14610944
0.13139999
0.0059509006
0.13138961
0.0055587908
0.13150723
0.0059463905
0.13179962
0.0061310637
0.13185076
0.0074463777
0.13195769
0.009216233
0.13184811
0.011906616
0.13158395
0.015150901
0.13105468
0.019073292
0.13079108
0.023069156
0.13050479
0.027328544
0.13088602
0.031399047
0.13160865
0.035427255
0.13376145
0.038613359
0.13709371
0.040976442
0.14297217
0.041951797
0.15009513
0.041810148
0.1601605
0.040786581
0.036588044
0.17121399
0.14094753
0.0061443786
0.14061006
0.0058962578
0.14083387
0.0057225845
0.14099265
0.0059722786
0.14109909
0.00733994
0.14123938
0.0090759404
0.14114172
0.012004281
0.14093707
0.015355547
0.14083853
0.019171825
0.14115088
0.022756807
0.14169861
0.026780814
0.143177
0.029920663
0.14541454
0.033189717
0.1495584
0.03446949
0.15502127
0.035513575
0.1627554
0.034217664
0.17117825
0.033387306
0.18151523
0.0304496
0.026869988
0.19123328
0.15133585
0.0062924719
0.15107261
0.0061594925
0.15130893
0.0054862665
0.15131765
0.0059635621
0.15146778
0.0071898055
0.15150717
0.0090365497
0.15141402
0.012097428
0.15148791
0.015281656
0.15196131
0.018698424
0.15289264
0.021825481
0.1544159
0.025257545
0.15707328
0.027263284
0.16094435
0.029318652
0.16667402
0.028739817
0.17338549
0.028802102
0.18172956
0.025873602
0.18985403
0.025262829
0.19867178
0.021631856
0.020086441
0.20545532
0.16205313
0.0065947832
0.16210748
0.006105146
0.1622682
0.0053255501
0.16225215
0.0059796072
0.1625502
0.0068917533
0.16261414
0.008972612
0.1629115
0.011800061
0.16356093
0.014632232
0.16468549
0.017573857
0.16633444
0.020176536
0.16889922
0.022692759
0.17266367
0.023498842
0.17785492
0.024127401
0.18433499
0.022259739
0.19129208
0.021845012
0.19885147
0.018314215
0.2053505
0.018763796
0.21135262
0.015629735
0.017167754
0.21427131
0.17400407
0.0069209538
0.17435035
0.0057588622
0.17419948
0.0054764261
0.17441687
0.0057622119
0.17467139
0.0066372333
0.17476337
0.0088806263
0.17547131
0.011092127
0.17655434
0.013549201
0.17818809
0.015940099
0.18049933
0.017865299
0.18412842
0.019063669
0.18869783
0.018929425
0.19454927
0.018275969
0.20071198
0.016097024
0.20682569
0.015731301
0.21223119
0.012908713
0.21613803
0.014856961
0.21879435
0.012973413
0.017651682
0.21831042
0.18683168
0.0069572603
0.18708119
0.0055093543
0.18701804
0.0055395684
0.18762772
0.0051525372
0.18782885
0.0064361019
0.1884569
0.0082525761
0.18958598
0.0099630453
0.19114661
0.011988564
0.19348674
0.013599967
0.19658599
0.014766055
0.20120953
0.014440123
0.20585119
0.014287764
0.21147575
0.012651417
0.21614053
0.011432237
0.22036671
0.011505125
0.222769
0.010506419
0.22386139
0.013764572
0.22296061
0.013874192
0.021362721
0.21924957
0.20096075
0.0067732255
0.20102401
0.0054460871
0.20129557
0.0052680094
0.20167891
0.0047691956
0.20194063
0.0061743865
0.20303877
0.0071544316
0.20432999
0.0086718221
0.20628948
0.010029073
0.20887479
0.011014661
0.21248852
0.011152326
0.21695778
0.0099708606
0.22109182
0.010153725
0.22563771
0.0081055282
0.22820313
0.0088668182
0.23052958
0.0091786727
0.23012543
0.010910563
0.22876418
0.015125825
0.22429992
0.018338448
0.027929598
0.21773305
0.21592227
0.0064870331
0.2160524
0.005315955
0.21667734
0.0046430702
0.21711421
0.0043323281
0.21802012
0.0052684719
0.21942593
0.0057486192
0.22101169
0.0070860602
0.22348901
0.0075517611
0.22632725
0.0081764201
0.23036527
0.0071143043
0.23371482
0.0066213089
0.23738741
0.0064811302
0.23974168
0.0057512667
0.24050347
0.0081050245
0.24053877
0.0091433736
0.23722384
0.014225496
0.23336841
0.018981255
0.22622747
0.025479382
0.034979965
0.2191771
0.23218975
0.0062367081
0.23243712
0.0050685787
0.23287229
0.0042079076
0.23324688
0.0039577326
0.23449675
0.0040186033
0.23564489
0.0046004803
0.23761561
0.0051153406
0.24017443
0.0049929425
0.2430847
0.0052661471
0.24623706
0.0039619451
0.24838002
0.0044783477
0.25089666
0.0039644906
0.25100049
0.005647438
0.2505975
0.0085080183
0.24769043
0.012050439
0.24309965
0.018816272
0.23857474
0.02350617
0.23270787
0.03134625
0.037235284
0.23045255
0.24990499
0.0056683537
0.25052043
0.0044531455
0.25113308
0.0035952544
0.25211397
0.0029768406
0.25331499
0.002817579
0.25477098
0.0031444902
0.2570797
0.002806627
0.25917306
0.002899585
0.26180058
0.0026386263
0.26370321
0.0020593173
0.26533802
0.0028435373
0.26594363
0.003358881
0.26461486
0.0069762059
0.26251161
0.010611272
0.258263
0.01629904
0.25543647
0.021642806
0.2528488
0.026093837
0.25264874
0.031546315
0.031928645
0.25795538
0.26872907
0.0050346753
0.26922067
0.0039615526
0.26997988
0.0028360404
0.27105868
0.0018980439
0.27203941
0.0018368465
0.27356725
0.0016166491
0.27511255
0.0012613269
0.27679625
0.0012158871
0.27860668
0.00082819396
0.27939047
0.0012755339
0.27997381
0.0022601937
0.27895363
0.0043790593
0.27728474
0.0086450994
0.27521037
0.01268564
0.27379299
0.017716424
0.27459178
0.020844012
0.27650853
0.02417709
0.28349513
0.024559712
0.022468468
0.29295531
0.28981922
0.0041651333
0.2906727
0.0031080764
0.29168658
0.0018221596
0.29269646
0.00088816212
0.29391557
0.00061773767
0.29517529
0.00035692245
0.29624429
0.00019233426
0.29759977
-0.00013959551
0.29849487
-6.690493e-05
0.29899018
0.00078022643
0.29858241
0.002667962
0.29698276
0.0059787088
0.29581416
0.0098137008
0.29533085
0.013168954
0.29696253
0.016084743
0.30036422
0.017442317
0.30684906
0.017692258
0.31619953
0.01520924
0.014655101
0.32401289
0.3118183
0.0032109981
0.31263446
0.0022919174
0.31356267
0.00089395644
0.31437975
7.1078207e-05
0.31500932
-1.183531e-05
0.31552925
-0.0001629991
0.31599891
-0.0002773352
0.31621278
-0.00035345998
0.31625967
-0.0001137991
0.31609852
0.0009413836
0.31573431
0.0030321746
0.31598171
0.0057313043
0.31770618
0.0080892301
0.32097209
0.0099030457
0.32613689
0.010919948
0.33261139
0.010967815
0.34014403
0.010159616
0.345918
0.009435274
0.01142743
0.34914567
0.33687133
0.0017890814
0.33829177
0.00087147282
0.33926101
-7.5280321e-05
0.33987498
-0.00054288796
0.34020902
-0.00034587734
0.34027046
-0.00022443748
0.34016533
-0.0001722108
0.34014716
-0.00033528152
0.34019595
-0.0001625908
0.34039201
0.00074532328
0.34106112
0.0023630671
0.34295048
0.0038419462
0.34564639
0.0053933158
0.34974623
0.0058032082
0.35431173
0.0063544421
0.35938112
0.0058984339
0.36363865
0.005902085
0.36721488
0.0058590393
0.0064920737
0.37215024
0.36275782
0.3636293
0.36355402
0.36301113
0.36266525
0.36244081
0.3622686
0.36193332
0.36177073
0.36251605
0.36487912
0.36872107
0.37411438
0.37991759
0.38627204
0.39217047
0.39807255
0.40393159
0.41042367
0.078948633
0.048570036
-0.045054052
0.075202872
0.048780838
-0.045035077
0.071600352
0.048726981
-0.045124461
0.06796214
0.047966636
-0.044328423
0.064141323
0.047587397
-0.04376658
0.060746807
0.045099823
-0.041705306
0.055954278
0.043842276
-0.039049747
0.052962071
0.039540617
-0.03654841
0.047856063
0.035481353
-0.030375345
0.042986915
0.030817814
-0.025948666
0.043296269
0.018756012
-0.019065367
0.042069506
0.0073166919
-0.0060899287
0.034799113
0.0038490177
0.0034213752
0.021638622
0.0047933973
0.0083670941
0.0045584487
0.005834224
0.011245949
-0.015774496
0.009733474
0.010599471
-0.036151958
0.015205748
0.0051717137
-0.055592288
0.023982993
-0.0045426635
0.035669775
-0.073109173
-0.01815289
0.076591146
0.05304083
0.07162104
0.053750945
0.066904276
0.053443745
0.061591568
0.053279343
0.056904081
0.052274885
0.050925884
0.05107802
0.044968557
0.049799603
0.038715674
0.0457935
0.030665885
0.043531143
0.028273947
0.033209752
0.025328528
0.021701431
0.014688241
0.017956979
-0.0015718278
0.020109086
-0.019669615
0.022891185
-0.03770389
0.023868498
-0.056341665
0.028371249
-0.074752779
0.033616862
-0.091917429
0.041147643
0.050242025
-0.10648968
0.073460685
0.058609565
0.06761805
0.05959358
0.061266288
0.059795508
0.054670573
0.059875058
0.047698085
0.059247373
0.039556278
0.059219826
0.032300639
0.057055242
0.022361788
0.055732351
0.014569632
0.0513233
0.0093418452
0.038437539
-0.0033657865
0.034409063
-0.01898966
0.033580853
-0.035165902
0.036285328
-0.052009246
0.039734528
-0.069684566
0.041543819
-0.086670906
0.045357589
-0.10229814
0.049244099
-0.11627507
0.055124573
0.060670533
-0.12670358
0.069565321
0.065192417
0.062874368
0.066284533
0.055377364
0.067292512
0.047781251
0.067471172
0.03918148
0.067847145
0.030203246
0.06819806
0.020110292
0.067148196
0.008983451
0.066859192
0.0027404249
0.057566327
-0.0075846284
0.048762592
-0.025374033
0.052198468
-0.044318951
0.052525771
-0.061915805
0.053882182
-0.077871796
0.055690519
-0.093508938
0.057180961
-0.10777497
0.059623619
-0.12066278
0.062131907
-0.1312038
0.065665595
0.068247392
-0.13878066
0.066384602
0.07244038
0.05890676
0.073762375
0.050905226
0.075294046
0.042550521
0.075825876
0.033523961
0.076873706
0.024446883
0.077275138
0.013726987
0.077868092
0.0043762389
0.07620994
-0.0021915171
0.064134083
-0.016756275
0.063327349
-0.035380749
0.070822943
-0.055083096
0.072228117
-0.074619905
0.073418991
-0.092353062
0.073423675
-0.10800154
0.072829436
-0.12071893
0.07234101
-0.13161281
0.073025786
-0.13974877
0.073801561
0.074112053
-0.14561343
0.064756366
0.080388048
0.056476204
0.082042537
0.048068044
0.083702206
0.039383653
0.084510268
0.030567181
0.085690177
0.022282754
0.085559565
0.013112985
0.087037862
0.0047018003
0.084621124
-0.0076273786
0.076463262
-0.028338509
0.08403848
-0.04809968
0.090584114
-0.06726175
0.091390187
-0.086109524
0.092266765
-0.10349384
0.090807996
-0.11874527
0.08808086
-0.13120441
0.084800153
-0.14027093
0.082092307
-0.14602139
0.079552023
0.077493886
-0.14940323
0.064341709
0.089266129
0.055150707
0.09123354
0.045660657
0.093192256
0.035853766
0.094317158
0.026219743
0.095324201
0.017350402
0.094428906
0.0088863011
0.095501964
-0.0028601782
0.096367603
-0.026224674
0.099827759
-0.052086463
0.10990027
-0.075269989
0.11376764
-0.096975891
0.11309609
-0.11604542
0.11133629
-0.13150216
0.10626474
-0.14340431
0.099983017
-0.15212967
0.093525509
-0.15747337
0.08743601
-0.16021248
0.082291125
0.077625005
-0.16034359
0.065658151
0.099187747
0.054885693
0.102006
0.043375597
0.10470235
0.030587553
0.1071052
0.016683504
0.10922825
0.0019342412
0.10917817
-0.011100652
0.10853686
-0.029987993
0.11525494
-0.0588225
0.12866227
-0.084341223
0.13541899
-0.10883777
0.13826419
-0.13193456
0.13619288
-0.15168203
0.13108376
-0.16737693
0.12195963
-0.1787617
0.11136779
-0.18551559
0.1002794
-0.18786571
0.089786134
-0.18750854
0.081933952
0.074589676
-0.18447321
0.071624309
0.11000714
0.059458198
0.11417211
0.045968378
0.11819217
0.030387491
0.12268609
0.012368584
0.12724716
-0.0098517781
0.13139853
-0.032496753
0.13118183
-0.056016053
0.13877424
-0.081076935
0.15372315
-0.10526261
0.15960466
-0.12851137
0.16151295
-0.14999861
0.15768012
-0.16855567
0.14964082
-0.18484051
0.13824448
-0.19704203
0.12356931
-0.2044396
0.10767697
-0.20619225
0.091538784
-0.2027737
0.078515395
0.068356065