/*--------------------------------*- C++ -*----------------------------------*\
  =========                 |
  \\      /  F ield         | OpenFOAM: The Open Source CFD Toolbox
   \\    /   O peration     | Website:  https://openfoam.org
    \\  /    A nd           | Version:  11
     \\/     M anipulation  |
\*---------------------------------------------------------------------------*/
FoamFile
{
    format      ascii;
    class       volVectorField;
    location    "9.4";
    object      U;
}
// * * * * * * * * * * * * * * * * * * * * * * * * * * * * * * * * * * * * * //

dimensions      [0 1 -1 0 0 0 0];

internalField   nonuniform List<vector> 
5472
(
(10.244745 2.4889687 1.5664435e-18)
(10.443748 2.4906129 -1.6310998e-18)
(10.628252 2.4818134 -1.6313586e-18)
(10.833584 2.4549448 -1.646921e-18)
(11.004805 2.4077549 5.0970842e-18)
(11.183932 2.3564824 -4.2312912e-20)
(11.376041 2.2635915 -2.6659233e-18)
(11.5349 2.183302 9.3014826e-19)
(11.706752 2.0651917 0)
(11.853257 1.9566909 0)
(11.996797 1.8090132 0)
(12.133793 1.6824996 -2.7823057e-18)
(12.238267 1.5024569 1.4257468e-18)
(12.351508 1.3701787 -2.8419247e-20)
(12.442384 1.1523938 9.4265082e-19)
(12.505795 1.0040259 -4.8631954e-19)
(12.578615 0.77509865 -7.1888132e-19)
(12.600489 0.60944976 2.4865703e-19)
(12.642266 0.38462105 0)
(10.227383 2.2657444 -1.4356691e-18)
(10.399387 2.2548533 2.9554113e-18)
(10.571449 2.2657676 -1.5213367e-18)
(10.743902 2.2445466 -1.5134263e-18)
(10.912226 2.2130933 2.8754563e-20)
(11.107528 2.1611897 0)
(11.276847 2.0868409 1.5966337e-18)
(11.433249 2.0193188 -3.2353504e-18)
(11.601413 1.9129556 4.1676773e-18)
(11.738538 1.8149973 8.4475235e-19)
(11.886157 1.6870193 0)
(12.01052 1.5593721 1.7328137e-18)
(12.130401 1.4107564 0)
(12.234516 1.2624213 4.3065075e-19)
(12.319502 1.080569 -4.4375122e-19)
(12.391422 0.92858546 0)
(12.453786 0.72687783 0)
(12.478898 0.58163198 -2.1766393e-19)
(12.531162 0.37712195 0)
(10.234861 2.0763585 0)
(10.383975 2.0947169 1.3503451e-18)
(10.539295 2.1192113 1.3767881e-18)
(10.70509 2.0985757 0)
(10.884345 2.0833231 -2.359961e-20)
(11.062985 2.0503957 -3.186764e-20)
(11.206544 2.0001215 -1.4843209e-18)
(11.356963 1.9433021 0)
(11.519401 1.8488836 -1.4977317e-18)
(11.650541 1.7633989 -3.8170872e-18)
(11.799124 1.6447326 1.6145496e-20)
(11.918367 1.5283457 -7.5827319e-19)
(12.036769 1.3931676 -7.8130595e-19)
(12.129519 1.2524159 1.6014446e-18)
(12.219542 1.0930722 1.1981727e-18)
(12.288575 0.93966559 4.0264487e-19)
(12.34777 0.75574954 1.9895179e-19)
(12.389845 0.61073934 -3.0013553e-19)
(12.426119 0.4082521 9.9727922e-20)
(10.211912 1.8934732 0)
(10.320248 1.9167273 -1.218796e-18)
(10.482392 1.9419624 -1.241333e-18)
(10.650885 1.9249753 2.5151491e-18)
(10.801354 1.9332122 -1.3272188e-18)
(10.945405 1.8902648 0)
(11.07703 1.8623122 -1.3450027e-18)
(11.243509 1.7950221 1.3425866e-18)
(11.386349 1.721085 -1.3897077e-18)
(11.524102 1.6456981 -2.3382576e-20)
(11.666947 1.5358494 -1.4187441e-18)
(11.785808 1.4370648 0)
(11.903207 1.3039342 0)
(12.004287 1.178763 -7.126959e-19)
(12.099378 1.0240426 -7.156569e-19)
(12.173129 0.87447878 0)
(12.235309 0.70447932 -1.8027799e-19)
(12.276707 0.54884744 9.1711108e-20)
(12.3017 0.36392609 1.8113532e-19)
(10.216088 1.7147117 0)
(10.321061 1.7709088 0)
(10.506299 1.7714491 0)
(10.612757 1.7880183 -2.2846985e-18)
(10.747456 1.800799 1.1906912e-18)
(10.884428 1.7770212 -3.5664374e-18)
(11.042155 1.7566888 4.8588541e-18)
(11.194845 1.7038388 -2.4640401e-18)
(11.319128 1.6531968 3.8370627e-21)
(11.468628 1.573092 1.2528011e-18)
(11.588309 1.4911281 1.2648692e-18)
(11.711467 1.3966325 -2.5738759e-18)
(11.822408 1.2739472 1.9514324e-18)
(11.929899 1.1595474 -6.5743812e-19)
(12.018286 1.0142769 0)
(12.090297 0.88008939 6.612987e-19)
(12.142401 0.72153225 -3.3066125e-19)
(12.182874 0.57732735 1.6291211e-19)
(12.200896 0.4038521 -1.6161713e-19)
(10.183454 1.5681308 0)
(10.293341 1.6027071 -4.0060637e-18)
(10.425728 1.6140501 2.0653314e-18)
(10.504969 1.6559834 2.0953167e-18)
(10.671463 1.6579755 1.0577248e-18)
(10.790528 1.6389608 -1.0687136e-18)
(10.939583 1.6280217 2.219752e-18)
(11.054608 1.5850314 1.1054827e-18)
(11.191844 1.5473899 2.2384813e-18)
(11.331993 1.4762183 -2.2875739e-18)
(11.45129 1.408057 2.1742485e-20)
(11.589564 1.29934 2.3292602e-18)
(11.69412 1.201681 0)
(11.796096 1.0840989 -5.9368845e-19)
(11.87762 0.95490547 5.8671069e-19)
(11.953504 0.82480885 -1.4753925e-18)
(12.016234 0.66889816 5.9014909e-19)
(12.066134 0.52773252 -1.4700075e-19)
(12.097986 0.36821995 6.3089757e-22)
(10.174537 1.4090801 3.5763621e-18)
(10.280575 1.4653995 3.62769e-18)
(10.398837 1.4790139 0)
(10.506534 1.5190614 -7.5148287e-21)
(10.665626 1.5106223 -3.8440966e-18)
(10.75253 1.5204868 3.9368935e-18)
(10.896513 1.4996337 0)
(11.001462 1.4808729 -1.0140093e-18)
(11.147878 1.4495691 -4.0659341e-18)
(11.267799 1.3882119 2.0845339e-18)
(11.397282 1.3362884 1.0330991e-18)
(11.507627 1.2499455 -1.059804e-18)
(11.607705 1.1692642 0)
(11.708503 1.0457208 5.259888e-19)
(11.790109 0.94355244 0)
(11.861861 0.80449373 -5.2969865e-19)
(11.920884 0.67406928 8.0038633e-19)
(11.963773 0.5317666 1.0531348e-21)
(11.988249 0.38468053 -1.2199627e-21)
(10.151981 1.2867054 1.6024572e-18)
(10.272173 1.3106446 -3.2684201e-18)
(10.360468 1.3384291 -3.3145331e-18)
(10.462956 1.3841656 3.4095141e-18)
(10.568276 1.3943642 -1.7459915e-18)
(10.651387 1.4163489 -1.7551194e-18)
(10.804754 1.3887388 0)
(10.889908 1.3870298 2.7056087e-18)
(11.051262 1.3408944 -1.6578343e-20)
(11.140192 1.3122669 -2.7802424e-18)
(11.284837 1.2532369 2.8384093e-18)
(11.382389 1.1734038 0)
(11.506032 1.0968924 0)
(11.594615 0.98887854 9.4771805e-19)
(11.687767 0.89022372 -4.882373e-19)
(11.75207 0.75226874 -9.5792752e-19)
(11.820712 0.64094168 2.4292739e-19)
(11.857634 0.49496482 2.4399187e-19)
(11.890688 0.37262059 5.8739417e-20)
(10.151534 1.1425981 -1.4388941e-18)
(10.257163 1.1895732 4.3937495e-18)
(10.31305 1.2228391 -4.5206097e-18)
(10.441807 1.2399684 3.0576087e-18)
(10.511463 1.2479861 0)
(10.649864 1.2856971 1.5743226e-18)
(10.749638 1.2707127 -1.6235443e-18)
(10.844584 1.286885 0)
(10.977358 1.2398432 8.1886845e-19)
(11.063479 1.2312758 -1.6963024e-18)
(11.207746 1.164878 -8.3734026e-19)
(11.290333 1.1169031 -1.2141252e-20)
(11.420828 1.0355433 -2.5666294e-18)
(11.487587 0.94996502 4.4354858e-19)
(11.589806 0.85293884 -4.2106312e-19)
(11.643492 0.73732207 8.6398382e-19)
(11.715275 0.62250784 -4.2699718e-19)
(11.741535 0.48795533 2.2012114e-19)
(11.780482 0.3702803 2.1334668e-19)
(10.136862 1.0266364 -2.5997194e-18)
(10.238974 1.0505587 0)
(10.300047 1.1073614 1.3451684e-18)
(10.409968 1.1391634 -4.1025095e-18)
(10.470706 1.1560988 1.4124524e-18)
(10.598455 1.1661973 -1.4278931e-18)
(10.66786 1.1634121 1.4357249e-18)
(10.807267 1.1831812 -1.4768906e-18)
(10.901721 1.1496313 0)
(11.01651 1.1508824 7.4497313e-19)
(11.132178 1.0820237 0)
(11.222439 1.0562408 7.5537059e-19)
(11.340784 0.96765104 -1.821621e-22)
(11.412372 0.90534748 -3.8003274e-19)
(11.519985 0.79688074 3.8103275e-19)
(11.572165 0.70575232 3.8209472e-19)
(11.64474 0.58793612 -3.6194346e-21)
(11.670862 0.47319554 -5.7427923e-19)
(11.708636 0.35542734 0)
(10.145358 0.88497921 0)
(10.226478 0.92528031 1.1856004e-18)
(10.272997 0.9753132 0)
(10.381725 0.99674807 1.214801e-18)
(10.444334 1.0489124 -3.763856e-18)
(10.549169 1.0487244 3.8354803e-18)
(10.606287 1.0630764 -1.2734731e-18)
(10.721781 1.0629933 3.9609725e-18)
(10.800426 1.0632936 0)
(10.922779 1.0616605 6.7379273e-19)
(11.011435 1.0128375 0)
(11.116381 0.98211417 -1.3503156e-18)
(11.207911 0.90231976 2.7328391e-18)
(11.293857 0.85572437 -1.0054433e-20)
(11.383732 0.7517307 -3.4526478e-19)
(11.438368 0.6884617 0)
(11.512303 0.56103732 0)
(11.541069 0.46896094 0)
(11.579697 0.33833884 -4.2779352e-20)
(10.160041 0.79028916 4.1348521e-18)
(10.215972 0.82908163 -5.3132408e-18)
(10.268265 0.8759842 2.15048e-18)
(10.353676 0.90777516 -1.1048123e-20)
(10.40178 0.93973359 0)
(10.504686 0.95081795 -2.2654699e-18)
(10.565669 0.9725823 1.1742074e-18)
(10.683653 0.96178184 -1.1672075e-18)
(10.749437 0.97766482 0)
(10.878849 0.96605018 -5.9525166e-19)
(10.946494 0.95100496 1.1977641e-18)
(11.0746 0.91818443 -1.6730731e-20)
(11.144152 0.85458192 -1.2265473e-18)
(11.252812 0.79520057 -2.4349902e-18)
(11.321624 0.7043392 2.1416946e-18)
(11.398551 0.63842515 -1.2230693e-18)
(11.449476 0.53068935 7.6708082e-19)
(11.493807 0.45215523 1.5329781e-19)
(11.518878 0.3315452 3.754582e-20)
(10.151365 0.66258937 -6.4882044e-18)
(10.177139 0.7260101 3.798557e-18)
(10.25117 0.75868024 0)
(10.311043 0.79467175 -4.8921181e-18)
(10.373269 0.82957341 4.017648e-18)
(10.449919 0.85032608 1.0184558e-18)
(10.510804 0.87471982 3.0843189e-18)
(10.614787 0.86917899 -2.1010299e-18)
(10.676591 0.88195684 -2.6285319e-18)
(10.790944 0.86761364 1.6101068e-18)
(10.853855 0.86703021 2.1330658e-18)
(10.969983 0.828846 -3.2459838e-18)
(11.025185 0.79871832 2.1682692e-18)
(11.136439 0.73655542 -5.5356612e-19)
(11.183786 0.67742753 2.6742202e-19)
(11.280276 0.60225427 -5.3831593e-21)
(11.312524 0.51132166 -6.8002703e-19)
(11.374497 0.42602952 -1.3440443e-19)
(11.38328 0.31377421 -3.3873135e-20)
(10.156727 0.58561668 2.4913539e-18)
(10.194061 0.62862658 3.3609819e-18)
(10.258523 0.66326437 -3.4493837e-18)
(10.288823 0.70944968 8.7631677e-19)
(10.362567 0.7329195 -2.6522941e-18)
(10.411123 0.76755175 2.7314154e-18)
(10.49752 0.78184221 9.1035429e-19)
(10.565619 0.79547404 -4.6448243e-18)
(10.640981 0.80958323 3.2799923e-18)
(10.74561 0.80210617 -1.4336422e-18)
(10.810348 0.80762034 0)
(10.918418 0.77404529 -4.8150982e-19)
(10.977265 0.74845106 -1.4401285e-18)
(11.083241 0.67879961 4.9565752e-19)
(11.132248 0.63431956 1.4529355e-18)
(11.226282 0.55509024 4.8038229e-19)
(11.256603 0.49644036 -9.6395285e-19)
(11.323348 0.40949131 2.4269633e-19)
(11.323141 0.32711365 2.6924534e-19)
(10.117911 0.49782737 -3.6732465e-18)
(10.151081 0.53400742 3.0114945e-18)
(10.20105 0.56585271 0)
(10.246799 0.60755792 -7.7677844e-19)
(10.309944 0.6325798 3.1529867e-18)
(10.359526 0.66754269 -6.4229073e-18)
(10.436744 0.68115467 8.4663347e-19)
(10.481622 0.7083968 3.3195245e-18)
(10.572514 0.70593523 2.5035828e-18)
(10.639107 0.72278277 -4.2118834e-19)
(10.723501 0.71930993 0)
(10.8104 0.7052681 2.1126522e-18)
(10.889422 0.67798446 -8.6289206e-19)
(10.973934 0.62707888 8.5423515e-19)
(11.029704 0.58113415 -1.286562e-18)
(11.116696 0.50635379 -2.1473094e-19)
(11.152217 0.45693584 0)
(11.226348 0.37013648 0)
(11.241733 0.30925049 -2.6604846e-20)
(10.142927 0.42587664 6.2677226e-19)
(10.181804 0.45653574 -6.0159731e-18)
(10.218317 0.49269493 2.7062101e-18)
(10.26422 0.52996318 -3.4614325e-18)
(10.307252 0.55695553 -7.0018848e-19)
(10.359942 0.59178385 0)
(10.422962 0.60929393 -3.5912882e-18)
(10.481085 0.63327029 2.2047764e-18)
(10.568884 0.63126222 -7.3892893e-19)
(10.622476 0.64985394 -2.4583638e-21)
(10.712245 0.64305628 0)
(10.770909 0.64976939 0)
(10.859919 0.62729163 -3.7524523e-19)
(10.914245 0.60001626 -3.7575935e-19)
(10.991329 0.54365429 1.8790061e-19)
(11.038175 0.48887345 1.1297478e-18)
(11.086997 0.42517442 -7.5715136e-19)
(11.130273 0.35577864 9.4532977e-20)
(11.156823 0.29381553 2.3242942e-20)
(10.110816 0.35258365 4.0551954e-18)
(10.139746 0.38462688 -4.1521617e-18)
(10.171133 0.41422525 0)
(10.215603 0.4412388 6.1083756e-19)
(10.248393 0.47213772 0)
(10.298721 0.49946342 6.3093394e-19)
(10.344815 0.52877133 6.3914569e-19)
(10.410415 0.55459028 0)
(10.475161 0.56460061 3.2416485e-18)
(10.539535 0.57845138 -2.3109043e-18)
(10.617593 0.56718356 1.6454031e-18)
(10.684404 0.56793725 -1.3336151e-18)
(10.773904 0.5477599 1.3242518e-18)
(10.837061 0.53453394 -1.3026933e-20)
(10.927895 0.48900193 -1.3394459e-18)
(10.969696 0.45289841 -1.6565679e-19)
(11.037013 0.38370737 -1.6702889e-19)
(11.060802 0.3317266 -8.2504876e-20)
(11.104357 0.25992649 0)
(10.132691 0.2957993 4.6421177e-18)
(10.160848 0.32321634 0)
(10.191701 0.34642884 0)
(10.228607 0.37824542 5.4153042e-19)
(10.266585 0.40022995 0)
(10.315643 0.42130492 -5.5552944e-19)
(10.356123 0.44825023 -5.6222948e-19)
(10.416604 0.47433133 -2.267943e-18)
(10.464191 0.49681015 2.3077856e-18)
(10.529848 0.51458631 0)
(10.581336 0.51514298 -2.6077974e-18)
(10.644419 0.51621752 2.0564987e-18)
(10.706932 0.50027423 1.1668709e-18)
(10.770996 0.4867466 -2.3480212e-18)
(10.840442 0.45065796 2.3483545e-18)
(10.889613 0.42072597 -1.7621467e-18)
(10.950974 0.36316745 5.8632215e-19)
(10.979752 0.32102866 0)
(11.02214 0.25380061 0)
(10.106452 0.24128526 7.290302e-18)
(10.123959 0.26764978 -3.7143665e-18)
(10.148018 0.28963714 3.7559857e-18)
(10.177386 0.31665138 -4.3096459e-18)
(10.21012 0.33592109 -3.8649538e-18)
(10.248347 0.35818196 3.9383407e-18)
(10.290491 0.37795535 1.9788777e-18)
(10.344604 0.3983369 -1.5217013e-20)
(10.399837 0.42026604 -2.0311668e-18)
(10.466219 0.43885406 0)
(10.522269 0.44613168 0)
(10.596097 0.4474087 2.5623595e-19)
(10.648823 0.43920638 0)
(10.724117 0.42489189 1.0274972e-18)
(10.777943 0.39942922 -1.0362107e-18)
(10.838922 0.36767829 -5.1373096e-19)
(10.887179 0.32119756 6.4447886e-19)
(10.928094 0.2819714 -3.2076129e-19)
(10.961181 0.2247221 2.5608266e-19)
(10.117202 0.2019676 0)
(10.132569 0.21861574 0)
(10.163239 0.23618613 3.3153368e-18)
(10.185663 0.25683432 -3.3789666e-18)
(10.215643 0.27501973 3.8345583e-18)
(10.24505 0.30142184 -3.9009108e-18)
(10.283083 0.31799875 0)
(10.325503 0.33816562 4.4186617e-19)
(10.371276 0.35717749 1.7718051e-18)
(10.425251 0.37549091 -1.7972523e-18)
(10.478777 0.38763167 1.7919284e-18)
(10.544754 0.3970081 -1.519035e-20)
(10.599606 0.39432507 -3.6196883e-18)
(10.670025 0.38416682 1.818983e-18)
(10.723058 0.36507776 0)
(10.784135 0.33726219 -9.0159753e-19)
(10.8218 0.30229785 1.4129258e-18)
(10.871151 0.2640741 -6.2059532e-19)
(10.893712 0.21638525 2.2467977e-19)
(10.080252 0.16719871 1.1016781e-17)
(10.103532 0.17712563 -5.7843943e-18)
(10.122702 0.19160944 0)
(10.152377 0.20556868 -3.714175e-19)
(10.181527 0.22179443 -3.7538272e-19)
(10.21157 0.23832381 3.7964706e-19)
(10.252157 0.25706651 0)
(10.288447 0.27739134 -3.8676488e-19)
(10.337539 0.29357634 3.111061e-18)
(10.383839 0.30660048 -3.1527031e-18)
(10.435969 0.31539674 0)
(10.494246 0.32272727 0)
(10.553909 0.32652587 1.9871013e-19)
(10.614759 0.32347548 9.9433359e-20)
(10.671436 0.31129656 -9.9413421e-20)
(10.729277 0.2940266 0)
(10.775552 0.26243928 -4.4375702e-19)
(10.820769 0.23277852 3.9568526e-19)
(10.850478 0.19211894 0)
(10.083241 0.13312019 -1.0025738e-17)
(10.100016 0.14438851 1.0489337e-17)
(10.11722 0.15785234 -1.9420696e-20)
(10.143153 0.16483512 -4.9067045e-18)
(10.160181 0.17790538 0)
(10.19599 0.18829359 2.663531e-18)
(10.219304 0.20790643 -5.5604776e-18)
(10.264838 0.22561553 2.7264887e-18)
(10.303002 0.24401003 0)
(10.349725 0.26094569 -2.7421586e-18)
(10.397963 0.2705833 2.7735226e-18)
(10.449103 0.27580783 1.3801809e-18)
(10.505975 0.27815436 -1.3920305e-18)
(10.562317 0.27403392 1.2092163e-18)
(10.619985 0.26487516 -1.3055878e-18)
(10.670327 0.2488228 0)
(10.720524 0.22483475 -4.3337142e-20)
(10.763444 0.19884142 -1.2894749e-19)
(10.800933 0.16304517 1.8280376e-19)
(10.067948 0.097552216 2.7570313e-19)
(10.082427 0.10628801 -5.5926658e-19)
(10.109618 0.11760792 4.5239777e-18)
(10.126593 0.131997 2.6916462e-19)
(10.152301 0.13758797 -3.1025332e-19)
(10.180389 0.14643816 -4.6957565e-18)
(10.204654 0.15512514 1.4750086e-19)
(10.247054 0.16560844 2.5227745e-18)
(10.277979 0.18198533 -2.403272e-18)
(10.326422 0.19542581 -1.507156e-19)
(10.365285 0.2119819 0)
(10.41704 0.21929326 2.5656148e-18)
(10.463717 0.22896108 -2.5857342e-18)
(10.517282 0.22753002 -1.1331803e-18)
(10.571673 0.22555329 8.4168881e-20)
(10.626862 0.2162676 1.8173703e-18)
(10.673529 0.19772941 -5.6795074e-19)
(10.718923 0.17989845 -5.6403415e-20)
(10.753414 0.15013749 -9.343278e-21)
(10.045563 0.071645649 0)
(10.060798 0.079475658 2.4553701e-19)
(10.077402 0.086083422 3.9729902e-18)
(10.097923 0.095437916 -4.4090632e-18)
(10.124146 0.10446662 4.1849707e-18)
(10.144635 0.11257191 -4.1138458e-18)
(10.175104 0.12199856 1.29503e-19)
(10.203648 0.12981938 -1.3001181e-19)
(10.240525 0.13963759 1.9569413e-18)
(10.281852 0.14818869 -1.9791642e-18)
(10.326796 0.15593184 1.9701531e-18)
(10.379923 0.16232585 -2.1865694e-18)
(10.432206 0.16535152 0)
(10.491417 0.16411777 1.0531808e-18)
(10.540296 0.15938905 -1.1912239e-18)
(10.595089 0.15198022 5.2549182e-19)
(10.642468 0.13737952 -4.9438716e-19)
(10.691577 0.12235385 -2.2911479e-19)
(10.729484 0.10053597 2.6575778e-19)
(10.035851 0.042387312 -1.1286941e-20)
(10.052832 0.050007622 -6.9056847e-18)
(10.065948 0.055218213 1.0915693e-19)
(10.088993 0.062452746 -2.1361582e-22)
(10.110686 0.069291331 1.1118674e-19)
(10.134295 0.076720346 0)
(10.1636 0.083571989 3.6113971e-18)
(10.19031 0.090879746 -3.7662213e-18)
(10.225482 0.10035809 1.1420301e-19)
(10.260165 0.10781135 -1.7745114e-18)
(10.297575 0.11896072 3.7423875e-18)
(10.340742 0.12504548 -3.6903993e-18)
(10.383763 0.13437561 1.8523386e-18)
(10.436329 0.13566196 0)
(10.492579 0.13745298 -8.8882582e-19)
(10.547811 0.13651369 9.2130001e-19)
(10.600166 0.12693672 -1.422893e-20)
(10.64763 0.12142609 4.6655992e-23)
(10.686618 0.1028015 -3.5449834e-21)
(10.015466 0.022713377 6.0236212e-18)
(10.025633 0.026827037 -6.0410597e-18)
(10.041911 0.030356803 6.0263558e-18)
(10.062793 0.032838213 9.6421961e-20)
(10.084599 0.035130943 0)
(10.111672 0.035867815 0)
(10.138632 0.0379897 -4.9161853e-20)
(10.169547 0.040561638 -3.1199568e-18)
(10.203757 0.042094769 3.2505512e-18)
(10.239673 0.044971684 3.1649345e-18)
(10.282058 0.046916211 -1.5438494e-18)
(10.32485 0.049178246 -1.6844985e-18)
(10.373787 0.05215859 0)
(10.42468 0.050752469 2.5084609e-20)
(10.475806 0.048876801 2.4947871e-20)
(10.530081 0.043103893 7.8223033e-19)
(10.585498 0.038136204 -8.094248e-19)
(10.635469 0.036712573 1.7926825e-19)
(10.676581 0.024572575 -1.9766147e-19)
(10.010639 0.0060093002 -4.0577777e-20)
(10.017806 0.0091761165 5.2331915e-18)
(10.029535 0.013963371 -8.2639721e-21)
(10.045251 0.019261876 -1.169194e-20)
(10.064697 0.024496106 -5.4025513e-18)
(10.087835 0.029522452 0)
(10.114803 0.03417075 2.6872668e-18)
(10.146001 0.038429784 -2.7134541e-18)
(10.181537 0.04222473 -4.2984578e-20)
(10.221388 0.045022986 -2.1538915e-20)
(10.265358 0.04664037 -2.1559041e-20)
(10.312865 0.046629059 2.1554669e-20)
(10.363907 0.045149627 0)
(10.413379 0.043491666 1.3536723e-18)
(10.461553 0.04522571 -1.385127e-18)
(10.50842 0.043060727 -6.7708761e-19)
(10.55115 0.045447851 6.9140358e-19)
(10.603838 0.050627446 3.4846455e-19)
(10.636403 0.040611815 -3.4296777e-19)
(12.632272 0.21335338 -1.1563277e-19)
(12.645239 0.0042276408 -4.6398273e-19)
(12.616289 -0.16397687 4.530395e-19)
(12.555768 -0.34881441 0)
(12.51903 -0.52671884 -8.3874746e-19)
(12.405116 -0.66746597 -1.6304345e-18)
(12.364253 -0.85725303 0)
(12.20642 -0.94991203 -3.0035135e-20)
(12.140533 -1.1648937 2.7884086e-18)
(11.974588 -1.2304812 1.34694e-18)
(11.837645 -1.4280141 -1.2719667e-18)
(11.698134 -1.5241661 2.4175873e-18)
(11.506624 -1.631495 -2.2671921e-18)
(11.346447 -1.7975175 0)
(11.12914 -1.8110208 1.0638708e-18)
(10.899191 -2.0130919 -9.7257282e-19)
(10.699133 -2.0456336 -1.926598e-18)
(10.397501 -2.1583345 1.8081982e-18)
(10.183949 -2.2741554 -8.5931577e-19)
(12.506149 0.23082817 -1.0121029e-19)
(12.524319 0.0019253259 6.040343e-19)
(12.47487 -0.16279466 -3.9614778e-19)
(12.438519 -0.37011655 0)
(12.369419 -0.54324767 -7.5058269e-19)
(12.280981 -0.70921915 2.1588823e-18)
(12.202133 -0.88338355 0)
(12.062125 -0.99497607 0)
(11.970554 -1.1836394 0)
(11.791813 -1.244064 0)
(11.634162 -1.4322307 2.2933793e-18)
(11.47183 -1.4732094 -3.3150721e-18)
(11.248153 -1.5968848 -3.2147938e-18)
(11.105774 -1.6646319 2.0018927e-18)
(10.829674 -1.6900307 -1.9381862e-18)
(10.63259 -1.797209 1.9034979e-18)
(10.366617 -1.7676969 -1.7718684e-20)
(10.106699 -1.8467152 -1.7076995e-18)
(9.8940446 -1.8372514 1.7067806e-18)
(12.416353 0.25021204 0)
(12.428981 0.026962849 -3.5699168e-19)
(12.363875 -0.13060444 -6.9566477e-19)
(12.338214 -0.34337447 -3.6259459e-21)
(12.234037 -0.49550307 -9.7866571e-21)
(12.152079 -0.6791894 1.3028305e-18)
(12.027811 -0.8224297 -2.4713865e-18)
(11.886267 -0.96486038 1.1743751e-18)
(11.762161 -1.1063066 2.6221376e-20)
(11.580817 -1.1943906 0)
(11.419123 -1.3294454 3.1712136e-18)
(11.22597 -1.3734038 1.9131152e-20)
(11.031323 -1.4707105 1.9468706e-18)
(10.851953 -1.4877931 1.9083134e-18)
(10.609857 -1.5135576 2.7105292e-18)
(10.409216 -1.5221482 -3.4197966e-18)
(10.117638 -1.495821 -4.913907e-20)
(9.8657395 -1.477167 3.2069963e-18)
(9.6344548 -1.4151852 1.6461176e-18)
(12.305082 0.19890033 3.1150836e-19)
(12.295772 -0.0072154984 -6.2190941e-19)
(12.248822 -0.17656813 9.1490411e-19)
(12.20058 -0.37448015 0)
(12.102878 -0.52782095 1.7455876e-18)
(12.018548 -0.6947676 -2.8268046e-18)
(11.88316 -0.82812191 2.2008534e-18)
(11.756086 -0.95987284 -6.9174076e-21)
(11.595867 -1.0668996 3.0624474e-20)
(11.421562 -1.1612466 -1.0093717e-18)
(11.253868 -1.2275907 0)
(11.035506 -1.2892659 -9.1002417e-19)
(10.860041 -1.3068564 9.3802732e-19)
(10.626416 -1.3147857 -1.6935565e-18)
(10.444297 -1.2895101 0)
(10.206967 -1.2373787 0)
(9.9724706 -1.1808727 -1.5297659e-18)
(9.7231078 -1.0642061 0)
(9.4816877 -0.96890079 1.4776715e-18)
(12.203239 0.24015248 2.7185141e-19)
(12.181891 0.034660278 -2.7016832e-19)
(12.134123 -0.14043692 5.5151482e-21)
(12.072311 -0.33280758 -5.2286433e-19)
(11.976423 -0.48907767 5.0254932e-19)
(11.864266 -0.64934749 -3.7399932e-21)
(11.726914 -0.77879765 -9.701824e-19)
(11.593421 -0.88914082 0)
(11.410056 -0.9901448 -1.8470376e-18)
(11.253715 -1.0500885 8.8324915e-19)
(11.062323 -1.102052 0)
(10.882214 -1.1263677 0)
(10.700455 -1.0996511 -1.6041715e-18)
(10.486327 -1.0954799 -1.6003079e-18)
(10.329641 -0.99596398 1.5483491e-18)
(10.103391 -0.94053186 2.995177e-18)
(9.9420272 -0.79572084 1.5140069e-18)
(9.6950245 -0.66417765 -1.3444001e-18)
(9.5464422 -0.46932212 -2.6980601e-20)
(12.115834 0.20253896 0)
(12.096491 0.0051042176 2.3789477e-19)
(12.061735 -0.16788751 -1.1652319e-18)
(11.983233 -0.35258239 4.6124901e-19)
(11.877034 -0.49349559 1.3557716e-18)
(11.760077 -0.64112322 -9.0059678e-19)
(11.61261 -0.74679351 -1.7517973e-18)
(11.464462 -0.8478648 1.6798916e-18)
(11.289541 -0.91032537 -8.5719315e-19)
(11.107197 -0.9570988 1.5942508e-18)
(10.922898 -0.97445133 0)
(10.732175 -0.95634367 0)
(10.558151 -0.91888623 -1.4977467e-18)
(10.353087 -0.84340335 4.3214838e-18)
(10.22372 -0.73377246 -5.5365714e-18)
(10.019747 -0.62575037 2.6696519e-18)
(9.9547655 -0.42440142 -5.2479332e-18)
(9.7452666 -0.28978635 1.2526641e-18)
(9.7059403 -0.025141571 2.4408182e-18)
(11.987477 0.21879545 5.2205609e-20)
(11.97067 0.033763417 2.0844743e-19)
(11.918635 -0.14456059 -4.0675174e-19)
(11.83215 -0.31159603 0)
(11.736802 -0.45863467 -8.0215334e-19)
(11.614241 -0.59015928 2.3505531e-18)
(11.474574 -0.69370868 -1.5235601e-18)
(11.324522 -0.77206071 7.6229051e-19)
(11.163754 -0.81161585 -1.4934258e-18)
(10.984252 -0.84094096 4.3484534e-18)
(10.826039 -0.81459983 -2.7860421e-18)
(10.63451 -0.78622112 0)
(10.507673 -0.69333911 1.3196295e-18)
(10.308489 -0.60235454 2.624882e-18)
(10.224836 -0.4666086 -3.7410916e-18)
(10.043322 -0.31418144 3.6951166e-18)
(10.045941 -0.12180368 -3.5549976e-18)
(9.88609 0.058898933 -2.3365332e-18)
(9.9482365 0.33739766 -1.1547945e-18)
(11.901145 0.20192286 1.3565796e-19)
(11.886799 0.0256496 1.8006501e-19)
(11.84168 -0.14829301 -3.5535647e-19)
(11.761415 -0.30714161 0)
(11.661042 -0.44590634 1.3943065e-18)
(11.521863 -0.55309751 -6.9577661e-19)
(11.374065 -0.64304061 0)
(11.206636 -0.68722418 -1.336574e-18)
(11.047949 -0.72315426 6.6396843e-19)
(10.868869 -0.70953147 0)
(10.721798 -0.67598637 -1.2734099e-18)
(10.55592 -0.60319328 1.2428044e-18)
(10.450514 -0.49681529 1.2104943e-18)
(10.302698 -0.38734239 -2.3577556e-18)
(10.257257 -0.21187409 2.2465754e-18)
(10.133455 -0.062121128 -1.0909128e-18)
(10.174202 0.15019564 -1.0671941e-18)
(10.095592 0.3676568 -1.0290208e-18)
(10.260227 0.61776144 -9.9131043e-19)
(11.785284 0.20112739 3.1422866e-19)
(11.767414 0.038983283 -1.5535258e-19)
(11.709227 -0.13308327 0)
(11.620342 -0.28372952 0)
(11.52998 -0.4108881 -1.2231323e-18)
(11.398974 -0.50720362 1.2115023e-18)
(11.270962 -0.58207101 0)
(11.122286 -0.60707281 5.8537744e-19)
(10.973863 -0.62481093 -5.7684039e-19)
(10.816349 -0.57474392 0)
(10.693484 -0.53525484 1.1126674e-18)
(10.556182 -0.41932295 1.9034427e-20)
(10.467333 -0.32863425 1.6707739e-20)
(10.372508 -0.16128524 0)
(10.362624 -0.018032605 -4.0877658e-18)
(10.309715 0.17377095 3.9044379e-18)
(10.407831 0.36733739 4.7716013e-18)
(10.411838 0.56649572 -6.41929e-18)
(10.656421 0.79422602 4.4054997e-18)
(11.706623 0.20232119 0)
(11.70164 0.048961682 2.3110856e-21)
(11.636686 -0.12896593 0)
(11.553448 -0.25941799 0)
(11.444624 -0.37375349 5.3093642e-19)
(11.306408 -0.45282846 9.8974654e-21)
(11.165111 -0.51070548 -5.3254609e-19)
(11.008691 -0.51746167 -1.5858944e-18)
(10.870056 -0.51301372 2.0423633e-18)
(10.739702 -0.448272 0)
(10.633369 -0.39326278 -1.0054652e-18)
(10.539767 -0.25470721 -5.9001359e-18)
(10.490245 -0.16203832 2.8374904e-18)
(10.461951 0.02695501 0)
(10.494755 0.13321531 -3.6340118e-18)
(10.530291 0.35898692 4.3561621e-18)
(10.677749 0.44953451 -3.3994917e-18)
(10.779108 0.66406449 4.0682178e-18)
(11.113437 0.75414524 0)
(11.579979 0.20676164 -2.3812984e-19)
(11.570686 0.041118499 1.1978482e-19)
(11.506708 -0.11741258 0)
(11.434457 -0.23129382 -9.4863612e-19)
(11.329781 -0.34475271 1.4046303e-18)
(11.221016 -0.40679372 -4.625529e-19)
(11.093825 -0.44107599 -1.4155236e-18)
(10.958421 -0.43293537 3.2263625e-18)
(10.841496 -0.41339031 -1.802501e-18)
(10.738026 -0.33488752 0)
(10.647081 -0.25877096 8.766767e-19)
(10.603252 -0.12278123 5.2212596e-18)
(10.58022 -0.026457817 -3.357561e-18)
(10.620555 0.13662134 0)
(10.67727 0.22594983 0)
(10.815538 0.40935303 -1.5493547e-18)
(10.969868 0.41622511 7.4892373e-19)
(11.203783 0.57130615 -2.1656903e-18)
(11.49039 0.45424155 0)
(11.528175 0.21755067 -2.0710575e-19)
(11.518915 0.044456812 6.210696e-19)
(11.45047 -0.080189785 -6.1837377e-19)
(11.363853 -0.20337783 0)
(11.244766 -0.30035446 1.2475976e-18)
(11.131801 -0.34662419 -1.6211305e-18)
(11.01255 -0.36746537 0)
(10.900718 -0.35413148 8.1425569e-19)
(10.792867 -0.3123137 8.0622238e-19)
(10.717819 -0.22510844 0)
(10.66066 -0.14304503 0)
(10.669936 -0.028041261 -7.5985584e-19)
(10.682243 0.065513346 -2.2552575e-18)
(10.786082 0.18176441 -3.0160972e-20)
(10.873607 0.24371388 2.1057224e-18)
(11.086371 0.32201868 1.3675323e-18)
(11.218363 0.26692452 -6.6161522e-19)
(11.522073 0.26156413 1.2755198e-18)
(11.642835 -0.0036172951 0)
(11.416247 0.19865846 0)
(11.397516 0.042487187 -7.2057141e-19)
(11.368678 -0.062364623 1.4330775e-18)
(11.284689 -0.18530101 -1.0729302e-18)
(11.192835 -0.25785435 0)
(11.073952 -0.30291017 0)
(10.967837 -0.30688328 0)
(10.876912 -0.28119354 -7.0367343e-19)
(10.7896 -0.22033566 -6.9828049e-19)
(10.74376 -0.14683391 0)
(10.718729 -0.066160869 -6.8699243e-19)
(10.763976 0.016513061 -6.7354952e-19)
(10.811197 0.092039442 -6.5458428e-19)
(10.948088 0.14258287 2.5677397e-18)
(11.052151 0.15769912 -2.4763129e-18)
(11.268149 0.11079264 -6.0198417e-19)
(11.353981 0.0065388368 3.4889259e-18)
(11.604151 -0.14383277 -5.5896569e-18)
(11.562375 -0.44790855 3.2288378e-18)
(11.354812 0.1948865 -3.9299641e-20)
(11.30222 0.063210371 7.850382e-20)
(11.280183 -0.047595124 7.8129968e-19)
(11.193827 -0.1556602 -1.88002e-18)
(11.117354 -0.21133993 9.2469309e-19)
(11.012674 -0.25066845 0)
(10.92867 -0.24237398 0)
(10.850589 -0.20835607 6.2312816e-19)
(10.795878 -0.14572451 -2.4811626e-18)
(10.783523 -0.093741188 -6.4754536e-19)
(10.796579 -0.022856455 5.6623171e-19)
(10.861523 0.018119639 2.9280336e-18)
(10.937143 0.066492828 5.7618876e-19)
(11.080589 0.043543941 0)
(11.168413 0.0022740144 1.6342932e-18)
(11.340508 -0.13669531 0)
(11.350639 -0.26630532 -3.0648616e-18)
(11.48215 -0.49361595 8.8683458e-18)
(11.308556 -0.74425438 -7.6150572e-18)
(11.292025 0.18457452 6.7741633e-20)
(11.245776 0.07635552 -6.7257836e-20)
(11.225754 -0.044957725 0)
(11.134406 -0.13632659 -8.2251315e-19)
(11.066481 -0.18682593 2.5298136e-19)
(10.969522 -0.21386409 1.0776984e-18)
(10.898194 -0.19020314 0)
(10.835762 -0.15444456 -2.7194288e-18)
(10.809957 -0.10772069 1.592739e-18)
(10.816252 -0.072568456 -3.8534971e-21)
(10.855346 -0.023130824 0)
(10.918432 -0.022890938 0)
(11.009282 -0.016077737 -5.0267008e-19)
(11.11427 -0.10955426 0)
(11.166683 -0.18740167 5.3072191e-23)
(11.253776 -0.3834102 9.2732783e-19)
(11.193157 -0.4999236 -2.6994753e-18)
(11.206762 -0.73633252 6.9584389e-18)
(10.948404 -0.8964719 -3.3710496e-18)
(11.196256 0.18669281 2.0589726e-19)
(11.168105 0.094452318 -1.7577122e-19)
(11.153945 -0.033370345 0)
(11.072252 -0.10053982 0)
(11.019784 -0.14600784 0)
(10.934653 -0.16519779 0)
(10.88256 -0.14304606 -1.9053584e-18)
(10.848778 -0.11798093 1.8696631e-18)
(10.848191 -0.0897265 2.3517165e-18)
(10.866761 -0.073472166 -9.1442684e-19)
(10.922106 -0.051648178 0)
(10.972527 -0.087218948 3.6045942e-18)
(11.054027 -0.12640433 -6.5882023e-18)
(11.100226 -0.26351459 3.4252232e-18)
(11.110464 -0.35388146 -4.185412e-18)
(11.099866 -0.5612933 2.4374882e-18)
(11.002413 -0.6324748 -7.9104479e-19)
(10.917227 -0.83265927 -7.6915187e-19)
(10.636844 -0.87050114 7.4517671e-19)
(11.111461 0.18282005 2.0365727e-19)
(11.124795 0.071774931 -6.6242866e-19)
(11.087101 -0.028820781 4.0619054e-19)
(11.031369 -0.075895602 -8.2219661e-19)
(10.972597 -0.13311584 8.1360223e-19)
(10.900906 -0.13334121 0)
(10.859643 -0.12038871 -4.1228223e-19)
(10.841086 -0.10713001 1.6382261e-18)
(10.850373 -0.093164108 -1.6073171e-18)
(10.870624 -0.090558186 -4.0141717e-19)
(10.927371 -0.10333351 -3.1853396e-18)
(10.950221 -0.17038865 3.116849e-18)
(11.004188 -0.24910646 -3.8307001e-19)
(10.975596 -0.3939443 2.2548712e-18)
(10.941987 -0.47718062 -2.1915165e-18)
(10.836239 -0.65260823 0)
(10.719227 -0.66339101 -5.5805481e-18)
(10.565707 -0.79730882 6.0930971e-18)
(10.340828 -0.71475641 0)