/*--------------------------------*- C++ -*----------------------------------*\
  =========                 |
  \\      /  F ield         | OpenFOAM: The Open Source CFD Toolbox
   \\    /   O peration     | Website:  https://openfoam.org
    \\  /    A nd           | Version:  11
     \\/     M anipulation  |
\*---------------------------------------------------------------------------*/
FoamFile
{
    format      ascii;
    class       volScalarField;
    location    "0.0885";
    object      Ma;
}
// * * * * * * * * * * * * * * * * * * * * * * * * * * * * * * * * * * * * * //

dimensions      [0 0 0 0 0 0 0];

internalField   nonuniform List<scalar> 
880
(
1.443353270571932
1.443353270571932
1.443353270571932
1.443353098765695
1.443353270571932
1.443353270571932
1.443353270571091
1.443349594897891
1.443353270571932
1.443353270571933
1.443353270581767
1.443342098149904
1.443353270571932
1.443353270571932
1.44335327091849
1.443316134277921
1.443353270571932
1.443353270571932
1.443353270571933
1.443353270576466
1.443353270571932
1.443353270571932
1.443353270571935
1.443353270571932
1.443353298854093
1.443353088300245
1.443360202352672
1.44339657567411
1.436991888679174
1.417719086352091
1.404989485089638
1.401359379142616
1.44335325148589
1.443353220193463
1.443353185273208
1.443353232570542
1.443352730314864
1.443352480477831
1.443352431590272
1.443352519101296
1.442963318451245
1.44288737577766
1.442859448418207
1.442804973458864
1.399041746236344
1.39621624447009
1.400013557074804
1.39032004278509
1.410522873364028
1.434295525332562
1.451567062748399
1.456095321768909
1.442470809099515
1.441648228499268
1.442092115884172
1.442964418883581
1.443350849367281
1.443347791574523
1.443346099600657
1.443349596773467
1.443353099757105
1.443352920010244
1.443352769669088
1.443352841956026
1.443353054791318
1.44335322101267
1.443353266340848
1.443353270474283
1.443353377600966
1.44335368776533
1.44335332909237
1.443353272444309
1.443450121773272
1.443495018600181
1.44338324420092
1.443355013893267
1.453806948582075
1.449211833158428
1.445291726140501
1.443623316284025
1.443363838594402
1.443353290998633
1.443353270590941
1.443353270568662
1.443353535501159
1.443353272842174
1.443353270669961
1.443353270581663
1.443361741318163
1.443353287770806
1.44335325489368
1.44335326759721
1.43344050768232
1.443367865165228
1.443356522209474
1.443353324041564
1.443353303474205
1.443353572538479
1.443061278353659
1.320660002075144
1.443353255673805
1.443349830233991
1.441438731096833
1.227773892064462
1.443353021424088
1.443345599486655
1.439619030714031
1.185734763245322
1.443352667456105
1.443342861602383
1.438313717635032
1.178599620593772
1.17589602408744
1.437020504481002
1.44333835904366
1.443352528978316
1.177152559952559
1.436102342376038
1.443335769921429
1.44335202845482
1.166344103144461
1.434298880205963
1.443327527956103
1.443351987366993
1.158062693255691
1.432431667420079
1.443319483343212
1.443350861854576
1.443350815302795
1.443316062712761
1.430177831212383
1.138468853730558
1.443349946498721
1.443297237907834
1.42696578625985
1.145906012984425
1.443348424219969
1.443287099384421
1.426649378804072
1.173288427755866
1.443352504406346
1.443280381789502
1.430910861843547
1.26506977860517
1.443340365269237
1.443368380410181
1.442933180366737
1.427554676531868
1.443343786584188
1.443643782046076
1.447459177534676
1.496172004220859
1.443355033521627
1.443369967224931
1.441310350416339
1.407943006886001
1.443353259777774
1.443236449939017
1.429536653207691
1.2561687694365
1.177946079499778
1.426626557088858
1.443240941579059
1.44335316749777
1.156110129491212
1.424152871219982
1.44317662249799
1.443352968822513
1.174642477310618
1.428769109970693
1.443271936054927
1.443353211960868
1.146880838562964
1.426886351067371
1.443254293401693
1.443353161141631
1.246565526885951
1.434848603544724
1.443314178546619
1.443353221940908
1.347427098735837
1.440431703805547
1.443345066760779
1.443353261702851
1.410532141844772
1.442685401217813
1.44335223640323
1.443353270275101
1.442932428078893
1.443480244388289
1.443354244763933
1.443353271466713
1.394929730721675
1.441554176983626
1.443333098745597
1.443353177533235
1.395523561563183
1.441568198989216
1.443333282742295
1.443353177821059
1.394278474361316
1.441562390786315
1.44333340171528
1.443353177804306
1.389966586964209
1.44156091884568
1.443334076608737
1.443353180356754
1.442932428085361
1.443480244392948
1.443354244771234
1.443353271457865
1.410532141849823
1.442685401223584
1.443352236417869
1.443353270273421
1.347427098734027
1.440431703801407
1.443345066759467
1.443353261702136
1.246565526879544
1.434848603530996
1.443314178544852
1.443353221944806
1.443353167487631
1.443240941554739
1.426626557086238
1.177946079498292
1.443352968811858
1.443176622495824
1.424152871214575
1.156110129486121
1.443353211969111
1.443271936046294
1.428769109969557
1.174642477301471
1.443353161141177
1.443254293397369
1.426886351055783
1.146880838565069
1.25616876944445
1.429536653217734
1.443236449957724
1.443353259786999
1.407943006894718
1.441310350425409
1.44336996723863
1.443355033538058
1.496172004221245
1.447459177544783
1.443643782045889
1.443343786591545
1.427554676529792
1.442933180370554
1.443368380414904
1.443340365249591
1.443350815309081
1.443316062700955
1.430177831207939
1.138468853723591
1.443349946497726
1.443297237899398
1.426965786255243
1.145906012983688
1.443348424209418
1.443287099383979
1.4266493788118
1.17328842775602
1.443352504389002
1.443280381789298
1.430910861849206
1.265069778606231
1.158062693246937
1.4324316674265
1.443319483326821
1.443350861854845
1.166344103135054
1.43429888017505
1.443327527954966
1.443351987363393
1.177152559949545
1.436102342373797
1.443335769901199
1.443352028459322
1.17589602408179
1.437020504504517
1.4433383590546
1.443352528981535
1.443353303466032
1.443353572529493
1.443061278356508
1.320660002081848
1.443353255680553
1.443349830245199
1.441438731086986
1.227773892073043
1.443353021430259
1.443345599489494
1.439619030714457
1.185734763233448
1.443352667463341
1.443342861592613
1.438313717629341
1.178599620601151
1.44335332404226
1.443353267593238
1.443353270581525
1.4433532705696
1.443356522219113
1.443353254894111
1.443353270661291
1.443353270594171
1.443367865161711
1.443353287768866
1.443353272848204
1.44335329100211
1.433440507682003
1.443361741317129
1.443353535500573
1.443363838594046
1.443353270477921
1.443353272444355
1.443355013887676
1.443623316279804
1.443353266344
1.44335332909548
1.443383244180237
1.445291726141262
1.443353221007049
1.443353687765038
1.443495018612341
1.449211833158501
1.443353054788679
1.443353377602513
1.443450121761431
1.453806948587825
1.44335309976958
1.443350849376916
1.442470809098259
1.410522873364684
1.443352920021126
1.443347791574773
1.441648228501694
1.434295525339082
1.443352769673647
1.443346099588976
1.442092115887402
1.451567062752046
1.443352841959817
1.443349596764805
1.442964418886179
1.456095321774242
1.390320042781974
1.442804973435596
1.443352519107941
1.443353232576246
1.400013557074003
1.442859448393577
1.443352431592989
1.443353185270296
1.396216244459478
1.442887375779012
1.443352480475761
1.443353220196789
1.399041746239155
1.442963318505972
1.443352730317227
1.443353251482534
1.401359379139224
1.443396575649673
1.443353270571932
1.443353270575475
1.404989485091305
1.44336020237347
1.443353270571932
1.443353270571933
1.417719086347369
1.443353088303658
1.443353270571932
1.443353270571933
1.436991888676675
1.443353298855352
1.443353270571932
1.443353270571934
1.443353270571932
1.443353270571933
1.443353270571932
1.443353098806997
1.443353270571931
1.443353270571932
1.44335327057119
1.443349594926636
1.443353270571932
1.443353270571932
1.443353270581102
1.443342098158126
1.443353270571932
1.443353270571932
1.443353270922517
1.443316134285285
1.443352880472462
1.443350714063937
1.443334491174844
1.442456315371255
1.443350714027922
1.443352488913438
1.443361896284206
1.436397203763124
1.443334491207733
1.443361896341823
1.440782391118304
1.395026177049705
1.442456315302567
1.43639720381706
1.395026177202484
1.221851732189308
1.052208857682185
1.144260512694296
1.297993868604435
1.382468842865163
1.103433582750279
1.128170719426484
1.191053903958612
1.262643578925462
1.164893796065632
1.181735353747023
1.222719813844189
1.268891636369449
1.187106172377637
1.23558920215756
1.262594276186998
1.287123980250152
1.290912830168135
1.296026784605501
1.304307211547985
1.293002505952039
1.285401389482608
1.297093939529136
1.303870553119993
1.315529881894236
1.274256170608585
1.294345994103759
1.298819443218353
1.397842125494473
1.200433297191494
1.217662280165537
1.224175789552626
1.513637027182245
1.414515724225421
1.53290411250142
1.527853382518832
1.490595521413165
1.50772474647483
1.615738356291837
1.567145301402812
1.518807670846978
1.687405166944322
1.709505368108856
1.591343274196694
1.529163999572469
1.276734567320623
1.26706221126376
1.255327829728546
1.311372913492947
1.473185926659308
1.459846329194667
1.450037780077227
1.444922959906433
1.489286316455996
1.47139937435599
1.456632232007137
1.446959576658106
1.499785835322926
1.480161091271195
1.4630236983474
1.449449068556049
1.378758024162199
1.413239916120743
1.428632874175885
1.439208451318872
1.44349612121369
1.44335707756723
1.443358077129015
1.296476830427553
1.443745239623333
1.443364924099538
1.443355480977537
1.166619712779834
1.444120454659051
1.443380173144752
1.443354240511756
1.046088043972842
1.442787828401638
1.443333320775531
1.443355338578137
0.8308708539730957
0.8765445623085715
0.9069710856280777
0.9379918949024669
0.965958654868451
0.7463070695390766
0.855212251342638
0.9280381712513639
0.9644654751489773
0.6248974690370056
0.7869755317061904
0.8983965162274292
0.9537582248816852
0.4775279243345519
0.6788564396790641
0.773101678698153
0.8580054989538678
0.9829842352561196
0.9918517057210138
0.9923765332799931
0.9908004031020659
0.9852340975919142
0.9969137418064387
1.001902085847787
1.00194018116519
0.9810399683672463
0.9944583262995089
1.000185105580662
1.001333459963815
0.9046902474295428
0.9264921743474126
0.9358956683216084
0.9331654135649515
0.989057077974193
1.004280719368257
1.044427444506395
1.138465396705177
1.002620406607267
1.016816969028601
1.065913251908137
1.192774679253257
1.003341794263551
1.017231407619467
1.094520050198327
1.501993018919662
0.9442940584823772
0.9614042459559722
1.094764031736854
2.064733726584997
1.366933782546254
1.562746419038125
0.6076832118394725
0.2753735680753444
1.442771237933539
1.364537245739424
0.505764187546196
0.1318461072706408
1.504255558375829
1.01361054877863
0.3195010269816653
0.1271215114840185
1.166696477065038
0.4467350532928303
0.2010324645428324
0.1144776983816122
0.142036105609064
0.1227769044357591
0.1404093638477182
0.1230555759069666
0.05474402879655022
0.1355354178903692
0.1805971875781005
0.2609042358254916
0.04421608993004269
0.1599468923930142
0.2562153375731717
0.3951170274610302
0.02066152268965939
0.1501329551638306
0.2790276396456261
0.409688647482621
0.9740749647276177
1.293699862299425
1.456708891852552
1.482394820821628
0.5805702232892385
1.042446801904709
1.332136503163088
1.418328765371297
0.1135218083272016
0.5316770674398044
0.9637176815276113
1.398522926718446
0.133230976076562
0.2335873988970838
0.6815963961446363
1.565357815703561
1.678402186370337
2.005026214139847
2.680074587031834
2.130075513306374
1.691264686632887
2.042906602360544
2.778407525272757
2.497660614655122
1.774990508435136
2.105337116489916
2.683131990225563
1.75622089312314
1.419804823142299
1.618658090161758
1.844971646814793
0.7267473289051894
0.06268752609813659
0.2911527783043514
0.3157737563055341
0.2399615475902188
0.5912213703155581
0.1780134678518025
0.3091299322516985
0.2648420887794781
1.023870334849648
0.2571196778292406
0.02617852295139688
0.02590940332356516
1.159147255136528
0.684342062309966
0.4173901079887297
0.4321976046759226
0.2399615475899852
0.2648420887794144
0.0259094033220281
0.4321976046750098
0.3157737563052242
0.3091299322525033
0.02617852295033167
0.4173901079873663
0.2911527783044588
0.1780134678529046
0.257119677826425
0.6843420623078842
0.06268752609821009
0.5912213703123332
1.023870334854057
1.159147255141639
2.130075513317145
2.68007458703867
2.005026214149983
1.678402186380463
2.497660614654152
2.778407525270345
2.042906602359866
1.69126468663957
1.756220893118229
2.683131990229618
2.105337116495161
1.774990508438519
0.7267473289049771
1.84497164681485
1.61865809016212
1.419804823144023
1.565357815706792
0.6815963961443787
0.2335873988973044
0.1332309760836077
1.398522926722111
0.9637176815294871
0.5316770674369924
0.1135218083215341
1.418328765375884
1.332136503167483
1.042446801901654
0.580570223280362
1.482394820827038
1.45670889185627
1.293699862298521
0.9740749647219015
0.1230555759033626
0.1404093638403066
0.1227769044339825
0.1420361056087263
0.2609042358297845
0.1805971875732996
0.1355354178917508
0.05474402879528939
0.3951170274646333
0.2562153375696833
0.1599468923921236
0.0442160899340548
0.4096886474846226
0.2790276396437179
0.150132955164211
0.02066152269270845
0.275373568078755
0.6076832118432522
1.562746419036115
1.366933782546436
0.1318461072707406
0.5057641875505282
1.364537245741057
1.442771237939221
0.127121511483818
0.3195010269830766
1.013610548777892
1.504255558379447
0.114477698375611
0.2010324645408884
0.4467350532966127
1.166696477069849
1.138465396705751
1.044427444505122
1.004280719366567
0.9890570779685882
1.192774679254669
1.065913251907588
1.016816969027342
1.002620406603114
1.501993018923178
1.094520050199941
1.017231407618551
1.003341794261378
2.064733726590405
1.094764031741365
0.9614042459626533
0.9442940584885333
0.9908004030931009
0.9923765332753542
0.9918517057224627
0.9829842352527103
1.001940181160405
1.001902085844073
0.9969137418053844
0.9852340975934065
1.001333459961881
1.000185105578024
0.994458326299128
0.9810399683715983
0.9331654135687844
0.9358956683228439
0.9264921743486936
0.9046902474331705
0.965958654862622
0.9379918949006811
0.9069710856331017
0.8765445623079766
0.964465475147117
0.9280381712485395
0.8552122513455377
0.7463070695385829
0.9537582248823886
0.8983965162250983
0.7869755317067729
0.6248974690372566
0.8580054989454712
0.7731016787003303
0.6788564396794635
0.4775279243321733
1.296476830432987
1.443358077144841
1.443357077567181
1.443496121210674
1.166619712784019
1.44335548098558
1.443364924101156
1.443745239618783
1.046088043973219
1.443354240514215
1.443380173147894
1.444120454652339
0.8308708539744974
1.443355338577937
1.443333320776759
1.442787828409734
1.444922959904193
1.45003778008221
1.459846329195146
1.473185926668548
1.446959576655506
1.456632232008726
1.47139937435755
1.489286316461782
1.449449068554058
1.463023698346662
1.480161091273679
1.499785835325715
1.439208451312357
1.428632874179955
1.413239916123518
1.378758024151054
1.490595521416865
1.527853382519929
1.532904112500152
1.41451572422492
1.518807670852081
1.567145301403861
1.615738356295275
1.507724746475989
1.529163999579091
1.591343274198638
1.709505368117087
1.687405166945943
1.311372913496953
1.255327829728581
1.267062211267325
1.276734567321493
1.293002505955967
1.304307211555326
1.296026784601464
1.29091283015721
1.315529881899696
1.303870553121029
1.297093939525189
1.285401389474154
1.397842125502302
1.298819443220002
1.294345994104101
1.274256170602903
1.513637027194597
1.22417578956475
1.217662280170964
1.200433297191415
1.287123980251943
1.268891636371919
1.262643578926773
1.382468842881786
1.262594276185643
1.222719813849654
1.191053903957458
1.29799386864682
1.235589202156101
1.181735353758404
1.128170719427278
1.144260512651709
1.187106172386014
1.164893796069846
1.103433582753247
1.0522088576842
1.438401589577438
1.443117768391381
1.443351394733109
1.443353264603413
1.436143534585468
1.442912394059083
1.443349211097011
1.443353253365831
1.412920792373522
1.442415138703989
1.44334486140501
1.443353233198186
1.385788969184494
1.441666005286363
1.443337430291925
1.443353198940624
1.443353177527606
1.443333098747135
1.441554176983683
1.394929730709856
1.443353177816452
1.443333282735836
1.441568198998314
1.395523561564303
1.443353177810032
1.443333401707119
1.441562390793151
1.394278474371193
1.443353180374645
1.443334076599591
1.441560918869839
1.389966586972636
1.443353198944388
1.443353233202752
1.443353253387228
1.443353264624673
1.443337430289412
1.443344861405538
1.443349211101471
1.443351394743607
1.441666005285399
1.442415138707797
1.442912394051027
1.443117768399634
1.385788969192999
1.412920792380741
1.436143534586038
1.43840158957772
)
;

boundaryField
{
    back
    {
        type            empty;
    }
    inlet
    {
        type            calculated;
        value           nonuniform List<scalar> 
16
(
1.443353270571932
1.443353270571932
1.443353270571932
1.443353270571932
1.443353270571932
1.443353270571932
1.443353270571932
1.443353270570849
1.443353270570502
1.443353270571932
1.443353270571932
1.443353270571933
1.443353270571932
1.443353270571932
1.443353270571932
1.443353270571932
)
;
    }
    front
    {
        type            empty;
    }
    top
    {
        type            calculated;
        value           uniform 0;
    }
    outlet
    {
        type            calculated;
        value           nonuniform List<scalar> 
16
(
1.443353142979009
1.443353143272016
1.443353143154605
1.443353145978698
1.443353261701464
1.443353246416483
1.443353218808884
1.443353171613716
1.443353142975454
1.443353143268912
1.44335314315797
1.443353145989928
1.443353171615907
1.443353218811129
1.443353246429494
1.443353261715035
)
;
    }
    bottom
    {
        type            calculated;
        value           uniform 0;
    }
    wall
    {
        type            calculated;
        value           uniform 0;
    }
}


// ************************************************************************* //
