/*--------------------------------*- C++ -*----------------------------------*\
  =========                 |
  \\      /  F ield         | OpenFOAM: The Open Source CFD Toolbox
   \\    /   O peration     | Website:  https://openfoam.org
    \\  /    A nd           | Version:  11
     \\/     M anipulation  |
\*---------------------------------------------------------------------------*/
FoamFile
{
    format      ascii;
    class       volScalarField;
    location    "0.02";
    object      Ma;
}
// * * * * * * * * * * * * * * * * * * * * * * * * * * * * * * * * * * * * * //

dimensions      [0 0 0 0 0 0 0];

internalField   nonuniform List<scalar> 
880
(
1.443353270571932
1.443353270571932
1.443353270571932
1.443353270598848
1.443353270571932
1.443353270571932
1.443353270571934
1.443353271679013
1.443353270571932
1.443353270571933
1.443353270571932
1.443353291010484
1.443353270571932
1.443353270571932
1.443353270571932
1.443352956815329
1.443353270571932
1.443353270571932
1.443353270571933
1.443353270571932
1.443353270571932
1.443353270571932
1.443353270571935
1.443353270571932
1.443353270571932
1.443353270571932
1.443353270611943
1.443353270409444
1.443333306729545
1.443291482487653
1.443287549102836
1.443294108093311
1.443353270571932
1.443353270571932
1.443353270571933
1.443353270571932
1.443353270569774
1.443353270569885
1.443353270569351
1.443353270571013
1.443353255772684
1.443353254383544
1.443353253645131
1.443353253885242
1.443287571300921
1.443283866998763
1.443282679818431
1.443281529458043
1.443236073307342
1.44335303111453
1.443358438862764
1.443353458308059
1.443353208673577
1.443353260176534
1.443353272218656
1.443353270654638
1.443353270549954
1.443353270567234
1.443353270573241
1.443353270571799
1.443353270571852
1.443353270571932
1.443353270571932
1.443353270571932
1.443353270571933
1.443353270571933
1.443353270571932
1.443353270571932
1.443353270571932
1.443353270571932
1.443353270571932
1.443353270571932
1.443353270573705
1.44335327057182
1.443353270571934
1.443353270571932
1.443353273103726
1.44335327050146
1.443353270563474
1.443353270571932
1.443353270571801
1.443353270571932
1.443353270571932
1.443353270571932
1.443353270504097
1.443353270571159
1.443353270571932
1.443353270571932
1.443353304610431
1.443353270454589
1.443353270573183
1.443353270571932
1.443457299039753
1.443353314796973
1.443353270583222
1.443353270571933
1.443353270571934
1.443353270571933
1.443353268934459
1.443337841187479
1.443353270571932
1.443353270571089
1.443353265446353
1.44330856713444
1.443353270571932
1.443353270571113
1.443353264614629
1.443305350776226
1.443353270571932
1.443353270571429
1.443353263760607
1.443303165143671
1.443300590769186
1.443353262718123
1.443353270571069
1.443353270571932
1.443297741230349
1.443353261456148
1.443353270570946
1.443353270571932
1.443294525247644
1.443353259894381
1.443353270570819
1.443353270571932
1.44328904054461
1.443353257526003
1.443353270570459
1.443353270571932
1.443353270571933
1.443353270570743
1.443353263360522
1.443314009375496
1.443353270571932
1.443353270570962
1.443353264085258
1.44332340305723
1.443353270588925
1.443353270570461
1.443353263915498
1.443329708452155
1.443353270408776
1.443353270558327
1.443353263259554
1.443342380874793
1.443353269963618
1.443353264353829
1.443330110391433
1.43814995248903
1.443353269886991
1.443353252418815
1.443287277367592
1.42290759028091
1.443353270074702
1.44335325346325
1.443280941024867
1.417676142801972
1.443353270201435
1.443353260077556
1.443292915515269
1.417911212478743
1.424355716433094
1.44331270519042
1.443353261254271
1.443353270227138
1.425422650878769
1.443319193034346
1.443353264411391
1.443353270229425
1.426917953597295
1.443326316152145
1.443353267198172
1.443353270272332
1.4221279517947
1.443315855692488
1.443353263459535
1.443353270399004
1.440986984160692
1.443350829427258
1.443353270882326
1.443353270544361
1.443320589710513
1.44335326547751
1.443353270664121
1.443353270570562
1.443356147595752
1.443353274885034
1.443353270574347
1.443353270571932
1.443376071072507
1.443353289772604
1.443353270585342
1.443353270571932
1.443141405463439
1.443353703243023
1.443353280885119
1.443353270579816
1.443141830803694
1.443353700079103
1.443353280855314
1.443353270578762
1.443139459455409
1.443353646246796
1.443353280301871
1.44335327057866
1.443128012619056
1.443353488428521
1.443353278545487
1.44335327057801
1.443376071074282
1.443353289773855
1.443353270586777
1.443353270571934
1.443356147597686
1.443353274886297
1.443353270577161
1.443353270571932
1.443320589711238
1.443353265477257
1.443353270664134
1.443353270570477
1.440986984158078
1.443350829424151
1.443353270882236
1.443353270545216
1.443353270225073
1.443353261251121
1.443312705188905
1.424355716432282
1.44335327022812
1.443353264410794
1.44331919303303
1.425422650877932
1.443353270274218
1.443353267196208
1.44332631615207
1.426917953593303
1.443353270398733
1.443353263458957
1.443315855689359
1.422127951796583
1.417911212480876
1.443292915516967
1.443353260078612
1.44335327020189
1.417676142804629
1.443280941027014
1.443353253466503
1.443353270077629
1.422907590281455
1.44328727737031
1.443353252419034
1.443353269889335
1.438149952488063
1.443330110392463
1.44335326435496
1.443353269960233
1.443353270571933
1.443353270569959
1.443353263359185
1.443314009372884
1.443353270571932
1.443353270570788
1.443353264085184
1.443323403057877
1.443353270587719
1.443353270571049
1.443353263916801
1.443329708452517
1.4433532704067
1.443353270558473
1.443353263260673
1.443342380874843
1.443289040539665
1.443353257527744
1.443353270569353
1.443353270571932
1.443294525243616
1.443353259891687
1.443353270570555
1.443353270571932
1.443297741230984
1.443353261453169
1.443353270570345
1.443353270571932
1.443300590767312
1.443353262720335
1.443353270570995
1.443353270571932
1.443353270571932
1.443353270571932
1.443353268934647
1.443337841191589
1.443353270571932
1.443353270571429
1.443353265445496
1.443308567134026
1.443353270571932
1.443353270571061
1.44335326461431
1.443305350774402
1.443353270571932
1.443353270571279
1.443353263761871
1.443303165143122
1.443353270571932
1.443353270571932
1.443353270571932
1.443353270571932
1.443353270585026
1.443353270572847
1.443353270571932
1.443353270571932
1.443353314796532
1.443353270452903
1.443353270571778
1.443353270571932
1.443457299039505
1.443353304610382
1.443353270503981
1.443353270571801
1.443353270571934
1.443353270571932
1.443353270571933
1.443353270571932
1.443353270571932
1.443353270571932
1.443353270571932
1.443353270563476
1.443353270571932
1.443353270571932
1.443353270572033
1.443353270501293
1.443353270571932
1.443353270571933
1.443353270573014
1.443353273103996
1.443353270571947
1.443353270551997
1.443353208675421
1.443236073307753
1.443353270571932
1.443353270567306
1.443353260176469
1.443353031116854
1.443353270571933
1.443353270571614
1.443353272219366
1.443358438863017
1.443353270571932
1.443353270571918
1.443353270654345
1.443353458309814
1.443281529457037
1.443353253882547
1.443353270571181
1.443353270571932
1.443282679819417
1.443353253640513
1.443353270569348
1.443353270571932
1.44328386699593
1.443353254381279
1.443353270569816
1.443353270571934
1.443287571301781
1.443353255778382
1.443353270570431
1.443353270571932
1.443294108091659
1.443353270409395
1.443353270571932
1.443353270571932
1.443287549103736
1.443353270614151
1.443353270571932
1.443353270571933
1.443291482486021
1.443353270571932
1.443353270571932
1.443353270571933
1.443333306729948
1.443353270571932
1.443353270571932
1.443353270571934
1.443353270571932
1.443353270571933
1.443353270571932
1.443353270596742
1.443353270571931
1.443353270571932
1.443353270571932
1.443353271678109
1.443353270571932
1.443353270571932
1.443353270571932
1.443353291011201
1.443353270571932
1.443353270571932
1.443353270571934
1.443352956816733
1.443353272627739
1.443353377388823
1.443355449105182
1.443354830530579
1.443353377389993
1.443353445693267
1.443370228479149
1.443482126816018
1.443355449105393
1.443370228478982
1.4433007545213
1.436840286936088
1.443354830529266
1.443482126815353
1.43684028693649
1.304699395544157
1.222137849753784
1.327821830675324
1.423071277914419
1.44119159582472
1.252232107517767
1.313834666400812
1.40064077607833
1.43490527904106
1.266383677470492
1.324631052616203
1.400650292073966
1.433517361551393
1.267825887396231
1.32613024072915
1.400886191651708
1.433581441216797
1.432590942983545
1.432266361667143
1.432270084282422
1.431148427455053
1.39967836733437
1.40035524260899
1.400608274235476
1.395376660461299
1.321259018618207
1.322109665009705
1.322524431742848
1.341699768476016
1.262328102176569
1.263352520869157
1.263968663066352
1.35011869053773
1.433350493931714
1.444911742425992
1.443723466118509
1.44336096455689
1.442580395435255
1.450610542644643
1.443996801346593
1.443376885423723
1.475805677337735
1.457814495358479
1.444306453097801
1.443468575709205
1.399310607971868
1.438474553019203
1.441506751628127
1.443049667735964
1.443353578045647
1.443353244225932
1.443353269936708
1.443353270571093
1.443354607713508
1.443353250906296
1.443353270440312
1.443353270585573
1.443360145322492
1.443353313173017
1.443353270434656
1.443353270661015
1.443336282717752
1.443353104759463
1.443353270958894
1.443353270811017
1.443353270572712
1.443353270581426
1.443353260414766
1.455954097421676
1.443353270575345
1.443353270572159
1.443353269536365
1.490950321006942
1.443353270586927
1.443353270571853
1.443353270510963
1.472141699900194
1.443353270598613
1.443353270571921
1.443353270568747
1.092671846881026
1.433083690616533
1.414057771100537
1.413682702716079
1.413813005942919
1.256829081083019
1.224730745735018
1.229930706029035
1.230286884053663
0.9873990303594276
1.033878336959351
1.037721724606443
1.037325533034658
0.9028553347188394
0.9463534049882295
0.9485497868767598
0.9478283232593101
1.413821734737213
1.413817574516754
1.413813207898886
1.413289940573245
1.230228760043833
1.230224109142916
1.230223466520994
1.230756186056814
1.037026091908456
1.037013518379732
1.037014323308113
1.037538775962958
0.9474200871239195
0.9473961340804257
0.9473945473850429
0.9474973674291102
1.425125623243393
1.43016981907347
1.433715496257819
1.439123680714432
1.251707846758473
1.262983659576081
1.278288400905301
1.318490213218675
1.048742150000373
1.050237315941618
1.060222744055139
1.202083188638301
0.9584896694183688
0.9629914526246969
0.9798240694734972
1.356283552620942
1.411491381103631
1.095338922440086
0.8434614493791425
0.835108556988673
1.431006259311034
0.9065413310048477
0.4018917915209863
0.3662486041385598
1.343228709269362
0.860504603005156
0.2093793651057658
0.1824470136148849
1.220262057137981
0.7226848754662614
0.139449133088905
0.1283310049718924
0.8094953173224901
0.8110141543542474
0.805716284770013
0.6023429981553869
0.370507753742353
0.3707462855889778
0.3567024570439899
0.4215606196572204
0.215229627889422
0.2169061490894086
0.2144663939528955
0.6212055598105567
0.1724317804263194
0.175198251128447
0.1860534698031216
0.7549408146149361
1.338342280627948
1.438881317198366
1.443559215865504
1.445582793751067
1.263809450205803
1.429580874792022
1.445314243891914
1.456906426820733
1.171312538024637
1.432757142912555
1.454239038852637
1.583237629161184
0.9981970049217082
1.277948006128697
1.417016391379545
1.916985665748295
1.43635082388806
1.414257370703163
1.394008241396731
1.389307007480525
1.445330068297581
1.307148466715185
1.199248409014306
1.173897829035499
1.631621446475042
1.302112025544593
1.003455562243066
0.941586056435899
1.470185354594806
1.244514213859551
0.7028444436098564
0.3856865610865273
0.3992259207481469
0.4021644905099661
0.4019005416728602
0.4028331013976059
0.9468748528385256
0.9611516479320604
0.9614665838582859
0.9626721647055502
1.160245451480017
1.162887176461802
1.160665299586938
1.159985460898534
1.384164986533313
1.384395895221826
1.383972151908109
1.383676904966672
0.4028331013978368
0.9626721647058497
1.15998546089756
1.383676904967662
0.4019005416721574
0.9614665838599702
1.16066529958665
1.383972151908523
0.4021644905093224
0.9611516479315004
1.162887176463331
1.384395895222619
0.3992259207482415
0.9468748528366963
1.160245451480884
1.3841649865349
1.389307007481631
1.394008241397157
1.414257370704882
1.43635082389116
1.173897829037591
1.199248409013584
1.307148466712542
1.445330068299363
0.9415860564346753
1.003455562242218
1.302112025545058
1.631621446475061
0.3856865610864574
0.7028444436104454
1.244514213859128
1.470185354594591
1.916985665747875
1.417016391379548
1.277948006128748
0.9981970049208584
1.583237629161652
1.454239038854792
1.432757142912114
1.171312538024409
1.45690642682153
1.445314243894727
1.429580874791974
1.263809450205624
1.445582793751855
1.443559215866609
1.438881317198958
1.33834228062698
0.6023429981561952
0.8057162847712194
0.8110141543548141
0.8094953173239567
0.4215606196569781
0.3567024570436826
0.370746285587871
0.3705077537418449
0.6212055598098492
0.214466393952308
0.2169061490872233
0.2152296278879363
0.7549408146174
0.1860534698031892
0.175198251128171
0.1724317804260775
0.8351085569913447
0.8434614493766972
1.09533892243544
1.41149138110261
0.3662486041372054
0.401891791518573
0.9065413310024556
1.431006259312342
0.1824470136135133
0.2093793651041076
0.8605046030020587
1.343228709271468
0.1283310049716123
0.1394491330884136
0.7226848754675675
1.220262057139296
1.439123680714299
1.433715496257004
1.430169819074372
1.425125623241557
1.318490213220271
1.278288400905074
1.262983659576312
1.251707846757464
1.202083188639771
1.060222744055379
1.050237315941623
1.048742150000619
1.356283552622596
0.9798240694741398
0.9629914526253184
0.9584896694196102
1.413289940572005
1.413813207896496
1.413817574516637
1.41382173473634
1.230756186057286
1.230223466519625
1.230224109141967
1.230228760043864
1.037538775964354
1.037014323307804
1.037013518379322
1.03702609190911
0.9474973674311826
0.9473945473855589
0.947396134080446
0.9474200871247772
1.413813005944414
1.41368270271411
1.414057771100746
1.433083690616697
1.230286884054606
1.229930706027705
1.224730745736384
1.25682908108168
1.037325533035134
1.037721724605935
1.033878336960257
0.9873990303585672
0.9478283232596028
0.9485497868767446
0.9463534049893239
0.9028553347173953
1.455954097421462
1.443353260414771
1.443353270581433
1.443353270572713
1.490950321006854
1.443353269536372
1.443353270572161
1.44335327057534
1.4721416999001
1.443353270510963
1.443353270571853
1.443353270586929
1.092671846881379
1.443353270568718
1.443353270571917
1.443353270598602
1.443353270571096
1.443353269936257
1.443353244225822
1.443353578045202
1.443353270585504
1.443353270439637
1.443353250906294
1.443354607713416
1.443353270660935
1.44335327043379
1.443353313173171
1.44336014532264
1.443353270810945
1.443353270958416
1.443353104759554
1.443336282719363
1.443360964557551
1.443723466118649
1.444911742426785
1.433350493931931
1.443376885423939
1.443996801346738
1.450610542644943
1.442580395435461
1.443468575709356
1.444306453097896
1.457814495358638
1.475805677338163
1.44304966773559
1.441506751628149
1.438474553019257
1.399310607971854
1.431148427453958
1.432270084283117
1.432266361666734
1.43259094298165
1.39537666046278
1.400608274235945
1.400355242608523
1.399678367332442
1.341699768478125
1.322524431743859
1.322109665011765
1.321259018617154
1.350118690539685
1.263968663068175
1.263352520872123
1.262328102175786
1.433581441215645
1.433517361551703
1.434905279039919
1.441191595823763
1.40088619165205
1.400650292073376
1.400640776079235
1.423071277914615
1.326130240729077
1.324631052618112
1.313834666401787
1.327821830676178
1.267825887396328
1.266383677474482
1.252232107518116
1.222137849753971
1.443290006010524
1.443353270232929
1.443353272098272
1.443353270573515
1.443153831125225
1.443353299213112
1.443353275171213
1.443353270576643
1.443020143572141
1.443353201114038
1.443353275522559
1.443353270589372
1.442992462010241
1.443353249285332
1.443353276794459
1.443353270581046
1.443353270579183
1.443353280885864
1.443353703242285
1.443141405463278
1.443353270578474
1.443353280853741
1.443353700081766
1.443141830801931
1.443353270579016
1.443353280300124
1.443353646246406
1.443139459458197
1.443353270579259
1.443353278543641
1.443353488435169
1.443128012619881
1.443353270581166
1.443353270589583
1.443353270578005
1.443353270575172
1.443353276794018
1.443353275522579
1.443353275171839
1.443353272100145
1.443353249283592
1.443353201117465
1.443353299209312
1.443353270235163
1.442992462012487
1.443020143575643
1.44315383112362
1.443290006010041
)
;

boundaryField
{
    back
    {
        type            empty;
    }
    inlet
    {
        type            calculated;
        value           nonuniform List<scalar> 
16
(
1.443353270571932
1.443353270571932
1.443353270571932
1.443353270571932
1.443353270571932
1.443353270571932
1.443353270571932
1.443353270571932
1.443353270571932
1.443353270571932
1.443353270571932
1.443353270571933
1.443353270571932
1.443353270571932
1.443353270571932
1.443353270571932
)
;
    }
    front
    {
        type            empty;
    }
    top
    {
        type            calculated;
        value           uniform 0;
    }
    outlet
    {
        type            calculated;
        value           nonuniform List<scalar> 
16
(
1.443353270581785
1.443353270581057
1.443353270580998
1.443353270580406
1.443353270574376
1.443353270578912
1.443353270593236
1.44335327058389
1.44335327058134
1.443353270580862
1.443353270581233
1.443353270581287
1.443353270583973
1.44335327059337
1.44335327057983
1.443353270575473
)
;
    }
    bottom
    {
        type            calculated;
        value           uniform 0;
    }
    wall
    {
        type            calculated;
        value           uniform 0;
    }
}


// ************************************************************************* //
