/*--------------------------------*- C++ -*----------------------------------*\
  =========                 |
  \\      /  F ield         | OpenFOAM: The Open Source CFD Toolbox
   \\    /   O peration     | Website:  https://openfoam.org
    \\  /    A nd           | Version:  11
     \\/     M anipulation  |
\*---------------------------------------------------------------------------*/
FoamFile
{
    format      ascii;
    class       surfaceScalarField;
    location    "0.02";
    object      phi;
}
// * * * * * * * * * * * * * * * * * * * * * * * * * * * * * * * * * * * * * //

dimensions      [0 3 -1 0 0 0 0];

internalField   nonuniform List<scalar> 
1652
(
2.843686947071611
0.8895636090847483
0
1.954123337988149
0.8895636090834618
2.220446049250313e-16
1.064559728903287
0.8895636090848642
0
0.8895636096270549
1.984146180689095e-11
0.1749961201242249
2.843686947076741
1.779127218162428
1.954123337998014
1.779127218162189
1.064559728910183
1.779127218172694
1.77912721330926
0.1749961277408134
2.843686947090741
2.668690827246526
1.954123338008367
2.668690827244562
1.06455972891429
2.66869082726677
2.668690727653611
0.1749964222289534
2.843686947092868
3.558254436328659
1.954123338013008
3.558254436324421
1.064559728916617
3.558254436363163
3.558257780187594
0.1749932697133206
4.418652025448567
2.872852967045247
5.279049614570545
2.872852967043177
6.139447203693196
2.872852967042502
2.872852967040008
6.999844792818344
4.418652025437509
2.012455377932159
5.279049614550976
2.012455377929712
6.139447203664234
2.012455377929244
2.012455377926213
6.999844792778031
4.418652025480113
1.152057788815211
5.279049614595972
1.152057788814002
6.139447173101169
1.15205778899788
1.152057786806518
6.999845189092573
4.418899033871573
0.2895017819954456
5.279983982066927
0.282823426552433
6.140551536433215
0.2802576255423982
7.0010545511026
0.2802461943823139
6.941512752878541
0.05833203993525982
6.883180712938831
0.05833203993443636
6.824848672999107
0.05833203993403591
0.05833203993911507
6.766516633059473
6.941512752922026
0.1166640789132749
6.883180712999296
0.1166640788122296
6.824848673067294
0.1166640787429076
0.116664079476608
6.766516633360312
6.941513115116101
0.1749925977550486
6.883181084508124
0.1749922356045785
6.824849033815092
0.1749920893740066
0.1749931392275348
6.766518368002272
6.942929150788113
0.2231368099621387
6.884593258487627
0.222534868938122
6.826219979920471
0.2224695257301632
6.769215576923816
0.2235635541483166
6.769864864347834
1.63400762949184e-05
-0.01851713689578144
6.767259316902148
6.824649357584089e-06
-0.004835138215197321
6.766543775995979
8.177690593025311e-07
-0.0003043417990232777
2.059907139306816e-08
6.766516668300559
8.921420206475794e-07
6.766518551027636
8.12137113115341e-09
6.766517186324514
3.901373890613513e-09
6.766516659314522
5.358855581505395e-10
7.845946115025981e-12
6.766516633170794
6.766516633702721
4.55597781723327e-11
6.766516633268934
2.256850262227772e-11
6.766516633058201
1.646460745519107e-13
-3.6383118739991e-12
6.766516633045027
6.766516633054979
6.76651663305197
6.766516633048568
6.766516633044935
6.766516633046038
-1.104560887199568e-12
6.766516633047141
-1.10111919582323e-12
6.766516633048259
-1.11743947428522e-12
-1.084243805848928e-12
6.766516633049343
6.766516633046104
-2.127742426694113e-12
6.766516633047178
-2.166711254858456e-12
6.76651663304825
-2.188360603838646e-12
-2.181699265690895e-12
6.766516633049348
6.766516633044682
2.679648170023086e-10
6.766516633051122
4.718164747785636e-11
6.766516633050421
-1.596500709410975e-13
-1.100952662369536e-12
6.76651663304934
6.766516583420913
5.487644859636376e-07
6.766516630690967
5.191124990977514e-08
6.76651663304547
4.133028919106607e-10
6.76651663304949
-3.864741859871401e-12
4.085620730620576e-14
6.766516633036376
-4.141686993364146e-13
4.440892098500626e-16
6.766516633049288
-1.110223024625157e-16
6.766516633049347
6.766516633049342
-1.165271212855146e-10
6.766516644030427
9.638734255190684e-12
-1.158517726196351e-12
6.766516633085479
-3.996802888650564e-15
6.76651663304934
6.766516633049341
1.567989607598186e-07
6.766505260833267
2.563383116882534e-09
7.108535982069952e-11
6.766516644872993
3.04645197957143e-13
6.766516633053841
6.766516633049319
-1.193953890182842e-05
6.76616520718663
0.01432162363997813
-5.301963312831504e-09
6.766516601235125
-1.585509501467186e-12
6.766516633041819
6.766516633049338
0.1555520676224567
6.610964565426886
0.311104135221808
6.610964565429737
0.4666559952866794
6.61096459898343
6.611186752784103
0.6205107380419734
0.1555520676215862
6.455412497804579
0.3111041350420822
6.455412497807242
0.4666550706152885
6.455412535458585
6.45564966400416
0.6159977064929963
0.1555520676212655
6.29986043018242
0.3111041349985808
6.299860430184094
0.4666549173238901
6.299860470170055
6.30008983229363
0.6157525384982083
0.1555520676209163
6.144308362560412
0.311104134952278
6.144308362562467
0.4666547918934718
6.144308405111647
6.144529809299339
0.6158093286420107
-0.4666549925832083
5.988968917295724
0.6158469627677432
-0.3111043682090376
5.988756223592163
-0.1555521842787118
5.988756178283668
5.988756178280353
-0.4666548177396656
5.833405977407655
0.6158857495013137
-0.3111043681364496
5.833204041861507
-0.155552184278576
5.83320399400522
5.833203994000089
-0.4666546154466767
5.677852708771756
0.6159301935997702
-0.3111043680427979
5.677651863701706
-0.1555521842758802
5.677651809729159
5.677651809722088
-0.4666542787695342
5.52227591780413
0.6157605107095847
-0.3111043678898905
5.522099673373382
-0.1555521842737488
5.522099625448825
5.522099625445462
0.199301097573254
5.322798527870666
0.3986021948204975
5.322798527869669
0.5979020643855193
5.322798551142648
5.322895079339915
0.7930019151250586
0.1993010975735799
5.123497430295951
0.3986021948439731
5.123497430295287
0.5979022947958177
5.123497447514764
5.123558786844991
0.7943585316391973
0.1993010975791397
4.924196331664162
0.3986021948698208
4.924196332827065
0.5979024333083669
4.924196383876648
4.924236510143364
0.7951978526143331
0.1993010975308241
4.724895238928228
0.3986021942731992
4.724895235276677
0.5979028575966554
4.724895280331972
4.724908974780813
0.7964452445472455
-0.33540923006941
5.060304468757318
-0.6708160129103911
5.060304380473862
-1.00451700703975
5.060036589125567
4.996654098824567
-1.203056627606606
-0.3354092291059766
5.395713698267771
-0.6708135267123396
5.39571349536958
-1.001394184091801
5.394961047565687
5.1463404370291
-0.6301091365636934
-0.3354092292205054
5.731122927198948
-0.6708139495590298
5.731122799874962
-1.000864670265071
5.730383773383911
5.382792586673651
-0.3601579003081152
-0.3354092295580676
6.066532156196044
-0.6708150985412287
6.066532025755765
-1.001255201962191
6.066085760339079
5.795923689222724
-0.3454022344430234
0.5223332793258711
5.970274237411817
-0.167211183178427
0.349989362204148
6.241119591266019
0.1749961191021187
6.241528192842652
6.241528275117883
0.5226536041020595
6.160660155296156
-0.1657274976660879
0.3499899672686566
6.41619667196536
0.1749961194399855
6.416524345431164
6.416524394738818
0.5229921432690631
6.330939190775661
-0.1618978201840993
0.3499904846465051
6.591190544298164
0.1749961196373174
6.591520466425556
6.59152051440211
0.5224350659617997
6.590868615220712
-0.08104377660741066
0.3499900958984393
6.766331312021522
0.1749961192313616
6.766516598412652
6.766516633794298
-0.000251904257570601
6.762849728141011
0.0609658049007672
-2.615978575981615e-07
6.766515500727947
-7.444682648127809e-10
6.766516634182839
6.766516633059243
-3.081304440044619e-06
6.766519470111831
0.002072001587647143
-1.707534114103737e-10
6.766516658931648
6.533200647140802e-10
6.766516634178988
6.766516633063786
-9.008111682140552e-07
6.766607760591004
0.0004083358424600836
-6.773479555022277e-10
6.766516775182394
8.174128041105178e-12
6.766516633087923
6.766516633072662
-1.005256580899339e-05
0.005383003679498344
6.766014455097935
-8.347568414279749e-09
6.766516744049791
1.049271780573235e-11
6.766516631825603
6.766516633101406
1.108219000036116
-0.8745599386614735
-0.2057242213276604
-8.08242361927114e-13
1.983291490661686
-0.8749815332702253
-5.231370892033738e-13
2.858269962376757
-0.8749806201443362
6.838973831690964e-14
-0.8749805991196551
-6.021849685566849e-13
1.10821880931701
-1.749081637572931
-0.2057705272345991
1.983291469215142
-1.749962753499276
2.858269962376487
-1.749961237832406
-1.74996119823102
1.108216518809593
-2.623551033808929
-0.2058970566913449
1.983291185910478
-2.624942867626414
2.858269962267466
-2.62494184156286
-2.624941797341619
1.108210897877
-0.2059205825338193
-3.498240514896501
1.983290448729471
-3.499923478386164
2.858269961890259
-3.4999224423977
-3.499922396450672
-1.005256580277614e-05
-6.766607760591944
0.005383003679179932
6.766014455094132
-8.347649460560547e-09
-6.766516775181938
6.766516744049812
1.042854691490902e-11
-6.766516633088096
6.766516631826795
-6.766516633072669
6.766516633103608
-9.00811417015035e-07
-6.766519470112311
0.0004083358423745409
-6.774636407413936e-10
-6.766516658932517
7.465583706789403e-12
-6.766516634181267
-6.766516633063715
-3.081304674634744e-06
-6.762849728141724
0.002072001587723471
-1.708300167990728e-10
-6.766515500727754
6.531244434171413e-10
-6.766516634182985
-6.766516633059227
-0.0002519042577510122
-6.590868615220075
0.06096580490153919
-2.615977721109886e-07
-6.766331312021182
-7.444456162630786e-10
-6.766516598412832
-6.766516633794216
-0.1749961190918533
6.241528275153552
-6.066532156241498
-0.3499893621839161
6.241528192877428
-6.066532025800383
-0.5223332793164862
6.241119591230968
-6.066085760292796
5.970274237374906
-5.795923689181226
-0.1672111831786972
-0.174996119428774
6.416524394763329
-0.3499899672469067
6.416524345454645
-0.5226536040920025
6.416196671941314
6.160660155273503
-0.1657274976663535
-0.1749961196255956
6.591520514414942
-0.3499904846235483
6.59152046643773
-0.5229921432583886
6.591190544286199
6.330939190765413
-0.1618978201843787
-0.1749961192189361
-0.3499900958729247
-0.5224350659482839
-0.08104377660719411
1.001255201971256
-5.382792586643673
-0.3454022344412994
0.6708150985660161
-5.730383773352178
0.3354092295711462
-5.73112279990784
-5.731122927231731
1.000864670274897
-5.146340437012753
-0.3601579003068011
0.670813949582074
-5.394961047547974
0.3354092292324271
-5.395713495391344
-5.395713698288372
1.001394184104756
-4.996654098816451
-0.6301091365636906
0.6708135267349327
-5.06003658911729
0.3354092291167792
-5.060304380484371
-5.060304468767254
1.004517007051687
-4.724908974780908
-1.203056627610411
0.670816012930431
-4.724895280331502
0.3354092300791862
-4.724895235276976
-4.724895238928315
0.1993010975797934
5.322798527887525
-5.522099625468866
0.398602194835403
5.322798527890925
-5.522099625477794
0.5979020643932134
5.322798551123189
-5.522099673346088
5.322895079320693
-5.522275917778616
0.7930019151264044
0.1993010975797387
5.123497430306664
0.3986021948579077
5.123497430308197
0.5979022948031465
5.123497447501171
5.123558786831801
0.7943585316405474
0.1993010975850216
4.924196331669489
0.3986021948823325
4.924196332834243
0.5979024333138198
4.924196383869686
4.924236510137133
0.795197852612928
0.1993010975359782
0.3986021942847464
0.5979028576015831
0.7964452445459796
-0.4666542787629501
-5.677852708751566
0.615760510708764
-0.3111043678775403
-5.677651863680224
-0.155552184268295
-5.677651809751198
-5.677651809740063
-0.4666546154399597
-5.833405977393237
0.6159301935989585
-0.3111043680297904
-5.833204041845733
-0.1555521842701472
-5.833203994020743
-5.833203994012335
-0.4666548177338578
-5.988968917290665
0.6158857495028098
-0.3111043681232329
-5.988756223584542
-0.1555521842726151
-5.98875617829183
-5.988756178286642
-0.4666549925768726
-6.14452980930005
0.6158469627687033
-0.3111043681949783
-6.144308405113883
-0.1555521842724189
-6.144308362562382
-6.144308362560412
0.1555520676225328
6.61096456542681
-6.766516633049343
0.3111041352220854
6.610964565429536
-6.766516633041774
0.4666559952873572
6.610964598983398
-6.766516601235216
6.611186752783407
-6.766165207187027
0.6205107380428089
0.1555520676216272
6.455412497804466
0.3111041350422782
6.455412497806807
0.4666550706157634
6.455412535457986
6.45564966400317
0.6159977064939209
0.1555520676211914
6.29986043018238
0.3111041349982405
6.29986043018452
0.4666549173230969
6.299860470168836
6.300089832293552
0.6157525384967009
0.1555520676208803
0.3111041349521751
0.4666547918930886
0.6158093286417505
-6.76651663304934
1.628364110217717e-12
-6.766516633049343
-3.244071677954707e-13
-6.766516633049343
2.220446049250313e-16
1.110223024625157e-16
-6.766516633049345
-6.766516633052746
5.301961758519269e-09
-6.766516633049332
-7.111777833301858e-11
-6.766516633049347
1.311284414384772e-12
-3.885780586188048e-15
-6.766516633049347
-6.766516644873223
1.193953884637278e-05
-6.766516633085772
-1.567985738470945e-07
-6.766516633049287
1.163871776732606e-10
-4.085620730620576e-14
-6.766516633049341
-6.766505260833076
0.01432162364010953
-6.766516644030483
2.563356138463035e-09
-6.766516633036379
9.588330129872702e-12
-6.76651663304949
-4.137801212777958e-13
-1.101341240428155e-12
-6.766516633048242
-2.181255176481045e-12
-6.766516633048264
-1.101174706974462e-12
-6.766516633050419
-6.766516633045468
-3.863742659149239e-12
-1.100564084310918e-12
-6.766516633047141
-2.185140957067233e-12
-6.766516633047181
-1.559863349598345e-13
-6.766516633051187
-6.766516630690914
4.132073572193917e-10
-1.100786128915843e-12
-6.76651663304604
-2.169042723210168e-12
-6.766516633046104
4.716282919758896e-11
-6.76651663304536
-6.766516583420645
5.191128776838028e-08
-1.104116797989718e-12
-6.766516633044938
-2.136624210891114e-12
-6.766516633045029
2.679741428757154e-10
-6.76651663317143
-6.766516668300298
5.487644157420313e-07
-5.061373542503134e-11
6.766516633039863
-6.766516633039334
-8.131428197444279e-09
6.766516633687602
-6.766516633340965
-1.634008151879529e-05
6.766518551042677
-6.766518368022229
6.769864864363059
-6.76921557694417
-0.01851713689572659
-2.749533933865678e-11
6.766516633041888
-3.911204138340452e-09
6.766516633261207
-6.824654293080545e-06
6.766517186334342
6.767259316912106
-0.004835138215671497
-5.25046672805729e-12
6.766516633043527
-5.458781204836782e-10
6.766516633053639
-8.17774166939067e-07
6.766516659319032
6.766543776000914
-0.0003043417990306607
-1.401878613194185e-12
-1.786470971154586e-11
-2.060410148052583e-08
8.921417131713127e-07
-0.1749931392342609
-6.826219979933089
0.2235635541486224
-0.1166640794961369
-6.824849033822737
-0.05833203994332725
-6.824848673061418
-6.824848672983189
-0.1749920893812579
-6.884593258492941
0.2224695257301934
-0.1166640787627663
-6.883181084503162
-0.05833203993831992
-6.88318071300906
-6.883180712927197
-0.1749922356121988
-6.942929150788113
0.2225348689384647
-0.1166640788324608
-6.941513115096873
-0.05833203993881941
-6.941512752949786
-6.941512752871297
-0.1749925977634428
-7.001054551094142
0.2231368099616613
-0.1166640789339841
-6.999845189056534
-0.0583320399397419
-6.999844792821222
-6.999844792815564
-1.152057786801826
-6.140551536428583
0.2802461943820962
-2.012455377910964
-6.139447173083154
-2.872852967039931
-6.139447203692224
-6.139447203690341
-1.152057788994107
-5.279983982065548
0.2802576255420801
-2.01245537791648
-5.279049614584778
-2.872852967042259
-5.279049614566445
-5.279049614567443
-1.152057788813003
-4.41889903387026
0.2828234265530304
-2.012455377921993
-4.418652025475398
-2.872852967044603
-4.418652025443834
-4.418652025446892
-1.152057788815277
-3.558257780186894
0.2895017819957191
-2.012455377927508
-3.558254436363162
-2.872852967046921
-3.558254436324422
-3.55825443632866
2.843686947076677
0.8895636090796828
1.954123337995112
0.8895636090815651
1.064559728908975
0.8895636090861367
0.8895636096328752
0.1749961201261923
2.843686947077599
1.7791272181565
1.954123337999196
1.779127218159969
1.064559728911147
1.779127218174185
1.77912721331746
0.1749961277409868
2.843686947089469
2.668690827241872
1.95412333800662
2.668690827242819
1.064559728912863
2.668690827267941
2.668690727658222
0.1749964222283696
2.843686947088214
1.954123338006611
1.06455972891139
0.1749932697119373
0.1749961223871297
0.1749961223884763
0.1749962242564385
0.1749961068862226
0.1749960363153765
0.1749978167532232
0.1749838165797822
0.1749971448049973
0.1749961068856659
0.1749962242576344
0.1749964299187345
0.1749964299202809
0.1750271034015513
0.1749859671935386
0.1751842634480781
0.1749020779277661
0.1749978167542068
0.1749960363162472
0.174985967195634
0.1750271034022637
0.174985122058494
0.174985122057905
0.1737394804463735
0.1751744305063394
0.1749838165812949
0.1749971448057975
0.1751842634492348
0.1749020779291119
0.1737394804476104
0.1751744305051842
0.1701796430278487
0.1701796430287196
-0.1106731284404522
0.2782342084244661
-0.1981355106522258
0.2438203078838392
-0.2665164179849608
0.213500785084711
0.1918416375231305
-0.02292725718245703
0.3129433303503942
-0.1059165842082948
0.2778933519967127
-0.2362238025443642
0.2460452864630413
0.2094286778367889
-0.006980000333858261
0.3219093083435676
-0.08248744994133983
0.2821037073052314
-0.2256482759150927
0.2585467170682193
0.2237773559206028
-0.006680329490445835
0.3275347722071833
-0.08214139932841713
0.2826933450124414
-0.2258760874614196
0.2692053365235323
0.237819169332294
0.2384032912989193
0.1858326800575827
0.2385842365456501
0.1832797597800613
0.2385904067058588
0.1830104199906888
0.185406243925552
0.2396985960568623
0.2718264988371806
0.06404625282841708
0.2725989562785609
0.06034389421987146
0.2727765114767804
0.05992079809353335
0.04876416548494711
0.2744052417575406
0.2827810361909513
-0.001755342782876368
0.2832612372258336
-0.004908215591237997
0.2834862840366271
-0.005352232837703252
-0.04812211881286299
0.2975120135113767
0.32850797979719
0.3292054375051635
0.3296464371970281
0.2847493905516599
0.2399321362232812
-0.05401357442112265
0.2342302068854368
-0.008698979143604568
0.2333464134900029
-0.0002442386030631072
1.056854361841664e-05
0.2333279803830585
0.2494708685398433
-0.09172402435442228
0.2345010855346769
-0.007298039455480465
0.2333397617468573
-1.649072058951262e-05
4.220192736714701e-05
0.2333255955796959
0.2477526019937497
-0.07360901665246206
0.2341767690075118
-0.002464706215388301
0.2333370540422973
0.0004801994905230811
9.918414298032419e-05
0.2333290968233807
0.2321106408246527
0.2320278529705225
0.2330804790781645
0.2333034537156234
0.2333279569207583
2.257288662099732e-06
0.2333281563675196
4.089804495066574e-08
0.2333281597579999
-9.755940499900362e-11
-2.129996179434102e-11
0.2333281597618575
0.2333280688868473
3.068601083844325e-06
0.2333281595432368
3.169582835083062e-08
0.2333281597865859
-2.80520218165492e-10
-8.347389446328179e-11
0.2333281597774872
0.2333282044038371
7.439298287059692e-06
0.2333281598893543
8.530159206765475e-08
0.2333281598274375
-2.343791827286168e-10
-1.250070047476015e-10
0.2333281597968561
0.2333276786602586
0.2333281591054433
0.2333281598787583
0.2333281598406935
0.2333281597605689
-1.888933454097241e-12
0.2333281597624294
8.70914451667204e-13
0.2333281573629603
1.843737440498927e-09
0.04076009925883461
0.2327561101977866
0.2333281597607986
-8.492984093777523e-12
0.2333281597605794
-8.892886427247504e-14
0.2333281597348379
1.724016485127322e-10
0.06987502037575
0.2252003205324188
0.2333281597617256
-1.137878680168569e-11
0.2333281597604328
-1.184052855762729e-13
0.2333281597633977
1.783445613412482e-11
0.07173312487004502
0.2123939393353957
0.2333281597624678
0.2333281597604762
0.2333281597612158
0.2244920835559706
0.2368549097497818
0.5880612465411981
0.2386066922016934
0.5205744595993962
0.2386303700218411
0.5174301664166645
0.5179220476492512
0.2386187288830835
0.2915948058063038
0.2498706153270541
0.3061088739628999
0.09580327256368015
0.3062632463530406
0.09711495834582395
0.09887734376854662
0.3060938817686445
0.2791244298545649
0.04580725112152129
0.2866353083631038
-0.09507414641875767
0.2867040688220213
-0.09534404562725185
-0.09385918066896848
0.2864848388508899
0.3642049991468759
0.3765523482636007
0.3766120632975094
0.3759157316376934
0.2386186478542204
0.5180053766704824
0.2386205667568976
0.5180162729676587
0.2386220096136604
0.5180293711822165
0.5164281911472046
0.2377516441018768
0.3060780945241898
0.09929448347040271
0.3060780483206303
0.09930052556733093
0.306079666334091
0.09929588035132653
0.09985635650224733
0.3048143293178778
0.2864521300427413
-0.0933753469080747
0.2864517703817838
-0.09335608495558212
0.28645293018742
-0.09335881987192529
-0.09292981187126736
0.287181928075631
0.3757575757604499
0.3757554939366232
0.3757530125952912
0.3764766796709745
0.2794753638910226
0.6714472736539763
0.3224650254131417
0.6933204718959199
0.3655208333380166
0.7088555582824807
0.7361393230896323
0.4087862323875577
0.3296948845896913
0.1635807620245887
0.3628575872024227
0.2008396068078676
0.3975979664021502
0.2477313784818544
0.3869362196364651
0.4331726159016919
0.2899783083352609
-0.05857450732701963
0.2954853229414688
-0.03992885454488837
0.3073523798433709
-0.001595891650582937
0.01361936420247356
0.4713854385645108
0.4000265055314254
0.4288820008984341
0.4876879692584903
0.6426769468154673
0.2525264616147297
-1.048254547250745
0.06286663025557813
-0.3615850621466762
0.02256931202735815
-0.1170964184088942
-0.1095097337292967
0.000804829439962202
0.1909955519447752
-0.8459530760365921
0.02410841904816683
-0.1804904373560435
0.005538875342716194
-0.02704985410595717
-0.02467412933363898
0.0002813475202360707
0.1194797226750101
-0.5696440101574803
0.008325886855348652
-0.07316469004085652
0.001719584206615665
-0.005640810101533871
-0.005045681608321497
0.0004833923982837749
0.0664281191688795
0.002196338464955983
0.0005859077506392947
0.0002145592448922762
0.01213554685261711
-0.06537179765816295
0.02398331073376022
-0.06540523968544942
0.03666069023538474
-0.06416812580737011
-0.01727839763871766
0.04389663710784077
0.003287633425202373
-0.01824199830941185
0.005615807684557966
-0.01855697522444141
0.004953392313133687
-0.01862599733857189
-0.01472559699764323
0.009636164103893743
0.001278694611169758
-0.005687606650860329
0.001001511939258374
-0.005774611632724014
-0.004025065382915213
-0.005823503384823334
-0.01424351130016822
-0.006795358750090463
0.0004246686901291374
0.0005011005486010682
-0.00243791845853963
0.001546910890384407
0.2191320619907653
0.02789476495532939
0.2332410469237085
0.001273461241017626
0.2336035664843777
0.001003301926580158
0.01503268097165245
0.2331669556714855
0.1917251128954668
0.01873015446189727
0.2325293524133009
0.008397767970492576
0.2338274783128943
0.006740805689941676
0.02237852965674209
0.2435271790060967
0.158141483401357
-0.02922900986922053
0.2295399319166124
0.02183748205044389
0.2469289203266606
0.01453393869503128
0.0007855118359682556
0.2791739268300638
0.07239729484648418
0.1905933855122252
0.246847636173505
0.2763066439729195
0.1744834781353941
-0.3851714895428405
0.4579404766445195
0.1105592347274786
-0.3343560353746352
0.4391948913719074
0.05237668448482628
-0.287746047349324
0.4211317798062901
-0.2756933944082471
0.0004160874527541769
0.4167113770598547
0.1772111296467282
-0.2816888230188712
0.09136353812433901
-0.1860617676290604
0.03480363910233024
-0.1146103500682756
-0.09507443343713695
0.003163256074856902
0.1913291615358554
-0.1642226901517878
0.08253720289296343
-0.07460273549190613
0.02124370486283947
-0.0293586875215609
-0.01569713670864735
0.005506933868860787
0.1419956020455256
0.06675375720250555
0.01035796168561529
0.001179342382486319
0.0008490724157137006
0.01314488785991295
0.0005869219774903203
0.01333934275997558
0.000110383597368818
0.01309190798145133
0.01299910942835962
-2.212813265956015e-14
0.003920425970299179
0.0599362346766673
0.00161488834392929
0.05987992685777419
0.0002648292850502276
0.0586967115591869
0.05829700577694764
1.228322998869658e-13
0.001674411621744559
0.1531179668236043
0.0007913964257802025
0.1527278078295031
0.0001737054725074322
0.1520174613615156
0.1517455026296899
-2.16007767228632e-13
-7.962167978203816e-05
-4.021882398702603e-05
-6.778209758750986e-07
-1.124100812432971e-13
0.01299910942836816
-0.0001103835974216906
0.05829700577695481
-0.0002648292849261047
0.151745502630072
-0.0001737054727464632
6.778208948565734e-07
0.2057242213278755
0.01309190798146101
-0.0005869219774332583
0.05869671155934912
-0.001614888344198172
0.1520174613614658
-0.0007913964253495887
4.021882405688681e-05
0.2057705272345148
0.0133393427599392
-0.0008490724156921294
0.05987992685782177
-0.003920425970512127
0.1527278078295639
-0.001674411621635466
7.962168001227066e-05
0.205897056691369
0.01314488785992354
-0.001179342382458173
0.05993623467653698
-0.005506933868836987
0.153117966823622
-0.003163256074780199
-0.0004160874527434355
0.2059205825338921
-0.05237668448489823
-0.2756933944082388
0.4167113770598954
-0.1105592347272765
-0.2877460473492398
0.4211317798061025
-0.1744834781352518
-0.3343560353745799
0.4391948913718194
-0.3851714895428448
-0.2331669556716508
0.4579404766444704
-0.03480363910253935
-0.09507443343708513
-0.09136353812448747
-0.1146103500683198
-0.1772111296463727
-0.1860617676290464
-0.2816888230188522
-0.2435271790061812
-0.02124370486279718
-0.0156971367086352
-0.08253720289292808
-0.02935868752154296
-0.191329161535809
-0.07460273549191621
-0.1642226901517417
-0.2791739268299366
-0.01035796168565291
-0.06675375720251681
-0.1419956020454941
-0.2763066439728024
-0.2468476361732563
-0.0007855118358643387
-0.1905933855123051
-0.01453393869443731
-0.07239729484642024
-0.02183748205066754
0.02922900986921756
-0.001546910890372732
-0.2469289203266368
-0.02237852965645726
-0.2295399319164948
-0.006740805689500917
-0.1581414834013522
-0.008397767970555026
-0.01873015446205026
0.006795358750064567
-0.2338274783131128
-0.01503268097126387
-0.2325293524134888
-0.001003301926744304
-0.1917251128954504
-0.00127346124108596
-0.02789476495576643
-0.009636164103828851
-0.2336035664843115
-0.233241046923693
-0.2191320619908058
-0.04389663710777512
-0.03666069023533918
-0.01727839763875456
-0.02398331073397454
-0.06416812580741005
-0.01213554685266314
-0.06540523968569847
-0.06537179765848111
-0.0008048294398892708
-0.004953392313151634
-0.01472559699759701
-0.005615807684670543
-0.0186259973384681
-0.003287633425247169
-0.01855697522436125
-0.01824199830937782
-0.0002813475202280875
0.004025065382978464
-0.01424351130004782
-0.00100151193928192
-0.005823503384763406
-0.001278694611186638
-0.00577461163266689
-0.005687606650833014
-0.0004833923982930817
0.002437918458579607
-0.0005011005485947729
-0.0004246686901464378
-0.0002145592449153766
-0.02256931202681814
-0.1095097337293368
-0.06286663025422284
-0.1170964184081943
-0.2525264616131617
-0.3615850621455213
-1.048254547252429
-0.4087862323875565
-0.005538875342574058
-0.02467412933341025
-0.0241084190476368
-0.02704985410566149
-0.1909955519436554
-0.1804904373553345
-0.8459530760373334
-0.4331726159015382
-0.001719584206586211
-0.005045681608302613
-0.008325886855210688
-0.005640810101423203
-0.1194797226743704
-0.07316469004053211
-0.5696440101580756
-0.471385438564353
-0.0005859077506404136
-0.002196338464919846
-0.06642811916855564
-0.6426769468156082
-0.3655208333382805
0.7361393230890199
-0.3224650254133115
0.7088555582813012
-0.2794753638910281
0.6933204718971757
0.671447273656168
-0.2377516441015644
-0.3975979664021905
0.3869362196373306
-0.3628575872025466
0.2477313784826759
-0.3296948845894943
0.2008396068089922
0.1635807620260956
-0.3048143293173451
-0.3073523798435158
0.01361936420302379
-0.2954853229416364
-0.001595891649592174
-0.2899783083353518
-0.03992885454387296
-0.05857450732626024
-0.2871819280757555
-0.4876879692589547
-0.4288820008988319
-0.4000265055319105
-0.3764766796716199
-0.2386220096135821
0.5164281911479596
-0.2386205667569165
0.5180293711818319
-0.2386186478540578
0.5180162729685265
0.5180053766722941
-0.2386187288830088
-0.3060796663338488
0.09985635650416125
-0.3060780483205364
0.09929588035222336
-0.306078094524034
0.09930052556796554
0.09929448347098402
-0.3060938817686257
-0.2864529301874746
-0.09292981186954152
-0.2864517703816603
-0.0933588198706089
-0.2864521300427568
-0.09335608495522218
-0.09337534690830052
-0.2864848388510024
-0.3757530125957169
-0.3757554939368335
-0.3757575757604208
-0.3759157316378205
-0.2386303700218395
0.5179220476485551
-0.2386066922017303
0.5174301664153673
-0.2368549097500874
0.5205744596014543
0.5880612465411215
-0.2327561101978626
-0.306263246352939
0.0988773437692162
-0.306108873962817
0.0971149583455484
-0.2915948058066032
0.09580327256417343
0.2498706153260918
-0.2252003205323299
-0.2867040688220438
-0.09385918066821397
-0.2866353083631007
-0.09534404562696064
-0.279124429854672
-0.09507414641841638
0.04580725112055717
-0.2123939393354438
-0.376612063297625
-0.3765523482637361
-0.3642049991470332
-0.2244920835557944
-0.2333281573629577
0.04076009925888308
-0.2333281597624245
1.843729169337394e-09
-0.2333281597605688
8.557043962298394e-13
-1.88798976452631e-12
-0.2333281597618573
-0.2333281597348364
0.0698750203756997
-0.233328159760578
1.723947651299795e-10
-0.2333281597607974
-8.981704269217516e-14
-8.492206937660285e-12
-0.2333281597774813
-0.233328159763397
0.07173312486995209
-0.2333281597604329
1.783179159886572e-11
-0.2333281597617257
-1.168509733417977e-13
-1.138034111392017e-11
-0.2333281597968425
-0.2333281597612131
-0.2333281597604761
-0.2333281597624677
-0.2333281598406878
-0.2333281597579994
-2.12933559673445e-11
-0.2333281563675093
-9.763223562941903e-11
-0.2333279569207259
4.089805311080497e-08
2.257288769402788e-06
-0.2333279803830274
-0.2333281597865391
-8.346856539276359e-11
-0.233328159543192
-2.805459198285121e-10
-0.2333280688868521
3.169583318030078e-08
3.068601222178113e-06
-0.2333255955796913
-0.2333281598273584
-1.250173853328818e-10
-0.2333281598892768
-2.343637506285745e-10
-0.2333282044038764
8.530160056086089e-08
7.439298392475369e-06
-0.2333290968233684
-0.2333281598787232
-0.2333281591054096