/*--------------------------------*- C++ -*----------------------------------*\
  =========                 |
  \\      /  F ield         | OpenFOAM: The Open Source CFD Toolbox
   \\    /   O peration     | Website:  https://openfoam.org
    \\  /    A nd           | Version:  11
     \\/     M anipulation  |
\*---------------------------------------------------------------------------*/
FoamFile
{
    format      ascii;
    class       volVectorField;
    location    "0.02";
    object      U;
}
// * * * * * * * * * * * * * * * * * * * * * * * * * * * * * * * * * * * * * //

dimensions      [0 1 -1 0 0 0 0];

internalField   nonuniform List<vector> 
880
(
(25 -4.231351348956773e-16 0)
(25 -2.877680944015385e-16 0)
(25 1.170815934092451e-15 0)
(25.00000000031609 -1.376029376416072e-10 0)
(25 4.06202674308333e-16 0)
(25 -5.447066605168628e-16 0)
(25.00000000000002 2.507447523529724e-15 0)
(25.00000001883748 1.617965623448818e-09 0)
(25 0 0)
(25.00000000000001 9.598242400040612e-16 0)
(25 -3.996362471852957e-15 0)
(25.00000029317735 -2.504261046950923e-07 0)
(25 0 0)
(25 -8.885183692788393e-16 0)
(25 3.553903047602494e-20 0)
(24.99999503995416 -2.849277260347189e-07 0)
(25 -3.287944248129216e-16 0)
(25 -2.731165541961269e-16 0)
(25.00000000000001 1.289187747335142e-15 0)
(25 -8.576087377752693e-16 0)
(25 -2.197485587006131e-17 0)
(25 -4.72744968925842e-18 0)
(25.00000000000003 5.69784875220867e-15 0)
(25 2.028333011401579e-14 0)
(25 4.462851391391693e-16 0)
(25 2.636829898040229e-13 0)
(25.00000000159538 2.747261352057779e-09 0)
(24.99999998437896 -4.668490312123022e-08 0)
(24.99983033231079 0.0005802969134749055 0)
(24.99951141451351 0.001894426223029994 0)
(24.99953382451823 0.002207839270734941 0)
(24.99958189348062 0.001989866827897752 0)
(25 -3.866566700449479e-13 0)
(25 -4.492823460268759e-13 0)
(25.00000000000001 -5.138028513211897e-13 0)
(25 -1.091623207205308e-13 0)
(24.99999999998923 1.047631151288245e-10 0)
(24.99999999999471 1.236524263668386e-10 0)
(24.99999999999013 1.341102632688886e-10 0)
(24.99999999998465 1.394253303760492e-11 0)
(24.99999990663612 5.489660219966617e-07 0)
(24.99999989780015 6.001669508511321e-07 0)
(24.99999989453849 6.325044065607539e-07 0)
(24.99999977814307 2.068342772039128e-07 0)
(24.9995340227759 0.002199750444798602 0)
(24.99952876848642 0.002395847091898684 0)
(24.9995247875098 0.002451093408963691 0)
(24.99932143703275 0.001783775208859973 0)
(24.99970137557635 0.005940379378843372 0)
(25.00066743016588 0.002361086229989123 0)
(25.00016637676305 0.0002358955155373957 0)
(25.00000476025358 3.938777880299381e-06 0)
(24.99999989749635 3.350720636643743e-06 0)
(25.00000028079234 1.610119681859972e-06 0)
(25.00000009377343 2.170158460327847e-07 0)
(25.00000000329578 5.72677278884692e-09 0)
(24.99999999994786 1.143111819217796e-09 0)
(25.000000000086 6.091007764260927e-10 0)
(25.00000000004184 8.911834253305573e-11 0)
(25 2.221405154755571e-12 0)
(24.99999999999877 -4.64475663079391e-12 0)
(25 -2.575287326108929e-12 0)
(25 -3.787231534888419e-13 0)
(25 -1.545976988924739e-15 0)
(25.00000000000001 1.618449981665567e-15 0)
(25.00000000000001 2.307238572126763e-16 0)
(25 -2.555513063227117e-16 0)
(24.99999999999999 -3.583235499431791e-16 0)
(25 -2.506346313302752e-15 0)
(25 -4.661909557871552e-16 0)
(25 -6.631939465475651e-16 0)
(25 -4.636639735809571e-16 0)
(25.00000000002048 -2.447109279805571e-11 0)
(24.99999999999771 -6.555741019121828e-12 0)
(25.00000000000002 -1.216337888503528e-13 0)
(25 -2.190564319273463e-15 0)
(25.0000000147762 -1.062037755523177e-07 0)
(24.99999999386125 -1.791019784569171e-08 0)
(24.99999999975583 -2.842859388928159e-10 0)
(25 1.92380246041059e-13 0)
(25 1.581386615564944e-12 0)
(25 1.383639256143715e-14 0)
(25 3.94060179533779e-16 0)
(25 4.895559741400885e-16 0)
(24.99999999818613 -2.106141763872408e-09 0)
(24.99999999998401 -2.197800069258078e-11 0)
(25 -9.93825653269069e-14 0)
(25 2.279766040414837e-16 0)
(25.00000133179726 3.208039519204163e-06 0)
(25.00000000450623 2.383000765194628e-08 0)
(25.00000000001504 7.75643130375441e-12 0)
(25 -3.722609783029124e-14 0)
(25.00065511877578 -0.004279250162431413 0)
(25.00000016326166 -2.172009742602238e-06 0)
(25.00000000001207 -6.684958042034951e-10 0)
(25.00000000000001 -1.385694519379493e-13 0)
(25.00000000000002 -1.80212501704097e-15 0)
(25.00000000000001 5.614824550735954e-13 0)
(24.99999997670967 9.984781802674557e-09 0)
(24.99979213358571 0.0001194702309440846 0)
(25 -4.594694903800879e-14 0)
(24.99999999999146 1.633402317135815e-11 0)
(24.99999994824903 1.10577687608303e-07 0)
(24.99953254290304 0.0008167729483866536 0)
(25 -5.830991318360888e-14 0)
(24.99999999999211 2.032470167039552e-11 0)
(24.9999999402013 1.297006181474371e-07 0)
(24.99950359594695 0.0008918458710277803 0)
(25 -7.24569306913201e-14 0)
(24.99999999999624 2.485687660118244e-11 0)
(24.9999999316266 1.483111938752654e-07 0)
(24.99948098675974 0.0009331651635992368 0)
(24.99945422654278 0.000981102841716605 0)
(24.99999992114623 1.709705381268552e-07 0)
(24.99999999999273 3.078142309203254e-11 0)
(25 -8.72106054322996e-14 0)
(24.99942472846597 0.001034452193854561 0)
(24.99999990849857 1.985793405390258e-07 0)
(24.99999999999213 3.845594347273766e-11 0)
(25 -1.202005695980809e-13 0)
(24.99939024780299 0.001090744024839119 0)
(24.99999989246992 2.313871476151415e-07 0)
(24.99999999999138 4.828405335442194e-11 0)
(25 -1.521940256521338e-13 0)
(24.99933803505441 0.00121124695704645 0)
(24.99999986997574 2.878516400706135e-07 0)
(24.99999999998928 6.555651641753972e-11 0)
(25 -2.178196327589644e-13 0)
(25.00000000000001 -1.271415625977023e-13 0)
(24.99999999998943 3.409739284944845e-11 0)
(24.99999992764914 1.582101860817447e-07 0)
(24.99959297849199 0.0007466066053480181 0)
(25 -1.02017240485444e-13 0)
(24.99999999999092 3.45898725501083e-11 0)
(24.99999993353599 1.374942064706152e-07 0)
(24.99968544864493 0.0005553112542489096 0)
(25.00000000036005 6.316607485825281e-11 0)
(24.99999999999221 -1.772756536478174e-11 0)
(24.99999992384082 1.244849117045426e-07 0)
(24.99975090785222 0.0004384880817380847 0)
(24.99999999665551 -1.076262873281084e-09 0)
(25.00000000004652 2.350257978409035e-09 0)
(24.99999995206069 2.520931260404598e-07 0)
(24.99988307014783 0.0001973264965636928 0)
(24.9999999954985 9.058417423623069e-09 0)
(24.99999983473263 -1.159902131763349e-07 0)
(24.99941668481481 -0.0003260918371589277 0)
(24.88824940237584 -0.06828857286411009 0)
(24.99999999412203 8.107323346882632e-09 0)
(24.99999955717296 -3.819185981595797e-07 0)
(24.99852763656047 -0.0005151395262790553 0)
(24.57097491050983 -0.06857501614361106 0)
(24.99999999593385 6.045284590270052e-09 0)
(24.99999960249111 -3.034550445261305e-07 0)
(24.9984233505612 -0.0003948056656581029 0)
(24.4668071923539 -0.02225583383706315 0)
(24.99999999702679 4.681669728555431e-09 0)
(24.99999976162137 -1.778702532401175e-07 0)
(24.9986767845531 -0.0002618091713372485 0)
(24.46627810317277 0.009405408504262313 0)
(24.60878076824278 -0.006662302877738806 0)
(24.99911985350055 -0.0004029460052140402 0)
(24.99999977746909 -2.592980627109683e-07 0)
(24.99999999647015 2.609196699181579e-09 0)
(24.6297898689754 0.0003810369442029561 0)
(24.99926119505166 -0.0003257109729743269 0)
(24.99999985769738 -1.548114176010263e-07 0)
(24.99999999632564 2.284165208929752e-09 0)
(24.66254368577768 -0.006179804104417047 0)
(24.99941594432455 -0.0002752538760978787 0)
(24.99999992300772 -9.7374692032944e-08 0)
(24.99999999677664 1.922486416772018e-09 0)
(24.56944698711541 0.03445042104297658 0)
(24.99920934640151 -0.0003068342691908287 0)
(24.99999982845861 -2.030104260203222e-07 0)
(24.99999999814039 9.817736137413342e-10 0)
(24.94973404809492 0.006712053963318289 0)
(24.99994991234798 -1.949765943648281e-05 0)
(25.00000000747139 -4.112874430476942e-09 0)
(24.99999999966728 4.333773579198533e-11 0)
(24.99926875022286 3.545732018723106e-05 0)
(24.9999999205351 -5.581546819426845e-08 0)
(25.00000000252077 2.087382752383519e-09 0)
(24.99999999997429 -1.127589547831797e-11 0)
(25.00002042457252 -0.0001067998669068428 0)
(25.00000005346654 -1.02864984641313e-07 0)
(25.00000000004105 -4.748221690346494e-11 0)
(25 -4.610786063215372e-14 0)
(25.00008177950032 -0.001203405087618044 0)
(25.00000002964302 -1.063613896524654e-06 0)
(25.00000000014477 -1.764171531951495e-10 0)
(25 -8.48966794811246e-14 0)
(24.99559135500888 4.876680484470523e-07 0)
(25.00001158037883 1.863456360416947e-09 0)
(25.00000024171369 1.20406372944691e-11 0)
(25.00000000017067 -7.446413390346058e-14 0)
(24.99559193569101 2.983944566786994e-05 0)
(25.0000114883616 1.465104279842506e-07 0)
(25.00000024113928 1.139504009008617e-09 0)
(25.00000000015806 2.006937670819789e-13 0)
(24.99549977157479 0.0001868455573925632 0)
(25.00001008474369 1.336101603993125e-06 0)
(25.00000022914482 1.197681087457569e-08 0)
(25.00000000015703 4.208946093838589e-12 0)
(24.99518494088947 0.0003866575048235234 0)
(25.00000614227812 2.744226159666136e-06 0)
(25.00000018984313 2.670969468509095e-08 0)
(25.00000000014677 1.080653067760744e-11 0)
(25.00008177952132 0.001203405085502329 0)
(25.00000002965762 1.063613775128954e-06 0)
(25.0000000001611 1.770882882486546e-10 0)
(25 1.844280725398778e-13 0)
(25.00002042459554 0.0001067998695261411 0)
(25.00000005348135 1.028674493753503e-07 0)
(25.0000000000731 4.852137109354994e-11 0)
(25 4.784210327303607e-14 0)
(24.99926875023191 -3.54573156896034e-05 0)
(24.99999992053236 5.581744541771395e-08 0)
(25.00000000252104 -2.086821265047605e-09 0)
(24.99999999997314 1.117509421147341e-11 0)
(24.94973404806443 -0.006712053960137798 0)
(24.99994991231205 1.949766114159411e-05 0)
(25.00000000746977 4.11285750013363e-09 0)
(24.9999999996762 -4.324482786345872e-11 0)
(24.99999999644546 -2.610070654520434e-09 0)
(24.99999977743166 2.592945092685183e-07 0)
(24.99911985348271 0.0004029460059449386 0)
(24.60878076823303 0.006662302881912385 0)
(24.99999999631099 -2.281526195473464e-09 0)
(24.99999985769054 1.548117629585571e-07 0)
(24.99926119503694 0.0003257109761442497 0)
(24.62978986896166 -0.0003810369598849558 0)
(24.99999999679888 -1.921129421633396e-09 0)
(24.99999992298497 9.737283814098621e-08 0)
(24.99941594432373 0.0002752538763645372 0)
(24.66254368573093 0.006179804103668906 0)
(24.99999999813686 -9.84429883191569e-10 0)
(24.99999982845225 2.030127595667218e-07 0)
(24.99920934636424 0.000306834260658738 0)
(24.56944698713862 -0.03445042103129626 0)
(24.4662781031952 -0.009405408513340806 0)
(24.99867678457147 0.0002618091639197013 0)
(24.99999976163324 1.778680409745489e-07 0)
(24.99999999703187 -4.684308529019999e-09 0)
(24.46680719238587 0.02225583384233262 0)
(24.99842335058676 0.0003948056652125528 0)
(24.99999960252947 3.034563472931331e-07 0)
(24.99999999596777 -6.046245883350622e-09 0)
(24.57097491051598 0.06857501614617691 0)
(24.99852763659255 0.0005151395290708103 0)
(24.99999955717566 3.819195118451359e-07 0)
(24.99999999415025 -8.103726358407163e-09 0)
(24.88824940236374 0.06828857286172453 0)
(24.99941668482701 0.0003260918374589188 0)
(24.99999983474589 1.159921916538017e-07 0)
(24.99999999545897 -9.058059717580346e-09 0)
(25.00000000000001 1.343475695504968e-13 0)
(24.9999999999805 -3.427295808766079e-11 0)
(24.99999992763303 -1.582122895558638e-07 0)
(24.99959297846191 -0.0007466066050902028 0)
(25 9.331965643662426e-14 0)
(24.99999999998889 -3.45471483883666e-11 0)
(24.99999993353534 -1.374933997175348e-07 0)
(24.9996854486534 -0.0005553112502712642 0)
(25.00000000034596 -6.331639640980663e-11 0)
(24.99999999999867 1.80644460543581e-11 0)
(24.99999992385691 -1.244832610197887e-07 0)
(24.99975090785636 -0.0004384880817851306 0)
(24.99999999663121 1.076150029892015e-09 0)
(25.0000000000481 -2.349265809735675e-09 0)
(24.99999995207451 -2.520925183093888e-07 0)
(24.99988307014836 -0.0001973264980903778 0)
(24.99933803499686 -0.001211246960841585 0)
(24.99999986999605 -2.878509038288202e-07 0)
(24.9999999999765 -6.571340194628628e-11 0)
(25 2.216886151746655e-13 0)
(24.99939024775552 -0.001090744026961672 0)
(24.99999989243954 -2.313863388166259e-07 0)
(24.99999999998844 -4.843003411810241e-11 0)
(25 1.597247657707373e-13 0)
(24.99942472847157 -0.001034452194636137 0)
(24.99999990846349 -1.985806908295647e-07 0)
(24.99999999998502 -3.853885365677202e-11 0)
(25 1.223599671935976e-13 0)
(24.99945422652175 -0.0009811028427500741 0)
(24.99999992117138 -1.709706202167048e-07 0)
(24.99999999999183 -3.081031319325878e-11 0)
(25 9.480092491109491e-14 0)
(25 3.952134895392758e-16 0)
(25 -5.496402880109876e-13 0)
(24.99999997671175 -9.984555113557232e-09 0)
(24.99979213363323 -0.0001194702281086813 0)
(25 3.829171095056664e-14 0)
(24.99999999999543 -1.630322599987352e-11 0)
(24.99999994823898 -1.105780507203647e-07 0)
(24.99953254289781 -0.0008167729478999169 0)
(25 5.594711576373869e-14 0)
(24.99999999999151 -2.032390705339252e-11 0)
(24.99999994019803 -1.297007734524945e-07 0)
(24.99950359592598 -0.0008918458719097502 0)
(25 7.174784795226769e-14 0)
(24.99999999999458 -2.487351923360915e-11 0)
(24.99999993164122 -1.483105114714695e-07 0)
(24.99948098675202 -0.0009331651645252421 0)
(25 1.523372884993662e-13 0)
(25 2.791152460206568e-14 0)
(25 3.171488092373338e-16 0)
(25 5.252135039325102e-16 0)
(25.0000000000341 6.688795773135236e-10 0)
(25.00000000001107 -7.748567660318561e-12 0)
(25 1.205897655425298e-13 0)
(25 -7.58230156680093e-17 0)
(25.00000016325691 2.172008515367639e-06 0)
(25.00000000448627 -2.38296430071175e-08 0)
(24.99999999999097 2.187406215394474e-11 0)
(25 -1.336692831685113e-14 0)
(25.00065511877402 0.004279250160964836 0)
(25.00000133179701 -3.208039277421026e-06 0)
(24.99999999818485 2.106246716386354e-09 0)
(25 -1.580771082528088e-12 0)
(25.00000000000002 -2.041833481698961e-15 0)
(25 -2.625216098228567e-16 0)
(25.00000000000002 -2.023272948461096e-15 0)
(25 -1.939782565308771e-13 0)
(25 2.128440070302486e-16 0)
(25 -1.97714339640538e-16 0)
(25 1.24118083348579e-13 0)
(24.9999999997559 2.842243519367525e-10 0)
(25 0 0)
(25 1.134852126570487e-15 0)
(25.00000000000012 6.304668022902354e-12 0)
(24.99999999385932 1.791040883545784e-08 0)
(25 2.351739532576521e-16 0)
(25.00000000000001 2.098601136297878e-15 0)
(25.00000000001245 2.436733421899611e-11 0)
(25.00000001477945 1.062039244862503e-07 0)
(24.99999999999999 4.658733724051038e-12 0)
(24.99999999997182 -1.144015255804684e-09 0)
(24.99999989751795 -3.35072214554331e-06 0)
(24.99970137558121 -0.005940379381864397 0)
(25 2.588888443004377e-12 0)
(25.00000000008576 -6.066510885096468e-10 0)
(25.00000028079119 -1.610116962448912e-06 0)
(25.00066743019375 -0.00236108623273103 0)
(25.00000000000001 3.73875069007134e-13 0)
(25.00000000002251 -8.97392624384525e-11 0)
(25.00000009378156 -2.170154010046256e-07 0)
(25.00016637676594 -0.0002358955151093906 0)
(25 1.427958625434864e-15 0)
(25.00000000000001 -2.416189489015776e-12 0)
(25.00000000329232 -5.726422251617708e-09 0)
(25.0000047602743 -3.938775031464272e-06 0)
(24.99932143702048 -0.001783775204202202 0)
(24.9999997781127 -2.068429198714849e-07 0)
(24.99999999998725 -1.418461368319578e-11 0)
(25 1.044372549661474e-13 0)
(24.99952478752125 -0.002451093406678438 0)
(24.99999989448478 -6.325063142322982e-07 0)
(24.99999999999028 -1.341234236202676e-10 0)
(25 5.146242543510591e-13 0)
(24.9995287684552 -0.002395847101260228 0)
(24.99999989777269 -6.001628821155543e-07 0)
(24.99999999999511 -1.238536354592849e-10 0)
(25.00000000000002 4.469105653086649e-13 0)
(24.99953402278506 -0.002199750443042821 0)
(24.99999990669984 -5.489489728503333e-07 0)
(24.99999999999635 -1.044380457228785e-10 0)
(25 3.992228166698245e-13 0)
(24.99958189346141 -0.00198986682996977 0)
(24.99999998438073 4.667434844843396e-08 0)
(25 -1.305342270909666e-13 0)
(25 0 0)
(24.9995338245282 -0.002207839267488835 0)
(25.00000000162088 -2.74596189567526e-09 0)
(25 4.116845185071906e-16 0)
(25.00000000000001 5.624373396630182e-16 0)
(24.99951141449415 -0.001894426221916376 0)
(25 -3.155569238101236e-13 0)
(25 1.391126454010555e-16 0)
(25.00000000000001 2.030144875176584e-15 0)
(24.99983033231525 -0.0005802969109337082 0)
(25 1.782261021687435e-15 0)
(25 -4.422003734798781e-16 0)
(25.00000000000002 -2.118409164230858e-15 0)
(25 8.460587022229537e-16 0)
(25 5.755937481763493e-16 0)
(25 0 0)
(25.00000000029426 1.435912165804452e-10 0)
(24.99999999999999 -2.843418720158383e-19 0)
(25 8.170055201088025e-16 0)
(25 -1.422460094272691e-16 0)
(25.00000001882672 -1.622277593426373e-09 0)
(25 -7.806777775810339e-16 0)
(25 -5.169397833696928e-16 0)
(25 1.900045345975635e-16 0)
(25.0000002931858 2.50420882458296e-07 0)
(25 -3.493928576218073e-16 0)
(25 -4.508538971040283e-17 0)
(25.00000000000002 -2.64884388561585e-15 0)
(24.99999503997078 2.849259687479253e-07 0)
(25.00000002287818 9.432145924873235e-12 0)
(25.00000156289357 -3.23992356438231e-07 0)
(25.00003229366256 8.335087733358859e-06 0)
(25.00008205055081 -0.0002248601144882567 0)
(25.00000156290919 3.23997750877556e-07 0)
(25.00000058357828 1.636512706653303e-11 0)
(25.00016427616852 -0.0004269841262355683 0)
(25.0009559912135 -0.006793864406970963 0)
(25.0000322936663 -8.335098472535412e-06 0)
(25.00016427616629 0.0004269841102729474 0)
(24.99915212065336 1.247575144784829e-11 0)
(24.92387755340061 -0.007147165476082984 0)
(25.00008205053513 0.0002248601035289796 0)
(25.00095599120706 0.006793864395286277 0)
(24.92387755340834 0.007147165470177227 0)
(23.07786428455067 5.619400882466521e-12 0)
(22.5480014274207 1.809691240495367 0)
(23.48778430952505 2.624625849584359 0)
(24.88185971196115 0.7340791592641089 0)
(24.98416559967334 0.07286612791991663 0)
(23.19863742624094 3.891124088541263 0)
(23.31497601450256 5.105916628465248 0)
(24.8198008741682 2.04042379192322 0)
(24.94143181207673 0.2921086671505809 0)
(23.47718725018574 4.265326635543965 0)
(23.49959834565369 5.644955075209252 0)
(24.89850590159372 2.412832965702083 0)
(24.94130868731806 0.3745959966481102 0)
(23.50802001862094 4.291941691128106 0)
(23.52544496120891 5.682647347278427 0)
(24.90430702614451 2.418980091266754 0)
(24.94188762737213 0.3725347590571675 0)
(24.93692201878381 0.4147805505257462 0)
(24.93846469505565 0.4399936376084653 0)
(24.93943117977993 0.4431696532043787 0)
(24.90946599792764 0.3951009470701743 0)
(24.91344555734348 2.547984220573837 0)
(24.94167880018683 2.616917612276151 0)
(24.94851750871358 2.624678043872242 0)
(24.8868595665988 2.767967530302837 0)
(23.43379364304309 5.765280198207095 0)
(23.44690170460663 5.817962242184317 0)
(23.45428627934949 5.829655142823317 0)
(23.69975131187264 6.907378697238472 0)
(23.43394930171844 4.286327167013624 0)
(23.45831697125555 4.320732732038184 0)
(23.47168702033471 4.32879438439965 0)
(25.15367480770839 5.419198125001517 0)
(24.96810608620977 0.5115614909478455 0)
(25.0660421829588 0.1387724201172512 0)
(25.00907930297594 0.007338903298271388 0)
(25.00014619249941 -3.707494229858971e-05 0)
(25.43268037381399 1.42508745094692 0)
(25.20275539321347 0.2140598347974679 0)
(25.01431660561683 0.005026890656992734 0)
(25.00029572946643 -0.0005142800555303726 0)
(26.02124038737911 2.425699863824164 0)
(25.31427608016343 0.1398354634838792 0)
(25.01673932776367 -0.00922983050757541 0)
(25.00172813447511 -0.001728026955543414 0)
(24.45116580105252 0.5827127667184112 0)
(24.91383715750899 -0.03219172015959516 0)
(24.96512602516747 -0.006842362419440211 0)
(24.99363999377095 -0.00131790615799447 0)
(25.0000008902984 -1.565119828160628e-05 0)
(24.99999914962194 -1.417101923466677e-06 0)
(24.9999999850551 -9.447799650872649e-09 0)
(25.00000000001144 1.148325288956258e-10 0)
(25.00000978815966 -7.65091536518897e-05 0)
(24.99999947419804 -9.688304170777979e-07 0)
(24.9999999982897 2.215903029313495e-09 0)
(25.00000000057563 1.072029899105227e-09 0)
(25.00010117217633 -0.0001030097603828921 0)
(25.00000066098163 -9.791287666388219e-07 0)
(24.9999999974036 8.519885185807299e-09 0)
(25.00000000222648 3.63827439939002e-09 0)
(24.9996153240201 -8.337195186914779e-05 0)
(24.99999612608328 -7.474903526164961e-07 0)
(25.00000000717665 7.394008718141089e-09 0)
(25.00000000522346 2.683371034051585e-09 0)
(25.00000000001397 1.325000444709751e-11 0)
(25.00000000017186 -1.63315579349526e-11 0)
(24.99999984276119 -8.971414825173118e-08 0)
(25.1054651183446 -0.4083065340064276 0)
(25.00000000010731 1.142131912211277e-10 0)
(25.00000000000977 1.917024126192874e-12 0)
(24.99999998554184 -1.07249099613089e-08 0)
(25.18323555497107 -1.556959298170683 0)
(25.00000000042041 3.410936652868668e-10 0)
(25.00000000000326 2.377973252658281e-12 0)
(24.99999999908088 -8.720970082745784e-10 0)
(24.33628373259104 -2.721083035556858 0)
(25.00000000066252 2.062351067148691e-10 0)
(25.00000000000404 1.536835808912736e-12 0)
(24.99999999996824 7.714580676548574e-11 0)
(17.62713616529435 -5.034253877037484 0)
(24.89036508469882 0.1655604414212476 0)
(24.71399857949984 0.5857099569120144 0)
(24.71681368195877 0.6157240243331705 0)
(24.71824559688843 0.6138601722140877 0)
(22.8314540228514 4.100646569214208 0)
(22.32788469544931 6.738725989448293 0)
(22.42054885836568 6.837522896442224 0)
(22.42708224643889 6.821464801099891 0)
(16.65611415955136 9.88409860961568 0)
(16.52819756935478 12.32024079636944 0)
(16.5945059351304 12.35418762501544 0)
(16.59648522575608 12.32786209182033 0)
(16.62711311640176 8.347160067151648 0)
(17.33933010596947 9.758176406206749 0)
(17.38752648060371 9.762213588481304 0)
(17.37338257650052 9.740337023389651 0)
(24.71826299438361 0.6135677462269139 0)
(24.71818189497452 0.613560762614884 0)
(24.71809543270842 0.6135431304969596 0)
(24.71540824414183 0.6355373820179795 0)
(22.42601143455542 6.817228285783209 0)
(22.42591602411647 6.817231575089278 0)
(22.42589617608843 6.817351713438816 0)
(22.43373085222304 6.854249130840627 0)
(16.59432484829486 12.31901481185819 0)
(16.59420215678107 12.3187088996011 0)
(16.59420890778547 12.31873164100652 0)
(16.60901592901694 12.31692143218266 0)
(17.36450830508497 9.733941227605651 0)
(17.36391971591931 9.733732440519537 0)
(17.36389270078521 9.733719181118357 0)
(17.36602752944926 9.731994918746587 0)
(24.8262134712901 0.3790128107851459 0)
(24.87172151369564 0.2659877686567734 0)
(24.9061631082048 0.1949521412125616 0)
(24.95553957556209 0.07304084554308589 0)
(22.80768317700468 5.949824908173727 0)
(22.98195106045912 5.303225232018233 0)
(23.21488938334195 4.726597869931108 0)
(23.75613300394047 3.38896424138161 0)
(16.93466505774862 12.08384108873164 0)
(17.04173972228729 11.86065903236091 0)
(17.30817225804032 11.67725581800232 0)
(19.52946330256636 13.38268676456241 0)
(17.60865008626099 9.665467713109642 0)
(17.78792705709802 9.497317830047903 0)
(18.14858822692053 9.459963036772365 0)
(25.48974940346212 12.72327995262408 0)
(24.35860924027098 -1.247175226609577 0)
(17.9617129723616 -1.854490397084961 0)
(13.09242577449586 -0.2199423680963375 0)
(12.92555692975821 -0.08388797853704257 0)
(24.88407569639326 -1.931489559979252 0)
(13.85931199584167 -3.513039379648605 0)
(5.354786500684021 -0.3640871409557129 0)
(4.808733451736074 -0.1269030665899495 0)
(23.75082517231385 -0.1367629250834191 0)
(11.75274056971205 -4.234807159868024 0)
(2.334639214113917 -0.2983872246242656 0)
(1.991250275067104 -0.2503007005532898 0)
(18.66180324721983 -9.233421342915383 0)
(7.411201756560572 -5.147430352275041 0)
(1.28433855707744 -0.1242592173784569 0)
(1.163215453016003 -0.05784845127826938 0)
(12.51795602140544 -0.09670606483995139 0)
(12.55805451115619 -0.008757415768522602 0)
(12.47875930079625 -0.167998921219721 0)
(8.60402738436267 2.053186635840528 0)
(4.881710495381494 -0.1367662810633662 0)
(4.885901891930215 -0.01533672790803042 0)
(4.705663241755645 0.08565640953251169 0)
(0.8233772703701649 5.08536516449086 0)
(2.314420868958402 -0.2601677617344633 0)
(2.342249542613555 -0.006874803449258425 0)
(2.180836590956007 0.8401275752833991 0)
(2.885295719233901 6.488115780384091 0)
(1.529237182850614 -0.03816603009250445 0)
(1.548910917210345 0.009533473060023055 0)
(1.374021873020439 0.9352757879301334 0)
(0.7087088061237218 7.360047901045764 0)
(22.84206008524525 0.01316236157160777 0)
(24.90625283486315 0.007290473068315958 0)
(25.00062643561778 -0.009065115898763071 0)
(25.00502687405683 -0.1285697583682359 0)
(21.06565449035909 -0.4897906199733141 0)
(24.68660442838635 -0.01781549657265398 0)
(25.0116382391591 -0.07713499029990645 0)
(25.14992979572494 -0.4523695502002474 0)
(19.20223666956703 -0.8130680695023048 0)
(24.6225937884062 -0.5753333946645068 0)
(25.08370122643541 -0.2926639029001563 0)
(27.30217920347698 -0.7606832246861506 0)
(14.00101086979289 6.358011451501742 0)
(21.59408195005339 1.470102892534083 0)
(24.32476194402491 0.131061348369965 0)
(32.25792176541022 0.2546922788563558 0)
(24.83394498164238 -0.2065887083453426 0)
(24.37444153654286 -0.2785702089977956 0)
(23.9501880484279 -0.09180768119356766 0)
(23.85643485647507 -0.03039539691542171 0)
(24.47482179503839 -2.084357529127345 0)
(21.68835008698002 -2.151595749700419 0)
(19.59403221358444 -0.7319903639339249 0)
(19.06861068484626 -0.3452341168945148 0)
(24.86773589370844 -7.556481611607874 0)
(18.06447596116434 -7.585431762634307 0)
(13.76418643866749 -2.855851740193093 0)
(12.62105124279951 -1.211920277345535 0)
(16.77707100680675 -13.02071725885112 0)
(9.286215424679176 -13.07016117723352 0)
(5.242552423544213 -5.758835786202112 0)
(3.640844544381703 -0.7399858428978492 0)
(3.808747139137437 -0.3769054973060056 0)
(3.825940132217109 -0.2283610111031752 0)
(3.809349955906707 -0.0806500841331453 0)
(3.812932791966086 -0.005064900988336051 0)
(12.52788823919373 -0.9461047404125882 0)
(12.68447485734982 -0.4078092133818962 0)
(12.6382270604674 -0.1265653635368741 0)
(12.6350513982198 -0.01057558964300551 0)
(18.8114862520898 -0.2698089742600564 0)
(18.85747671298683 -0.08541435041371453 0)
(18.81330426915769 -0.03747908610134166 0)
(18.79688620789084 -0.00439836521121413 0)
(23.76328265698485 -0.01171251467013851 0)
(23.77211315103571 0.005200396884037161 0)
(23.76664855081022 0.001036080695228102 0)
(23.76212335819212 -5.893213441267979e-05 0)
(3.812932791968471 0.005064901003046486 0)
(12.63505139821769 0.01057558960108732 0)
(18.79688620789027 0.004398365270325218 0)
(23.76212335820995 5.893214750723157e-05 0)
(3.809349955904725 0.0806500841471732 0)
(12.63822706048642 0.1265653635573575 0)
(18.81330426915801 0.03747908605398249 0)
(23.76664855081414 -0.001036080713625284 0)
(3.825940132213447 0.2283610110708444 0)
(12.68447485734807 0.4078092134382689 0)
(18.85747671300838 0.08541435038768071 0)
(23.77211315104593 -0.005200396896959169 0)
(3.808747139139479 0.3769054973006138 0)
(12.52788823917576 0.9461047404080618 0)
(18.81148625210283 0.2698089742556923 0)
(23.76328265700509 0.01171251466552019 0)
(23.85643485648877 0.03039539692142843 0)
(23.95018804843236 0.09180768119519184 0)
(24.37444153656387 0.2785702089786223 0)
(24.83394498167991 0.2065887083558077 0)
(19.06861068487024 0.3452341168951977 0)
(19.59403221357484 0.7319903639740583 0)
(21.68835008695243 2.151595749671647 0)
(24.47482179506035 2.084357529125036 0)
(12.62105124278913 1.211920277343263 0)
(13.76418643866427 2.85585174016923 0)
(18.06447596116789 7.585431762639319 0)
(24.86773589371205 7.556481611605017 0)
(3.640844544380794 0.7399858428982992 0)
(5.242552423544757 5.758835786211916 0)
(9.286215424676215 13.07016117723227 0)
(16.77707100680538 13.0207172588498 0)
(32.25792176540097 -0.2546922788597437 0)
(24.3247619440194 -0.1310613483588381 0)
(21.5940819500561 -1.470102892532869 0)
(14.00101086977922 -6.358011451499156 0)
(27.30217920348153 0.7606832246796174 0)
(25.08370122646634 0.2926639028727304 0)
(24.62259378839937 0.5753333946719952 0)
(19.20223666956309 0.8130680695045361 0)
(25.14992979573586 0.452369550191379 0)
(25.01163823919479 0.07713499031043622 0)
(24.6866044283844 0.0178154965719144 0)
(21.06565449035781 0.4897906199806449 0)
(25.00502687406658 0.12856975836398 0)
(25.00062643563068 0.009065115898899431 0)
(24.90625283487051 -0.007290473066928902 0)
(22.84206008523319 -0.01316236155575949 0)
(8.604027384371538 -2.053186635844622 0)
(12.47875930081053 0.167998921223396 0)
(12.55805451116292 0.008757415766239783 0)
(12.5179560214228 0.09670606483111636 0)
(0.8233772703752918 -5.085365164488317 0)
(4.705663241752259 -0.08565640952065599 0)
(4.885901891920136 0.01533672791105182 0)
(4.881710495378364 0.1367662810698362 0)
(2.885295719219198 -6.488115780396118 0)
(2.180836590945387 -0.8401275752937725 0)
(2.342249542591923 0.006874803450247934 0)
(2.314420868944576 0.260167761735165 0)
(0.7087088061177704 -7.360047901076473 0)
(1.374021873014288 -0.9352757879403263 0)
(1.548910917207613 -0.009533473058865262 0)
(1.529237182849857 0.03816603010474329 0)
(12.92555692978938 0.08388797854258871 0)
(13.09242577446103 0.2199423680974314 0)
(17.96171297228765 1.854490397073789 0)
(24.35860924025458 1.247175226613323 0)
(4.808733451725489 0.126903066582698 0)
(5.354786500652169 0.3640871409372822 0)
(13.85931199579553 3.513039379634508 0)
(24.88407569640521 1.931489559988572 0)
(1.991250275055243 0.2503007005485688 0)
(2.334639214093484 0.2983872246182327 0)
(11.75274056965987 4.234807159856721 0)
(23.75082517234194 0.136762925081795 0)
(1.163215453017559 0.0578484512705968 0)
(1.28433855707109 0.124259217355054 0)
(7.41120175656124 5.147430352276106 0)
(18.66180324724647 9.233421342903906 0)
(24.95553957556051 -0.07304084554445182 0)
(24.9061631081944 -0.1949521412223815 0)
(24.87172151370678 -0.2659877686505377 0)
(24.8262134712681 -0.3790128107721741 0)
(23.75613300396265 -3.388964241354262 0)
(23.2148893833372 -4.72659786992178 0)
(22.98195106046213 -5.303225232011767 0)
(22.80768317699468 -5.949824908131819 0)
(19.52946330259051 -13.38268676456708 0)
(17.30817225804848 -11.67725581799632 0)
(17.04173972229085 -11.86065903235496 0)
(16.93466505775779 -12.08384108872667 0)
(25.48974940349099 -12.72327995263561 0)
(18.14858822693451 -9.459963036773489 0)
(17.78792705711226 -9.497317830048134 0)