/*--------------------------------*- C++ -*----------------------------------*\
  =========                 |
  \\      /  F ield         | OpenFOAM: The Open Source CFD Toolbox
   \\    /   O peration     | Website:  https://openfoam.org
    \\  /    A nd           | Version:  11
     \\/     M anipulation  |
\*---------------------------------------------------------------------------*/
FoamFile
{
    format      ascii;
    class       volScalarField;
    location    "0.35923535";
    object      Ma;
}
// * * * * * * * * * * * * * * * * * * * * * * * * * * * * * * * * * * * * * //

dimensions      [0 0 0 0 0 0 0];

internalField   nonuniform List<scalar> 
880
(
1.118016635923817
1.118016634793396
1.117913278229475
1.101702607460498
1.118016635922823
1.118016632481563
1.117870540911171
1.096269140464509
1.118016635905756
1.118016621504525
1.117737699155739
1.089039337107958
1.118016635824109
1.118016566726913
1.117400365732232
1.069555315207166
1.118016636535325
1.118016634945924
1.11801660363494
1.118016146181355
1.118016282147883
1.118014695899979
1.118008386360252
1.118021818285302
1.116457627577726
1.115369380311477
1.113824379369781
1.113109263184199
1.031318663270879
0.9943409767768314
0.9723377664978968
0.9700775200009174
1.118010992358865
1.117995259867419
1.117968928073811
1.117859301976115
1.117902556644996
1.117468095677953
1.11677091931961
1.115507665120629
1.104434095093776
1.097435548115768
1.088274681209931
1.079904084812983
0.9590693601082109
0.9591351870091107
0.957513691453528
0.9810536507602186
1.040053142959975
1.075624247615238
1.089969209802909
1.104393082064494
1.065631726044826
1.065219074519069
1.069326316875622
1.077707424614604
1.111149054020885
1.105552659114349
1.10043279217117
1.097673150654941
1.117316752326411
1.116401045552218
1.115078586848541
1.113440678823537
1.111890109254249
1.110735954904521
1.10998536751675
1.109839973944141
1.097061459182456
1.098712147420427
1.102514865363974
1.107802561749236
1.086124888906962
1.096164027919125
1.105647005520999
1.113536463914201
1.111645877484803
1.119220182322028
1.123416398023829
1.126389515591064
1.128791855241845
1.120906531080371
1.113436932591735
1.109951946455671
1.079490343939079
1.125823020633585
1.120187690694425
1.110313927179964
0.8046140834862214
1.115050879196024
1.125647177446649
1.111386099782606
0.5734043581894021
1.03797197666631
1.125572530667552
1.113024037725796
1.113322214652225
1.121409850915517
0.9542286119929848
0.5177903178763127
1.108802923797223
1.108874583382176
0.8848700368358648
0.5549431280829442
1.106524180857111
1.080246538160667
0.8075056618387921
0.5746165896536222
1.100895771118424
1.033510226790677
0.7627579783814291
0.6140861504495624
0.6624721885513001
0.7509878147303104
0.9748996568145505
1.089463918441148
0.714356546880006
0.7749390795741776
0.9219155851849249
1.06924834261335
0.7674916936907095
0.8176036067455661
0.9053484324837263
1.037926668509198
0.8151714838592226
0.8746819766337248
0.9234563213875084
1.006075938837605
0.9854192202047896
0.9755971474935992
0.9503705299106211
0.8753675555254217
1.00991977702956
1.039760994594865
1.036596085047931
0.9571063340865262
1.038620512099219
1.101927573566978
1.127949781867162
1.064399279087637
1.064422915028152
1.149828131792832
1.216003099967177
1.193060856113946
1.084293457520077
1.191061089392695
1.305726514206964
1.394837841261247
1.109067148234768
1.221506049112459
1.366103069917966
1.585974873635552
1.124974342853245
1.226891987208418
1.411598337834433
1.774901907605926
1.13443681804618
1.212808122671895
1.386971328298452
1.945074437540817
1.717465010430335
1.321799646105279
1.201072976877592
1.140474267335762
1.18172781755479
1.27507440080204
1.18887423942885
1.140461629070352
1.027533615159074
1.252845643769769
1.179569396929108
1.136956454451252
0.8788698426878402
1.215797990091696
1.165456664325723
1.132922965822513
0.8055034188293904
1.162029071755638
1.142392123827135
1.125674956146425
0.7301835529984193
1.092242299290274
1.117139559725613
1.118953272969045
0.696953364741861
1.041878942278828
1.105959159245679
1.117614319839643
0.6807096077750099
1.033195455448505
1.106960152398767
1.117614704606443
0.6500051295564936
0.9389529218331216
1.069465993997821
1.113028386646166
0.6571847463919052
0.9372245321684707
1.069605361173927
1.112891685232167
0.6852867833586901
0.9362581845316024
1.070401330981185
1.112842259439304
0.7090157109738048
0.9439669573560097
1.07378480432526
1.11311818213309
0.6807096077754263
1.033195455449841
1.106960152403037
1.117614704611615
0.6969533647427556
1.041878942283019
1.105959159247734
1.117614319843431
0.730183553001012
1.092242299293174
1.117139559726553
1.11895327297223
0.8055034188303198
1.162029071760543
1.142392123827871
1.12567495614753
1.140474267333716
1.20107297687862
1.32179964610526
1.717465010429921
1.140461629070047
1.188874239429262
1.275074400803049
1.181727817558627
1.136956454449257
1.179569396928457
1.25284564377528
1.027533615156947
1.132922965819556
1.165456664322201
1.215797990093962
0.8788698426897067
1.945074437545124
1.386971328299034
1.212808122673928
1.134436818045656
1.774901907606661
1.41159833783537
1.226891987209915
1.124974342851836
1.585974873634965
1.366103069915647
1.221506049114196
1.109067148229332
1.394837841259132
1.305726514208957
1.191061089396872
1.084293457515218
0.985419220202248
0.9755971474905405
0.9503705299085159
0.875367555525733
1.009919777029257
1.039760994595207
1.036596085045831
0.9571063340862539
1.038620512102712
1.101927573568831
1.127949781865774
1.06439927908691
1.064422915027109
1.149828131795619
1.216003099966748
1.193060856111919
0.815171483859564
0.8746819766334404
0.9234563213854758
1.006075938830591
0.7674916936916975
0.8176036067462753
0.905348432482991
1.037926668507761
0.7143565468803429
0.7749390795754847
0.9219155851852168
1.069248342610035
0.6624721885522193
0.7509878147295794
0.9748996568103094
1.089463918440117
1.113322214653225
1.121409850915468
0.9542286119945268
0.5177903178778354
1.108802923791784
1.108874583381024
0.8848700368367324
0.5549431280846492
1.106524180848563
1.080246538154588
0.8075056618390014
0.5746165896545298
1.10089577111621
1.033510226792132
0.762757978382929
0.6140861504501516
1.113024037725054
1.111386099783417
1.110313927176081
1.109951946455086
1.125572530671856
1.125647177449871
1.120187690692281
1.113436932590772
1.037971976670951
1.115050879196553
1.12582302063668
1.120906531081592
0.5734043581916769
0.8046140834892634
1.079490343938019
1.128791855241573
1.109839973941471
1.107802561746801
1.113536463913256
1.126389515590903
1.109985367519706
1.102514865360727
1.105647005520979
1.1234163980237
1.110735954904187
1.098712147419884
1.096164027922387
1.119220182324996
1.111890109257076
1.097061459183252
1.086124888905696
1.111645877485359
1.117316752326766
1.111149054025341
1.065631726043907
1.040053142958042
1.116401045554963
1.105552659118951
1.065219074518791
1.07562424761621
1.115078586844319
1.100432792175902
1.069326316877791
1.089969209808511
1.113440678825698
1.097673150655914
1.07770742461529
1.104393082066974
0.9810536507610552
1.079904084813017
1.115507665124934
1.117859301972852
0.9575136914545072
1.088274681209381
1.116770919321937
1.117968928075568
0.9591351870094589
1.097435548117786
1.117468095686067
1.117995259869463
0.9590693601085445
1.104434095096747
1.117902556648834
1.118010992356794
0.9700775199998157
1.113109263184367
1.118021818285921
1.118016146179181
0.972337766496045
1.113824379370281
1.118008386363523
1.118016603632531
0.9943409767708272
1.115369380312686
1.118014695903189
1.118016634947369
1.03131866326173
1.116457627580442
1.118016282151235
1.118016636532614
1.118016635923625
1.118016634792657
1.117913278229358
1.101702607459564
1.118016635921967
1.118016632485307
1.117870540911782
1.096269140454405
1.118016635905015
1.118016621508175
1.117737699155745
1.089039337092141
1.118016635822624
1.118016566729106
1.117400365732409
1.069555315194984
1.090021937411701
1.079809378352111
1.058234784609164
1.008456175540377
1.079809378361142
1.064150571096362
1.027796364478618
0.9529333930877516
1.058234784628702
1.027796364493398
0.9622082004422584
0.859109477891972
1.008456175559073
0.952933393110079
0.8591094779049666
0.751545267967194
0.7259580928760908
0.7634729622281942
0.8354134554205818
0.9069059570440269
0.7808840576364559
0.7857146204044664
0.8156865188211803
0.8610036738876383
0.7683371433248748
0.8085910166368192
0.8384377310121103
0.8598148211126118
0.8035047672698404
0.8475338170232926
0.8694716474998415
0.8807782685879649
0.8966520743408923
0.9095158303820804
0.9296247826785026
0.9684915796190017
0.8949921130790541
0.91061701247597
0.9352852651846801
0.9903472452343242
0.8839071009829054
0.9081222568929541
0.9365983345451168
1.054092912890662
0.8334669785588046
0.8609972282476367
0.8995071280029177
1.141561373726014
1.149102613963864
1.19019095385335
1.16224472892432
1.15584855645896
1.270484084329002
1.298132318084489
1.245480004534694
1.213594545643667
1.425516384775296
1.363578577618995
1.297061646750136
1.251312191582294
1.160550747917098
1.101035975201768
1.087576875082393
1.089678430121017
1.158621914777151
1.159546174486082
1.157141191322138
1.153222085841799
1.197679340988347
1.182975041050333
1.168753848801952
1.156243733671375
1.223635591073015
1.198458121964621
1.175102580841046
1.15389639620057
1.088934846365247
1.078627651135902
1.068265277682107
1.050980348171868
1.122114234683553
0.8700126025638477
0.5643565496320989
0.3648339118455692
1.090919956170867
0.6976133739161188
0.3661653589490418
0.1741359135392047
1.032836278300446
0.5043391818291615
0.1475434974909226
0.03135566939895197
0.8517598530625385
0.3004636605753581
0.02332789287450813
0.1011545342430178
0.3408976058690708
0.4415095332329528
0.5060765833752795
0.5696194571896432
0.2433983851958996
0.3991282788651832
0.4925648570128606
0.5666267161529445
0.110184714868145
0.3087581135623245
0.4557145332208694
0.5501826984433411
0.00985844444811834
0.1609774428417965
0.3251025949307335
0.4612703234636092
0.6437897550199847
0.7091234315486544
0.7653463607668785
0.8044259264219202
0.6372070186210654
0.7038027302357819
0.7599631421934051
0.7996775785701615
0.6207888051525251
0.6914814411355275
0.7536166007277358
0.7976356005083387
0.5749309101295427
0.667309342021931
0.7485518510947949
0.7963447078738563
0.8505508316857688
0.921313245500512
1.016683957825488
1.130832272455108
0.8424442809003145
0.9072177043441212
0.9950902981645428
1.146748733556438
0.838670654405491
0.8955820899796924
1.009277130427017
1.465247533243961
0.8366971026656393
0.8901275547987361
1.035239578063041
2.043034515602465
1.358004194068138
1.502747432977342
0.7467041043495344
1.540944190238912
1.440688766329185
1.291888551175157
1.120959958722475
1.90070376091991
1.484630860586738
0.9245276440792125
1.364564891011647
1.930163487018012
1.143592130806095
0.4372434007111083
1.650011104607344
1.864181637863388
1.320053432144732
0.8907006476195194
0.6860911655930445
0.4518939662272388
1.399963758189566
0.9917544850113593
0.7130696743507881
0.35124013629184
1.337998314101174
0.9695906553407146
0.6147468166011881
0.2354615681077024
1.275453598659717
0.9266892707493245
0.5551666778806457
0.1790070161326378
0.3129816187351057
0.09001635258117437
0.1519538907581617
0.353939060252398
0.3575673876152077
0.27403620938258
0.06743141063199151
0.2737588331272835
0.3253541809427786
0.3765523032235681
0.2087361676904416
0.1802090788619601
0.2563804181385894
0.3770719737058102
0.2874964483025859
0.05460279711686193
0.3303611800986057
0.363332430204778
0.3674659348849793
0.3665571721926407
0.3127521948233615
0.2977560302296246
0.3017585416426685
0.2879426056716785
0.2125417932685972
0.1577252655564204
0.1531297966766357
0.1300875854425489
0.1153282462937976
0.06703465872192656
0.08520873679039985
0.08051841005327623
0.06427390496412899
0.06053956960124055
0.05568889472844919
0.04946449759782303
0.08590678310729924
0.03554218673081495
0.01249118742647786
0.03216491641034318
0.2343470288196473
0.1729364710652288
0.1018702239616367
0.04156889076986742
0.3263216303127585
0.2781471649671286
0.2179026711629273
0.1782802472069296
0.04946449759757412
0.03216491641037725
0.04156889076967357
0.1782802472067956
0.05568889472776812
0.01249118742661295
0.1018702239616569
0.2179026711637272
0.06053956960064739
0.03554218673098442
0.1729364710653407
0.2781471649678297
0.06427390496371181
0.08590678310756471
0.2343470288197778
0.326321630312856
0.366557172191558
0.3674659348848995
0.3633324302043104
0.3303611800983325
0.2879426056716418
0.3017585416425756
0.2977560302291806
0.3127521948230333
0.1300875854426609
0.1531297966765916
0.1577252655564038
0.2125417932683746
0.08051841005335883
0.08520873679077709
0.06703465872247512
0.1153282462943166
0.05460279711652429
0.2874964483003843
0.3770719737032849
0.2563804181369618
0.1802090788618503
0.2087361676890213
0.3765523032205154
0.3253541809394526
0.2737588331271603
0.06743141063128721
0.2740362093791081
0.3575673876117841
0.3539390602524828
0.1519538907595682
0.09001635257718732
0.3129816187298639
0.4518939662225379
0.6860911655937804
0.8907006476344044
1.320053432132885
0.3512401362889737
0.7130696743494657
0.9917544850171278
1.399963758190365
0.2354615681065033
0.6147468166001364
0.9695906553420059
1.3379983141026
0.1790070161327827
0.5551666778807306
0.9266892707495578
1.275453598662267
1.54094419019846
0.7467041043459187
1.502747432973387
1.358004194065666
1.90070376090912
1.120959958730817
1.291888551174438
1.440688766328008
1.93016348702338
1.364564891018559
0.9245276440772801
1.484630860584255
1.864181637866354
1.650011104616508
0.4372434007116848
1.143592130806855
1.130832272453962
1.01668395782494
0.9213132455011716
0.8505508316859911
1.146748733556411
0.9950902981637259
0.9072177043436602
0.8424442809012708
1.465247533242924
1.009277130426741
0.8955820899781963
0.8386706544055603
2.043034515598942
1.035239578062806
0.8901275547970423
0.8366971026662516
0.8044259264231073
0.7653463607682888
0.7091234315482681
0.6437897550204366
0.7996775785712211
0.7599631421932505
0.7038027302369135
0.6372070186211787
0.797635600507739
0.7536166007284538
0.691481441135753
0.6207888051528362
0.7963447078745832
0.7485518510949192
0.6673093420219707
0.5749309101286879
0.5696194571904112
0.5060765833771147
0.4415095332329221
0.3408976058696566
0.5666267161532654
0.4925648570147841
0.3991282788659258
0.2433983851967447
0.5501826984436113
0.455714533221692
0.3087581135630967
0.1101847148689381
0.4612703234628798
0.3251025949298389
0.1609774428420692
0.009858444448335432
0.3648339118465542
0.5643565496346387
0.8700126025646238
1.122114234681335
0.1741359135400768
0.366165358951495
0.6976133739185915
1.090919956168909
0.03135566939835578
0.1475434974925428
0.5043391818317112
1.032836278298299
0.1011545342428846
0.02332789287461596
0.3004636605761828
0.8517598530594165
1.153222085840668
1.157141191325974
1.159546174492219
1.158621914781991
1.156243733669359
1.168753848802974
1.182975041055379
1.197679340991838
1.153896396198123
1.175102580840889
1.198458121969372
1.223635591076866
1.050980348167596
1.068265277683319
1.078627651138863
1.088934846369107
1.155848556463827
1.16224472893126
1.190190953852123
1.149102613962856
1.213594545649895
1.245480004541628
1.298132318083358
1.270484084328583
1.251312191588883
1.297061646757045
1.363578577617364
1.425516384775853
1.089678430121674
1.08757687508794
1.101035975200794
1.160550747919526
0.968491579619089
0.9296247826783592
0.9095158303790101
0.8966520743387489
0.9903472452343745
0.9352852651814683
0.9106170124727492
0.8949921130757315
1.054092912891376
0.9365983345446085
0.9081222568891907
0.883907100977926
1.141561373725226
0.8995071280004505
0.8609972282444223
0.8334669785547861
0.8807782685862163
0.8598148211099821
0.8610036738842963
0.906905957032198
0.8694716474980212
0.8384377310071259
0.8156865188157205
0.8354134554077607
0.8475338170173659
0.8085910166295182
0.7857146203967914
0.7634729622189194
0.8035047672656378
0.7683371433178612
0.7808840576287996
0.7259580928726368
0.6232862586788875
1.002705588241617
1.099020678946772
1.11667335701515
0.6574127382087909
0.9785218127053051
1.091855322444095
1.115850712770704
0.6902743135879517
0.9705198494704921
1.085819497648385
1.114840422469451
0.7062607450569188
0.9574431349689391
1.07943306959659
1.113852888145612
1.113028386644008
1.069465993997394
0.938952921832176
0.6500051295542564
1.112891685232633
1.069605361174076
0.9372245321677314
0.6571847463928453
1.112842259439921
1.070401330981801
0.9362581845309399
0.685286783358901
1.113118182134575
1.073784804327426
0.9439669573554716
0.7090157109726851
1.113852888146415
1.114840422466832
1.115850712771947
1.116673357019578
1.079433069600374
1.08581949765011
1.091855322447705
1.099020678950838
0.9574431349693521
0.970519849472178
0.9785218127060485
1.002705588241358
0.7062607450565519
0.6902743135882438
0.6574127382086478
0.6232862586786053
)
;

boundaryField
{
    back
    {
        type            empty;
    }
    inlet
    {
        type            calculated;
        value           nonuniform List<scalar> 
16
(
1.118016635923817
1.118016635923327
1.118016635921991
1.118016635900154
1.118016636034887
1.118016635839496
1.118016624558263
1.118016452908475
1.118016452907626
1.118016624557722
1.118016635839877
1.118016636034292
1.118016635923624
1.118016635923231
1.118016635921705
1.118016635899328
)
;
    }
    front
    {
        type            empty;
    }
    top
    {
        type            calculated;
        value           uniform 0;
    }
    outlet
    {
        type            calculated;
        value           nonuniform List<scalar> 
16
(
1.111558873581659
1.111422173900676
1.111388600394476
1.111763731771489
1.116097273085756
1.115120063662199
1.11389023943124
1.11267280428445
1.111558873579085
1.111422173900726
1.111388600395106
1.111763731773056
1.112672804285082
1.113890239428474
1.11512006366374
1.116097273090345
)
;
    }
    bottom
    {
        type            calculated;
        value           uniform 0;
    }
    wall
    {
        type            calculated;
        value           uniform 0;
    }
}


// ************************************************************************* //
