/*--------------------------------*- C++ -*----------------------------------*\
  =========                 |
  \\      /  F ield         | OpenFOAM: The Open Source CFD Toolbox
   \\    /   O peration     | Website:  https://openfoam.org
    \\  /    A nd           | Version:  11
     \\/     M anipulation  |
\*---------------------------------------------------------------------------*/
FoamFile
{
    format      ascii;
    class       volScalarField;
    location    "0.35923535";
    object      T;
}
// * * * * * * * * * * * * * * * * * * * * * * * * * * * * * * * * * * * * * //

dimensions      [0 0 0 1 0 0 0];

internalField   nonuniform List<scalar> 
880
(
500.0000000000027
500.000000292371
500.0240603503225
503.340783014618
500.0000000004407
500.0000008570672
500.0298640495367
504.8871085970069
500.0000000016358
500.0000033381324
500.0553409982052
506.7156230935936
500.0000000211684
500.0000146203423
500.1147608784862
509.4283669921978
499.9999999006574
500.000000075423
500.0000101658216
500.0001636964822
500.000067156681
500.0002570855611
500.001614418834
500.0023565940967
500.2633611436794
500.4346980543729
500.7186499658421
500.9607516031621
514.917787338122
521.1125102039446
526.3742148911842
529.0291413176946
500.0004089515725
500.0033846639193
500.0128249828305
500.0397777337678
500.022791305464
500.0985653567794
500.2005062602776
500.4220171089279
502.4155678099573
503.6983754758679
505.2861285641503
507.2306900470914
531.2572578092452
533.8983541879124
534.3925497110703
533.1639964321927
522.8401705914479
517.6388936118183
515.4439846239104
513.9695514543499
511.0474792079308
512.6641425488223
513.5779101917302
513.7075314813737
501.1772290354907
502.0602934972729
503.0082962746235
503.7665564356783
500.1411452396823
500.3405960750433
500.6412504002763
501.0639116355014
501.5574319943555
502.0498776117479
502.5355816473955
502.8872152890158
504.3928063803706
504.7489809220981
504.9504404160191
504.9005482798637
513.0678703856832
512.1692143472762
510.9866086372919
509.749113217198
512.2219206169143
511.032347518517
510.2808470684611
509.5130046685249
508.9399908439693
508.8784187738012
504.7597533103402
503.0952703998732
519.198455457463
508.0402691053594
504.3860131159694
503.0560350871465
571.3177821125303
510.4332865361306
503.9291751205774
502.6033907915451
620.3434087492527
523.8954700940217
504.7804709929678
502.4448515472253
502.3964836833707
506.0673573556932
539.6770457610951
637.4090750156175
501.5158140431491
508.5902260557398
556.3024911812296
635.1890406655718
501.8917910323137
514.4419861289351
576.6100076968808
636.1937590416198
503.3245487003015
524.8670251088369
594.7474634898394
633.4378560343428
628.3169286809765
604.8051105403049
539.8151479197935
506.4863270819765
621.8132279501388
607.4543908001888
554.9974942444235
512.1637441891944
614.4988464924533
605.2839679729809
566.9942838065381
521.158738452116
606.6429113157329
594.2588462155508
569.0864566657498
532.0890935429346
541.2916395153085
563.5992600124355
579.7593018376808
597.153665865364
539.8324163810805
552.0558110950436
562.8278471784854
582.2094160577527
535.8349020125421
540.3213572450453
544.5106826276217
560.5778789434326
530.6368866656284
529.8354888180661
525.3123540980955
530.4063378141502
526.7520776234452
520.4504240851504
508.4953275398754
495.5317673115612
520.5909308576024
511.2779310112526
491.9683397539301
459.8351864322914
515.7628131502927
506.0172162234558
477.9307387144979
425.1201726041431
511.5880955596697
504.5831552716639
477.6788030096716
399.8636147102709
410.5427413086105
486.8268099333033
503.2609182076029
507.7682980475076
477.9412769815963
493.0373765042331
502.4041472640368
505.1697238298659
517.2617282260679
495.7348123633446
500.873502600696
503.3598069902445
530.1728824617436
500.4063720241711
500.2272758236716
502.2904377065294
539.0029599246222
504.3271569103889
498.9655286776671
500.3929051543789
533.7935745498144
504.2973967302459
497.6634613735314
499.2219044357201
525.7945017676581
503.4848623242082
497.2753876318267
499.1942544042148
517.7064015242714
499.1154034773225
497.0794225376854
499.4039174741166
479.7731920417339
469.4023202871217
488.9356199707465
498.6805880288706
474.2552775315172
471.2942765171686
489.4247560531365
498.6804276218908
465.2298879976833
473.4183375094
490.3270332215035
498.694595208201
459.5019929202227
476.2502278816804
491.3791657979863
498.7839329814527
517.7064015243401
499.1154034770028
497.0794225380329
499.4039174738573
525.794501767769
503.4848623235676
497.2753876318164
499.1942544034367
533.7935745498639
504.2973967295602
497.6634613723764
499.2219044347798
539.0029599247067
504.3271569096086
498.965528677488
500.3929051538165
507.7682980477537
503.2609182078491
486.8268099335622
410.5427413076679
505.1697238297717
502.4041472640822
493.0373765047523
477.9412769806904
503.3598069902036
500.8735026007842
495.7348123625009
517.2617282259056
502.2904377064049
500.2272758240978
500.4063720235674
530.1728824620873
399.8636147119275
477.6788030095844
504.5831552717411
511.5880955598067
425.1201726040981
477.9307387145525
506.0172162238327
515.7628131502769
459.835186432462
491.9683397544377
511.2779310112413
520.5909308577969
495.5317673119769
508.4953275395919
520.4504240846011
526.7520776235482
541.2916395153308
563.5992600130282
579.7593018383382
597.1536658658418
539.8324163806273
552.0558110947156
562.8278471786853
582.209416058333
535.8349020117719
540.3213572447593
544.5106826275543
560.5778789437818
530.6368866653847
529.8354888176522
525.3123540979353
530.4063378145715
606.642911316085
594.2588462159508
569.086456666039
532.0890935438737
614.4988464929464
605.2839679733792
566.9942838066391
521.1587384520383
621.8132279506623
607.4543908005362
554.9974942441172
512.1637441892083
628.3169286815057
604.8051105406455
539.8151479202281
506.4863270818851
502.3964836832403
506.0673573556768
539.6770457609585
637.4090750156557
501.5158140439053
508.5902260561224
556.3024911813352
635.1890406657612
501.891791033354
514.4419861299484
576.6100076972632
636.1937590414951
503.3245487003119
524.8670251086663
594.7474634903941
633.4378560346134
502.4448515470571
502.6033907913937
503.0560350876999
503.0952704000254
504.7804709922593
503.9291751202458
504.3860131159669
504.7597533102227
523.8954700932974
510.433286536106
508.0402691048462
508.8784187736633
620.3434087490469
571.3177821121292
519.1984554575557
508.939990843839
502.8872152895161
504.9005482801737
509.7491132175726
509.5130046689581
502.5355816471983
504.9504404164551
510.986608637655
510.2808470686946
502.0498776117634
504.7489809223074
512.1692143472211
511.0323475179226
501.5574319939314
504.3928063802181
513.0678703860352
512.2219206170849
500.1411452392196
501.1772290351939
511.0474792084508
522.8401705918533
500.3405960744078
502.060293496808
512.6641425494258
517.6388936119187
500.6412504006526
503.0082962742885
513.5779101921217
515.4439846231264
501.0639116350781
503.7665564356276
513.7075314818355
513.9695514539319
533.1639964322267
507.2306900472336
500.4220171087898
500.0397777342025
534.3925497111832
505.2861285643149
500.2005062600508
500.012824982685
533.8983541883237
503.6983754757885
500.0985653555661
500.0033846633597
531.257257809386
502.4155678097001
500.0227913050855
500.0004089521973
529.029141317469
500.9607516034469
500.0023565943318
500.0001636972418
526.3742148906928
500.7186499658773
500.0016144185018
500.0000101663056
521.1125102033305
500.4346980543299
500.0002570851775
500.0000000750825
514.9177873376076
500.2633611435574
500.0000671563078
499.999999901189
500.0000000001753
500.0000002925185
500.0240603502492
503.3407830143911
500.0000000005271
500.0000008567644
500.029864049498
504.8871085970303
500.0000000018922
500.0000033379117
500.055340998306
506.7156230940855
500.0000000219067
500.0000146201963
500.1147608785703
509.4283669924559
506.2253965059246
508.9278144596726
513.2491373333428
521.8954778371502
508.9278144601421
512.386697576479
518.7554620339783
531.3319953726111
513.2491373336177
518.7554620340286
528.8805079128173
544.0767480619676
521.8954778372311
531.3319953724603
544.0767480625144
560.2594565600418
577.2415810212193
564.2358815676349
557.3543943889802
544.949783748582
575.4560818815859
571.5455842527095
570.3313846103663
564.6287928044671
575.3921440358877
574.321710779884
573.7613333923841
572.0572980954342
571.9799327176594
571.5450336204668
571.6839435492275
570.9796523226211
567.8988287286838
565.5535261831782
560.4612779559683
553.2864744501103
567.5583023958607
565.1532347125651
560.2394964072012
553.9644511816495
567.574701308127
564.9924880673119
559.9824110300927
554.5583845754793
567.637034842412
564.7358836884915
560.1859852495166
550.9724975285604
512.3813906748827
492.8099226219355
489.9499837770064
490.4503503225927
501.8265003065204
488.7084598690484
489.9705278844021
491.0968087659106
491.5798449935916
488.8778280180109
491.5594011274264
492.8374464830913
469.9267173244947
484.1233812012545
489.9013590936999
491.5987972109994
490.7932220374808
491.8105444806945
493.3327932702426
494.8470407209866
491.0039517949494
491.4808596434476
492.8627650422511
494.8616416295469
492.3164882316472
492.3386832080848
493.2673752978628
494.7357768906737
491.2483570466563
491.4195566243087
492.7258988490294
494.8404595966274
505.0240848391057
567.6790884987751
639.3613671492379
664.5431252661909
510.9446455157918
581.1654231500438
642.0075661771003
660.2508233914155
516.4238372795016
589.4965149351042
641.9776324979201
660.949205399343
520.2329620263019
597.7643449325309
642.1822823532035
661.36216509956
694.3007190493305
681.4453432197689
670.1401370433454
656.8753045240063
702.7508517161568
690.0069001478063
676.8983794170424
662.5495163262221
708.728523214514
697.4719396000258
683.0151381186215
668.0408240560978
706.6522909904642
701.2940198029023
687.194145965212
671.835285104247
643.6164278020879
633.0273389100364
623.2183588351197
618.9683321166737
648.7149585110899
637.1081984920107
625.9497996605965
621.0677521690595
653.8783597995825
640.6185621625492
629.5063028473899
623.1777172178436
658.2970103220086
643.6927883231332
632.9970168434517
625.5984998419482
615.0673962574057
607.6462995880602
590.9806235075085
565.0080174920233
616.8448024974441
609.234775467955
593.7784631940364
592.6505173414921
617.8389297827432
610.1544933849897
602.770294924115
620.4156470511864
619.7333970732956
614.0056488624083
616.3504531160778
603.9811799051447
522.5290336412597
460.1975086161567
422.6653918729036
426.5579758276681
512.0672183512568
421.983363501989
305.5277780045079
252.9698825398017
468.7318559120868
368.101169195689
252.1782846458129
231.8540889946657
368.0077036693597
282.5859768086947
227.8297927578842
239.5913653189135
376.1181281411458
403.9283415101206
471.0880978643224
522.9246985302525
306.4930300705335
380.3617179165871
441.8190924616652
491.7072776632787
291.6676761651236
350.9024321003181
404.4011565627044
445.1306799647691
298.9378787453527
351.432799970722
402.1231275229742
431.149479653632
487.0603062647336
510.3455000497066
509.2791467145241
509.686505979104
435.7731205498264
473.9286925033703
492.6746374893821
510.5667351709978
407.3528930373485
432.9142005420674
470.5544439946373
514.1740211854085
392.4919374808746
408.273912965736
445.0625657084721
512.9341573647638
491.825783804785
470.6130807266583
459.3924285726517
459.7028447301578
495.1779960819774
486.0217001672805
482.016967645024
475.8951821951419
504.236824353738
507.4083230117486
501.6103012836729
488.6177451882257
503.6012698559492
508.6045960773151
498.7249407221414
484.0921063879732
465.9313030868345
450.6274487628858
442.2373694079283
439.8956677494549
471.5291731396308
455.6887481863694
444.4203576367603
441.0565208859558
469.7954354471516
461.2958989817551
452.6151792807499
448.9987322658178
462.8004919856018
460.2205608510987
455.4799889368773
452.3453172706051
439.8956677494191
441.0565208859341
448.9987322658292
452.3453172706969
442.2373694077511
444.4203576365997
452.6151792807453
455.4799889371375
450.6274487626087
455.6887481860958
461.2958989816821
460.2205608512847
465.9313030864207
471.5291731394427
469.7954354470969
462.8004919857413
459.7028447302952
459.3924285726953
470.6130807269711
491.8257838050355
475.8951821951724
482.0169676451171
486.0217001675466
495.1779960822142
488.6177451880848
501.6103012835811
507.4083230117677
504.2368243538029
484.0921063877715
498.7249407220498
508.6045960772776
503.6012698559167
512.9341573648458
445.0625657088962
408.2739129663479
392.4919374814824
514.1740211855143
470.5544439950573
432.914200542658
407.3528930380326
510.5667351711698
492.6746374896718
473.9286925039148
435.7731205507164
509.686505979243
509.2791467147142
510.3455000501655
487.0603062654477
522.9246985300633
471.0880978642443
403.9283415086194
376.1181281499476
491.7072776632722
441.819092461907
380.3617179159272
306.4930300707733
445.1306799650661
404.401156563261
350.9024321001229
291.6676761648978
431.1494796540194
402.1231275235467
351.4327999710051
298.9378787452072
426.5579758492119
422.6653918748038
460.1975086163126
522.5290336418261
252.9698825429031
305.5277780045035
421.9833635019066
512.0672183514312
231.8540889947448
252.1782846455277
368.1011691961921
468.7318559126198
239.5913653191781
227.8297927574487
282.5859768093018
368.0077036697475
565.0080174923929
590.9806235079083
607.646299588579
615.0673962577832
592.6505173418439
593.778463194181
609.234775468213
616.8448024978438
620.4156470514487
602.7702949241326
610.154493384939
617.8389297829642
603.9811799057135
616.3504531160181
614.0056488622521
619.7333970735579
618.9683321172403
623.2183588355477
633.0273389099032
643.6164278019929
621.0677521695674
625.949799660654
637.1081984916844
648.7149585107287
623.1777172180715
629.5063028475612
640.6185621621931
653.8783597993724
625.5984998422939
632.9970168436685
643.6927883230652
658.2970103215569
656.8753045237512
670.1401370430289
681.4453432194748
694.3007190491923
662.5495163258621
676.8983794170183
690.0069001475979
702.7508517158897
668.0408240558305
683.0151381183819
697.4719395995147
708.7285232144367
671.8352851039726
687.1941459650427
701.2940198027119
706.652290990083
664.5431252661836
639.3613671489785
567.6790884987353
505.0240848395691
660.2508233912725
642.007566176815
581.165423149946
510.9446455163505
660.9492053991114
641.9776324975824
589.4965149348998
516.4238372800726
661.3621650996397
642.1822823528649
597.7643449323103
520.2329620268679
494.8470407216375
493.3327932701733
491.8105444799645
490.7932220370822
494.8616416301924
492.8627650420866
491.4808596424795
491.003951794534
494.7357768913154
493.2673752975396
492.3386832070983
492.3164882311148
494.8404595972591
492.7258988486616
491.4195566232534
491.248357045973
490.4503503218095
489.9499837763834
492.809922622306
512.3813906752508
491.0968087651602
489.9705278835559
488.7084598695702
501.8265003068094
492.8374464823184
491.5594011264536
488.8778280184619
491.5798449938041
491.5987972101995
489.9013590925367
484.1233812016309
469.9267173247144
553.2864744503028
560.461277956255
565.5535261838018
567.8988287285426
553.9644511817783
560.2394964074067
565.1532347131084
567.5583023957212
554.5583845754101
559.9824110301759
564.9924880676554
567.5747013078209
550.9724975285952
560.1859852495822
564.7358836887174
567.6370348421802
570.9796523216994
572.0572980943084
564.6287928035842
544.949783748703
571.6839435482399
573.7613333909302
570.3313846087051
557.3543943884508
571.5450336193899
574.3217107781563
571.5455842499372
564.2358815657153
571.9799327167407
575.3921440340077
575.4560818781537
577.2415810175577
505.1312365490514
497.2537335867042
496.8135987800463
499.4842401075016
485.4160439532282
492.0361110288562
495.39268798173
499.3454232820918
470.3699568283841
486.3989555731771
493.9791828691249
499.1480591332812
460.1372618526612
480.428533096326
492.4956009742492
498.9411000795413
498.6805880284947
488.9356199707518
469.4023202870795
479.7731920418224
498.6804276215177
489.4247560532837
471.2942765170943
474.2552775318703
498.6945952082142
490.3270332219191
473.4183375091691
465.229887997982
498.7839329815275
491.3791657981614
476.2502278815094
459.5019929203523
498.9411000793889
499.1480591331475
499.3454232823596
499.4842401076476
492.4956009739883
493.9791828689314
495.3926879813604
496.8135987801132
480.4285330964575
486.398955573493
492.0361110294056
497.2537335871144
460.1372618524871
470.3699568281342
485.4160439532382
505.1312365491694
)
;

boundaryField
{
    back
    {
        type            empty;
    }
    inlet
    {
        type            zeroGradient;
    }
    front
    {
        type            empty;
    }
    top
    {
        type            zeroGradient;
    }
    outlet
    {
        type            fixedValue;
        value           uniform 500;
    }
    bottom
    {
        type            zeroGradient;
    }
    wall
    {
        type            zeroGradient;
    }
}


// ************************************************************************* //
