/*--------------------------------*- C++ -*----------------------------------*\
  =========                 |
  \\      /  F ield         | OpenFOAM: The Open Source CFD Toolbox
   \\    /   O peration     | Website:  https://openfoam.org
    \\  /    A nd           | Version:  11
     \\/     M anipulation  |
\*---------------------------------------------------------------------------*/
FoamFile
{
    format      ascii;
    class       volScalarField;
    location    "0.002";
    object      rho;
}
// * * * * * * * * * * * * * * * * * * * * * * * * * * * * * * * * * * * * * //

dimensions      [0 0 0 0 0 0 0];

internalField   nonuniform List<scalar> 
880
(
0.3733250556165154
0.3733250556165154
0.3733250556165154
0.3733250556165154
0.3733250556165154
0.3733250556165154
0.3733250556165152
0.3733250556165154
0.3733250556165154
0.3733250556165153
0.3733250556165154
0.3733250556165154
0.3733250556165154
0.3733250556165154
0.3733250556165154
0.3733250556163165
0.3733250556165154
0.3733250556165155
0.3733250556165152
0.3733250556165154
0.3733250556165154
0.3733250556165154
0.3733250556165151
0.3733250556165154
0.3733250556165154
0.3733250556165154
0.3733250556165154
0.3733250556165154
0.3733250556183872
0.3733250556182456
0.3733250556180683
0.3733250556179543
0.3733250556165154
0.3733250556165154
0.3733250556165152
0.3733250556165154
0.3733250556165154
0.3733250556165152
0.3733250556165154
0.3733250556165154
0.3733250556165154
0.3733250556165151
0.3733250556165154
0.3733250556165154
0.3733250556167002
0.3733250556166788
0.3733250556166859
0.3733250556165841
0.3733250556248435
0.3733250556196475
0.3733250556165326
0.3733250556165154
0.3733250556165153
0.3733250556165151
0.3733250556165154
0.3733250556165154
0.3733250556165154
0.3733250556165154
0.3733250556165153
0.3733250556165154
0.3733250556165154
0.3733250556165155
0.3733250556165154
0.3733250556165154
0.3733250556165152
0.3733250556165152
0.3733250556165154
0.3733250556165155
0.3733250556165154
0.3733250556165155
0.3733250556165154
0.3733250556165155
0.3733250556165151
0.3733250556165154
0.3733250556165151
0.3733250556165154
0.3733250556165152
0.3733250556165154
0.3733250556165152
0.3733250556165154
0.3733250556165154
0.3733250556165154
0.3733250556165154
0.3733250556165154
0.3733250556165154
0.3733250556165154
0.3733250556165154
0.3733250556165153
0.3733250556165154
0.3733250556165151
0.3733250556165154
0.3733250556165154
0.3733250556164057
0.3733250556165154
0.3733250556165155
0.3733250556165153
0.3733250556165152
0.3733250556165153
0.3733250556165151
0.3733250556165154
0.3733250556165155
0.3733250556165154
0.3733250556165151
0.3733250556165154
0.3733250556165154
0.3733250556165154
0.3733250556165154
0.3733250556165153
0.3733250556165154
0.3733250556165154
0.3733250556165154
0.3733250556165154
0.3733250556165154
0.3733250556165154
0.3733250556165154
0.3733250556165154
0.3733250556165154
0.3733250556165152
0.3733250556165154
0.3733250556165154
0.3733250556165154
0.3733250556165154
0.3733250556165152
0.3733250556165154
0.3733250556165151
0.3733250556165154
0.3733250556165154
0.3733250556165154
0.3733250556165153
0.3733250556165154
0.3733250556165154
0.3733250556165401
0.3733250556165154
0.3733250556165154
0.3733250556165154
0.3733250556165509
0.3733250556165154
0.3733250556165154
0.3733250556165154
0.3733250556165484
0.3733250556165154
0.3733250556165154
0.3733250556165163
0.3733250555863312
0.3733250556165151
0.3733250556164407
0.3733250556070416
0.3733252180543081
0.3733250556165154
0.3733250556165148
0.3733250556078189
0.3733252060411261
0.3733250556165154
0.3733250556164923
0.3733250556088836
0.3733251905326294
0.3733250556165154
0.3733250556165154
0.3733250556101894
0.3733251771594752
0.3733251639648629
0.3733250555879379
0.3733250556164748
0.3733250556165154
0.3733251582388991
0.3733250555911152
0.3733250556164718
0.3733250556165154
0.3733251519877535
0.3733250555938741
0.3733250556164796
0.3733250556165154
0.3733251658829871
0.3733250556007152
0.3733250556164849
0.3733250556165154
0.3733250554792911
0.37332505561614
0.3733250556165154
0.3733250556165151
0.373325055608025
0.3733250556165154
0.3733250556165154
0.3733250556165154
0.373325055616258
0.3733250556165154
0.3733250556165155
0.3733250556165154
0.3733250555890066
0.3733250556165154
0.3733250556165154
0.3733250556165154
0.3733250545433583
0.3733250556160067
0.3733250556165154
0.3733250556165151
0.3733250545433161
0.3733250556160244
0.3733250556165153
0.3733250556165154
0.3733250545439651
0.3733250556159844
0.3733250556165152
0.3733250556165154
0.3733250546043708
0.3733250556160613
0.3733250556165152
0.3733250556165154
0.3733250555889818
0.3733250556165154
0.3733250556165154
0.3733250556165154
0.3733250556162442
0.3733250556165154
0.3733250556165152
0.3733250556165154
0.3733250556080193
0.3733250556165154
0.3733250556165154
0.3733250556165154
0.3733250554793368
0.3733250556161723
0.3733250556165154
0.3733250556165151
0.3733250556165154
0.3733250556164835
0.3733250555879605
0.3733251639648774
0.3733250556165154
0.3733250556164719
0.3733250555911298
0.3733251582389239
0.3733250556165154
0.3733250556164895
0.3733250555938705
0.3733251519878227
0.3733250556165154
0.3733250556164873
0.3733250556007664
0.3733251658829376
0.3733251771594416
0.3733250556101657
0.3733250556165152
0.3733250556165153
0.3733251905325699
0.3733250556088527
0.3733250556164755
0.3733250556165154
0.3733252060411061
0.3733250556077691
0.3733250556165137
0.3733250556165154
0.373325218054325
0.3733250556070263
0.3733250556164342
0.3733250556165154
0.3733250556165151
0.3733250556165156
0.3733250556165155
0.3733250556165484
0.3733250556165155
0.3733250556165154
0.3733250556165154
0.3733250556165478
0.3733250556165155
0.3733250556165154
0.3733250556165154
0.3733250556165374
0.3733250556165154
0.3733250556165154
0.3733250556165155
0.3733250555863313
0.3733250556165154
0.3733250556165154
0.3733250556165154
0.3733250556165154
0.3733250556165155
0.3733250556165154
0.3733250556165154
0.3733250556165154
0.3733250556165154
0.3733250556165154
0.3733250556165154
0.3733250556165154
0.3733250556165155
0.3733250556165154
0.3733250556165154
0.3733250556165154
0.3733250556165154
0.3733250556165154
0.3733250556165154
0.3733250556165154
0.3733250556165154
0.3733250556165154
0.3733250556165154
0.3733250556165154
0.3733250556165154
0.3733250556165154
0.3733250556165154
0.3733250556165153
0.3733250556165154
0.3733250556165154
0.3733250556165151
0.3733250556165154
0.3733250556165154
0.3733250556165154
0.3733250556165154
0.3733250556165154
0.3733250556165154
0.3733250556165154
0.3733250556165154
0.3733250556165153
0.3733250556165154
0.3733250556165154
0.3733250556165154
0.3733250556165154
0.3733250556164042
0.3733250556165154
0.3733250556165154
0.3733250556165154
0.3733250556165152
0.3733250556165154
0.3733250556165151
0.3733250556165154
0.3733250556165154
0.3733250556165153
0.3733250556165154
0.3733250556165153
0.3733250556165154
0.3733250556165154
0.3733250556165154
0.3733250556165154
0.3733250556165154
0.3733250556165153
0.3733250556165153
0.3733250556165154
0.3733250556165154
0.3733250556165154
0.3733250556165151
0.3733250556248333
0.3733250556165153
0.3733250556165154
0.3733250556165154
0.3733250556196128
0.3733250556165153
0.3733250556165155
0.3733250556165155
0.3733250556165321
0.3733250556165154
0.3733250556165154
0.3733250556165154
0.3733250556165154
0.37332505561659
0.3733250556165154
0.3733250556165153
0.3733250556165154
0.3733250556166783
0.3733250556165154
0.3733250556165154
0.3733250556165153
0.373325055616693
0.3733250556165154
0.3733250556165154
0.3733250556165152
0.3733250556166956
0.3733250556165154
0.3733250556165154
0.3733250556165154
0.3733250556179728
0.3733250556165154
0.3733250556165154
0.3733250556165154
0.3733250556180582
0.3733250556165153
0.3733250556165154
0.3733250556165154
0.3733250556182656
0.3733250556165155
0.3733250556165154
0.3733250556165153
0.3733250556183809
0.3733250556165154
0.3733250556165154
0.3733250556165151
0.3733250556165154
0.3733250556165154
0.3733250556165154
0.3733250556165154
0.3733250556165152
0.3733250556165155
0.3733250556165153
0.3733250556165154
0.3733250556165154
0.3733250556165154
0.3733250556165154
0.3733250556165154
0.3733250556165154
0.3733250556165154
0.3733250556165151
0.3733250556162992
0.3733250556165154
0.3733250556165154
0.3733250556157899
0.3733250553839988
0.3733250556165154
0.3733250556152418
0.3733250555703186
0.3733250600275912
0.3733250556157909
0.3733250555703221
0.3733250534845658
0.3733316601443479
0.3733250553840223
0.3733250600276112
0.3733316601443217
0.3738671945834908
0.4062805224585844
0.3748660465296778
0.3733298067826628
0.3733250575823309
0.4077035053024774
0.3749610669029446
0.37333017589335
0.3733250577337693
0.4077072227859382
0.3749596279394022
0.37333016980659
0.373325057731078
0.4077094390219729
0.3749570835077142
0.3733301525386142
0.3733250577229467
0.3733250560001907
0.3733250559727487
0.3733250559726812
0.3733250558163292
0.3733298665342753
0.3733298671084075
0.3733298671107779
0.3733298042573323
0.3750463132638597
0.3750486252085902
0.3750486302955566
0.3750860365608767
0.4088701134097062
0.4089290009888711
0.408929168509628
0.4105823349210015
0.3733250637397215
0.3733250584615405
0.3733250556402166
0.3733250556165152
0.3733281204941862
0.3733251305647701
0.3733250556147441
0.3733250556166124
0.3733769487646939
0.3733242698803204
0.3733250543503355
0.373325055733006
0.373439126585087
0.3733025678285192
0.3733249848477116
0.3733250595686808
0.3733250556165154
0.3733250556165152
0.3733250556165154
0.3733250556165152
0.3733250556165154
0.3733250556165152
0.3733250556165154
0.3733250556165154
0.373325055616699
0.3733250556164982
0.3733250556165154
0.3733250556165154
0.3733250556222771
0.3733250556160595
0.3733250556165154
0.3733250556165154
0.3733250556165152
0.3733250556165152
0.3733250556165153
0.373325055462251
0.3733250556165154
0.3733250556165154
0.3733250556165152
0.3733241207726449
0.3733250556165154
0.3733250556165154
0.3733250556165152
0.3730863955615579
0.3733250556165154
0.3733250556165154
0.3733250556165152
0.3690608733679028
0.3733250556209433
0.373325055621057
0.3733250556210588
0.373325055621094
0.3733257653653526
0.3733257971142262
0.3733257976352692
0.3733257976289137
0.3753415745447666
0.3753968507997604
0.3753968493681978
0.375396828313819
0.4705183617395521
0.470892706023452
0.4708060827872082
0.4708058432246587
0.373325055621094
0.3733250556210971
0.3733250556210671
0.3733250556210831
0.37332579762577
0.3733257976257036
0.3733257976257255
0.3733258001437665
0.3753968272666326
0.3753968272971254
0.3753968272971814
0.3753987856548448
0.4708059396624675
0.4708059399247038
0.4708059398666912
0.4708060182805269
0.3733250557203767
0.3733250557106348
0.3733250557125428
0.3733250168919972
0.373325957816052
0.3733258898546226
0.3733260463657475
0.3733005235135999
0.375225057916342
0.3751457379069571
0.3750723748980166
0.3747037783262798
0.4663414158178183
0.464472566704197
0.462361636200583
0.4761666527545901
0.3733861139240701
0.3733883299464711
0.3733881596422448
0.3733877220277431
0.3743593429659864
0.3744188045089762
0.3744165269518147
0.3744188661862206
0.3666000998161749
0.3668296387950854
0.3668337089647236
0.3668478444885153
0.2392844665128324
0.2343579871510698
0.2343067781543129
0.234202244201701
0.3734216694513712
0.3734225610999837
0.3734225694041425
0.3734316432954448
0.3750815781725074
0.3750966907447648
0.3750961679544466
0.3750974161583424
0.3662593657007986
0.3662574370229678
0.3662535258182797
0.3654802947087179
0.2263480506711867
0.2262432550094955
0.2262462239383404
0.2193066746268162
0.3733252340663866
0.3733250498214186
0.3733250552212815
0.373325012812308
0.3733595557203306
0.3733248663402811
0.3733250485787245
0.3733226115931786
0.3737065630456398
0.3733264738436644
0.3733248892236546
0.3733287320500355
0.3722848925456796
0.373307763178426
0.3733105822955471
0.3752395962897041
0.3733268270860493
0.3733268145062437
0.3733268062800537
0.3733268052507991
0.3734644642885319
0.3734653413583749
0.3734647378820872
0.3734673859156607
0.3725069961968292
0.3725864446160472
0.3725836326115961
0.3725907204128336
0.3086787068115552
0.3063594469024982
0.3060849262261962
0.3058021206875878
0.2994078245578093
0.2991044339239291
0.2990813947688564
0.2990812583287696
0.3726467028396139
0.3726536054430459
0.3726535108737538
0.372653508115065
0.3735646607944065
0.3735726610873634
0.3735727255891572
0.3735727256624477
0.3733277452290972
0.3733277987848009
0.3733277991541241
0.3733277991532953
0.2990812583287678
0.3726535081150593
0.3735727256624555
0.3733277991532939
0.299081394768908
0.3726535108736971
0.3735727255892374
0.3733277991541095
0.2991044339239267
0.3726536054430605
0.3735726610872952
0.3733277987847927
0.2994078245578001
0.3726467028396601
0.3735646607943873
0.3733277452290438
0.3733268052507692
0.3733268062800321
0.3733268145062189
0.3733268270859839
0.3734673859156074
0.3734647378820882
0.3734653413584617
0.3734644642884536
0.3725907204128356
0.372583632611617
0.3725864446160369
0.372506996196828
0.3058021206875771
0.3060849262261973
0.30635944690251
0.3086787068115554
0.3752395962897091
0.373310582295538
0.373307763178426
0.3722848925456713
0.3733287320500345
0.3733248892236559
0.3733264738436644
0.3737065630456418
0.3733226115931754
0.3733250485786435
0.3733248663402811
0.3733595557203223
0.3733250128123071
0.3733250552212798
0.3733250498214082
0.3733252340663858
0.3734316432954379
0.3734225694041088
0.3734225610999583
0.3734216694513327
0.3750974161583439
0.3750961679544523
0.3750966907448163
0.3750815781725437
0.3654802947087833
0.3662535258182734
0.3662574370229891
0.3662593657008141
0.2193066746267515
0.2262462239384302
0.2262432550094577
0.2263480506711733
0.373387722027645
0.3733881596422918
0.3733883299465293
0.3733861139241018
0.374418866186299
0.374416526951836
0.3744188045089814
0.3743593429659756
0.3668478444885203
0.3668337089647136
0.3668296387951361
0.3666000998161155
0.2342022442017077
0.2343067781542228
0.2343579871510401
0.2392844665128621
0.3733250168920073
0.3733250557125653
0.3733250557106083
0.3733250557203998
0.373300523513545
0.3733260463657777
0.3733258898546323
0.373325957816095
0.3747037783262075
0.3750723748980004
0.3751457379069832
0.3752250579163044
0.4761666527545575
0.4623616362005486
0.4644725667041482
0.4663414158177648
0.3733250556210743
0.3733250556211139
0.3733250556210911
0.3733250556211318
0.3733258001437466
0.3733257976257607
0.3733257976257799
0.3733257976257472
0.3753987856547827
0.3753968272972009
0.3753968272971343
0.3753968272665955
0.4708060182804155
0.4708059398666372
0.4708059399246777
0.4708059396624453
0.3733250556210503
0.3733250556210796
0.3733250556210668
0.3733250556209618
0.3733257976289029
0.3733257976353139
0.3733257971141472
0.3733257653654323
0.3753968283137979
0.3753968493682271
0.3753968507997666
0.3753415745447812
0.4708058432246413
0.4708060827872034
0.4708927060233924
0.4705183617395907
0.3733250554622507
0.3733250556165153
0.3733250556165152
0.3733250556165152
0.3733241207726449
0.3733250556165152
0.3733250556165154
0.3733250556165154
0.3730863955615579
0.3733250556165152
0.3733250556165154
0.3733250556165154
0.3690608733679003
0.3733250556165152
0.3733250556165154
0.3733250556165154
0.3733250556165152
0.3733250556165154
0.3733250556165152
0.3733250556165154
0.3733250556165154
0.3733250556165154
0.3733250556165152
0.3733250556165154
0.3733250556165154
0.3733250556165154
0.3733250556164982
0.3733250556166986
0.3733250556165154
0.3733250556165154
0.3733250556160584
0.3733250556222673
0.3733250556165152
0.3733250556402166
0.3733250584615375
0.373325063739718
0.3733250556166124
0.3733250556147441
0.3733251305647713
0.3733281204941851
0.373325055733006
0.3733250543503355
0.3733242698803204
0.3733769487646939
0.3733250595686819
0.3733249848477116
0.3733025678285192
0.373439126585087
0.3733250558163675
0.3733250559726792
0.3733250559727316
0.3733250560002376
0.373329804257262
0.3733298671107805
0.373329867108434
0.3733298665343375
0.3750860365608149
0.3750486302955401
0.3750486252085366
0.3750463132638837
0.4105823349209723
0.4089291685095731
0.4089290009887891
0.4088701134097001
0.3733250577229886
0.3733250577310661
0.3733250577337905
0.3733250575823812
0.3733301525385632
0.3733301698066509
0.3733301758933156
0.3733298067826576
0.3749570835077476
0.3749596279393556
0.3749610669029215
0.3748660465296439
0.4077094390219014
0.4077072227857611
0.4077035053023596
0.4062805224584473
0.3733250552045134
0.3733250556161996
0.3733250556165154
0.3733250556165154
0.3733250552128041
0.3733250556161715
0.3733250556165152
0.3733250556165156
0.3733250552155958
0.3733250556162176
0.3733250556165153
0.3733250556165151
0.3733250551816285
0.3733250556162316
0.3733250556165154
0.3733250556165154
0.3733250556165154
0.3733250556165154
0.373325055616014
0.373325054543363
0.3733250556165154
0.3733250556165154
0.3733250556159955
0.3733250545433546
0.3733250556165154
0.3733250556165154
0.3733250556159983
0.373325054543902
0.3733250556165153
0.3733250556165154
0.3733250556159734
0.3733250546043624
0.3733250556165154
0.3733250556165154
0.3733250556165154
0.373325055616515
0.3733250556165154
0.3733250556165153
0.3733250556165151
0.3733250556165152
0.37332505561627
0.3733250556161858
0.3733250556162111
0.3733250556161712
0.3733250551816014
0.373325055215523
0.3733250552128363
0.3733250552045249
)
;

boundaryField
{
    back
    {
        type            empty;
    }
    inlet
    {
        type            calculated;
        value           nonuniform List<scalar> 
16
(
0.3733250556165154
0.3733250556165154
0.3733250556165154
0.3733250556165154
0.3733250556165154
0.3733250556165155
0.3733250556165152
0.3733250556165154
0.3733250556165154
0.3733250556165154
0.3733250556165154
0.3733250556165151
0.3733250556165154
0.3733250556165152
0.3733250556165154
0.3733250556165154
)
;
    }
    front
    {
        type            empty;
    }
    top
    {
        type            calculated;
        value           nonuniform List<scalar> 
40
(
0.3733250556165154
0.3733250556165154
0.3733250556165152
0.3733250556165154
0.3733250556165154
0.3733250556165155
0.3733250556165154
0.3733250556165154
0.3733250556165152
0.3733250556165152
0.3733250556165154
0.3733250556165155
0.3733250556165154
0.3733250556165154
0.3733250556165154
0.3733250556165154
0.3733250556165152
0.3733250556165155
0.3733250556165154
0.3733250556165154
0.3733250556165154
0.3733250556165154
0.3733250556165154
0.3733250556165154
0.3733250556165153
0.3733250556165154
0.3733250556165154
0.3733250556165154
0.3733250556165151
0.3733250556165154
0.3733250556165154
0.3733250556165154
0.3733250556165154
0.3733250556165154
0.3733250556165154
0.3733250556165154
0.3733250556165151
0.3733250556165154
0.3733250556165154
0.3733250556165154
)
;
    }
    outlet
    {
        type            calculated;
        value           uniform 0.3733250556165154;
    }
    bottom
    {
        type            calculated;
        value           nonuniform List<scalar> 
40
(
0.3733250556165154
0.3733250556165154
0.3733250556165154
0.3733250556165151
0.3733250556165154
0.3733250556165154
0.3733250556165154
0.3733250556165154
0.3733250556165154
0.3733250556165154
0.3733250556165154
0.3733250556165154
0.3733250556165151
0.3733250556165155
0.3733250556165155
0.3733250556165154
0.3733250556165154
0.3733250556165154
0.3733250556165154
0.3733250556165154
0.3733250556165154
0.3733250556165154
0.3733250556165154
0.3733250556165154
0.3733250556165154
0.3733250556165154
0.3733250556165154
0.3733250556165154
0.3733250556165152
0.3733250556165154
0.3733250556165154
0.3733250556165154
0.3733250556165154
0.3733250556165153
0.3733250556165154
0.3733250556165154
0.3733250556165154
0.3733250556165154
0.3733250556165153
0.3733250556165154
)
;
    }
    wall
    {
        type            calculated;
        value           nonuniform List<scalar> 
104
(
0.4062805224585844
0.4077035053024774
0.4077072227859382
0.4077094390219729
0.4088701134097062
0.408929000988871
0.408929168509628
0.4105823349210015
0.373439126585087
0.3733025678285191
0.3733249848477116
0.3733250595686808
0.3733250556222771
0.3733250556160594
0.3733250556165154
0.3733250556165154
0.3733250556165154
0.3733250556165154
0.3733250556165152
0.3690608733679028
0.4705183617395521
0.470892706023452
0.4708060827872082
0.4708058432246587
0.4708059396624675
0.4708059399247038
0.4708059398666912
0.4708060182805269
0.4663414158178183
0.464472566704197
0.462361636200583
0.4761666527545901
0.2392844665128324
0.2343579871510698
0.2343067781543129
0.234202244201701
0.2263480506711867
0.2262432550094955
0.2262462239383404
0.2193066746268162
0.3722848925456796
0.373307763178426
0.3733105822955471
0.3752395962897041
0.3086787068115552
0.3063594469024982
0.3060849262261962
0.3058021206875878
0.2994078245578093
0.2991044339239291
0.2990813947688564
0.2990812583287696
0.2990812583287678
0.299081394768908
0.2991044339239267
0.2994078245578001
0.3058021206875771
0.3060849262261973
0.30635944690251
0.3086787068115554
0.3752395962897091
0.373310582295538
0.373307763178426
0.3722848925456713
0.2193066746267515
0.2262462239384302
0.2262432550094577
0.2263480506711733
0.2342022442017078
0.2343067781542228
0.2343579871510401
0.2392844665128621
0.4761666527545575
0.4623616362005486
0.4644725667041482
0.4663414158177648
0.4708060182804155
0.4708059398666372
0.4708059399246777
0.4708059396624453
0.4708058432246413
0.4708060827872034
0.4708927060233924
0.4705183617395907
0.3690608733679003
0.3733250556165152
0.3733250556165154
0.3733250556165154
0.3733250556165154
0.3733250556165154
0.3733250556160584
0.3733250556222673
0.3733250595686818
0.3733249848477116
0.3733025678285192
0.373439126585087
0.4105823349209723
0.4089291685095731
0.4089290009887891
0.4088701134097001
0.4077094390219014
0.4077072227857612
0.4077035053023596
0.4062805224584473
)
;
    }
}


// ************************************************************************* //
