/*--------------------------------*- C++ -*----------------------------------*\
  =========                 |
  \\      /  F ield         | OpenFOAM: The Open Source CFD Toolbox
   \\    /   O peration     | Website:  https://openfoam.org
    \\  /    A nd           | Version:  11
     \\/     M anipulation  |
\*---------------------------------------------------------------------------*/
FoamFile
{
    format      ascii;
    class       volScalarField;
    location    "0.35915";
    object      p;
}
// * * * * * * * * * * * * * * * * * * * * * * * * * * * * * * * * * * * * * //

dimensions      [0 2 -2 0 0 0 0];

internalField   nonuniform List<scalar> 
880
(
80.00000000000041
80.00000016341893
80.01343921882514
81.87944205284427
80.00000000017725
80.0000004801351
80.01667416439749
82.76273477843245
80.00000000090168
80.00000187362195
80.03086929142195
83.8211905307277
80.00000001202751
80.00000823009319
80.06376455808183
85.40588116108208
79.99999994467792
80.00000002747197
80.0000061058968
80.00009433683917
80.00003793998286
80.00014577198488
80.00091054955544
80.00134545000128
80.1445086726518
80.23444576131925
80.38529840815585
80.53743900208488
88.342477065145
91.39351115405569
93.99829306909412
95.23245300671078
80.0002334792194
80.00190145176703
80.00718184695022
80.02226316658877
80.01261663020532
80.05403550638678
80.10839704956419
80.22858507828485
81.27001246029779
81.90700179739576
82.7138729246422
83.76384575816259
96.38264609423824
97.94867424481359
98.27152285500996
97.50731512318366
90.98596263649527
87.50939976918195
85.83799762449692
84.7433457401122
85.69027840364608
86.3698305231639
86.77239602187176
86.80715142492447
80.63841518979206
81.12286340260469
81.63812159258715
82.02222651013587
80.07902610808185
80.19115604426287
80.3609380750212
80.59931253814771
80.87723309280142
81.15637935154051
81.43269090950606
81.63887057458166
82.31172203702346
82.47962010925728
82.56649154972911
82.5723031532964
86.44786065654901
85.94887783788525
85.29429613122875
84.61618605698112
83.58739685128586
82.89968631177378
82.50752666012512
82.08050266144379
82.08395701457677
84.14388773700293
82.51953896260392
81.76484995090358
87.73268411769209
83.86363111272577
82.36896373025743
81.74498501077402
120.5185807514768
85.25991453741723
82.18666903980308
81.49288322976436
158.3241237853764
93.04908551220061
82.66875345858843
81.40056573582113
81.37036104623614
83.39067502207725
102.7593798353541
175.068320438269
80.87077176497863
84.74724645816438
113.7161877207365
174.2747182556803
81.08300557881118
87.89318642726417
128.349077432325
176.139290245045
81.88813606704339
93.57073940797795
142.2491273184343
173.4196530241909
167.7165984849181
149.9390837155904
102.218225658296
83.66211572863583
160.7488323564641
151.1904224353059
111.8054193681925
86.83079018241895
153.3534405414976
148.9241893935128
120.1054098672206
91.92798720350331
145.6391003065385
138.913034989085
121.4447618566869
98.29223947366833
103.9295119244667
117.3603009503042
126.5712400944735
136.6073195619943
103.1208084155509
109.2098819388569
113.4311777088256
123.6631317865354
100.8229043419043
101.4809796578103
100.6850662752154
107.3261851869842
97.8352552417231
95.22185473374874
89.17878008585488
88.30849175662466
95.45933212985935
89.32625986266565
78.72825559937303
66.39745689844143
91.67891684362971
83.96005530608771
69.93815301969002
43.06554687525966
88.79965967454723
81.54222395124926
63.25092802613259
26.39331487070134
86.3519937722899
80.46197195353201
59.0065002319116
14.84352496545873
15.62619668757805
60.58330104205437
79.5869796423175
84.16936430606387
24.77931585105419
61.37507034646126
78.99516004777927
82.70224785246293
27.34598003492909
61.05440093499905
78.13766830392613
81.71119332780519
25.84416727104774
60.44816368956393
77.53167272104682
81.17308939811343
31.2723890241773
63.07390896738411
77.20370864234975
80.23857107927958
36.96214847201723
65.61384595712624
77.11771395376631
79.68628075656081
43.59772410440268
68.85330880727476
77.31598265895714
79.66625044820886
51.42150082986008
71.10023171721505
77.70084314217469
79.73957390534606
53.27147836203878
58.94450541220869
73.29576276783598
79.26233370717567
51.92455138476732
60.14888044642465
73.52031818140206
79.25405898346193
49.48381937163161
61.86638799716911
74.01970482670863
79.25583244379899
47.16871115995966
63.8250898540889
74.73582538618355
79.31412265610642
51.42150082986844
71.10023171710029
77.70084314222595
79.73957390502846
43.59772410442038
68.85330880697904
77.31598265886812
79.66625044780059
36.96214847203448
65.61384595687527
77.1177139533649
79.68628075605278
31.27238902423084
63.07390896717165
77.20370864222309
80.23857107895053
84.16936430619971
79.58697964238615
60.58330104209661
15.62619668731078
82.70224785243964
78.99516004776244
61.37507034647527
24.77931585080325
81.7111933278039
78.13766830398278
61.05440093456082
27.34598003482362
81.17308939800208
77.53167272122229
60.44816368940477
25.84416727106809
14.84352496545716
59.00650023176563
80.46197195344861
86.35199377239356
26.39331487061332
63.25092802612295
81.54222395143152
88.7996596745684
43.06554687520504
69.93815301988472
83.96005530616969
91.67891684384551
66.39745689848566
78.72825559926804
89.32625986246853
95.45933213005804
103.9295119247057
117.3603009509378
126.571240094932
136.6073195620113
103.1208084154395
109.209881938808
113.4311777090001
123.6631317867012
100.8229043414305
101.4809796577248
100.6850662752113
107.3261851870435
97.83525524165718
95.22185473362237
89.17878008579012
88.30849175670734
145.639100306578
138.9130349892513
121.4447618570595
98.29223947451109
153.3534405415336
148.9241893936987
120.105409867302
91.92798720356551
160.7488323565317
151.190422435363
111.8054193680694
86.83079018256601
167.7165984848135
149.9390837158244
102.2182256586426
83.66211572872866
81.37036104622689
83.39067502200979
102.7593798352338
175.068320438056
80.87077176549367
84.74724645844628
113.7161877207346
174.2747182554363
81.08300557954313
87.89318642793511
128.3490774324916
176.1392902448911
81.888136067198
93.57073940785943
142.2491273185813
173.4196530240936
81.40056573575863
81.49288322969772
81.74498501106653
81.76484995096125
82.66875345809679
82.18666903965675
82.36896373017485
82.51953896245753
93.04908551169851
85.2599145373908
83.86363111238194
84.14388773683878
158.3241237849647
120.5185807510992
87.7326841177198
82.08395701458296
81.63887057477783
82.57230315344647
84.61618605723984
82.0805026616633
81.43269090933059
82.56649154988162
85.29429613147127
82.50752666019045
81.15637935151334
82.47962010926132
85.94887783786065
82.89968631134863
80.87723309251479
82.31172203681651
86.44786065680859
83.58739685137772
80.07902610790848
80.63841518943407
85.69027840400462
90.98596263672965
80.19115604395752
81.12286340230233
86.36983052350257
87.50939976920644
80.36093807520484
81.6381215923642
86.77239602193447
85.83799762405232
80.59931253791142
82.02222650994025
86.80715142528535
84.7433457397495
97.50731512312244
83.76384575827572
80.22858507813412
80.02226316688582
98.27152285495308
82.71387292475933
80.10839704933184
80.0071818469047
97.94867424495466
81.90700179734328
80.05403550569153
80.00190145150087
96.38264609424952
81.2700124600897
80.01261662994973
80.00023347961714
95.23245300650157
80.53743900219324
80.00134545008461
80.00009433725414
93.99829306864507
80.38529840810055
80.00091054930002
80.00000610614724
91.39351115358735
80.23444576122826
80.00014577178047
80.00000002737052
88.34247706473941
80.14450867259522
80.00003793993967
79.99999994537093
80.00000000002807
80.0000001634958
80.01343921885635
81.87944205274792
80.00000000026191
80.00000047995046
80.01667416441713
82.76273477848994
80.00000000110964
80.00000187352582
80.03086929145461
83.82119053103405
80.00000001233948
80.0000082299413
80.06376455806863
85.40588116117324
83.52240081396286
85.09326019342222
87.6410848038164
92.78354634629845
85.09326019369929
87.14814417404175
90.99410900951786
98.68724829353383
87.6410848039593
90.99410900956138
97.30829178212782
106.8168864960883
92.78354634638896
98.68724829339894
106.8168864963558
117.1783582170297
127.9893941108669
119.0217374810651
115.0975872378703
106.8617299428077
126.2764262516644
123.6422913344057
123.60070130711
119.5265015734244
126.3173906271868
125.4917923463002
125.0479867284507
123.6371070916556
123.7351768536004
123.3280388433263
123.2411880860532
122.3904355496489
119.6745772957455
117.8549642531895
114.2510773334527
109.3404815503043
119.9407462034122
118.0386692020079
114.386134781215
109.8053436652056
120.2764575425374
118.2204829049301
114.3684031382814
110.2401097842671
120.4512875721924
118.1120530721893
114.5199778451993
108.5599857268775
82.83111853648778
71.90605920072578
70.60667982591673
70.98726027989741
75.82135881785128
69.03138266391689
69.65894189317862
70.38363739307403
69.99767675134204
68.89674521996149
70.23131768079699
70.93180938199144
60.7367194412878
66.59895678711891
69.23978571491138
70.20040273065071
70.93272489004633
71.29547371690177
72.11049757529662
73.05385547961895
70.47549136804018
70.85417888586865
71.73842146543809
72.93177689509035
70.90731549223528
71.13753547852626
71.87550402663997
72.80995170997043
70.29973758898464
70.62135656571955
71.55649836770274
72.84962454960555
78.66352473997826
114.0010075301727
165.0352667515243
181.4259949873866
81.34803723306447
121.4912719652607
162.5145544506324
173.286382373913
83.47699254987718
125.2674699044981
161.2879723904837
171.9856339249788
84.84352770564162
130.6840276850863
161.6383422672437
171.9580419495795
218.169458558916
209.3540771420635
201.8165756334239
190.5597196018034
219.3366270555768
212.1329422861906
203.96580623254
192.3989410201847
218.3321897466859
213.6636105548457
205.0625265527302
193.5161841556848
213.2133683129833
215.5882917108062
206.9816674812248
195.2510722922935
178.1759828224165
167.9182345145748
158.2849055374492
153.3860442787133
180.1795380501784
169.3183344958209
158.9788577098738
153.7591724770908
181.3267643857609
169.5275509999338
159.5295530106204
153.7256186639162
183.7319293683032
170.9397153754201
161.1869544206756
154.8252616016673
148.5660336072832
140.6557703263694
126.7747528171257
105.8852928721479
149.2585587177165
142.1784905046409
128.894432969293
114.3608932158846
149.2026205742488
142.6051978626517
130.6879223374066
119.6684096669297
150.3650453623224
144.9492349248492
134.0405673769735
134.5832908219749
64.62409696627256
16.55047229929662
2.691235948006486
1.282963571313404
49.95296586439019
10.39545377792574
2.242749461193205
1.464807528851535
34.73919330286976
6.572923784384383
1.964322433172813
1.621658906232578
19.55126915826191
3.061968272813808
1.727093551893813
1.814352223696773
1.928831346509638
4.158359166322955
6.788986329748551
10.67450951738063
2.73766403994974
5.09154968254833
7.803629421137184
11.94703850346938
3.201532249835142
5.476074426217384
8.64787299728153
12.6480863195838
3.755768561438143
6.20183832806103
10.09390961380042
13.79342017250251
12.51814291492698
18.94304115974797
26.03477175186796
34.74388098303482
12.13100463359781
17.88063456008725
24.72176399763378
33.23359352130124
12.4417194220121
16.35382620569581
22.87779157412036
32.2421752798249
11.69730521137133
14.46434305327688
19.06350012685893
30.28955331430393
35.03991676459322
33.21254604554825
32.55019784116485
33.17489086509658
31.86747861596255
31.7871464198521
32.24777604430009
32.35246544813902
31.01206816942132
32.65837100719023
32.9883226999601
33.02313208029891
29.23192719680391
31.45725094952587
31.77660519233238
32.50420892083286
32.92393134470099
33.23750148197379
33.49927449125335
33.62685532866598
32.97983805942116
32.93893070685903
32.84874315613462
32.95618219157713
32.92769114402503
33.39857482897798
33.83837722205705
34.09805836908981
34.74764186400331
35.79975088972686
36.54069401256412
36.5452637792637
33.62685532866799
32.95618219158283
34.09805836909092
36.54526377926781
33.49927449125272
32.84874315613371
33.83837722206959
36.54069401258853
33.23750148197478
32.93893070686203
33.3985748289989
35.79975088975442
32.92393134471687
32.97983805943733
32.92769114406057
34.74764186404391
33.17489086516409
32.55019784120157
33.21254604560856
35.03991676462234
32.35246544817252
32.24777604434821
31.78714641991995
31.86747861600479
33.02313208032345
32.98832270000335
32.65837100723822
31.01206816947859
32.50420892085789
31.77660519236109
31.45725094956524
29.23192719685457
30.28955331438979
19.06350012696757
14.46434305337787
11.69730521145714
32.24217527990267
22.87779157421804
16.35382620580269
12.44171942210646
33.23359352137909
24.72176399773494
17.88063456020082
12.13100463370278
34.74388098309731
26.0347717519784
18.94304115985429
12.51814291505303
10.67450951743536
6.788986329779156
4.158359166285728
1.928831346537145
11.94703850352657
7.803629421175738
5.091549682534864
2.737664039951214
12.64808631964868
8.647872997333168
5.476074426216565
3.201532249829897
13.79342017256466
10.09390961386152
6.201838328080266
3.755768561432735
1.282963571348439
2.691235947968413
16.55047229918821
64.62409696632518
1.464807528866389
2.242749461182894
10.3954537778879
49.95296586430914
1.621658906232043
1.964322433161155
6.572923784372275
34.73919330285955
1.814352223691692
1.72709355188178
3.061968272813681
19.55126915825015
105.885292872138
126.7747528170347
140.6557703262853
148.5660336071929
114.3608932158502
128.8944329692139
142.1784905045237
149.2585587176573
119.6684096668467
130.6879223372976
142.6051978625598
149.2026205741853
134.5832908219163
134.0405673768414
144.949234924766
150.3650453622934
153.3860442786955
158.2849055372434
167.9182345141509
178.1759828218877
153.7591724770228
158.9788577096464
169.318334495069
180.1795380495677
153.7256186639303
159.5295530103798
169.5275509992065
181.3267643852336
154.8252616016191
161.186954420495
170.9397153750815
183.7319293678136
190.5597196013618
201.8165756329915
209.3540771418193
218.1694585589297
192.3989410198178
203.9658062324349
212.1329422858766
219.336627055552
193.5161841555079
205.0625265525697
213.6636105544971
218.3321897466704
195.251072292133
206.9816674811561
215.5882917104549
213.2133683130026
181.4259949873872
165.0352667512647
114.001007530234
78.6635247402631
173.2863823738251
162.5145544504569
121.4912719652992
81.34803723336296
171.9856339248905
161.2879723903376
125.2674699044873
83.47699255019266
171.9580419494434
161.6383422671013
130.6840276850721
84.84352770596561
73.05385547984029
72.11049757514006
71.29547371638779
70.93272488980058
72.93177689534656
71.73842146523329
70.85417888534263
70.47549136781905
72.80995171024908
71.87550402636175
71.13753547801896
70.90731549201428
72.84962454988001
71.55649836747374
70.62135656519369
70.29973758875377
70.98726027945369
70.606679825572
71.90605920085358
82.8311185366249
70.38363739264581
69.65894189276328
69.03138266413583
75.82135881793859
70.93180938156384
70.23131768036615
68.89674522021633
69.99767675139204
70.20040273021677
69.23978571439612
66.59895678735826
60.73671944136724
109.3404815503133
114.251077333461
117.854964253495
119.6745772956216
109.8053436651357
114.3861347812919
118.0386692022855
119.9407462033013
110.2401097842014
114.3684031383931
118.220482905119
120.2764575423434
108.5599857267676
114.5199778452598
118.1120530723474
120.4512875720348
122.390435549009
123.6371070907368
119.5265015724711
106.8617299427504
123.2411880852959
125.0479867274103
123.6007013057067
115.0975872375028
123.3280388426832
125.4917923452495
123.6422913328013
119.0217374799631
123.7351768529111
126.3173906261617
126.2764262497742
127.9893941086934
54.10064449858251
71.27386047482268
77.56569178491578
79.7598371218172
50.83077439228826
69.897052292678
76.93773246014945
79.66652752222055
48.23263092272645
68.24159802561212
76.32402909570102
79.55050568006415
46.40302650559004
65.93759225138753
75.50731074915412
79.42176211452745
79.26233370706613
73.29576276779913
58.94450541222329
53.27147836206699
79.25405898334098
73.52031818142754
60.14888044646878
51.92455138480011
79.25583244378012
74.01970482675448
61.86638799715799
49.48381937168438
79.31412265611785
74.7358253861493
63.82508985404904
47.16871115999468
79.42176211440574
79.55050567989962
79.66652752219291
79.75983712155997
75.50731074896085
76.32402909558775
76.93773245994517
77.56569178489686
65.93759225137977
68.24159802563251
69.89705229280744
71.27386047493964
46.40302650557383
48.23263092267816
50.83077439228163
54.10064449860105
)
;

boundaryField
{
    back
    {
        type            empty;
    }
    inlet
    {
        type            zeroGradient;
    }
    front
    {
        type            empty;
    }
    top
    {
        type            zeroGradient;
    }
    outlet
    {
        type            fixedValue;
        value           uniform 80;
    }
    bottom
    {
        type            zeroGradient;
    }
    wall
    {
        type            zeroGradient;
    }
}


// ************************************************************************* //
