/*--------------------------------*- C++ -*----------------------------------*\
  =========                 |
  \\      /  F ield         | OpenFOAM: The Open Source CFD Toolbox
   \\    /   O peration     | Website:  https://openfoam.org
    \\  /    A nd           | Version:  11
     \\/     M anipulation  |
\*---------------------------------------------------------------------------*/
FoamFile
{
    format      ascii;
    class       volVectorField;
    location    "0.35915";
    object      U;
}
// * * * * * * * * * * * * * * * * * * * * * * * * * * * * * * * * * * * * * //

dimensions      [0 1 -1 0 0 0 0];

internalField   nonuniform List<vector> 
880
(
(24.99999999999999 -2.79226161829778e-12 0)
(24.99999998209011 -1.213209701179713e-08 0)
(24.99829240694791 -0.0005555469265752411 0)
(24.7175323436778 0.007616191842039149 0)
(24.99999999998872 -2.820458207755425e-11 0)
(24.99999994461776 -7.022974368177225e-08 0)
(24.99748239818639 -0.001720681924859091 0)
(24.63289729930803 -0.1593245111594988 0)
(24.99999999963697 -2.430284910572695e-10 0)
(24.99999976164177 -2.866097700889923e-07 0)
(24.9951499125067 -0.003581873124236606 0)
(24.51385264760215 -0.2644742337932666 0)
(24.99999999829957 1.049725463422988e-09 0)
(24.99999882072936 -1.165925494406778e-06 0)
(24.98909380052445 -0.00701230159634924 0)
(24.13755364785591 -0.4137227709240874 0)
(25.00000001119027 -4.11985128783721e-09 0)
(24.9999999800533 8.828637565275469e-09 0)
(24.9999995328871 -9.281961169090002e-07 0)
(24.99999314434593 -1.182525267276322e-05 0)
(24.99999377794129 -4.442270854156062e-06 0)
(24.99996306219591 -1.866239048694424e-05 0)
(24.99985596292912 1.078737599574536e-05 0)
(25.00017475490146 -0.001107022065665761 0)
(24.97172758851774 -0.0101936223356404 0)
(24.95166815438391 -0.006354510169256112 0)
(24.92418617761209 0.0107360291618534 0)
(24.91413499672026 -0.06681103518795582 0)
(23.40300290772188 -0.0954650255935876 0)
(22.6905830935772 0.6347676766584803 0)
(22.26903525939693 1.334900047372676 0)
(22.24476991580892 1.746091976236845 0)
(24.99988409006788 -6.241900802195205e-06 0)
(24.99960705398549 -0.0003639262010684782 0)
(24.99925486344673 -0.001527437200236452 0)
(24.99747837237362 -0.004518906387049212 0)
(24.99802029437901 -0.0006924975882750268 0)
(24.99020397926821 -0.0003516870214910011 0)
(24.97716685145152 0.005492703884103997 0)
(24.95445261438723 0.008909672188699409 0)
(24.75595280940871 -0.01079129671569784 0)
(24.63031443089293 0.09837651425141429 0)
(24.46184357434137 0.2784691527190235 0)
(24.3185927041566 0.4061649155245023 0)
(21.98212969514 2.34054924771567 0)
(21.9877762796257 2.779546474257171 0)
(21.88555648968431 3.317160139230798 0)
(22.33963549580922 3.758088092723555 0)
(23.38598888955023 4.322817562609537 0)
(24.11441931783718 4.172696701858766 0)
(24.45829426093315 3.765927917976899 0)
(24.81745498274058 3.31635950985455 0)
(24.07913689000349 0.7462759972867631 0)
(24.09410183697203 1.104317629593717 0)
(24.19642974351729 1.349312396447698 0)
(24.38237252004341 1.475441495056262 0)
(24.87571665833466 0.03528270746066223 0)
(24.77204398973458 0.1154666873794557 0)
(24.67971618649993 0.2411978605766885 0)
(24.63441061067817 0.3944406506143184 0)
(24.98788426295686 -0.01054794538324663 0)
(24.97238519139959 -0.02424607608441816 0)
(24.95028510004203 -0.04402599088942959 0)
(24.92411217206236 -0.07053873805323232 0)
(24.9015751988186 -0.100987270871944 0)
(24.8878122129905 -0.1310843186354957 0)
(24.8829541981897 -0.144446677819602 0)
(24.88842532165934 -0.1378804446563866 0)
(24.63284309866329 0.5573255632254401 0)
(24.6746707562977 0.7118275935956228 0)
(24.76114625458391 0.8379472010895129 0)
(24.87689789474743 0.8922326282345153 0)
(24.549780663625 1.6085803779038 0)
(24.75281426517386 1.654680599154447 0)
(24.94070840905109 1.626896435340934 0)
(25.09338446264172 1.5551359273004 0)
(24.99114812281734 2.905552948140747 0)
(25.17885535083981 2.489391159161528 0)
(25.29113946334034 2.094179061304252 0)
(25.36360423069451 1.777924348186901 0)
(25.42850566205085 1.377176038888557 0)
(25.24451313683891 1.453350370022017 0)
(24.99934095297117 0.9123561036321637 0)
(24.8961334116974 -0.1211275907498118 0)
(24.55025646319474 1.55891280991588 0)
(25.34351898387691 1.288872281901543 0)
(25.14356258225208 0.8613493996809441 0)
(24.90336473251537 -0.09610000765711192 0)
(19.16049574397875 1.728598509843767 0)
(25.15972206783846 1.296629372428319 0)
(25.25821667550875 0.7513604612384981 0)
(24.91622837312926 -0.08045927093644334 0)
(14.13020232388237 2.095382615589397 0)
(23.70410039513598 1.62789945071416 0)
(25.27726071324259 0.7742400288391662 0)
(24.94906654146485 -0.09178885756934439 0)
(24.95435252356271 -0.06665507547002142 0)
(25.21745603657371 0.7176238096242238 0)
(22.05365769984008 2.268171239462522 0)
(12.49176467397336 3.859529912601186 0)
(24.83149658769624 -0.08871755036365241 0)
(24.99489786157384 0.8073990131920534 0)
(20.60878508047011 3.313024125671652 0)
(12.80008150933467 5.640062523743142 0)
(24.78976148976732 -0.115708220232949 0)
(24.47523329106986 1.155595706538329 0)
(18.82834775553012 4.647621159055871 0)
(12.64882820466372 7.078589620576989 0)
(24.69875175770069 -0.1633208502315406 0)
(23.60093908273623 1.926744540908639 0)
(17.5905138941932 6.056777891208095 0)
(13.13614348923457 8.144593427540304 0)
(14.04749895292609 8.856421506407065 0)
(16.96900515911244 7.292882877481456 0)
(22.43217588581043 3.153859140643355 0)
(24.51904079891362 -0.1865014539057927 0)
(15.1355141842725 9.394020958660077 0)
(17.24167805571926 8.218595497592563 0)
(21.21978032989753 4.638906209477583 0)
(24.19955452967001 -0.07175527298064953 0)
(16.37633179628307 9.68500926163018 0)
(18.11055628586643 8.754329296944752 0)
(20.70930544835906 5.993216255335683 0)
(23.69557445434215 0.2354488234039795 0)
(17.54785854664194 9.757333675056536 0)
(19.39670293021459 8.854575738422531 0)
(20.87647809088991 7.034024995245259 0)
(23.19812031434848 0.7214271976894415 0)
(22.91234695635061 0.8497273894573688 0)
(22.04964564921029 7.090397409020386 0)
(21.12042428034062 8.806987015767056 0)
(18.9635782914886 9.898025491051241 0)
(23.45708392071701 0.6453146001958358 0)
(23.50860565566708 6.647784420547982 0)
(23.10757388696151 8.415433487744094 0)
(20.90678014318412 9.810473362327359 0)
(24.04035602998417 0.343204610940223 0)
(24.9316830533775 5.874805918249304 0)
(25.19358820977838 7.62026639641996 0)
(23.44704322018414 9.238099983787402 0)
(24.51862142275732 -0.2499842992547601 0)
(26.06292717218654 4.606766811909681 0)
(27.16631729178595 6.226645889394116 0)
(26.40028908727598 7.616038059273643 0)
(24.88388090243657 -0.307745345135528 0)
(26.92860980378768 3.628152227919105 0)
(29.04910233400088 4.804339026737624 0)
(30.68292751770878 4.758569194458161 0)
(25.29994242323913 -0.4988679163707356 0)
(27.49689455446892 2.601752569866904 0)
(30.10952918506009 3.39051343391255 0)
(34.00174278768875 0.7040104207344746 0)
(25.54268773780002 -0.5422923577575165 0)
(27.548908063285 1.647372402060818 0)
(30.83288590594207 1.256020658727481 0)
(36.3484175930549 -4.256131740738048 0)
(25.6530528524437 -0.5433967065096119 0)
(27.22335494517363 1.022909546091761 0)
(30.30975021118536 -0.3103340083460186 0)
(37.76404304274397 -9.244011734356425 0)
(34.02233018402741 -7.322024172173579 0)
(29.12895543130031 -1.416488707986992 0)
(26.94139122816945 0.3556690217524087 0)
(25.69301921809303 -0.546382591384362 0)
(25.62684953021911 -3.213848178562014 0)
(28.24552191664141 -1.936210730507385 0)
(26.64718388916016 -0.09996612076377659 0)
(25.62837696101191 -0.4715840300412626 0)
(23.08662714863776 -3.613304577315058 0)
(27.74906627149773 -2.841415397396026 0)
(26.39257381042548 -0.5592007290773264 0)
(25.5056279671374 -0.3587623934575188 0)
(19.9004127981873 -3.659043800326324 0)
(26.97691398889981 -3.450085569955196 0)
(26.04840852025232 -0.9530034027906016 0)
(25.38917075090437 -0.2746444583014426 0)
(18.08235783261352 -4.761536280074438 0)
(25.72268380680134 -4.39114932185932 0)
(25.48519320343211 -1.289255959366411 0)
(25.17980789343039 -0.2152876143429275 0)
(15.43134321837609 -6.816513383495144 0)
(24.08542059807988 -4.634282681653997 0)
(24.89612447792335 -1.124939856368204 0)
(25.00114793233525 -0.1077337034122633 0)
(14.37803325189433 -6.979141670834372 0)
(23.02472717044721 -4.047560174897589 0)
(24.65191155822319 -0.7352030623198385 0)
(24.97082515086881 -0.04905285378460559 0)
(14.33760239793321 -5.861868157221845 0)
(22.80061250940549 -3.598925063367582 0)
(24.67314781801198 -0.6008781340917844 0)
(24.97611429620238 -0.03602146772725595 0)
(14.22439949792058 -0.6638444938577751 0)
(20.34497939156782 -0.1128235900491877 0)
(23.64967521558506 0.0106211739874151 0)
(24.8558698736615 0.001980079677153348 0)
(14.20658746553252 -1.757333173952293 0)
(20.34151516447337 -0.5365546857550885 0)
(23.66451665470666 0.0008169014470059073 0)
(24.85280561484569 0.00436640604035906 0)
(14.42107686112177 -3.258052483280791 0)
(20.34945337388205 -0.9862344145010348 0)
(23.70368016868783 -0.07140598947123414 0)
(24.85203756295618 0.0002625129086787562 0)
(14.47331286354438 -4.649486773498407 0)
(20.55798163324262 -1.350508337132856 0)
(23.80322176598093 -0.1942659248032561 0)
(24.86038649977511 -0.01135081135423067 0)
(14.33760239794951 5.861868157202252 0)
(22.80061250944169 3.598925063361716 0)
(24.67314781810144 0.6008781340441068 0)
(24.97611429630988 0.0360214677078839 0)
(14.37803325193881 6.979141670816254 0)
(23.02472717051479 4.04756017494744 0)
(24.65191155825983 0.7352030623038499 0)
(24.97082515091232 0.04905285383066758 0)
(15.43134321842565 6.816513383517268 0)
(24.08542059813465 4.634282681699277 0)
(24.89612447791336 1.124939856412448 0)
(25.00114793238103 0.1077337034626844 0)
(18.08235783263651 4.761536280075982 0)
(25.72268380686732 4.391149321922617 0)
(25.48519320344968 1.289255959400837 0)
(25.17980789344892 0.2152876143911262 0)
(25.69301921807458 0.5463825913261938 0)
(26.94139122819517 -0.3556690217868734 0)
(29.1289554312852 1.4164887079773 0)
(34.02233018394554 7.322024172298583 0)
(25.62837696100035 0.4715840299896091 0)
(26.64718388916582 0.09996612075655324 0)
(28.24552191664631 1.936210730509527 0)
(25.6268495302576 3.213848178662384 0)
(25.50562796709998 0.3587623934115679 0)
(26.39257381041492 0.5592007291036345 0)
(27.7490662715859 2.841415397528852 0)
(23.08662714861149 3.613304577365274 0)
(25.3891707508715 0.2746444582814213 0)
(26.04840852020702 0.9530034027631749 0)
(26.9769139889401 3.450085570035252 0)
(19.90041279821346 3.659043800347009 0)
(37.76404304290192 9.244011734528431 0)
(30.30975021121768 0.3103340083409974 0)
(27.22335494523792 -1.022909546100828 0)
(25.65305285243275 0.5433967064622013 0)
(36.34841759304258 4.256131740784802 0)
(30.83288590598181 -1.256020658686245 0)
(27.54890806330574 -1.647372402066235 0)
(25.5426877377718 0.5422923577693118 0)
(34.00174278767566 -0.7040104206922987 0)
(30.10952918503748 -3.390513433897455 0)
(27.49689455449718 -2.601752569843673 0)
(25.29994242313249 0.4988679164397861 0)
(30.68292751769674 -4.758569194443072 0)
(29.04910233402077 -4.804339026704409 0)
(26.92860980383544 -3.628152227883661 0)
(24.88388090232161 0.3077453452235179 0)
(22.91234695629246 -0.8497273894392439 0)
(22.04964564915017 -7.090397409024311 0)
(21.12042428030533 -8.806987015773387 0)
(18.96357829149535 -9.898025491044722 0)
(23.45708392070018 -0.6453146001513813 0)
(23.50860565564975 -6.647784420536746 0)
(23.10757388692873 -8.415433487732036 0)
(20.90678014317449 -9.810473362316886 0)
(24.04035603005177 -0.3432046109205159 0)
(24.93168305340281 -5.874805918258128 0)
(25.19358820974565 -7.620266396395095 0)
(23.44704322017911 -9.238099983773825 0)
(24.51862142271532 0.2499842993245147 0)
(26.06292717222808 -4.606766811882236 0)
(27.16631729177277 -6.226645889355816 0)
(26.40028908726446 -7.616038059266112 0)
(17.54785854665219 -9.757333675056513 0)
(19.39670293021223 -8.854575738431837 0)
(20.87647809084798 -7.034024995241962 0)
(23.19812031420201 -0.7214271977052973 0)
(16.37633179629643 -9.685009261637104 0)
(18.1105562858761 -8.754329296945315 0)
(20.70930544835499 -5.993216255347809 0)
(23.69557445431648 -0.2354488234008166 0)
(15.13551418427917 -9.394020958670728 0)
(17.24167805574356 -8.218595497579258 0)
(21.21978032989248 -4.63890620944652 0)
(24.19955452962016 0.07175527298778295 0)
(14.04749895294154 -8.856421506398934 0)
(16.96900515912529 -7.292882877453673 0)
(22.43217588572796 -3.153859140610008 0)
(24.51904079887401 0.186501453907181 0)
(24.95435252356582 0.06665507549263273 0)
(25.21745603659898 -0.7176238095985619 0)
(22.05365769987655 -2.268171239477382 0)
(12.49176467400626 -3.859529912604545 0)
(24.83149658758731 0.08871755036185525 0)
(24.99489786152887 -0.8073990131470365 0)
(20.60878508049208 -3.313024125671534 0)
(12.80008150935919 -5.640062523758991 0)
(24.78976148960456 0.1157082202262806 0)
(24.47523329095819 -1.155595706475024 0)
(18.8283477555302 -4.647621159020039 0)
(12.64882820468757 -7.078589620580363 0)
(24.69875175764027 0.1633208502346546 0)
(23.60093908277925 -1.926744540834269 0)
(17.59051389424594 -6.056777891179922 0)
(13.13614348923865 -8.14459342753899 0)
(24.9490665414616 0.09178885758325027 0)
(24.91622837314139 0.08045927094901031 0)
(24.9033647324595 0.09610000768685661 0)
(24.89613341168976 0.1211275907461915 0)
(25.27726071334527 -0.7742400288414003 0)
(25.25821667554655 -0.7513604612285866 0)
(25.14356258224951 -0.8613493996705974 0)
(24.99934095297422 -0.9123561036488089 0)
(23.70410039523667 -1.627899450733669 0)
(25.15972206786118 -1.296629372433103 0)
(25.34351898394488 -1.288872281915119 0)
(25.24451313687734 -1.453350370015533 0)
(14.13020232392964 -2.095382615590324 0)
(19.1604957440453 -1.72859850983942 0)
(24.55025646319157 -1.558912809891718 0)
(25.428505662043 -1.377176038862997 0)
(24.88842532162925 0.1378804446636875 0)
(24.87689789469179 -0.8922326282138615 0)
(25.09338446260885 -1.555135927273828 0)
(25.3636042306856 -1.777924348133766 0)
(24.88295419822513 0.1444466778002341 0)
(24.76114625453272 -0.8379472010818603 0)
(24.94070840904054 -1.626896435317184 0)
(25.29113946334962 -2.094179061261584 0)
(24.88781221298741 0.1310843186262614 0)
(24.67467075629885 -0.7118275935437701 0)
(24.75281426523552 -1.654680599167174 0)
(25.17885535091038 -2.489391159163351 0)
(24.9015751988771 0.1009872707911161 0)
(24.63284309867624 -0.5573255632035 0)
(24.54978066361451 -1.608580377898972 0)
(24.99114812282912 -2.905552948131679 0)
(24.98788426296278 0.01054794529816103 0)
(24.8757166584552 -0.03528270736684556 0)
(24.07913688996253 -0.7462759972775712 0)
(23.38598888951675 -4.322817562581623 0)
(24.97238519145209 0.02424607596852429 0)
(24.77204398980094 -0.1154666873080212 0)
(24.09410183696693 -1.104317629557993 0)
(24.11441931783741 -4.172696701857337 0)
(24.950285099989 0.0440259908625909 0)
(24.67971618655038 -0.2411978605050627 0)
(24.19642974356595 -1.34931239644876 0)
(24.45829426101516 -3.765927918021252 0)
(24.9241121721056 0.07053873798522649 0)
(24.63441061072105 -0.3944406505612539 0)
(24.38237252005268 -1.475441495018033 0)
(24.81745498280765 -3.316359509882041 0)
(22.3396354958254 -3.758088092709768 0)
(24.31859270415348 -0.406164915527771 0)
(24.95445261447415 -0.008909672093847262 0)
(24.99747837232678 0.004518906373733922 0)
(21.88555648971591 -3.317160139215184 0)
(24.46184357432527 -0.2784691527230785 0)
(24.97716685152429 -0.005492703846190218 0)
(24.999254863486 0.001527437169213499 0)
(21.98777627962975 -2.779546474242788 0)
(24.6303144309202 -0.09837651425722085 0)
(24.99020397941329 0.0003516870284587652 0)
(24.99960705402536 0.0003639260794086148 0)
(21.98212969514463 -2.34054924769891 0)
(24.75595280946543 0.01079129670820233 0)
(24.99802029445942 0.0006924976034355029 0)
(24.99988409002187 6.241915063345768e-06 0)
(22.24476991579635 -1.746091976223331 0)
(24.91413499672508 0.06681103519253731 0)
(25.00017475491404 0.00110702208495207 0)
(24.99999314432475 1.182529591453272e-05 0)
(22.26903525934605 -1.334900047359665 0)
(24.9241861776358 -0.01073602916503919 0)
(24.99985596299719 -1.078737683843292e-05 0)
(24.99999953285424 9.282054025816372e-07 0)
(22.69058309344024 -0.6347676766676961 0)
(24.95166815442254 0.006354510160357718 0)
(24.9999630622576 1.866238126936854e-05 0)
(24.9999999800669 -8.873945973504928e-09 0)
(23.40300290751766 0.09546502554698044 0)
(24.97172758855866 0.0101936223303647 0)
(24.99999377798935 4.442283909267777e-06 0)
(25.00000001114297 4.12292259748154e-09 0)
(25.00000000000002 5.928341521198106e-12 0)
(24.9999999820844 1.211538701953581e-08 0)
(24.99829240693673 0.0005555469086675749 0)
(24.71753234364364 -0.007616191684995895 0)
(24.99999999997173 4.171862832195846e-11 0)
(24.99999994466525 7.020626368412174e-08 0)
(24.9974823981874 0.001720681902487697 0)
(24.63289729906249 0.1593245112292228 0)
(24.99999999962681 2.557310668292925e-10 0)
(24.99999976168903 2.866134604887233e-07 0)
(24.99514991251609 0.003581873110863974 0)
(24.51385264725112 0.2644742337235002 0)
(24.99999999828476 -1.023849954643206e-09 0)
(24.9999988207956 1.165938131020278e-06 0)
(24.98909380054743 0.00701230158607042 0)
(24.13755364759697 0.4137227708691701 0)
(24.52555640543644 1.101852866126845e-10 0)
(24.36014209474449 0.1495472824032874 0)
(23.97450425390088 0.173641836518251 0)
(23.03912676525718 0.01877182484410634 0)
(24.36014209496205 -0.1495472821859284 0)
(24.08887332291823 4.094551985696018e-11 0)
(23.41012246009612 -0.06029991616334129 0)
(21.96132724201083 -0.4863257330725627 0)
(23.97450425434779 -0.1736418364256313 0)
(23.4101224604238 0.06029991623902306 0)
(22.12925400873366 6.324325997250394e-11 0)
(20.03162988760772 -0.581960914163829 0)
(23.03912676568016 -0.0187718248653079 0)
(21.96132724250822 0.4863257330127471 0)
(20.03162988793432 0.5819609141178783 0)
(17.78978950866563 -2.406051481096664e-10 0)
(17.25929849367021 2.521640206279463 0)
(17.89990240598323 2.917433742886331 0)
(19.5440153583719 2.655874205763064 0)
(21.0875489912957 1.887750693329599 0)
(18.24541944741307 4.246867280823523 0)
(18.30864221038778 4.203101812692462 0)
(19.04119209826232 4.114888226126573 0)
(20.07454419022971 3.952602848971864 0)
(17.68442966692002 5.193370421495563 0)
(18.85103884223144 4.491138074499182 0)
(19.52843075316191 4.691943186641885 0)
(20.05289321370705 4.563781617975898 0)
(18.33584288310123 5.754393221096296 0)
(19.70600157814379 4.71731224801974 0)
(20.20617856565511 4.891343960273075 0)
(20.49118576309072 4.805674086655461 0)
(20.79142731735287 4.932795627536836 0)
(21.02962472029272 5.061767067619979 0)
(21.40466771887561 5.120666521021707 0)
(22.16103715695753 5.280396654820604 0)
(20.72942612352062 4.994348546643114 0)
(21.03901223644396 5.101647572245139 0)
(21.53864397072606 5.117502234410736 0)
(22.65147737991366 5.500731383868468 0)
(20.4732592078211 4.931357724683397 0)
(20.97373538594728 5.106015358846378 0)
(21.55564968546972 5.158296133254822 0)
(24.1015504537815 5.943045475286584 0)
(18.97671575055141 5.851242090021095 0)
(19.5997097494161 5.876148057761212 0)
(20.50341745314574 5.7349711972774 0)
(25.83131942833939 7.125967172231771 0)
(25.81549412327881 3.187579961257411 0)
(26.40957410917167 0.8090160756705702 0)
(25.72197752490057 0.4870330080990117 0)
(25.59516108739864 0.3820502264435801 0)
(28.37629861576372 2.19876628982503 0)
(28.69589809316124 0.339725587276182 0)
(27.56797547012727 0.2832443340098032 0)
(26.89270631002328 0.3137692402614639 0)
(31.5492561609455 1.904680605991132 0)
(30.14983748144189 0.04575441194510056 0)
(28.75755937657002 0.0514446053699381 0)
(27.77928735584909 0.09387820477624874 0)
(25.07993000638653 1.988041283872913 0)
(24.21733966130683 0.651941705163783 0)
(24.0722665551536 0.08984447573093141 0)
(24.1597208317666 -0.2164320275352083 0)
(25.66516473430246 0.3867900518281787 0)
(25.71314056445126 0.3198569586938211 0)
(25.70073835886006 0.2053009318239568 0)
(25.65320458368535 0.1718224829500819 0)
(26.53683553534889 0.3417768660393589 0)
(26.22419787782177 0.2915435371277426 0)
(25.94632012858352 0.1917135146357686 0)
(25.72100385687731 0.1307609015651525 0)
(27.14997470732027 0.1478496575286965 0)
(26.5917676843151 0.1471976681706483 0)
(26.09845681317922 0.09840349181247621 0)
(25.66558038368041 0.08521508982110614 0)
(24.13080330184498 -0.4622264811691464 0)
(23.90286435442194 -0.6206952101308065 0)
(23.70186828341181 -0.715414735759209 0)
(23.36943200422071 -0.6661422936998105 0)
(25.20714327492977 0.7698380253181196 0)
(20.09896395472724 5.095688397118993 0)
(13.72476961907024 3.92684812306226 0)
(9.347315181523214 1.060168934647553 0)
(24.6304497274416 1.252803131629487 0)
(16.08106125274719 4.949977020426072 0)
(8.868803888464736 2.743455645654708 0)
(4.472952936115366 -0.1759318890669355 0)
(23.44048964382778 1.292943594394473 0)
(11.70341191110281 3.633854913235266 0)
(3.144855552321507 2.031379038440075 0)
(-0.7678453959497173 0.2417635964503035 0)
(19.42099500762948 -0.7279352140905819 0)
(7.311153199118762 -0.7969065018034879 0)
(0.2367245072646533 0.5420906214702346 0)
(-2.594880110102472 0.1747417970629718 0)
(8.570446392548547 2.694370726787252 0)
(10.5849391500183 4.559337501632846 0)
(11.49675450857496 6.279697163225189 0)
(12.44889436549681 7.625439684646537 0)
(6.138426112729142 1.994513126037391 0)
(9.511945768218968 4.411293069865856 0)
(11.20066439644155 6.225547058790261 0)
(12.40354655044914 7.672156720738548 0)
(2.935105498209879 0.01275431113618927 0)
(7.443954904739661 3.33279452149668 0)
(10.26741612010756 6.036371199287858 0)
(12.02064996013073 7.597045895640538 0)
(0.2400679885483613 -0.1054093886288859 0)
(3.471719514631309 2.476790051428214 0)
(7.539271329758138 3.977436974526611 0)
(10.63430596257455 5.464659001322755 0)
(13.63826295123628 8.985523048631862 0)
(14.77041770183436 10.00750046820426 0)
(15.91911702474787 10.56603638690687 0)
(16.81364772811893 10.85613198612533 0)
(13.55776334151335 8.920554166485223 0)
(14.71262489430988 9.955044907633589 0)
(15.8237417692674 10.54192579656132 0)
(16.69667530642622 10.88173641601685 0)
(13.23596340375267 8.76393234274428 0)
(14.51725987282992 9.776051538383149 0)
(15.74233821453765 10.47518225475704 0)
(16.62360228760048 10.96247457862091 0)
(13.11637948590795 6.748438976034748 0)
(14.66972635071295 8.451640997761851 0)
(15.76645952922927 10.30284041089108 0)
(16.64632289346713 10.93962662451502 0)
(17.8282570225659 11.2758992949913 0)
(19.42366813162246 11.77005406672934 0)
(21.77480976286578 11.69271870080056 0)
(24.77774280673662 10.42036981722728 0)
(17.62327005168604 11.28017060737105 0)
(19.07527522573805 11.7302195221543 0)
(21.21147177209461 11.7494151111891 0)
(24.97557275244547 12.47295883662906 0)
(17.4743821342888 11.36937141878673 0)
(18.72342253603049 11.78383386414384 0)
(21.34566703643618 12.58554212670108 0)
(31.48464754886601 18.45832323124351 0)
(17.43813168737488 11.39365043826156 0)
(18.64053820399055 11.79257873966629 0)
(22.06819426908658 13.17496063775683 0)
(43.24322124639848 25.51521015353291 0)
(30.59337028234345 5.260513991998582 0)
(32.03673685122396 -3.582221953675323 0)
(12.65410972810115 8.696508717675222 0)
(7.864005886434918 30.83683257495914 0)
(32.23076944293335 4.899766552943744 0)
(26.46509427792038 -1.951392399986142 0)
(8.977981702405826 17.41745992288933 0)
(8.451990609058413 29.02282376815518 0)
(31.97358279086796 3.292349101027572 0)
(17.20667452272739 -4.301073239267402 0)
(3.830460736824544 21.32704341043523 0)
(4.610468534305883 29.02170727284533 0)
(20.30816660765059 -8.299249683279781 0)
(7.326880849991767 -0.5710289615849097 0)
(2.089634979613502 24.81403255790411 0)
(2.64761857143682 28.72953075417654 0)
(7.032167032465863 24.61463791515386 0)
(2.692953392401026 17.68477952019882 0)
(-0.7757605127043581 14.86680540101022 0)
(-2.834523741284728 9.93642634008547 0)
(6.709591467822284 23.57116568954527 0)
(1.909009566675871 19.24137439289743 0)
(-0.4601697138800054 14.97802023336667 0)
(-1.254860020288085 7.68534179541982 0)
(3.276230002944461 22.61204230758312 0)
(1.427944482500924 18.10421625590012 0)
(-0.3177854541145544 12.35600161904768 0)
(-0.8159072386558159 4.899289275758902 0)
(0.7855572127185376 22.03565631825556 0)
(-0.4551397814793429 17.36476538460179 0)
(-1.909215791829395 10.96603630162601 0)
(-1.738315442860438 3.284475660816421 0)
(-6.070518207559246 3.287831006607813 0)
(-2.011296085674525 0.2581874100147815 0)
(2.434004719409824 -2.424128965183643 0)
(4.460394055030673 -6.633678974446489 0)
(-6.807975473064023 3.048659827685335 0)
(-5.949664621236795 0.3446310823236246 0)
(-1.260424181280354 -0.8012880446519767 0)
(2.683146269299387 -5.57855677129595 0)
(-6.208759590187083 2.124966442013771 0)
(-7.80071764050822 0.6661233291699176 0)
(-4.510702075954161 0.3026751821278338 0)
(0.03964908042337385 -4.087863585487968 0)
(-4.583294946911444 2.183169487318511 0)
(-7.132638751142449 2.664679922035485 0)
(-5.221434087421781 3.071709718459147 0)
(-0.6388308958820903 -1.052892045423325 0)
(2.364379037807844 -6.935181727715666 0)
(2.296189184736305 -7.541308142144879 0)
(3.159493677217625 -7.217602499650846 0)
(4.465529830798218 -6.473246208788542 0)
(1.468237981639001 -6.805268466279533 0)
(1.929265580397555 -6.277865120209048 0)
(3.129547419270582 -5.843992806361696 0)
(3.902195851264741 -4.92874946789721 0)
(0.4598483529478186 -4.754509399187627 0)
(0.6620717739085051 -3.494119580654148 0)
(1.658689909010258 -3.005498298166918 0)
(2.139359188079964 -1.925659470115187 0)
(1.6649076496123 -1.99384611315515 0)
(1.315579623336035 -0.7553836350500355 0)
(1.881109538473046 -0.3124249843501199 0)
(1.654298213495873 0.6379201401928263 0)
(0.7793932953638364 1.148366948176368 0)
(-0.03430853969425763 1.28552102387951 0)
(-0.6602727265830152 0.9687206078132432 0)
(-0.9829879756328274 0.3366815922942496 0)
(1.588164408971017 -0.9823232742947592 0)
(0.5870327318587011 -0.4823674309511755 0)
(-0.2574141179864854 -0.05750251489674229 0)
(-0.6761762486770552 -0.02449351473297513 0)
(3.366357537410154 -3.810505274404678 0)
(2.446610988743092 -2.800562651216922 0)
(1.340794591231461 -1.70668726142698 0)
(0.6083852046339842 -0.6392416506978373 0)
(5.109737571024767 -4.821178160907596 0)
(4.973785844802683 -3.305851381267696 0)
(4.192388135511048 -2.022618566372329 0)
(3.722945082299712 -0.7297163768206335 0)
(-0.9829879756351052 -0.3366815922713794 0)
(-0.6761762486769083 0.02449351474279471 0)
(0.6083852046343465 0.6392416506924319 0)
(3.722945082301138 0.7297163768011632 0)
(-0.6602727265870172 -0.9687206077938956 0)
(-0.2574141179872382 0.05750251490613346 0)
(1.340794591235644 1.706687261424275 0)
(4.192388135539122 2.022618566353318 0)
(-0.03430853969803732 -1.285521023865314 0)
(0.5870327318575421 0.4823674309585783 0)
(2.446610988745933 2.80056265121922 0)
(4.973785844822928 3.305851381268403 0)
(0.7793932953625559 -1.148366948167862 0)
(1.588164408972155 0.9823232742988476 0)
(3.366357537403699 3.810505274409723 0)
(5.10973757102469 4.821178160913226 0)
(4.465529830790309 6.473246208777391 0)
(3.159493677221866 7.217602499641879 0)
(2.296189184739455 7.541308142135453 0)
(2.36437903782422 6.935181727707254 0)
(3.902195851262941 4.928749467895444 0)
(3.129547419279251 5.843992806355494 0)
(1.929265580411354 6.277865120193736 0)
(1.468237981660384 6.80526846626859 0)
(2.139359188084128 1.925659470115636 0)
(1.658689909016951 3.005498298165562 0)
(0.6620717739189448 3.494119580652017 0)
(0.4598483529614363 4.754509399181313 0)
(1.654298213498168 -0.6379201401890398 0)
(1.881109538480698 0.3124249843544104 0)
(1.315579623345723 0.7553836350573493 0)
(1.664907649620861 1.993846113162899 0)
(-0.6388308958647769 1.052892045425682 0)
(-5.221434087390699 -3.071709718434011 0)
(-7.132638751105507 -2.664679922004613 0)
(-4.583294946883968 -2.183169487310115 0)
(0.0396490804386397 4.087863585485721 0)
(-4.51070207592501 -0.3026751821049158 0)
(-7.800717640451001 -0.6661233291526384 0)
(-6.208759590140743 -2.12496644198928 0)
(2.683146269312634 5.578556771287597 0)
(-1.26042418124834 0.801288044676026 0)
(-5.949664621165954 -0.3446310822977414 0)
(-6.807975473012863 -3.048659827634 0)
(4.460394055043248 6.633678974441721 0)
(2.434004719434193 2.424128965205008 0)
(-2.011296085585153 -0.2581874099933781 0)
(-6.070518207476842 -3.287831006547783 0)
(-2.834523741281171 -9.936426339978867 0)
(-0.7757605127615049 -14.86680540101414 0)
(2.692953392440029 -17.68477952045654 0)
(7.032167032207243 -24.61463791529919 0)
(-1.25486002028392 -7.68534179535634 0)
(-0.4601697138916767 -14.97802023335493 0)
(1.909009566765312 -19.24137439299139 0)
(6.709591467861859 -23.57116568956338 0)
(-0.8159072386573543 -4.899289275734104 0)
(-0.3177854541196922 -12.35600161904452 0)
(1.427944482525522 -18.10421625591714 0)
(3.27623000296331 -22.61204230759969 0)
(-1.738315442855423 -3.284475660824327 0)
(-1.909215791832552 -10.9660363016272 0)
(-0.4551397814806826 -17.36476538460374 0)
(0.7855572127296279 -22.03565631829612 0)
(7.864005886089524 -30.83683257505065 0)
(12.654109727842 -8.696508717987605 0)
(32.03673685114308 3.582221953719493 0)
(30.59337028230627 -5.260513991978208 0)
(8.451990608925302 -29.02282376821113 0)
(8.977981702342138 -17.41745992307033 0)
(26.46509427788351 1.951392399955749 0)
(32.23076944292997 -4.899766552923866 0)
(4.610468534323806 -29.02170727293121 0)
(3.830460736771244 -21.3270434105514 0)
(17.20667452272149 4.301073239221032 0)
(31.97358279085345 -3.292349101020961 0)
(2.647618571442846 -28.72953075425193 0)
(2.089634979591836 -24.81403255802902 0)
(7.326880850015065 0.5710289615207326 0)
(20.30816660768221 8.299249683269297 0)
(24.77774280673951 -10.42036981721357 0)
(21.7748097628753 -11.69271870078644 0)
(19.42366813163573 -11.77005406671056 0)
(17.82825702258267 -11.2758992949997 0)
(24.97557275244701 -12.47295883661608 0)
(21.21147177208551 -11.74941511116029 0)
(19.07527522574226 -11.73021952214025 0)
(17.62327005169636 -11.28017060736927 0)
(31.48464754885691 -18.45832323122755 0)