/*--------------------------------*- C++ -*----------------------------------*\
  =========                 |
  \\      /  F ield         | OpenFOAM: The Open Source CFD Toolbox
   \\    /   O peration     | Website:  https://openfoam.org
    \\  /    A nd           | Version:  11
     \\/     M anipulation  |
\*---------------------------------------------------------------------------*/
FoamFile
{
    format      ascii;
    class       volVectorField;
    location    "0.32";
    object      U;
}
// * * * * * * * * * * * * * * * * * * * * * * * * * * * * * * * * * * * * * //

dimensions      [0 1 -1 0 0 0 0];

internalField   nonuniform List<vector> 
880
(
(25 -3.05401133430817e-13 0)
(24.99999999285067 3.554350052944973e-09 0)
(24.99910383737143 -0.0004757745454847504 0)
(24.79359616318554 0.003763396716099254 0)
(25.00000000001528 -2.06144539889818e-12 0)
(24.99999998339234 -2.103135318406997e-08 0)
(24.99852177201362 -0.001126589337408928 0)
(24.72327311508234 -0.1525269455864907 0)
(24.99999999987259 -7.618853839176484e-11 0)
(24.99999994188893 -1.086377518173931e-07 0)
(24.99684619671292 -0.00252081001601079 0)
(24.62561427018802 -0.2583090477107099 0)
(24.99999999920113 4.263329439693767e-10 0)
(24.99999969332011 -5.478582366052593e-07 0)
(24.99228245735515 -0.00514724430991957 0)
(24.27611105828645 -0.410701859599351 0)
(25.00000000613325 -4.711653096519438e-09 0)
(24.99999998065647 2.203021420582117e-08 0)
(24.99999954448115 -2.556654981930117e-07 0)
(24.99999593757384 8.400561775692966e-07 0)
(24.99999774680476 -2.249680530546554e-06 0)
(24.99997255978045 -1.437607309202269e-05 0)
(24.99988648122115 5.94198291690668e-05 0)
(25.00015637139686 -0.0008406917651632111 0)
(24.97870271515268 -0.008101793091937261 0)
(24.96227701412834 -0.003828761267971631 0)
(24.94086631015117 0.01284028353727915 0)
(24.93792341393513 -0.05553701325577675 0)
(23.56775997222785 -0.1113170233443325 0)
(22.87952489303841 0.5989343510478955 0)
(22.49540225098766 1.272821009909528 0)
(22.45122231319918 1.686036215760719 0)
(24.99992103769766 -2.700759887950173e-05 0)
(24.99979154503207 -0.0002910155472730456 0)
(24.99964988651412 -0.0008291313046917793 0)
(24.99846846608184 -0.003129913461492422 0)
(24.99862472637249 -0.0003777679067477695 0)
(24.99294180006 0.000385394528583882 0)
(24.98395151914019 0.004843304097922732 0)
(24.96848031882201 0.00819609546670429 0)
(24.79852512954368 -0.005604474034570349 0)
(24.69159998661567 0.08924356045008972 0)
(24.54880698751422 0.2538141500528962 0)
(24.43002986882083 0.3635786208140083 0)
(22.20659550863598 2.26460548484356 0)
(22.20925083234669 2.669091135201329 0)
(22.0983670904298 3.217651956271215 0)
(22.52103645976006 3.610897537925274 0)
(23.53755204248766 4.182378126030378 0)
(24.21698488964363 4.012826010258361 0)
(24.56099757194608 3.604713806988342 0)
(24.84028937046058 3.188118014054638 0)
(24.20266191462921 0.6915835262314838 0)
(24.21414188474939 1.053519301350427 0)
(24.33382643512617 1.26938697056339 0)
(24.49362403020352 1.411205865451086 0)
(24.90839738998142 0.03000690820705726 0)
(24.83244383054553 0.09790921926145607 0)
(24.75933729939726 0.2061146493128351 0)
(24.72301463283134 0.3389583046477203 0)
(24.99206504415732 -0.007343645478460109 0)
(24.98149315722276 -0.01818706047812318 0)
(24.96640053306504 -0.03571895601625987 0)
(24.94970021520169 -0.0587203097389046 0)
(24.93578801657492 -0.08410075711781077 0)
(24.92785202322277 -0.1019399682550888 0)
(24.92388327466274 -0.1014431068164172 0)
(24.92109521759328 -0.09244346248756455 0)
(24.7273906102357 0.4811270860061702 0)
(24.77548299256933 0.6040313606684712 0)
(24.86199624133644 0.6892453278077907 0)
(24.96409470194102 0.7171864211013133 0)
(24.66899779009159 1.507478564946673 0)
(24.8703171187416 1.527632798077454 0)
(25.02738651761669 1.477790977939815 0)
(25.17535571842787 1.387983041833629 0)
(25.02657026566675 2.771192129053231 0)
(25.24828034318309 2.375993129687543 0)
(25.31670102148702 1.987321409333287 0)
(25.44818848598415 1.675530070209307 0)
(25.49161747399535 1.274134985603241 0)
(25.32641888077144 1.255378696566133 0)
(25.0734421476536 0.7159161920531797 0)
(24.91851964545481 -0.08047600938459773 0)
(25.20546254019247 1.272485514190098 0)
(25.40904502643995 1.092654264648598 0)
(25.19053559068845 0.6485568824311286 0)
(24.91988659838103 -0.0603101845729851 0)
(21.77455988545996 1.634019529265924 0)
(25.36651560266939 1.043681343891136 0)
(25.25532948921725 0.5671965212215421 0)
(24.92720481039868 -0.05124661264408172 0)
(15.83194603142461 1.835374512318048 0)
(24.37593066551545 1.270894178685399 0)
(25.29243722377252 0.5323049104108712 0)
(24.96340957546941 -0.05037216672357295 0)
(24.91878060602447 -0.03430374168341565 0)
(25.222756036057 0.4403406401233078 0)
(22.96943106003662 1.761705449488693 0)
(13.46566293739151 3.499257466805977 0)
(24.90620528108588 -0.04393911257824194 0)
(25.05801957693892 0.4547150593945259 0)
(21.78033127178854 2.602138754687183 0)
(13.60847590196576 5.352886808547018 0)
(24.8977629798467 -0.06020222504401855 0)
(24.71433871484332 0.6369991343839168 0)
(20.22838334267847 3.789508157713956 0)
(13.39354364595302 6.921363829086315 0)
(24.86071451899787 -0.09742083772219648 0)
(24.17222712205754 1.098614571914741 0)
(18.87485820511169 5.21812376253128 0)
(13.5374781017483 8.211322638630655 0)
(14.11252704436857 9.117845788345219 0)
(17.82807192333614 6.633043920923427 0)
(23.33445656438695 1.964820079922915 0)
(24.77327749425065 -0.1499861950850761 0)
(14.95085949671093 9.74243002622514 0)
(17.69012783783311 7.743190703956361 0)
(22.38051664004431 3.209114244131541 0)
(24.58999376918437 -0.1724926024609673 0)
(16.03422219013779 10.03059247263111 0)
(18.00109038839669 8.675596359225855 0)
(21.65070843547438 4.6034365467437 0)
(24.3016617277349 -0.08908657824697211 0)
(17.19695830389722 10.08590055636521 0)
(19.08624033888068 8.980593011485009 0)
(21.33888397642523 5.94945821978299 0)
(23.93609336266588 0.1508313897035493 0)
(23.58453645375983 0.3101567228147203 0)
(22.33030961035804 6.590840161604743 0)
(20.87680612382265 8.856718280293713 0)
(18.69790589913702 10.10331433146049 0)
(23.84669031140306 0.1467623308636003 0)
(23.58615665205727 6.177217972466241 0)
(22.93272857085528 8.41980547136753 0)
(20.74434752638493 9.871853563042876 0)
(24.25504648994167 -0.02525849212307137 0)
(24.94845229812515 5.481515465487851 0)
(25.11092506182922 7.578587794067816 0)
(23.29843799197875 9.179987811130813 0)
(24.5101268224764 -0.4618914400986517 0)
(25.84053098098723 4.344522508225789 0)
(27.03221316338746 6.152261763600084 0)
(26.23340065878217 7.49503057912311 0)
(24.76222582796184 -0.3669613810104485 0)
(26.60834498192449 3.468500658597377 0)
(28.63246183833957 4.704642136181257 0)
(30.41482554187132 4.574311422417885 0)
(25.08539153620074 -0.426415727699497 0)
(27.09677302584933 2.434712247484183 0)
(29.51710266592426 3.145145271494287 0)
(33.63877909883771 0.5001627991761239 0)
(25.29606010215478 -0.3906109038287879 0)
(27.05572685899733 1.501316061746419 0)
(29.94947561092943 1.114900023425426 0)
(36.62233716296821 -4.481124247640937 0)
(25.38654128301045 -0.3465114490322171 0)
(26.74983469190775 0.8840887768318275 0)
(29.2725784337777 -0.1828365380357685 0)
(34.67208199347581 -7.163993158828656 0)
(28.6006178535349 -3.637431469753763 0)
(28.48890838699305 -1.18539077025227 0)
(26.51560287871809 0.2649566310933659 0)
(25.40766521566817 -0.3202215619802937 0)
(23.95974178221979 -2.117402389436547 0)
(27.85415501141593 -1.866748198126949 0)
(26.21378938134794 -0.1073621376790557 0)
(25.35139667872306 -0.2506091759684225 0)
(22.13710801611557 -3.705116774047709 0)
(27.30298683925987 -2.719061856132348 0)
(25.96545874193012 -0.5129619842308507 0)
(25.2515017742877 -0.1575629143218165 0)
(19.18453030629044 -3.806404323320549 0)
(26.40684072642883 -3.441029369688243 0)
(25.63570618318974 -0.8701778106646949 0)
(25.15939513609377 -0.1147907688340236 0)
(16.47294791811865 -5.761162772002059 0)
(24.86186756792447 -4.315927931370765 0)
(25.14907942577054 -1.016888417531177 0)
(25.04742052859051 -0.08967481817911385 0)
(14.53897938312704 -7.789795922779781 0)
(23.64725590632256 -4.17662618156243 0)
(24.77349332921193 -0.7732264674668455 0)
(24.98501005068315 -0.04771995672150003 0)
(14.26542576422406 -7.590266844866327 0)
(22.82879788691426 -3.470124495646882 0)
(24.67364594051402 -0.4541653222382075 0)
(24.97928704039367 -0.02339379365626492 0)
(15.0797845138722 -6.232347350155103 0)
(23.03847983336478 -2.805496344374231 0)
(24.74908873263413 -0.3726042348497541 0)
(24.98793711496985 -0.01543265113997526 0)
(15.265457501135 -0.8572131267026559 0)
(21.294331268186 0.02595064247643329 0)
(24.22686266332039 0.01783643275573043 0)
(24.94344613111871 0.0006576331056765195 0)
(15.41441391062077 -2.316967879672809 0)
(21.28090485737297 -0.04084480653613936 0)
(24.20908425592507 0.04021701623667683 0)
(24.94043188053825 0.002344119229712832 0)
(15.66299364819994 -3.335288245120271 0)
(21.2639377771084 -0.256102645636377 0)
(24.19660559514505 0.02130826933256145 0)
(24.93681005446596 0.001375384491809799 0)
(15.78587969558839 -3.685767743579952 0)
(21.39864254614394 -0.5635049445977236 0)
(24.22191126556286 -0.04888430094841692 0)
(24.93639390980911 -0.001869278580895661 0)
(15.07978451389361 6.232347350145414 0)
(23.03847983341744 2.80549634437143 0)
(24.74908873273447 0.3726042347917211 0)
(24.98793711508288 0.01543265111546311 0)
(14.26542576424775 7.59026684485314 0)
(22.82879788696426 3.470124495688815 0)
(24.67364594053691 0.4541653222304077 0)
(24.97928704043922 0.02339379371357802 0)
(14.53897938315427 7.789795922797875 0)
(23.64725590636327 4.176626181603645 0)
(24.77349332921702 0.773226467521101 0)
(24.98501005072703 0.04771995676245498 0)
(16.47294791811087 5.761162772004944 0)
(24.86186756797748 4.315927931418355 0)
(25.14907942578219 1.016888417560772 0)
(25.04742052860454 0.08967481822798523 0)
(25.40766521564717 0.3202215619097718 0)
(26.51560287870685 -0.2649566311019367 0)
(28.48890838698178 1.185390770247024 0)
(28.60061785359726 3.637431469863786 0)
(25.3513966786999 0.2506091759252443 0)
(26.2137893813289 0.1073621376902287 0)
(27.8541550114241 1.866748198122771 0)
(23.95974178221638 2.117402389529402 0)
(25.25150177424231 0.1575629142945895 0)
(25.96545874190833 0.5129619842513354 0)
(27.30298683933353 2.719061856252108 0)
(22.13710801610798 3.705116774102854 0)
(25.1593951360631 0.1147907688372443 0)
(25.63570618314178 0.8701778106306942 0)
(26.406840726478 3.441029369751941 0)
(19.18453030628666 3.806404323361346 0)
(34.67208199351918 7.163993158924247 0)
(29.27257843377457 0.1828365380175929 0)
(26.74983469194463 -0.8840887768247854 0)
(25.38654128302194 0.3465114489383624 0)
(36.62233716299032 4.481124247693291 0)
(29.94947561096005 -1.114900023415255 0)
(27.05572685900467 -1.501316061772011 0)
(25.29606010216824 0.3906109037645396 0)
(33.63877909885181 -0.5001627991288068 0)
(29.51710266594266 -3.145145271494324 0)
(27.09677302588228 -2.434712247457833 0)
(25.08539153613112 0.4264157277089483 0)
(30.41482554187105 -4.574311422386581 0)
(28.63246183838229 -4.704642136139523 0)
(26.60834498196873 -3.468500658538594 0)
(24.76222582783601 0.3669613811086012 0)
(23.58453645369964 -0.3101567227924991 0)
(22.33030961028891 -6.590840161621164 0)
(20.87680612375768 -8.856718280306035 0)
(18.69790589913434 -10.10331433145757 0)
(23.84669031139024 -0.1467623308333725 0)
(23.58615665208017 -6.177217972467139 0)
(22.93272857081664 -8.419805471352561 0)
(20.74434752636664 -9.871853563039139 0)
(24.25504649001171 0.02525849216373554 0)
(24.94845229814855 -5.481515465486022 0)
(25.11092506181504 -7.578587794025892 0)
(23.29843799197662 -9.179987811119579 0)
(24.51012682239056 0.4618914402415433 0)
(25.8405309810247 -4.344522508164443 0)
(27.03221316339144 -6.152261763542893 0)
(26.23340065877451 -7.495030579102071 0)
(17.1969583039034 -10.08590055636775 0)
(19.086240338872 -8.980593011500227 0)
(21.33888397638493 -5.949458219793812 0)
(23.93609336250838 -0.1508313897242663 0)
(16.03422219014724 -10.03059247264116 0)
(18.00109038840052 -8.675596359237712 0)
(21.65070843549019 -4.603436546768123 0)
(24.30166172771261 0.08908657824822414 0)
(14.95085949672349 -9.742430026238326 0)
(17.69012783785459 -7.743190703946944 0)
(22.38051664008221 -3.209114244119562 0)
(24.58999376913605 0.1724926024665152 0)
(14.11252704438905 -9.117845788351083 0)
(17.82807192331954 -6.63304392090918 0)
(23.33445656429821 -1.964820079908301 0)
(24.77327749421727 0.1499861950909651 0)
(24.91878060602901 0.03430374168958378 0)
(25.22275603607916 -0.4403406400862656 0)
(22.96943106006293 -1.761705449509775 0)
(13.46566293742588 -3.499257466811691 0)
(24.90620528097615 0.04393911257229756 0)
(25.05801957690058 -0.4547150593427973 0)
(21.78033127181228 -2.602138754683715 0)
(13.60847590197139 -5.352886808561113 0)
(24.89776297970202 0.06020222504289385 0)
(24.71433871472932 -0.6369991343287693 0)
(20.22838334269859 -3.789508157676823 0)
(13.39354364598448 -6.921363829098365 0)
(24.86071451893964 0.09742083773009208 0)
(24.17222712208794 -1.098614571858486 0)
(18.87485820514962 -5.218123762525972 0)
(13.53747810174996 -8.21132263864417 0)
(24.9634095754752 0.05037216673405121 0)
(24.9272048104096 0.05124661265881595 0)
(24.91988659832956 0.06031018460874447 0)
(24.91851964544633 0.08047600938255918 0)
(25.2924372238679 -0.5323049104155596 0)
(25.25532948924294 -0.567196521228324 0)
(25.19053559071836 -0.6485568824201686 0)
(25.07344214767141 -0.7159161920707579 0)
(24.37593066559389 -1.270894178710403 0)
(25.36651560269454 -1.043681343895529 0)
(25.40904502651337 -1.092654264667673 0)
(25.32641888081368 -1.255378696565179 0)
(15.83194603147368 -1.835374512318272 0)
(21.77455988550161 -1.634019529262958 0)
(25.20546254018009 -1.272485514174243 0)
(25.49161747399951 -1.274134985582477 0)
(24.92109521755241 0.092443462491932 0)
(24.96409470188696 -0.7171864210903194 0)
(25.17535571839646 -1.387983041806958 0)
(25.44818848595771 -1.675530070162848 0)
(24.9238832746896 0.1014431068064106 0)
(24.86199624128418 -0.6892453278091176 0)
(25.0273865175904 -1.477790977915861 0)
(25.31670102148935 -1.987321409296356 0)
(24.927852023226 0.1019399682541662 0)
(24.77548299254883 -0.6040313606195182 0)
(24.87031711879058 -1.52763279808579 0)
(25.24828034325687 -2.375993129698759 0)
(24.93578801662068 0.08410075706837582 0)
(24.72739061023865 -0.4811270859917597 0)
(24.66899779009509 -1.507478564947863 0)
(25.02657026568787 -2.771192129043337 0)
(24.99206504416017 0.007343645405319829 0)
(24.90839739008266 -0.03000690811001567 0)
(24.2026619145908 -0.6915835262390231 0)
(23.53755204246886 -4.182378126013094 0)
(24.9814931572847 0.01818706037047699 0)
(24.83244383060093 -0.09790921918693797 0)
(24.21414188473713 -1.053519301309878 0)
(24.21698488963778 -4.01282601026047 0)
(24.96640053301813 0.03571895599163935 0)
(24.7593372994359 -0.2061146492384321 0)
(24.33382643517395 -1.269386970576808 0)
(24.56099757202357 -3.604713807041907 0)
(24.94970021523275 0.05872030967750169 0)
(24.72301463286234 -0.3389583045883951 0)
(24.49362403020412 -1.411205865428699 0)
(24.84028937051978 -3.188118014076431 0)
(22.52103645978242 -3.610897537919468 0)
(24.43002986882306 -0.3635786208191593 0)
(24.96848031892861 -0.008196095372482788 0)
(24.99846846603139 0.003129913452594309 0)
(22.09836709045577 -3.217651956258378 0)
(24.54880698749574 -0.2538141500662709 0)
(24.98395151921645 -0.004843304067818757 0)
(24.99964988652793 0.0008291312715083738 0)
(22.20925083234295 -2.66909113517569 0)
(24.69159998662806 -0.08924356045715394 0)
(24.99294180018473 -0.0003853945390633243 0)
(24.99979154507112 0.0002910154421983985 0)
(22.20659550866228 -2.264605484809606 0)
(24.79852512958923 0.005604474034764084 0)
(24.99862472644542 0.0003777679114737887 0)
(24.99992103764754 2.700759974364861e-05 0)
(22.45122231322384 -1.686036215754292 0)
(24.93792341394211 0.05553701327141978 0)
(25.00015637141094 0.0008406917862288991 0)
(24.99999593753743 -8.400093478517178e-07 0)
(22.49540225100241 -1.272821009945474 0)
(24.94086631016983 -0.01284028353670721 0)
(24.99988648128697 -5.94198284539602e-05 0)
(24.99999954447138 2.556773412959311e-07 0)
(22.87952489300375 -0.5989343511366122 0)
(24.96227701415546 0.003828761259411676 0)
(24.99997255982328 1.437606391246986e-05 0)
(24.99999998068619 -2.203670374035028e-08 0)
(23.56775997204987 0.1113170232453211 0)
(24.97870271519096 0.008101793087751268 0)
(24.99999774685585 2.249696312167284e-06 0)
(25.00000000606721 4.68753265889009e-09 0)
(25.00000000000001 -5.53305606894037e-13 0)
(24.99999999284398 -3.575918963743053e-09 0)
(24.99910383737023 0.0004757745295742548 0)
(24.7935961630875 -0.003763396793828503 0)
(24.99999999999998 1.405976453498924e-11 0)
(24.99999998345315 2.100287643423132e-08 0)
(24.99852177201853 0.001126589315214767 0)
(24.72327311447699 0.1525269459860402 0)
(24.99999999986509 8.679756763614121e-11 0)
(24.99999994194113 1.086451447515768e-07 0)
(24.99684619672362 0.002520810001926157 0)
(24.62561426960452 0.2583090477403863 0)
(24.9999999991716 -4.105425128043527e-10 0)
(24.99999969337524 5.478702580397944e-07 0)
(24.99228245737607 0.005147244298949779 0)
(24.27611105791665 0.4107018597335851 0)
(24.65149719051506 -2.729404866417405e-10 0)
(24.51362182931108 0.1499549752408379 0)
(24.18335306743319 0.1815300082398418 0)
(23.29971605049628 0.0433132080555994 0)
(24.51362183057905 -0.1499549759745357 0)
(24.27777480797914 -3.308588416598838e-10 0)
(23.65993846086212 -0.04814886127312445 0)
(22.26021326814318 -0.4638419809968725 0)
(24.18335306943544 -0.1815300087224449 0)
(23.65993846220637 0.04814886068471468 0)
(22.41474146783523 -1.462493075619553e-10 0)
(20.33597174535989 -0.5779317904649309 0)
(23.29971605115439 -0.04331320863926691 0)
(22.26021326899278 0.4638419805434457 0)
(20.33597174597967 0.5779317900111512 0)
(18.06469155060188 -3.108359084987753e-10 0)
(17.49255936544515 2.546453922919853 0)
(18.15064666253596 2.955899668332512 0)
(19.82634965265742 2.671334043294494 0)
(21.36795986113 1.861240747098487 0)
(18.48007917785509 4.286360799813027 0)
(18.54760936954485 4.250014991836929 0)
(19.2897220095918 4.163320210720795 0)
(20.33945017214519 3.974405006014731 0)
(17.95676301520554 5.27508561592702 0)
(19.07906602354844 4.522247913654042 0)
(19.77732755417573 4.724428405287905 0)
(20.32579584611809 4.583700336303807 0)
(18.59386042592059 5.809695821779731 0)
(19.91543508063865 4.758235527525835 0)
(20.42220095241151 4.929046014719782 0)
(20.71596830405503 4.842400679206467 0)
(21.0066491955723 4.98121872002243 0)
(21.21331839388687 5.075884800677253 0)
(21.55757308762269 5.160805631212873 0)
(22.25624293229702 5.302802691011781 0)
(20.91945373785114 5.048056120609992 0)
(21.19895240691943 5.137268246641352 0)
(21.66085451376938 5.162090935848738 0)
(22.74484738974854 5.531876718089046 0)
(20.64935951291502 4.97159200202672 0)
(21.09978825536263 5.139335762371226 0)
(21.67248990136498 5.207511029533326 0)
(24.18802328904814 5.959385393203268 0)
(19.24724011105096 5.9222508789753 0)
(19.78860091662673 6.002416818608936 0)
(20.61099727347603 5.853789994494658 0)
(25.8826625859046 7.166905347460536 0)
(25.92801595854165 3.191075348266507 0)
(26.49148272909597 0.799436356357011 0)
(25.77352292902372 0.4470439303248547 0)
(25.60507983001585 0.4045182039081274 0)
(28.46342478186962 2.198150271289785 0)
(28.70576955855577 0.3397980567618516 0)
(27.54816546218614 0.2619727576681788 0)
(26.86411295408245 0.3370068680939221 0)
(31.65499102327789 1.897687371519178 0)
(30.09959246120746 0.04819250464429181 0)
(28.68185131133603 0.03646499119705085 0)
(27.72063932871137 0.1092700100688331 0)
(25.13833430429857 1.942661350919757 0)
(24.15235904112043 0.606212475087035 0)
(24.03469419395514 0.1366511725875015 0)
(24.08701889796946 -0.2369668088642998 0)
(25.54701779821687 0.3722315575262209 0)
(25.59150616361372 0.3019554652087267 0)
(25.59315285627648 0.2588026516375525 0)
(25.5726188321103 0.2160652994039353 0)
(26.40136227523607 0.3359767240403584 0)
(26.07118049338792 0.2871497364394632 0)
(25.80868332775226 0.2253935954642498 0)
(25.56291406250098 0.1809338713621793 0)
(26.99139684937164 0.1377218322583927 0)
(26.39780940959502 0.1322734601493362 0)
(25.94216085537235 0.1253234183144438 0)
(25.4897472404698 0.1025052125513507 0)
(23.93026930881133 -0.4478657715290117 0)
(23.70582533921003 -0.6140885480237713 0)
(23.4868935302997 -0.6542368183935492 0)
(23.14801428956942 -0.5757127519035886 0)
(25.54450457974511 0.2514888466278767 0)
(22.50993497180284 3.504394715764018 0)
(15.91529889147592 4.859921891786398 0)
(10.70461358854084 1.656386676272643 0)
(25.35689244813062 0.4299519641031104 0)
(19.7392372671183 3.83294095382955 0)
(11.35089443030573 3.93697242146224 0)
(5.767020365682456 0.2700287389682977 0)
(24.82871360490807 0.5520743852487329 0)
(16.18173852638137 3.078992326793425 0)
(5.984492338945254 2.824767309396493 0)
(0.3231348792979145 0.4652677765405778 0)
(21.68302313045191 -0.5464872087650285 0)
(11.1173284034378 -1.10498633757511 0)
(2.295378279529503 -0.004936453542385521 0)
(-1.696408272543255 0.4110241435667608 0)
(9.441311408847563 2.978227328038181 0)
(10.95245904225726 4.53548925878072 0)
(11.63076254605205 6.112652488734067 0)
(12.53792325622548 7.489692947225956 0)
(7.301890005571448 2.425827470053659 0)
(10.23716942467379 4.667156113673586 0)
(11.46140866223516 6.316091737559087 0)
(12.48673625957479 7.585882014162483 0)
(4.105605639298165 0.5577187824869768 0)
(8.491350105828928 3.948900379457685 0)
(10.70470345573107 6.316220839973033 0)
(12.10989474599535 7.620264695933255 0)
(0.7120401695523827 0.451972801158118 0)
(4.369244337749993 2.938881862063535 0)
(8.002418734312673 4.413517803108454 0)
(10.39218513295313 5.737405533045805 0)
(13.51955073052753 8.591064000685982 0)
(14.53169819097619 9.468158725631195 0)
(15.68303188985728 10.52068496939849 0)
(16.79369126938392 11.07693806245084 0)
(13.53451655143407 8.635472312251187 0)
(14.51783422920942 9.502297159406542 0)
(15.60225481588172 10.48264223061567 0)
(16.75127414432967 11.11510208370292 0)
(13.3713253578389 8.605249799153672 0)
(14.41664396898649 9.465637927589672 0)
(15.51025619116106 10.40011073159921 0)
(16.70961103161963 11.13112298842218 0)
(12.54245911908837 6.866828762403658 0)
(14.6763675086518 8.22717637553168 0)
(15.56700911490111 10.1015525000848 0)
(16.76830485468154 11.03592764758885 0)
(17.95741467637943 11.47761515011618 0)
(19.61429656388162 11.77948713742862 0)
(21.83982077909474 11.45391334115867 0)
(24.75322618718198 10.13110482922526 0)
(17.80516081602182 11.52759162874538 0)
(19.22749436160838 11.80917583827921 0)
(21.29625853901505 11.63454830976947 0)
(24.91666906832161 12.2043202653585 0)
(17.70764660608353 11.61629679414032 0)
(18.85453093047569 11.86821313444605 0)
(21.40280493541816 12.55286125882445 0)
(31.19606500841854 18.14122690429714 0)
(17.69618585925263 11.58852297280568 0)
(18.7744413076351 11.84280116587349 0)
(22.10651113066141 13.17647939748803 0)
(42.80058007284417 25.16303326496609 0)
(30.35400093906146 5.005534264860265 0)
(31.70987615403845 -3.643439642021142 0)
(12.36858950862302 8.825498365899293 0)
(9.6181150782897 27.54029061547631 0)
(32.06541074692504 4.636426468141192 0)
(25.87941309352594 -1.628208425506107 0)
(9.388148729962289 16.82584157300393 0)
(8.721430418700827 26.83834393480744 0)
(31.77765274823398 3.182123542972602 0)
(16.3986421840034 -3.549022525493614 0)
(4.207980764637722 19.7293861148801 0)
(4.385056840646977 26.83568793896652 0)
(20.23127381857774 -8.373050353085342 0)
(6.677301005023494 0.01383692329470908 0)
(2.512140696064863 22.30316664807011 0)
(2.412410293634611 26.526557460242 0)
(6.25741062533071 19.06214264012451 0)
(1.442242263116743 14.22471493272112 0)
(-0.8865931808979021 12.55474591077712 0)
(-2.310553334152829 8.602174264279729 0)
(4.815947234723177 21.55233506997322 0)
(1.165238561592922 17.13906183724058 0)
(-0.6862016974366822 13.38415475932866 0)
(-1.090833758542776 6.901455955765401 0)
(2.897097171883431 21.26404917540526 0)
(1.345553183637983 17.10490621950802 0)
(-0.3058482447824598 11.58402941195713 0)
(-0.6818898418391572 4.619948392905282 0)
(0.7366217591629692 20.68101704348347 0)
(-0.2599718913138013 16.61606577257808 0)
(-1.642823995828264 10.47426609886803 0)
(-1.438647241290066 3.245588882900767 0)
(-4.280193177480245 2.871764227984867 0)
(0.4024912903453269 -0.6070342343159155 0)
(4.499157534077717 -3.780033161377653 0)
(6.304030971157712 -7.758623209815513 0)
(-5.241952274314522 2.571432384271583 0)
(-3.392659489195583 -0.1206358889833848 0)
(1.663346705304464 -1.803022970417923 0)
(5.194686668683737 -6.846460217463061 0)
(-4.730230471191439 1.717588472793648 0)
(-5.414310123207659 0.4155834827358906 0)
(-1.331824428835127 -0.6398892728672182 0)
(3.701182681972803 -5.060946773548562 0)
(-3.456569068709078 1.908135330419888 0)
(-5.458448246691199 1.520598733816007 0)
(-1.782525206849112 2.319647561499687 0)
(4.303169193567747 -2.588161485455481 0)
(4.761907332594039 -7.453633010299409 0)
(4.678703758952183 -7.910227866604749 0)
(5.010551659227401 -7.915543233596489 0)
(5.528115822698902 -7.419777386291928 0)
(4.083872281837084 -7.936709033242891 0)
(4.130780659716012 -7.97303849454984 0)
(4.405896195275212 -8.042884946677264 0)
(4.427839750716602 -7.674403826287359 0)
(3.462697749350957 -7.059580706321916 0)
(3.249091639131275 -5.883075513239059 0)
(3.477362046974887 -5.088746746459528 0)
(2.695896789565757 -4.111407557521812 0)
(5.97600297252269 -6.191298563618999 0)
(5.129610368869152 -3.084890090954822 0)
(4.11602787285022 -0.9094305586304762 0)
(2.019863105001564 0.3180779435117391 0)
(0.322073623538586 1.173185940573364 0)
(-0.7618748493055518 1.372962280171568 0)
(-1.451507511604958 1.053329177805667 0)
(-1.748442762884696 0.3467945433292494 0)
(1.661493751479213 -2.355948194883942 0)
(0.000854145266090764 -1.415043556255122 0)
(-1.142693848051204 -0.460120200451128 0)
(-1.746826309948256 -0.1925751567628063 0)
(3.95480394802775 -6.357623694093069 0)
(2.907249266573591 -4.941123381857281 0)
(1.605341576196654 -3.110782119644326 0)
(0.6237304442820807 -1.136048041809902 0)
(6.114405925722741 -6.371589831868474 0)
(6.224654466734581 -4.856362341556849 0)
(5.628344042000502 -3.049701900173782 0)
(4.987619658474059 -1.119772321708159 0)
(-1.748442762889346 -0.3467945433271163 0)
(-1.74682630994795 0.1925751567449112 0)
(0.6237304442801017 1.136048041760394 0)
(4.987619658473635 1.119772321659561 0)
(-1.451507511612063 -1.053329177805902 0)
(-1.142693848051543 0.4601202004306735 0)
(1.605341576194844 3.110782119602014 0)
(5.628344042025925 3.049701900128259 0)
(-0.7618748493126685 -1.372962280176224 0)
(0.0008541452607448792 1.415043556233611 0)
(2.907249266576759 4.94112338182399 0)
(6.22465446676403 4.856362341527978 0)
(0.3220736235332128 -1.173185940582206 0)
(1.661493751475143 2.355948194861779 0)
(3.954803948030598 6.357623694070997 0)
(6.1144059257362 6.37158983185443 0)
(5.528115822698307 7.419777386289402 0)
(5.010551659216811 7.915543233593255 0)
(4.678703758937782 7.910227866595101 0)
(4.761907332588051 7.453633010292298 0)
(4.427839750722709 7.674403826270538 0)
(4.405896195281129 8.042884946662863 0)
(4.130780659717839 7.973038494532863 0)
(4.083872281835784 7.93670903323209 0)
(2.695896789574474 4.111407557497708 0)
(3.477362046986023 5.0887467464446 0)
(3.249091639140402 5.883075513225957 0)
(3.462697749357524 7.059580706306404 0)
(2.019863104996002 -0.3180779435211279 0)
(4.116027872849606 0.9094305586213304 0)
(5.129610368869796 3.084890090951207 0)
(5.976002972521401 6.191298563620531 0)
(4.303169193571826 2.588161485458983 0)
(-1.782525206831479 -2.319647561476091 0)
(-5.45844824665784 -1.520598733795181 0)
(-3.456569068685061 -1.908135330409127 0)
(3.701182681974752 5.060946773533828 0)
(-1.331824428818398 0.6398892728758179 0)
(-5.414310123165863 -0.4155834827377496 0)
(-4.730230471155506 -1.717588472776542 0)
(5.194686668677265 6.8464602174491 0)
(1.663346705311733 1.803022970419464 0)
(-3.392659489152976 0.1206358889737468 0)
(-5.241952274279253 -2.571432384241075 0)
(6.304030971148205 7.758623209807482 0)
(4.499157534068034 3.780033161386315 0)
(0.4024912903869343 0.6070342343191295 0)
(-4.280193177444467 -2.87176422793919 0)
(-2.310553334159517 -8.602174264186585 0)
(-0.886593180961876 -12.55474591076877 0)
(1.442242263114951 -14.22471493289985 0)
(6.257410625410733 -19.06214264042825 0)
(-1.090833758545373 -6.901455955711495 0)
(-0.6862016974662335 -13.38415475931116 0)
(1.165238561629589 -17.13906183731612 0)
(4.815947234835551 -21.55233507007286 0)
(-0.6818898418430241 -4.619948392881069 0)
(-0.3058482448008966 -11.58402941194617 0)
(1.345553183651538 -17.10490621952097 0)
(2.897097171910196 -21.2640491754447 0)
(-1.438647241285152 -3.245588882891379 0)
(-1.642823995842057 -10.47426609885517 0)
(-0.2599718913248806 -16.61606577256922 0)
(0.7366217591674343 -20.68101704351369 0)
(9.618115078284161 -27.54029061565707 0)
(12.36858950845146 -8.825498366224618 0)
(31.70987615395435 3.643439642066569 0)
(30.3540009390454 -5.005534264831056 0)
(8.721430418729062 -26.83834393489047 0)
(9.388148729966431 -16.82584157314997 0)
(25.87941309348091 1.628208425477352 0)
(32.0654107469057 -4.636426468128898 0)
(4.385056840660011 -26.8356879390303 0)
(4.207980764622082 -19.72938611498092 0)
(16.39864218399351 3.549022525450374 0)
(31.77765274822934 -3.182123542968492 0)
(2.412410293645125 -26.52655746032024 0)
(2.51214069606358 -22.30316664817663 0)
(6.677301005050288 -0.01383692334752729 0)
(20.23127381860373 8.373050353071452 0)
(24.75322618718744 -10.13110482921365 0)
(21.83982077910449 -11.45391334116236 0)
(19.6142965638837 -11.77948713742845 0)
(17.957414676383 -11.47761515013597 0)
(24.91666906832553 -12.20432026535506 0)
(21.29625853902174 -11.63454830977011 0)
(19.22749436160682 -11.80917583828298 0)
(17.80516081600821 -11.52759162874767 0)
(31.19606500841449 -18.14122690429084 0)