/*--------------------------------*- C++ -*----------------------------------*\
  =========                 |
  \\      /  F ield         | OpenFOAM: The Open Source CFD Toolbox
   \\    /   O peration     | Website:  https://openfoam.org
    \\  /    A nd           | Version:  11
     \\/     M anipulation  |
\*---------------------------------------------------------------------------*/
FoamFile
{
    format      ascii;
    class       volVectorField;
    location    "0.0115";
    object      U;
}
// * * * * * * * * * * * * * * * * * * * * * * * * * * * * * * * * * * * * * //

dimensions      [0 1 -1 0 0 0 0];

internalField   nonuniform List<vector> 
880
(
(25 -2.433027025650565e-16 0)
(25 -1.654544229137549e-16 0)
(25 4.56152119419196e-16 0)
(24.99999999999989 5.006791145267336e-13 0)
(25 2.335665377273149e-16 0)
(25 -3.132063297971991e-16 0)
(25.00000000000002 2.110092677324877e-15 0)
(25.00000000011272 4.16778953235125e-12 0)
(25 0 0)
(25.00000000000001 5.944587798351047e-16 0)
(25 -2.777688978629824e-15 0)
(25.00000000482495 -2.359982818089672e-09 0)
(25 0 0)
(25 -5.656510853057857e-16 0)
(25 3.553903047602494e-20 0)
(24.99999997548996 3.380195427897359e-09 0)
(25 -1.950901626979613e-16 0)
(25 -1.613524140899176e-16 0)
(25.00000000000001 8.650607315309695e-16 0)
(25 -6.930956708210857e-16 0)
(25 0 0)
(25 0 0)
(25.00000000000003 3.325385130865979e-15 0)
(25 -2.80709524666114e-15 0)
(25 4.098347893523835e-17 0)
(25 6.793401904704946e-17 0)
(24.99999999999979 4.210733943687779e-12 0)
(24.9999999999519 -1.331429661434709e-10 0)
(24.99999684666237 1.249903243266407e-05 0)
(24.99999482754981 2.37051534745758e-05 0)
(24.99999544402406 2.274987357475316e-05 0)
(24.99999586199313 2.036412076083332e-05 0)
(25 1.591694561370907e-16 0)
(25 -9.882099301507062e-17 0)
(25.00000000000001 1.83767993353292e-16 0)
(25 -8.639675373926878e-16 0)
(25 3.174818563606857e-13 0)
(25.00000000000001 3.429914838103965e-13 0)
(25 3.688251076893072e-13 0)
(25 4.335186619416687e-13 0)
(24.99999999953294 2.8232767961972e-09 0)
(24.99999999952751 2.963591089634249e-09 0)
(24.99999999950475 3.101171868352149e-09 0)
(24.99999999882596 2.962088300761199e-10 0)
(24.99999591164622 2.10073604584899e-05 0)
(24.99999580211678 2.179744511577371e-05 0)
(24.9999957492848 2.216489878315979e-05 0)
(24.99999340582105 1.230418480486233e-05 0)
(24.9999992291941 0.0001257226690325622 0)
(25.00001315404823 4.278095795478551e-05 0)
(25.00000167608133 2.363786689970618e-06 0)
(25.00000001550133 1.545179325268828e-08 0)
(24.99999999992578 3.608561418214147e-08 0)
(25.00000000265061 1.432243803377996e-08 0)
(25.00000000044447 1.046533880325081e-09 0)
(25.00000000000479 8.398653943394195e-12 0)
(24.99999999999949 6.840700985450955e-12 0)
(25.00000000000001 2.942600537705092e-12 0)
(25 2.328511397156998e-13 0)
(25 1.688931929950657e-15 0)
(25 -1.585998337388276e-14 0)
(25 -1.681500577163773e-15 0)
(25 1.453319631978026e-16 0)
(25 1.974162505866536e-17 0)
(25.00000000000001 9.135638498982481e-16 0)
(25.00000000000001 4.57156550381712e-17 0)
(25 -1.958269305702491e-16 0)
(24.99999999999999 -2.611025740936845e-16 0)
(25 -6.53451854293567e-16 0)
(25 -3.390762986229619e-17 0)
(25 -5.328951563101979e-16 0)
(25 -2.459641178379205e-16 0)
(25.00000000000002 3.395777928068677e-15 0)
(25 -2.099971261985631e-15 0)
(25.00000000000002 9.924912982675286e-16 0)
(25 -1.080866572998294e-15 0)
(25.00000000001248 1.31270608186598e-11 0)
(25 1.574396974939744e-13 0)
(25.00000000000001 6.89303819926704e-15 0)
(25 -5.499744824222087e-16 0)
(25 1.426371097883846e-15 0)
(25 -2.915207969301041e-16 0)
(25 2.870733082483504e-16 0)
(25 3.916084519974658e-16 0)
(24.99999999998902 -5.644806345950784e-12 0)
(25 -2.078452050602164e-14 0)
(25 1.331238614971468e-16 0)
(25 0 0)
(25.00000000689874 1.480210996236658e-08 0)
(25.00000000002111 5.909853584883348e-11 0)
(25 6.383929372780824e-15 0)
(25 0 0)
(25.00000513291081 -3.758735316983406e-05 0)
(25.00000000053518 -8.676906981178575e-09 0)
(25 -1.394253760213797e-12 0)
(25.00000000000001 -1.077104879566573e-16 0)
(25.00000000000002 8.648511897757907e-16 0)
(25.00000000000001 2.412507252332397e-15 0)
(24.99999999992363 6.652573425358596e-11 0)
(24.99999970506095 8.602957665023217e-08 0)
(25 -2.697613046405769e-16 0)
(25 3.978205824140273e-15 0)
(24.99999999998158 4.751552515629986e-11 0)
(24.99999971811026 4.829097371936922e-07 0)
(25 0 0)
(25 5.614952465859898e-15 0)
(24.99999999997564 5.490791817963547e-11 0)
(24.99999970130239 5.150175907058844e-07 0)
(25 0 0)
(25 6.928770982303103e-15 0)
(24.99999999997062 6.292192948012677e-11 0)
(24.99999968645715 5.408044011181747e-07 0)
(24.99999967012061 5.689353633972462e-07 0)
(24.9999999999641 7.253260680842283e-11 0)
(25 8.715725657863464e-15 0)
(25 1.461720298055809e-16 0)
(24.99999965203391 6.001164196571141e-07 0)
(24.99999999996875 8.413957769709617e-11 0)
(25 7.85117416222379e-15 0)
(25 0 0)
(24.99999963167764 6.341620080249336e-07 0)
(24.99999999996245 9.856274266174106e-11 0)
(25.00000000000001 1.025898577809576e-14 0)
(25 -2.28935554854399e-16 0)
(24.99999960044631 6.967856100698629e-07 0)
(24.99999999994228 1.196852115639961e-10 0)
(25 1.877491245218852e-14 0)
(25 0 0)
(25.00000000000001 -2.552785623026479e-16 0)
(25 1.774886177177883e-14 0)
(24.99999999994511 1.099657162321698e-10 0)
(24.99999960289609 6.474024956801871e-07 0)
(25 5.974824485516299e-16 0)
(25 1.983719862246211e-14 0)
(24.99999999994172 1.132954068704254e-10 0)
(24.99999964815679 5.717990634424181e-07 0)
(25 8.71995514754022e-17 0)
(25 2.543817862027993e-14 0)
(24.99999999993804 1.229174205626293e-10 0)
(24.99999967112951 5.30754581616427e-07 0)
(25 -4.9478522292484e-13 0)
(24.99999999999807 -3.297472594355198e-11 0)
(25.00000000296528 1.880952141242287e-09 0)
(24.99999924007913 2.888834753940628e-06 0)
(24.99999999647799 -8.364842699641986e-10 0)
(25.00000034922296 3.049413271528824e-07 0)
(25.00000697416253 2.808934408151369e-06 0)
(24.98214261035696 -0.003542509658915699 0)
(24.99999999599601 -5.443204260993761e-10 0)
(25.00000041250015 3.122183467720284e-07 0)
(24.99999799052759 -6.599986687217684e-07 0)
(24.95258951128017 -0.001923837930488259 0)
(24.99999999705379 -4.216932643196622e-10 0)
(25.00000033005808 2.377831910070695e-07 0)
(24.99999841602748 -6.034967251358751e-07 0)
(24.95075775658193 -0.0001911349474532632 0)
(24.99999999785232 -3.670520742470571e-10 0)
(25.00000025429507 1.831071640831516e-07 0)
(24.99999924648939 -1.270499185754469e-07 0)
(24.95455172297594 0.0003651708655770796 0)
(24.96510270535889 7.715655644967658e-05 0)
(25.00000460352115 3.108868980779833e-06 0)
(25.00000016315933 1.872303441829641e-07 0)
(24.99999999841501 -5.230850000575221e-10 0)
(24.96775295983673 -1.240100790457828e-05 0)
(25.00000755026987 3.426577986827029e-06 0)
(25.00000015736221 1.706621818464801e-07 0)
(24.99999999862517 -4.45677344178207e-10 0)
(24.96962595937841 -0.0002228935707007791 0)
(25.00000722986458 3.030124019396608e-06 0)
(25.00000013483031 1.452921818127621e-07 0)
(24.99999999886186 -3.670597698163171e-10 0)
(24.95347883204034 0.001908730437233544 0)
(24.99999724574921 -2.215032184011775e-06 0)
(25.00000009993099 9.689229653404103e-08 0)
(24.99999999902312 -1.77317818557867e-10 0)
(24.99916155888094 0.0002206388184787566 0)
(25.00000149009074 3.490643679315841e-07 0)
(25.00000000710751 5.161546318109303e-09 0)
(24.99999999996757 -1.155092441646125e-11 0)
(25.00002957176116 -2.290914633622405e-06 0)
(25.00000004352425 4.854994983924811e-09 0)
(25.00000000000832 5.122299398448047e-12 0)
(25 -6.298993886114932e-15 0)
(25.0000041308374 -1.950044659101533e-06 0)
(25.00000000101016 -1.699243712535177e-10 0)
(25 -1.347289862188307e-12 0)
(25 -5.671680744776356e-17 0)
(24.99999274089227 -2.035003518228503e-05 0)
(24.99999999854802 -7.286527052975822e-09 0)
(25 -1.166049510256489e-12 0)
(25 -2.76300200665157e-16 0)
(25.00080081900069 2.075588395903034e-09 0)
(25.0000017322594 9.843286618756864e-13 0)
(25.00000000136295 -4.504918627951796e-14 0)
(25.00000000000001 1.926730112938438e-16 0)
(25.00080038102895 8.248502900758124e-07 0)
(25.00000173159986 5.893570445431022e-10 0)
(25.00000000136843 6.817580092366333e-13 0)
(25 -3.651432240155312e-17 0)
(25.00077905792731 2.301344963909381e-05 0)
(25.00000169674763 2.150009945777787e-08 0)
(25.00000000135868 8.517811741282822e-12 0)
(25 1.837535597519278e-15 0)
(25.00065678593742 8.247284756443626e-05 0)
(25.00000146316723 9.694122837127417e-08 0)
(25.00000000119304 4.400396214227768e-11 0)
(25 9.861017338813913e-15 0)
(24.99999274090344 2.035003455863485e-05 0)
(24.99999999855547 7.286860282498301e-09 0)
(24.99999999999998 1.181559999467391e-12 0)
(25 7.042693023423136e-16 0)
(25.00000413085001 1.950045440398351e-06 0)
(25.00000000101791 1.70268207504127e-10 0)
(25.00000000000001 1.381443340243806e-12 0)
(25 1.107143159078661e-17 0)
(25.0000295717659 2.290916501094554e-06 0)
(25.00000004352243 -4.854247377497027e-09 0)
(25.00000000000832 -5.131153105030855e-12 0)
(25 -3.474792113242442e-14 0)
(24.99916155886381 -0.0002206388182893665 0)
(25.00000149007127 -3.490636239355702e-07 0)
(25.00000000710648 -5.161572688514501e-09 0)
(24.99999999997195 1.155943178219072e-11 0)
(24.99999999840423 5.230549124442464e-10 0)
(25.0000001631388 -1.872297908255804e-07 0)
(25.00000460351114 -3.108869466860301e-06 0)
(24.96510270535372 -7.715655747167421e-05 0)
(24.99999999861722 4.463903856790317e-10 0)
(25.00000015735933 -1.706630319326293e-07 0)
(25.00000755026234 -3.426577324423238e-06 0)
(24.96775295982886 1.240100435536875e-05 0)
(24.99999999887171 3.670584855231675e-10 0)
(25.00000013481725 -1.452922406982024e-07 0)
(25.00000722986428 -3.030124329339456e-06 0)
(24.96962595935189 0.000222893571111987 0)
(24.99999999902185 1.77056798066316e-10 0)
(25.0000000999276 -9.689174500200938e-08 0)
(24.99999724572655 2.215029997762055e-06 0)
(24.95347883205613 -0.001908730433756298 0)
(24.95455172298993 -0.0003651708673280986 0)
(24.99999924649973 1.270483510673605e-07 0)
(25.00000025430165 -1.831084655312617e-07 0)
(24.99999999785332 3.666760214426499e-10 0)
(24.95075775660255 0.000191134948140249 0)
(24.99999841604138 6.03496407068822e-07 0)
(25.00000033007736 -2.377833761859238e-07 0)
(24.9999999970662 4.213915427395632e-10 0)
(24.95258951128515 0.001923837931970184 0)
(24.9999979905467 6.599991334676136e-07 0)
(25.00000041250107 -3.122175444734074e-07 0)
(24.99999999600681 5.449834653487204e-10 0)
(24.9821426103503 0.003542509658276933 0)
(25.00000697416904 -2.808933767035868e-06 0)
(25.00000034923022 -3.049407517033487e-07 0)
(24.99999999646262 8.361748160594832e-10 0)
(25.00000000000001 4.912068531864055e-16 0)
(25 -2.047360921988778e-14 0)
(24.99999999993812 -1.101652643027621e-10 0)
(24.99999960288067 -6.474027482344636e-07 0)
(25 -1.038308635991829e-15 0)
(25 -1.949869780800065e-14 0)
(24.99999999994118 -1.130583393616785e-10 0)
(24.9999996481627 -5.717978049648778e-07 0)
(24.99999999999999 -8.361516169104124e-17 0)
(25 -2.45821256133317e-14 0)
(24.99999999994305 -1.228215721207979e-10 0)
(24.99999967113228 -5.30754581536437e-07 0)
(25 5.021523837843477e-13 0)
(24.99999999999969 3.315813911616174e-11 0)
(25.0000000029728 -1.88052901351567e-09 0)
(24.99999924007928 -2.888835303464723e-06 0)
(24.99999960041696 -6.967860803682331e-07 0)
(24.99999999994839 -1.198413129059851e-10 0)
(25 -1.736499966275928e-14 0)
(25 0 0)
(24.99999963165311 -6.341628582640883e-07 0)
(24.99999999995357 -9.850572472024727e-11 0)
(25 -1.400118697621621e-14 0)
(25 0 0)
(24.99999965203513 -6.001168908043813e-07 0)
(24.99999999995882 -8.426404668303587e-11 0)
(25 -1.059931539541871e-14 0)
(25 0 0)
(24.99999967010968 -5.689355467815156e-07 0)
(24.99999999997189 -7.252741654910691e-11 0)
(25 -6.377609033357965e-15 0)
(25 0 0)
(25 1.315319537449074e-16 0)
(25 -2.726665669316653e-15 0)
(24.99999999992386 -6.651901297554713e-11 0)
(24.9999997050841 -8.602883526071939e-08 0)
(25 0 0)
(25 -4.192490541806864e-15 0)
(24.99999999997956 -4.753172423520654e-11 0)
(24.99999971810613 -4.829097506159205e-07 0)
(25 0 0)
(25 -5.586610545612055e-15 0)
(24.99999999997515 -5.490915742667215e-11 0)
(24.99999970129267 -5.150178349053093e-07 0)
(25 -1.422147491094914e-16 0)
(25 -6.045681045627745e-15 0)
(24.99999999997412 -6.288521979989306e-11 0)
(24.99999968645363 -5.408045351097421e-07 0)
(25 5.393470997914381e-17 0)
(25 0 0)
(25 1.443783711880862e-16 0)
(25 4.361094124516856e-16 0)
(24.99999999999945 1.393350340363498e-12 0)
(25 -8.880879106136148e-15 0)
(25 3.853478494636508e-17 0)
(25 0 0)
(25.00000000053405 8.676816119248155e-09 0)
(25.00000000001381 -5.904729691461494e-11 0)
(25 1.987019764229371e-14 0)
(25 1.024380323256745e-15 0)
(25.00000513291135 3.758735279272053e-05 0)
(25.00000000689874 -1.480208581224654e-08 0)
(24.99999999998877 5.661834812935193e-12 0)
(25 -1.518076804658298e-15 0)
(25.00000000000002 -1.174428025988199e-15 0)
(25 -1.558599265956956e-16 0)
(25.00000000000002 -1.355770802114636e-15 0)
(25 -1.234735849483881e-16 0)
(25 1.350922013793101e-17 0)
(25 -1.558192780884511e-16 0)
(25 0 0)
(25.00000000000001 -5.782218076393806e-15 0)
(25 0 0)
(25 3.116521056789663e-16 0)
(25 1.900404434369225e-16 0)
(25 -1.596180299642076e-13 0)
(25 1.305512870468915e-16 0)
(25.00000000000001 7.743540645864938e-17 0)
(25 -1.871808480454123e-15 0)
(25.00000000001271 -1.314971475897199e-11 0)
(25 1.959502163948085e-14 0)
(25.0000000000104 -6.882294868678223e-12 0)
(24.9999999999375 -3.60857459910413e-08 0)
(24.99999922919718 -0.0001257226702946937 0)
(25 6.617020364696938e-15 0)
(25.00000000000162 -2.864160977624074e-12 0)
(25.00000000264886 -1.432163116117683e-08 0)
(25.00001315406524 -4.278095873698723e-05 0)
(25.00000000000001 2.312006532173628e-16 0)
(25 -2.309207285534429e-13 0)
(25.00000000044842 -1.046552054220213e-09 0)
(25.00000167608285 -2.363786095825705e-06 0)
(25 0 0)
(25 -1.741029766842405e-15 0)
(25.00000000000453 -8.343207480839121e-12 0)
(25.00000001551085 -1.545121087761713e-08 0)
(24.99999340581414 -1.230418352907376e-05 0)
(24.99999999881807 -2.979634502584935e-10 0)
(25 -4.560860169365805e-13 0)
(25 5.741737652707975e-16 0)
(24.99999574929084 -2.21648982985751e-05 0)
(24.99999999948174 -3.101528605168911e-09 0)
(25 -3.737297556245029e-13 0)
(25 2.639819465928816e-15 0)
(24.99999580210124 -2.17974472355624e-05 0)
(24.99999999951513 -2.962439919166687e-09 0)
(24.99999999999999 -3.439398900606085e-13 0)
(25.00000000000002 -2.165066137399932e-15 0)
(24.99999591165127 -2.100735894823328e-05 0)
(24.99999999955886 -2.820786380951871e-09 0)
(25 -3.13117246894303e-13 0)
(25 -2.503691349443297e-16 0)
(24.99999586198154 -2.036412256899479e-05 0)
(24.99999999995247 1.314839616555459e-10 0)
(25 -2.063816294678539e-16 0)
(25 0 0)
(24.99999544402946 -2.274987156136658e-05 0)
(25.00000000000727 -4.121383752474984e-12 0)
(25 2.496843339269854e-16 0)
(25.00000000000001 2.853066791751146e-16 0)
(24.99999482753878 -2.370515417082488e-05 0)
(25 -5.863956856852551e-15 0)
(25 0 0)
(25.00000000000001 1.329960323093514e-15 0)
(24.99999684666503 -1.249903164202216e-05 0)
(25 6.541390891751371e-16 0)
(25 -2.507052008981768e-16 0)
(25.00000000000002 -1.322942481846107e-15 0)
(25 4.863938375621084e-16 0)
(25 3.309664052014551e-16 0)
(25 0 0)
(24.99999999999989 -4.635427267881542e-13 0)
(24.99999999999999 -2.843418720158383e-19 0)
(25 4.697550240294704e-16 0)
(25 -1.422460094272691e-16 0)
(25.00000000010935 -4.45893984807164e-12 0)
(25 -4.486905297604719e-16 0)
(25 -2.972293899178907e-16 0)
(25 -2.416328785721392e-16 0)
(25.00000000483021 2.359227252593883e-09 0)
(25 -2.072521683103341e-16 0)
(25 -2.343044460998395e-17 0)
(25.00000000000002 -2.847564816902099e-17 0)
(24.99999997549935 -3.380966933225161e-09 0)
(25.00000000001209 -3.688259967840428e-14 0)
(25.00000003414643 -8.211216895960154e-09 0)
(25.000001556446 4.119286800589278e-07 0)
(24.99999689750263 -1.666418305905521e-05 0)
(25.00000003415839 8.211606627817999e-09 0)
(24.99999997479417 8.039155098554667e-12 0)
(25.00000804882243 -3.521704868700805e-05 0)
(24.99985036698625 -0.0009594373258295791 0)
(25.00000155644572 -4.119340877224298e-07 0)
(25.00000804882581 3.521704600042755e-05 0)
(24.99996869934303 -8.329456164563323e-13 0)
(24.97247276821246 0.0008993457694138727 0)
(24.99999689749348 1.666418048113464e-05 0)
(24.99985036698 0.0009594373225470936 0)
(24.97247276821878 -0.0008993457729691635 0)
(23.65440120933228 6.108839615427215e-12 0)
(23.89169540898704 1.190909755581691 0)
(24.34490588168993 1.657561276412391 0)
(24.98082170369776 0.1552397831037305 0)
(24.99940030671847 0.002960991248918536 0)
(24.28680182169531 2.227082606285196 0)
(24.33418092228415 2.659959166191695 0)
(24.98087100135025 0.3089532966408466 0)
(24.998861007361 0.00675051633966613 0)
(24.33143031575914 2.293838205447501 0)
(24.362943370493 2.732423121762516 0)
(24.98450271609476 0.3217778138462982 0)
(24.99889060663251 0.007116717965236506 0)
(24.33441936781886 2.297345218435986 0)
(24.36716976408021 2.730476702109054 0)
(24.984261517625 0.3201194505584014 0)
(24.99888915418842 0.007023823306315864 0)
(24.99891495079915 0.007453002429585352 0)
(24.99890972988624 0.007654353943680305 0)
(24.99891210212219 0.007664775007459943 0)
(24.99802900076891 0.005710812098931433 0)
(24.98794786078799 0.3416312493320315 0)
(24.99087889901069 0.3482015092130918 0)
(24.99107925368814 0.3484525940835584 0)
(24.98588426853175 0.3525104355447916 0)
(24.29821690481675 2.865892160241236 0)
(24.30328848929789 2.907346742843523 0)
(24.30428985846005 2.909610762219951 0)
(24.42993949494765 3.269293272575261 0)
(24.30422994366699 2.27956521142856 0)
(24.3389491689469 2.291037150699085 0)
(24.3432847558909 2.292181727317651 0)
(25.40149537355714 2.766622319650382 0)
(24.99985377490624 0.02183785967651955 0)
(25.0028842114363 0.0054552656637534 0)
(25.00019224140607 0.0001441311847635283 0)
(25.00000118190482 2.494158166640203e-07 0)
(25.04727715582969 0.2177903176154851 0)
(25.01769879128208 0.01714997814915683 0)
(25.00043368458682 -2.478296871494329e-05 0)
(25.00000966905756 -8.451828245294745e-06 0)
(25.18645620762444 0.6662175043196872 0)
(25.02602792381534 0.00773476406756927 0)
(25.00165211916632 -0.001449138742507839 0)
(25.00013111308869 -0.0001216623363376206 0)
(24.64634988289569 0.1884674719201682 0)
(24.97003102558652 -0.0005883299461664688 0)
(24.99117333008855 -0.000763295308963895 0)
(24.99956476743613 -5.643865234061235e-05 0)
(25.00000000255141 9.863862163397827e-10 0)
(25.00000000000323 5.498397842752658e-11 0)
(24.99999999999837 2.014707393374033e-12 0)
(25.00000000000001 -6.605638372132093e-16 0)
(25.00000021341834 -5.061065268338032e-08 0)
(25.00000000294089 1.673423826544817e-09 0)
(24.99999999998214 4.187313146831591e-11 0)
(25 2.526183587511767e-13 0)
(25.00000071995716 -4.971664521780943e-07 0)
(24.99999999510933 2.034985729313708e-08 0)
(25.00000000084136 1.139872137638508e-09 0)
(25.00000000000529 9.620785399738505e-12 0)
(24.99999837205852 -1.515990898604455e-07 0)
(25.00000005046617 1.76073238470896e-08 0)
(25.00000000899772 2.125680354950921e-09 0)
(25.00000000007573 1.710389974000488e-11 0)
(25.00000000000001 -2.417167722442199e-16 0)
(25.00000000000001 1.68673960563543e-13 0)
(24.99999999954085 -1.944978157018648e-10 0)
(25.00230179511393 -0.008153263000566895 0)
(25 3.493854163848555e-15 0)
(25 5.695570401109463e-15 0)
(24.99999999998139 -1.09151654572829e-11 0)
(25.06335189924277 -0.253127897237342 0)
(25 2.153753539146437e-14 0)
(25 4.567876010915135e-17 0)
(25.00000000000001 3.242335490997149e-14 0)
(25.06866184045314 -1.944097931793533 0)
(25 9.554816580198243e-14 0)
(25 2.653174649673195e-16 0)
(25.00000000000001 1.408809093032995e-14 0)
(17.26665985341719 -3.194669140332068 0)
(24.99980006026165 0.0003250528088924012 0)
(24.99971147461177 0.0005767668280882364 0)
(24.9997097550006 0.0005872153725659162 0)
(24.99970975825518 0.0005878115665536281 0)
(24.90761257967582 0.2081038942630444 0)
(24.88541564413126 0.3016124362409091 0)
(24.88583189312394 0.3027220395376463 0)
(24.88580884392383 0.3026347262013948 0)
(21.73179019912133 5.387289395994744 0)
(21.16551652825033 6.188797112824942 0)
(21.16609212236041 6.153916260365606 0)
(21.16429993663558 6.144460897558415 0)
(21.76006772868872 6.037671313858844 0)
(20.88515467556359 6.035735366697692 0)
(20.82483367903075 5.995167721035325 0)
(20.80580731975635 5.988438838426891 0)
(24.99970966176094 0.0005878700880650346 0)
(24.99970954635594 0.0005879514061210313 0)
(24.99970941451744 0.0005880460062881297 0)
(24.9997057531572 0.0006128049981266327 0)
(24.8858042850605 0.3026294050715095 0)
(24.885804242184 0.3026295470124059 0)
(24.8858042989646 0.3026295597260301 0)
(24.88695103235439 0.3075454325465291 0)
(21.16420890310543 6.144319618100131 0)
(21.16420832871113 6.144322780789069 0)
(21.16420849882783 6.144323354928409 0)
(21.15665583186325 6.160720191370745 0)
(20.80534034487503 5.988373737807423 0)
(20.80534317016217 5.98837684474602 0)
(20.80534436761208 5.988377418656273 0)
(20.80015026138311 5.986670469595998 0)
(24.99974892961109 0.0004615200295471082 0)
(24.99979462008619 0.0003704010514877307 0)
(24.99983626439833 0.0003056338484899413 0)
(24.99985812357117 0.000163049883982357 0)
(24.89683674465306 0.245845031124503 0)
(24.90674706995558 0.2142203306959836 0)
(24.91948586253721 0.1862973315191891 0)
(24.94105159532508 0.1259751452856898 0)
(21.55701033977986 5.60115557451701 0)
(21.7004443258953 5.318007325314039 0)
(21.86403449477375 5.039927784795631 0)
(22.76348387121878 5.456843534281632 0)
(20.91268825666162 5.938166647184038 0)
(20.97619075484283 5.798445465909076 0)
(20.99555552187211 5.667790035538682 0)
(26.15793675483438 7.029260460622968 0)
(24.3572933262299 -0.2223857178895012 0)
(22.84401994764795 -0.1010310264874818 0)
(22.55012023906963 -0.002309722823186272 0)
(22.56022000105573 -0.009115992933396202 0)
(23.11375891554561 -1.313959326174066 0)
(17.25348341760982 -0.4737053206329059 0)
(16.11235563732518 -0.008441296616960912 0)
(16.08256938630892 -0.05857911454728933 0)
(22.13438065457084 -2.905504680350727 0)
(11.95418967937705 -1.035300050561265 0)
(10.01886731860605 -0.01322483099905593 0)
(9.991538278905347 -0.1457252047273602 0)
(14.59585981470526 -7.110644793361056 0)
(4.340955875863745 -1.045434149123328 0)
(3.02689816071546 -0.01648027250133289 0)
(3.015503040537471 -0.05138856906321781 0)
(22.33008639280275 -0.01194008424037895 0)
(22.33266926409515 0.0001386754037970373 0)
(22.31432059826827 -0.01941002375806867 0)
(20.93614030642221 0.2942664885488793 0)
(15.82394679220591 -0.07624399849520684 0)
(15.82407924290891 -0.002527403315265433 0)
(15.77480791548241 -0.06177320259927382 0)
(10.7523577192907 1.783565616809119 0)
(10.22731367370922 -0.1751987930352812 0)
(10.26218832254647 -0.007342784439653891 0)
(10.08054865601741 -0.006473010109298578 0)
(2.290686404700859 4.70020863509983 0)
(3.346524186030611 -0.04809143069322362 0)
(3.35533515860218 -0.003358899640481629 0)
(3.213835316200202 0.1125676003351791 0)
(-0.3659429146180445 4.834459128882468 0)
(24.85369277853042 0.03058073079389003 0)
(25.00117700880276 -4.266536099420043e-05 0)
(25.00039888430799 -0.0004311422630352813 0)
(24.99863724035404 -0.005081031770610426 0)
(24.36866869535671 0.05521311072994232 0)
(24.99798729120093 0.0005694372612844474 0)
(25.00236315161865 -0.005723027111473217 0)
(25.0323037792981 -0.04436479793257552 0)
(23.86917229468077 -0.2283052256479262 0)
(25.0209168715493 -0.03705769122441004 0)
(25.04283143603779 -0.02979849477166977 0)
(25.96588022799991 -0.2268416049931493 0)
(20.27680713091884 2.753765511051306 0)
(24.56389986016629 0.1887314491648489 0)
(25.08549340182664 0.00873952698509667 0)
(29.33664902519851 -0.2108952954157312 0)
(25.00561403302126 0.004267010756895248 0)
(25.0184371830477 0.002171652482791115 0)
(25.02048286684902 0.0005651464875692208 0)
(25.02797103107019 0.008273475310862902 0)
(24.91931345304465 -0.1643807972339068 0)
(24.78579548078981 -0.05906578340897784 0)
(24.71793930839603 -0.0102548155634379 0)
(24.73941288540061 0.001223627287526172 0)
(23.87409467905582 -2.642372275048693 0)
(22.77819970207218 -1.00599312616683 0)
(22.37476456044195 -0.1556193945033133 0)
(22.40769544576107 -0.2942586457255924 0)
(13.66471080889209 -9.519086717097542 0)
(9.771705778949643 -4.228971583152563 0)
(8.654632806113838 -0.53054983370689 0)
(8.494521384089447 -0.5267068425492255 0)
(7.834792210492873 -0.5284322610857828 0)
(7.805388922839796 -0.1100935489065075 0)
(7.789658571693156 -0.007249738708775331 0)
(7.789855306868394 -6.526565213424693e-05 0)
(22.50749253562978 -0.3334427344720884 0)
(22.6320621017253 -0.06603201272903776 0)
(22.62358865905062 -0.008079662045545227 0)
(22.62178478719286 -0.0002384305255170448 0)
(24.81856375036214 0.008387502817326286 0)
(24.86641657269193 0.005575883851766796 0)
(24.86703743749631 -0.0001261728435287605 0)
(24.86657952851661 -3.133847956371729e-05 0)
(25.05583054872907 0.01673682112192962 0)
(25.06964299919274 0.004503015092874439 0)
(25.07142077438492 0.0002516749842162541 0)
(25.07142543244165 1.298119566939914e-06 0)
(7.789855306869504 6.526565625287782e-05 0)
(22.62178478719624 0.0002384305140445646 0)
(24.86657952851027 3.133848867285154e-05 0)
(25.07142543244166 -1.298118540418713e-06 0)
(7.789658571692257 0.007249738728327 0)
(22.62358865906948 0.008079662040248162 0)
(24.86703743747657 0.0001261728511569403 0)
(25.07142077438666 -0.0002516749841045773 0)
(7.805388922836222 0.1100935488789163 0)
(22.63206210172645 0.06603201276349918 0)
(24.86641657270486 -0.005575883887204505 0)
(25.0696429991965 -0.004503015103609464 0)
(7.834792210495096 0.5284322610831421 0)
(22.50749253561028 0.3334427344678947 0)
(24.81856375037281 -0.008387502808239859 0)
(25.05583054874262 -0.01673682112288888 0)
(25.02797103107876 -0.008273475307069822 0)
(25.02048286685292 -0.00056514648667162 0)
(25.01843718305928 -0.002171652488650857 0)
(25.00561403304401 -0.004267010752596191 0)
(24.73941288541867 -0.001223627284079471 0)
(24.71793930839291 0.0102548155738112 0)
(24.78579548076471 0.05906578340190038 0)
(24.91931345306494 0.1643807972296693 0)
(22.40769544575518 0.2942586457221291 0)
(22.37476456043607 0.155619394496177 0)
(22.77819970207645 1.005993126167036 0)
(23.87409467905433 2.64237227504953 0)
(8.494521384090461 0.5267068425514356 0)
(8.654632806114352 0.5305498337125606 0)
(9.771705778948537 4.228971583153229 0)
(13.66471080889226 9.519086717096492 0)
(29.33664902519628 0.2108952954140065 0)
(25.0854934018252 -0.008739526982497173 0)
(24.56389986016537 -0.1887314491651698 0)
(20.27680713091008 -2.753765511050113 0)
(25.96588022800168 0.2268416049891187 0)
(25.04283143604886 0.02979849475983322 0)
(25.02091687154849 0.03705769122549349 0)
(23.86917229467763 0.2283052256470589 0)
(25.03230377930172 0.04436479792925115 0)
(25.00236315163668 0.005723027121399481 0)
(24.99798729120166 -0.0005694372621272313 0)
(24.36866869535695 -0.05521311072870203 0)
(24.99863724035771 0.005081031767826934 0)
(25.00039888431361 0.0004311422639489896 0)
(25.00117700880628 4.266536091419788e-05 0)
(24.85369277852693 -0.03058073078822812 0)
(20.93614030642672 -0.2942664885517619 0)
(22.31432059828152 0.01941002376019155 0)
(22.33266926410028 -0.0001386754043688389 0)
(22.33008639281574 0.01194008423729256 0)
(10.75235771928982 -1.783565616806654 0)
(15.77480791547877 0.06177320260388976 0)
(15.82407924289158 0.002527403315676179 0)
(15.82394679219274 0.07624399849894423 0)
(2.290686404679403 -4.700208635105582 0)
(10.08054865601246 0.006473010106821065 0)
(10.26218832253998 0.007342784439338085 0)
(10.22731367370593 0.175198793035299 0)
(-0.365942914623468 -4.834459128896403 0)
(3.213835316191876 -0.1125676003374155 0)
(3.355335158602572 0.003358899640737393 0)
(3.346524186032127 0.04809143069849835 0)
(22.56022000107901 0.009115992936695018 0)
(22.55012023905408 0.002309722823863774 0)
(22.84401994762631 0.1010310264858406 0)
(24.35729332621918 0.2223857178884264 0)
(16.08256938628162 0.058579114541536 0)
(16.11235563731739 0.008441296614801672 0)
(17.25348341760106 0.4737053206292106 0)
(23.11375891555265 1.313959326175895 0)
(9.991538278906722 0.1457252047246659 0)
(10.01886731860583 0.01322483100096046 0)
(11.95418967935175 1.035300050556151 0)
(22.13438065458464 2.905504680348055 0)
(3.01550304053771 0.05138856905869903 0)
(3.026898160716387 0.01648027249376186 0)
(4.340955875865613 1.045434149126753 0)
(14.59585981472599 7.110644793358279 0)
(24.99985812356924 -0.0001630498845291601 0)
(24.99983626439081 -0.0003056338533704016 0)
(24.9997946200945 -0.000370401049575663 0)
(24.99974892959893 -0.0004615200275341402 0)
(24.9410515953408 -0.1259751452750763 0)
(24.91948586252808 -0.1862973315220085 0)
(24.90674706995634 -0.2142203307010507 0)
(24.89683674463927 -0.2458450311226115 0)
(22.76348387123794 -5.456843534277381 0)
(21.86403449477768 -5.039927784785752 0)
(21.70044432589574 -5.318007325309807 0)
(21.55701033979044 -5.601155574499377 0)
(26.15793675485167 -7.029260460627823 0)
(20.99555552187952 -5.667790035537993 0)
(20.97619075485218 -5.798445465907221 0)
(20.91268825667769 -5.938166647185305 0)
(24.99970575315129 -0.0006128049881875042 0)
(24.99970941449992 -0.0005880460054706335 0)
(24.99970954635658 -0.0005879514068276947 0)
(24.99970966174975 -0.0005878700880715824 0)
(24.88695103235722 -0.3075454325351362 0)
(24.88580429894897 -0.3026295597270383 0)
(24.88580424216999 -0.3026295470225905 0)
(24.88580428505826 -0.3026294050590146 0)
(21.15665583188697 -6.160720191356877 0)
(21.1642084988288 -6.144323354915207 0)
(21.16420832870863 -6.144322780779539 0)
(21.16420890311431 -6.14431961809513 0)
(20.80015026141145 -5.986670469598059 0)
(20.80534436762245 -5.98837741865389 0)
(20.80534317016416 -5.98837684474527 0)
(20.80534034488591 -5.988373737809448 0)
(24.99970975827393 -0.0005878115555701621 0)
(24.99970975498793 -0.0005872153756764668 0)
(24.99971147460904 -0.0005767668279310607 0)
(24.99980006026231 -0.000325052820180642 0)
(24.88580884393269 -0.3026347262094093 0)