/*--------------------------------*- C++ -*----------------------------------*\
  =========                 |
  \\      /  F ield         | OpenFOAM: The Open Source CFD Toolbox
   \\    /   O peration     | Website:  https://openfoam.org
    \\  /    A nd           | Version:  11
     \\/     M anipulation  |
\*---------------------------------------------------------------------------*/
FoamFile
{
    format      ascii;
    class       volScalarField;
    location    "9.9";
    object      p;
}
// * * * * * * * * * * * * * * * * * * * * * * * * * * * * * * * * * * * * * //

dimensions      [0 2 -2 0 0 0 0];

internalField   nonuniform List<scalar> 
4455
(
5933.1269
5946.402
5968.7263
6000.5537
6043.5629
6098.3746
6175.055
6280.4251
6448.1011
5871.3699
5890.242
5919.1643
5957.1047
6003.5119
6062.4925
6145.371
6261.6881
6482.3034
5805.5836
5831.5203
5867.7441
5910.2452
5960.496
6022.65
6108.3456
6233.3054
6502.0662
5737.398
5771.4983
5814.1431
5861.0236
5914.1056
5979.1686
6067.3177
6199.5187
6517.6731
5668.6625
5710.7321
5759.0429
5810.1457
5864.7367
5932.4062
6022.6476
6159.4021
6535.625
5600.6546
5649.9503
5703.5123
5757.3031
5813.7844
5884.2074
5975.2546
6110.9673
6555.3134
5534.6134
5590.0573
5647.7554
5703.5085
5761.5087
5834.2313
5925.7377
6054.8968
6572.9269
5471.7218
5531.5661
5592.44
5649.5193
5708.5945
5782.9765
5874.9849
5990.0757
6583.4889
5412.7769
5475.3604
5537.9326
5595.9915
5655.8242
5730.9045
5824.7596
5917.5644
6575.3532
5358.1882
5308.4888
5264.0762
5225.2816
5192.1216
5164.3935
5142.3535
5126.1787
5116.5157
5421.6054
5370.4811
5323.0447
5279.3429
5239.4962
5204.1931
5173.5167
5147.3468
5126.0605
5484.1507
5431.4335
5381.39
5334.1761
5289.919
5248.6534
5210.1995
5174.669
5141.2694
5541.9785
5487.5823
5434.6796
5383.6536
5334.9103
5288.3375
5243.7596
5200.9008
5159.2367
5601.377
5544.7307
5489.0697
5434.7418
5382.0413
5331.7522
5284.0894
5239.1716
5195.4946
5675.376
5614.983
5553.9426
5492.6715
5431.5857
5370.818
5310.7931
5252.2937
5191.7833
5770.837
5709.8267
5646.9273
5584.6071
5524.23
5466.8411
5411.621
5359.0309
5305.2628
5832.7041
5731.8014
5626.9799
5526.4124
5435.9913
5353.5054
5278.9579
5209.5686
5144.6686
6542.0527
6387.8848
6154.1376
5908.8854
5688.1348
5489.6412
5306.2637
5131.6633
4976.4909
5114.8037
5112.3676
5106.1007
5097.4487
5086.1234
5073.2176
5057.0729
5039.2801
5017.8985
5114.2138
5102.6149
5087.9456
5070.5497
5050.4106
5026.8041
5000.4004
4972.5158
4942.354
5118.7555
5099.9072
5079.6311
5057.8844
5034.4754
5009.1689
4981.6878
4951.8139
4919.4679
5129.7801
5106.5202
5082.2018
5056.2114
5028.1806
4998.3161
4966.64
4933.0279
4897.0258
5163.3892
5134.6842
5103.6276
5071.2456
5037.7475
5002.5558
4965.2574
4925.3421
4882.8816
5143.5171
5106.7698
5072.4162
5037.4562
5000.5943
4962.1432
4922.6869
4882.0995
4840.2868
5254.4512
5206.2623
5154.268
5102.0218
5052.6417
5004.1052
4954.7201
4904.022
4852.4362
5091.5682
5039.6139
4979.04
4911.6804
4840.7402
4770.629
4703.938
4641.7917
4585.8141
4850.9525
4746.621
4640.9392
4544.7198
4464.2692
4390.9534
4320.8108
4267.1203
4234.1877
4225.4965
4218.3096
4227.386
4266.879
4335.0322
4421.3331
4521.7218
4631.4634
4745.0315
4538.6163
4494.6189
4454.5263
4424.1592
4406.0036
4399.2254
4402.735
4416.5559
4439.4371
4803.8565
4758.9411
4716.0387
4675.1605
4637.1795
4602.4518
4571.8542
4546.0054
4524.7655
4798.341
4756.1101
4712.4774
4668.3706
4624.7729
4582.2624
4541.1493
4501.558
4463.5221
4839.6719
4796.2938
4751.7592
4706.1104
4659.7831
4612.9151
4566.0924
4519.0349
4471.615
4859.061
4818.8615
4776.2218
4731.5098
4684.903
4636.3974
4586.1662
4534.1757
4480.5836
4885.1053
4848.7295
4809.9418
4769.0312
4726.0279
4680.7537
4633.2479
4583.5278
4531.436
4909.3209
4873.548
4834.7004
4792.6858
4748.8887
4702.6153
4653.2597
4600.9059
4545.9762
4990.7109
4957.4985
4923.7622
4889.3822
4853.8697
4815.4879
4773.5647
4727.3741
4677.1166
4622.7406
4564.351
4502.3392
4436.6249
4366.2349
4291.2102
4211.6109
4126.2851
4036.1422
4487.7353
4426.1198
4361.2815
4292.9621
4221.0009
4145.195
4066.1902
3982.2921
3894.6028
4476.5402
4418.2907
4356.9868
4293.2257
4226.7309
4156.1793
4083.4952
4006.1511
3924.5914
4425.1305
4367.4305
4308.1506
4246.6853
4183.4531
4117.5594
4049.3
3978.5057
3903.3901
4423.9322
4375.0015
4326.1445
4276.0277
4224.3703
4172.9143
4119.2556
4063.2039
4006.2973
4426.8474
4390.8453
4355.5041
4320.5957
4286.3283
4252.3667
4218.8037
4184.5321
4148.7569
4507.7231
4494.6087
4486.1137
4481.0538
4478.7004
4477.6802
4477.4717
4477.8648
4478.4274
4470.0152
4507.8121
4550.9817
4597.8092
4647.9846
4701.6476
4758.3101
4817.119
4876.7817
4857.4887
4969.1718
5081.7053
5194.6894
5309.5511
5426.6959
5547.0006
5666.7846
5790.7243
5912.8669
4936.2834
4476.7297
4110.1441
3945.5891
3825.8389
3839.9842
3801.9225
3939.883
6037.518
4994.3895
4472.8897
4068.3819
3879.7796
3742.6771
3748.6025
3703.7774
3837.6838
6164.2265
5049.4808
4465.5697
4021.7761
3811.2921
3655.2453
3653.4241
3600.6261
3728.6741
6288.893
5100.212
4452.7782
3969.7045
3736.2687
3562.1284
3552.9466
3491.56
3613.0798
6409.9764
5144.0628
4433.1921
3910.4372
3654.4821
3462.016
3444.4782
3376.2367
3490.4549
6526.7794
5178.987
4404.9825
3842.8713
3566.2629
3354.7795
3332.2907
3254.4304
3360.1663
6629.2904
5201.7801
4366.0629
3765.0028
3469.6642
3240.3646
3211.5092
3125.9592
3222.4929
6710.7345
5208.7827
4314.0575
3675.049
3363.27
3115.3435
3082.6559
2990.4332
3077.3995
6750.2477
5193.0007
4244.6432
3573.028
3247.1405
2982.8131
2947.1028
2847.8889
2925.1726
2770.7787
2698.6938
2800.4139
2839.9256
3113.1814
3449.579
4148.732
5140.7385
6736.9449
2619.9436
2541.7207
2640.0694
2683.5351
2958.337
3299.5035
4004.8295
5004.9462
6509.9531
2455.79
2377.0517
2469.8988
2516.0476
2783.6046
3118.6798
3811.8889
4794.163
6199.294
2267.2755
2203.3612
2289.4365
2335.6965
2590.2401
2914.7698
3588.97
4548.8509
5899.5823
2061.0808
2020.1282
2095.9506
2141.2894
2379.5818
2690.9864
3342.7099
4286.6459
5605.5919
1850.0605
1828.2702
1896.9344
1936.1619
2155.1443
2450.8896
3079.7634
4011.6625
5310.562
1637.9805
1628.8825
1688.3681
1720.6982
1919.292
2194.0945
2799.5306
3719.0055
5007.1645
1421.2203
1423.0277
1471.3329
1495.8316
1669.708
1922.85
2500.2974
3406.1359
4694.1686
1199.1054
1214.3362
1248.4972
1261.6761
1407.0871
1635.5625
2178.9103
3069.2654
4367.4157
4028.6849
2708.9469
1838.53
1332.9122
1134.8125
1022.3875
1024.0126
1000.9541
975.66175
3681.041
2324.2073
1475.276
1011.9835
855.3245
775.86993
795.01332
787.08934
752.6962
3321.0751
1915.7692
1094.1026
678.89265
567.32718
527.57362
565.2132
574.77132
534.09515
2945.6331
1479.8184
690.61739
335.27312
273.95933
276.24929
339.0801
365.36127
320.47721
2551.7646
1016.8558
271.48308
-16.03498
-21.411318
29.956866
115.68353
161.38388
118.05447
2133.5166
521.94664
-166.73329
-372.52633
-314.8859
-215.7022
-100.61098
-34.775216
-73.546593
1687.2078
-5.4381021
-614.20562
-730.78353
-603.47369
-452.01041
-306.63239
-218.83366
-247.1341
1205.9748
-565.73989
-1075.3349
-1085.0429
-884.93224
-677.85047
-499.25211
-390.47851
-404.10411
685.47718
-1158.393
-1537.5695
-1429.7397
-1150.1376
-889.85428
-676.89042
-545.28467
-539.17296
-651.92404
-680.44252
-836.69021
-1086.9946
-1409.2135
-1772.4692
-2022.6818
-1827.2939
64.550388
-734.6127
-790.58807
-975.69658
-1264.9125
-1644.0208
-2096.9251
-2507.7857
-2584.377
-720.54409
-785.49919
-874.76797
-1086.1877
-1413.0606
-1852.3166
-2387.0765
-2958.4004
-3370.3981
-1610.9415
-807.05152
-932.8814
-1167.7249
-1530.6236
-2019.591
-2633.7067
-3352.9132
-4140.6768
-2630.9931
-799.36137
-969.25637
-1216.213
-1615.9471
-2148.9126
-2830.549
-3678.224
-4868.6258
-3795.7189
-762.69457
-983.8277
-1233.7132
-1671.9465
-2241.2803
-2970.5368
-3915.3853
-5480.626
-5188.2642
-699.61973
-976.06851
-1222.6121
-1700.4368
-2294.0247
-3059.4002
-4044.1989
-5913.3128
-6868.9163
-614.43803
-946.54191
-1184.6869
-1702.0057
-2316.3248
-3103.8836
-4058.9278
-6095.1783
-8742.2418
-510.7267
-900.33884
-1124.4262
-1683.5658
-2313.7728
-3130.2852
-4011.7903
-5965.6673
-10388.171
-409.73897
-843.36229
-1041.4717
-1651.0119
-2302.2633
-3193.5225
-4057.3819
-5799.6693
-11850.501
-315.54485
-785.29598
-962.59339
-1643.1192
-2350.4935
-3361.64
-4391.9743
-6609.852
-13308.408
-192.21028
-724.00073
-901.8693
-1665.8829
-2460.3922
-3625.0478
-5000.5436
-7831.584
-14299.392
-47.669827
-654.35822
-851.16124
-1688.8488
-2573.1738
-3919.4472
-5616.1222
-9031.2785
-13048.282
100.32863
-569.43383
-788.19832
-1703.6371
-2682.6082
-4210.0757
-6181.858
-10295.553
-11043.123
251.7705
-469.62526
-712.73918
-1696.6722
-2784.0899
-4501.8102
-6734.8986
-11684.593
-11155.048
400.86935
-356.84125
-621.05881
-1668.2443
-2852.7881
-4770.6855
-7331.1548
-13009.593
-13015.799
551.77457
-235.27341
-523.68949
-1621.4272
-2914.0814
-5030.3378
-7972.7483
-13663.243
-13433.69
721.82631
-105.90089
-418.42113
-1558.6701
-2962.6842
-5279.9795
-8565.7957
-13740.176
-13339.742
-13431.483
-13976.652
-8972.4251
-5458.3992
-2986.9548
-1479.2478
-315.49587
31.909666
905.64291
-13494.221
-14153.206
-9245.8933
-5565.9423
-2972.8964
-1380.2252
-207.21963
173.15161
1073.6494
-13539.277
-14293.06
-9461.2318
-5627.8018
-2924.3453
-1261.8015
-91.33307
319.30435
1218.4953
-13574.814
-14394.35
-9627.7964
-5662.1946
-2852.4744
-1128.3113
28.691139
465.61723
1349.0908
-13620.067
-14497.041
-9759.8655
-5678.25
-2767.0772
-989.32648
150.71426
609.74474
1475.727
-13677.026
-14572.574
-9867.7966
-5687.7099
-2673.5278
-850.85812
269.77427
752.36485
1598.4598
-13848.495
-14648.714
-9951.9801
-5684.1456
-2571.2259
-710.58936
386.58353
892.18867
1717.7628
-14106.663
-14694.956
-10008.728
-5663.0049
-2460.8153
-573.78311
502.17664
1030.631
1833.0294
-14309.516
-14789.53
-10030.94
-5604.6818
-2337.6862
-430.39724
616.39585
1167.9413
1942.1754
-14339.16
-14629.039
-9697.8917
-5355.9298
-2048.5316
-169.46532
815.65754
1400.4494
2117.3731
-14094.696
-14600.529
-9360.1665
-4917.625
-1594.8085
204.96088
1080.0295
1697.9882
2359.6494
-13362.155
-14547.548
-8967.1996
-4327.7476
-1005.7281
562.35718
1328.648
1990.9015
2607.2949
-12607.997
-14484.623
-8491.8214
-3639.3862
-457.71254
841.83133
1568.9936
2270.9222
2854.865
-12080.882
-14407.636
-7936.3735
-2927.3183
-12.47178
1096.3602
1822.5372
2603.4257
3040.6738
-11763.514
-14295.666
-7285.9978
-2200.0339
372.54474
1317.7715
2084.3286
2789.7128
3179.9806
-11623.055
-14146.803
-6545.0555
-1542.1447
636.34331
1428.4272
2366.146
3018.9127
3150.1108
-11760.404
-13973.132
-5745.751
-986.41104
859.678
1567.93
2585.7242
3126.9814
3040.3881
-11387.691
-13790.765
-4935.2304
-582.26034
1062.5121
1719.4722
2795.8175
3268.9393
2655.3593
-10467.876
-9726.788
-7039.3956
-5272.858
-3769.5263
-4044.7106
-2417.6222
-1311.5044
133.73006
-10538.604
-9945.5211
-7120.0822
-5135.2548
-3315.6442
-3555.0543
-2057.4514
-1218.0658
279.17347
-10602.962
-10155.71
-7175.9977
-4968.7253
-2883.8489
-3065.8261
-1687.9648
-1102.1936
443.38612
-10660.398
-10355.426
-7199.5253
-4770.3094
-2479.9682
-2584.6049
-1321.3132
-961.5491
629.74615
-10709.275
-10547.758
-7193.2445
-4537.4393
-2109.2862
-2119.3791
-953.42333
-797.72898
830.56112
-10749.232
-10738.149
-7155.6403
-4261.8176
-1756.1175
-1670.9468
-581.44046
-599.64276
1047.5657
-10786.817
-10920.856
-7093.6591
-3946.6018
-1419.3017
-1240.3717
-213.89915
-362.58682
1303.5409
-10819.047
-11088.099
-7002.4926
-3594.5117
-1113.0342
-837.24976
138.45835
-115.716
1589.7086
-10847.293
-11243.797
-6894.294
-3221.1117
-839.98855
-463.04775
471.98887
152.86152
1905.5134
-7450.0994
-2302.2819
-770.94583
-1822.3146
-6386.6489
-2122.3342
-1081.6155
-200.55739
88.641934
-7569.9408
-2440.6733
-744.73227
-1210.9014
-5845.9083
-2540.933
-1283.1363
-381.20216
55.417048
-7536.31
-2369.8757
-627.59623
-479.78893
-5141.3424
-2798.2539
-1512.415
-641.46641
-18.656421
-7418.1235
-2487.7191
-273.50176
13.729293
-4338.4136
-2894.8226
-1697.8198
-893.36456
-182.28232
-7333.2627
-2656.0456
205.10196
463.57615
-3481.114
-2832.1538
-1833.5914
-1128.5014
-369.13967
-7301.8636
-2869.185
558.53721
849.9972
-2624.2037
-2628.8384
-1844.3301
-1336.3473
-572.29816
-7192.9137
-3096.5473
731.69675
1197.4897
-1776.0776
-2274.7734
-1761.6698
-1451.9373
-750.94591
-7266.5731
-3336.1509
974.47636
1510.4204
-964.26637
-1820.6909
-1580.8741
-1460.3078
-920.10964
-7406.0838
-3723.114
877.15246
1733.7717
-233.05
-1328.3733
-1335.0955
-1367.338
-1024.038
-541.28843
-150.38551
108.64296
592.49376
1128.6643
1444.4978
1276.2655
-3222.2883
-9292.4942
-657.02445
-309.72407
-48.88559
442.10751
1080.2627
1501.651
1332.4559
-3220.0429
-9149.6403
-759.36227
-466.81164
-208.54181
272.60278
1013.9596
1565.0825
1389.5246
-3259.122
-9034.627
-849.07504
-619.6822
-367.29361
86.804577
926.06621
1617.0287
1417.9285
-3328.2743
-8879.7337
-914.68074
-764.15947
-522.1982
-107.85963
819.9148
1668.8357
1453.448
-3372.595
-8743.9821
-961.32738
-900.62671
-674.92858
-311.08168
690.77475
1718.2711
1430.9165
-3412.029
-8500.668
-1007.1958
-1025.9528
-824.74183
-523.35983
530.30955
1742.3332
1356.434
-3515.3559
-8160.6311
-1035.5841
-1137.7519
-971.9001
-740.05502
355.95495
1748.9159
1282.1079
-3645.2259
-7898.4421
-1040.4233
-1233.9448
-1113.0643
-958.18321
156.58187
1751.4331
1053.8638
-3830.1891
-7629.5296
-9303.3341
-3267.1547
1277.9666
1384.547
1166.463
735.52378
267.97646
14.043708
-408.24444
-9131.3664
-3096.1272
1286.9097
1337.4455
1195.8964
869.30014
427.94064
181.08139
-265.75297
-8647.6655
-2533.0195
1325.1407
1317.9102
1219.9143
984.76059
579.22589
343.75776
-113.10539
-7784.9917
-1740.0099
1309.1038
1317.3941
1247.7745
1084.9611
722.22569
501.85643
43.717373
-8267.8869
-927.28691
1261.8652
1321.5274
1289.1528
1175.6031
857.56478
657.13906
202.25042
-10252.91
-76.892331
1269.5975
1326.9135
1349.644
1262.4473
986.89071
807.67627
357.23933
-10129.409
533.73251
1301.1598
1351.0161
1433.9668
1355.0803
1117.2533
954.11084
512.18599
-8047.7853
1059.9444
1369.0541
1396.7139
1523.8901
1449.9907
1252.4079
1099.9854
676.00821
-6605.4548
1370.7856
1401.9491
1449.2476
1610.4408
1544.227
1384.5977
1244.6118
865.95951
2340.3757
2497.6172
2473.4443
2418.9077
2261.1315
1959.1727
1597.0978
1235.0642
2542.2899
2195.4911
2359.0789
2338.9561
2296.7858
2131.119
1804.7968
1335.9983
703.24192
1828.8836
2043.0513
2223.4039
2214.7381
2184.7131
2022.454
1681.5446
1130.5134
207.95245
994.82329
1890.9943
2089.0156
2093.1172
2080.5776
1931.8105
1596.2765
998.91949
-213.55981
-1.6735377
1736.7495
1953.5115
1975.4822
1987.2271
1859.7146
1544.7323
953.77915
-494.01126
-1205.6776
1588.0718
1817.5846
1863.8778
1900.6675
1800.8093
1521.0475
996.26137
-596.70301
-2578.1619
1435.9909
1677.9445
1750.2507
1813.1112
1749.5433
1515.492
1102.3133
-473.39608
-4076.7027
1291.2067
1535.8866
1629.292
1726.4419
1706.1697
1509.2042
1248.8553
-65.007401
-5281.6932
1082.3549
1391.5649
1511.681
1638.1915
1668.9852
1493.1283
1366.9123
664.2501
-6012.3706
3100.1374
1731.2278
1888.9225
2140.9466
2406.7592
2551.7967
2609.8238
2639.5161
2489.25
3569.5515
2188.5274
2187.9044
2340.9466
2564.9856
2694.2339
2746.4262
2783.1802
2643.2475
3999.564
2630.6894
2498.4072
2555.4317
2739.1019
2844.8794
2890.5446
2931.12
2804.2091
4404.2456
3056.5
2813.0175
2780.7068
2919.7516
3001.7081
3048.3451
3080.4151
2966.6295
4779.0782
3461.9138
3130.8337
3016.9223
3108.6844
3163.3519
3204.5682
3231.8253
3132.7226
5137.4143
3846.46
3441.5809
3258.2902
3305.8635
3330.4606
3357.4215
3383.2282
3297.7891
5472.8938
4208.882
3744.2054
3496.6921
3502.4735
3499.6939
3520.5768
3534.0661
3465.0159
5799.6996
4552.5617
4035.7582
3734.1642
3700.0561
3669.7934
3682.1355
3685.236
3629.6121
6110.8608
4873.8073
4316.8576
3965.3105
3895.7063
3838.1101
3841.3185
3834.7523
3794.6102
5026.8772
4987.0235
5064.7581
5110.9354
5318.3274
5548.0211
6081.7296
6715.4289
8059.699
4934.8922
4883.2461
4957.2781
5001.2215
5205.8205
5433.7976
5978.527
6647.1191
8075.8885
4823.2327
4773.6672
4842.5325
4880.6332
5078.9855
5298.7041
5841.9455
6518.5519
7927.4219
4695.1985
4657.8269
4719.0898
4752.3632
4939.1953
5144.853
5677.3256
6348.1907
7723.1518
4555.8652
4533.8864
4588.4887
4616.1917
4787.559
4975.8773
5491.4088
6158.1444
7492.9909
4412.3006
4404.033
4450.6023
4471.459
4625.5619
4795.3012
5288.0102
5944.05
7235.1652
4263.1286
4266.8329
4303.7819
4320.5243
4453.5417
4603.1824
5067.8224
5711.1527
6977.7054
4111.7229
4126.018
4154.8601
4164.504
4273.558
4401.0952
4832.1341
5453.0067
6696.4541
3955.073
3981.3005
4001.1411
4003.3797
4087.0936
4188.0132
4582.4524
5173.4885
6406.6803
5120.6387
5215.1398
5306.1935
5391.6148
5471.9778
5546.5137
5615.4461
5678.9591
5737.4304
5085.5127
5177.9053
5265.3195
5347.2983
5424.5422
5496.3329
5563.3025
5625.2546
5683.5188
5164.1695
5253.6037
5337.6125
5416.3244
5487.556
5555.2194
5617.5849
5675.2699
5729.2732
5210.1671
5304.1988
5391.6142
5467.9788
5540.1575
5609.1071
5670.1299
5726.844
5779.2191
5415.7448
5501.1789
5578.4311
5648.4288
5712.0641
5769.9464
5822.2631
5869.6341
5912.8509
5642.7452
5724.4749
5797.7145
5863.56
5921.8769
5972.8617
6018.0093
6058.0475
6093.0786
6150.6079
6203.1997
6247.1466
6288.4257
6326.9479
6361.3928
6389.6917
6409.1709
6423.4965
6723.2691
6719.461
6704.3988
6685.7893
6674.0005
6687.8843
6726.8388
6768.0503
6782.829
7911.9895
7834.3993
7745.3438
7637.6948
7582.8565
7631.5123
7724.116
7762.1046
7729.3414
5790.7245
5737.4441
5778.3408
5827.4272
5952.7599
6124.1545
6434.9355
6774.0244
7692.1636
5839.3452
5786.9258
5823.6555
5871.6291
5989.1572
6151.3528
6441.675
6761.8788
7596.6308
5883.7136
5832.331
5866.7626
5911.6194
6022.5163
6175.6063
6445.6338
6741.7378
7506.0561
5924.3891
5875.182
5905.8716
5947.9664
6053.1689
6197.1124
6448.3108
6716.2062
7417.5939
5961.7159
5914.0374
5941.7492
5982.6874
6081.4293
6216.7669
6450.0392
6691.7546
7319.596
5995.4421
5949.6775
5975.3725
6014.3457
6107.6779
6234.9253
6451.5195
6665.1974
7230.1924
6025.7182
5982.024
6005.4039
6042.0016
6132.2006
6252.4129
6453.9112
6639.3845
7142.6641
6052.8522
6011.4714
6032.9693
6068.812
6155.0988
6269.1886
6457.3563
6615.8734
7054.4013
6076.4316
6038.7714
6058.2652
6093.169
6176.4658
6285.6109
6461.4186
6595.77
6970.9732
6198.2098
6181.4002
6196.8535
6222.1875
6297.7405
6396.62
6550.1976
6650.3557
6613.4286
6190.8664
6172.3066
6188.4854
6213.9298
6290.2686
6387.302
6536.4875
6622.6226
6581.493
6182.4156
6161.8961
6178.4509
6204.6549
6282.0056
6377.2915
6524.9558
6600.5685
6566.138
6172.6305
6149.8196
6166.5366
6193.9341
6272.4189
6366.4523
6514.5576
6583.7492
6576.074
6161.1804
6136.2426
6153.3888
6181.1508
6260.8659
6355.0072
6504.2609
6572.7338
6612.0927
6148.3087
6121.252
6138.2504
6167.7821
6247.6553
6342.9421
6493.3515
6567.3701
6668.7051
6133.1926
6103.4108
6121.2385
6152.4462
6232.6764
6330.189
6482.3782
6567.2816
6736.6667
6116.1852
6083.9328
6102.0423
6134.8091
6215.6662
6316.3398
6472.9405
6572.1517
6810.673
6097.2254
6063.0172
6081.2191
6114.9567
6196.6985
6301.4249
6465.9519
6581.3077
6889.4629
6650.4315
6685.241
6565.6265
6405.9569
6304.8346
6229.6365
6204.2437
6189.2721
6203.9176
6706.4921
6725.2008
6579.4813
6414.0304
6310.4768
6235.8655
6210.7431
6195.8901
6208.5326
6770.8881
6765.7302
6591.4588
6419.8651
6314.2385
6240.1414
6215.9502
6201.4359
6212.272
6839.9849
6804.2355
6600.5709
6423.0019
6315.726
6242.5768
6220.1059
6206.0478
6215.3769
6915.1373
6837.9017
6604.3331
6422.6702
6314.942
6243.4794
6223.2432
6209.834
6217.9078
6992.5046
6865.8711
6603.2079
6418.4847
6312.0371
6243.2469
6225.1432
6212.8692
6220.018
7065.75
6888.4727
6597.4793
6411.2604
6307.5222
6242.3881
6226.4497
6215.2759
6221.8067
7135.1907
6907.0097
6589.8876
6404.0712
6302.9907
6242.0118
6227.284
6217.4597
6223.3033
7203.4767
6926.4296
6587.8109
6401.9389
6301.4907
6244.3557
6227.9912
6219.8253
6224.1995
7280.4829
6953.7436
6601.0446
6412.4653
6308.8589
6252.0894
6231.0185
6223.1603
6224.1803
7367.897
6982.4301
6617.2937
6427.284
6317.3503
6260.9341
6235.9337
6227.6853
6225.0966
7447.6055
7005.5589
6629.8
6440.5628
6325.3731
6268.8456
6241.2265
6231.942
6226.9419
7512.7395
7021.0624
6636.3926
6450.6937
6332.6126
6275.3596
6246.1413
6235.8765
6229.5029
7558.1459
7024.1982
6635.119
6456.4906
6337.8444
6280.1815
6249.978
6239.0935
6232.3969
7580.4581
7011.3541
6625.8043
6456.8994
6340.6052
6283.0484
6252.3843
6241.2626
6235.0128
7541.6129
6978.3044
6608.6954
6451.9437
6340.2501
6283.3955
6252.8729
6242.0786
6236.6247
7376.4408
6925.8155
6587.3454
6441.5396
6336.4852
6280.8442
6250.9978
6240.8988
6236.5654
7152.9803
6852.869
6564.0756
6426.1218
6329.0505
6274.5214
6246.2258
6236.9367
6234.0517
5990.2721
5998.5218
6014.8896
6041.9647
6082.1081
6135.6555
6209.4744
6312.7091
6474.4299
6042.1348
6045.8828
6059.2983
6084.3926
6125.2347
6183.8242
6265.0104
6379.6208
6545.0257
6087.6634
6088.3243
6099.1221
6122.9643
6164.5899
6225.9419
6309.1493
6428.6651
6586.4815
6126.3931
6125.411
6133.9728
6157.2514
6200.2355
6265.0361
6353.5816
6483.2172
6648.0542
6158.6273
6156.1954
6164.0211
6187.2097
6232.142
6301.4055
6397.6286
6540.4522
6707.6325
6184.4658
6181.4411
6189.341
6212.6773
6260.1763
6334.0749
6439.6248
6598.1167
6773.0894
6204.4136
6201.6654
6210.3563
6233.693
6283.747
6362.2486
6477.6166
6656.8007
6843.3042
6218.7717
6217.586
6226.6664
6250.539
6302.8201
6386.3568
6510.5862
6717.313
6920.4395
6228.3417
6229.2723
6238.2489
6264.043
6317.6275
6406.8628
6538.0136
6779.2097
7010.3166
6686.0163
6741.8213
6795.15
6870.8756
6957.4438
7062.6675
7212.6992
7433.7333
7751.9867
6713.3459
6767.7908
6826.8218
6903.2145
6995.9507
7106.9053
7262.8773
7489.9504
7809.8083
6739.1946
6789.4978
6851.9545
6930.4243
7027.3348
7148.7176
7316.6993
7556.8018
7888.5701
6764.4706
6812.5625
6874.1404
6953.9828
7053.318
7182.6373
7362.7321
7623.8851
7975.1817
6785.4723
6832.185
6890.6289
6970.5752
7072.4446
7207.5364
7393.9895
7682.1017
8051.9605
6789.118
6833.1775
6891.1878
6967.3155
7066.0347
7203.9234
7392.1384
7719.6367
8109.9459
6763.7505
6801.2311
6855.7189
6929.3498
7023.9301
7152.3495
7323.3509
7720.2734
8124.7224
6690.7555
6717.511
6754.1875
6809.5792
6891.4524
7021.0455
7148.7319
7621.907
8044.4538
6520.9285
6539.6351
6561.8523
6597.1576
6641.4893
6779.9627
6841.1413
7390.4091
7642.6656
1724.6345
4671.507
4682.9517
5506.0667
5748.5084
5940.4605
6053.3985
6116.8213
6135.4449
3903.3034
4056.9217
4018.0884
4472.215
4517.3929
4854.2718
4981.998
5159.8718
5263.2872
4404.9737
4416.4548
4281.7436
4428.3228
4319.4379
4495.6952
4447.2282
4603.8719
4587.5965
4429.0074
4489.7196
4414.7933
4514.9035
4408.331
4513.3318
4411.8824
4513.5226
4423.7358
4460.7232
4491.055
4453.6979
4537.193
4465.8674
4559.9118
4469.4746
4563.3035
4473.5695
4509.7911
4520.3866
4500.5006
4548.9324
4504.2248
4574.1043
4510.5851
4582.2955
4514.4726
4560.1388
4562.8268
4553.7076
4573.8854
4555.6949
4585.7224
4558.6258
4599.315
4560.3756
4598.7656
4606.7317
4599.543
4614.8247
4610.7435
4631.6308
4625.3408
4648.7289
4640.7152
4638.2255
4639.9068
4642.9778
4656.5933
4655.6744
4674.1552
4680.0562
4700.8341
4704.4249
4733.9326
4682.0051
4561.6005
4389.877
4199.1135
3968.0917
3699.2317
3414.5637
3160.085
4732.933
4685.4627
4569.4639
4398.2318
4199.5946
3958.061
3673.9772
3366.2087
3073.1195
4709.3852
4665.4195
4556.0132
4390.6368
4184.8706
3929.5189
3626.4799
3292.4074
2950.8487
4702.6823
4658.2546
4551.2495
4389.5043
4180.3144
3913.1126
3589.311
3219.117
2819.8875
4687.7223
4646.7315
4545.7086
4389.0807
4176.6862
3900.8289
3558.4221
3147.3635
2682.5684
4687.5841
4646.7254
4549.7584
4393.5283
4183.0732
3895.8856
3539.4307
3084.2998
2549.8317
4670.6848
4639.2797
4544.5006
4398.2979
4183.4871
3899.3944
3524.5278
3042.8155
2438.1606
4675.7253
4644.3642
4554.7458
4407.0382
4195.016
3900.8599
3526.2078
3006.8856
2450.4506
4670.623
4648.3802
4562.6237
4421.9621
4212.765
3931.0101
3539.3181
3035.967
2217.9632
3123.1079
3333.2436
3682.2827
3958.0044
4146.0425
4294.577
4436.0678
4582.5742
4727.8437
3011.287
3230.4666
3632.7788
3935.1139
4128.2309
4279.653
4427.1427
4577.586
4727.3394
2866.9205
3129.5946
3600.9786
3923.4241
4114.1859
4266.0291
4415.5772
4569.3932
4721.5748
2694.6096
3028.653
3569.0456
3907.2181
4101.4046
4261.8133
4419.7366
4574.9061
4728.2063
2472.5536
2935.5028
3539.3496
3877.6413
4069.2554
4235.1606
4398.0817
4559.4226
4716.209
2155.6829
2863.9383
3552.4079
3886.2337
4079.5063
4249.6692
4414.4868
4573.0715
4727.9664
1710.9273
2695.799
3495.3553
3828.8717
4034.3986
4216.0147
4390.9675
4555.9972
4714.4869
1254.1905
2732.062
3555.8393
3852.209
4054.7301
4236.5194
4407.1452
4568.5265
4724.582
211.0513
2558.2971
3517.9551
3809.5648
4029.5641
4220.1462
4396.8372
4559.8265
4717.7635
4873.2028
5014.2364
5155.6208
5296.031
5441.8381
5594.3811
5758.4796
5931.7461
6117.09
4873.9175
5017.7441
5159.0734
5301.2277
5447.9121
5602.1577
5767.1749
5943.8655
6130.6728
4870.4919
5015.8606
5159.5135
5303.8519
5451.8388
5608.0626
5774.7291
5954.0111
6143.4972
4876.5381
5023.2421
5166.0378
5310.9694
5458.4911
5616.4263
5784.2738
5966.5637
6157.1454
4867.4697
5015.9046
5161.8828
5309.3295
5459.1214
5618.0641
5787.1464
5973.6159
6167.4619
4877.9068
5026.3132
5170.8605
5317.9355
5466.9836
5626.6408
5795.6963
5982.5732
6177.1381
4865.97
5016.7624
5164.099
5313.4008
5463.0857
5624.3302
5795.113
5985.4182
6181.1123
4875.881
5025.2507
5171.8259
5320.3524
5471.298
5630.856
5801.5405
5991.0493
6191.0888
4869.7163
5020.6256
5168.0796
5317.3096
5467.9481
5628.8377
5800.1717
5992.3368
6187.6478
6309.1818
6511.8055
6716.1491
6937.4414
7173.0269
7439.4463
7700.8394
7963.0428
8148.2464
6326.1236
6530.7517
6740.017
6965.037
7209.8003
7486.8894
7762.9783
8039.6103
8237.774
6342.8751
6549.8025
6763.7865
6992.4948
7245.8781
7533.3142
7824.3599
8112.2862
8323.5811
6359.545
6568.3298
6787.1415
7019.4176
7281.0851
7575.3446
7880.2232
8178.431
8396.7165
6373.6121
6583.9484
6805.4563
7040.3217
7309.55
7610.6628
7930.1035
8237.9478
8459.0146
6386.6021
6601.3572
6824.9202
7062.507
7337.6852
7644.2382
7979.0154
8292.2735
8512.1843
6394.8975
6611.1559
6837.6325
7074.7707
7356.6452
7666.0925
8015.9855
8332.5709
8558.8219
6405.0875
6626.9406
6851.3781
7090.4328
7371.8724
7687.4284
8045.0743
8370.9473
8616.0807
6407.4716
6632.521
6858.1103
7095.5579
7378.9948
7693.2029
8059.0909
8385.2036
8628.9709
8264.4223
7680.0495
7270.0956
6895.1157
6515.4785
6139.9005
5773.2497
5408.8351
5044.0961
8383.9773
7770.7831
7354.4258
6971.5172
6584.0812
6199.4847
5827.6974
5458.9342
5093.1353
8507.2928
7859.5115
7437.3734
7041.8221
6648.5547
6256.9296
5882.8798
5510.228
5143.762
8629.8953
7947.549
7521.4483
7111.0349
6710.206
6308.5255
5934.7417
5556.0091
5192.0866
8750.1236
8034.5287
7603.8105
7186.0069
6779.107
6372.0944
5991.1197
5611.9815
5243.8583
8867.0256
8125.3985
7681.8888
7239.9939
6830.2045
6413.5577
6037.3328
5646.223
5283.7204
8950.5553
8219.0992
7775.2174
7325.1385
6903.6836
6488.2239
6103.3602
5716.5875
5348.1958
9012.8562
8284.6409
7823.4487
7355.018
6934.9827
6507.2086
6127.3149
5730.5749
5366.5988
9052.0352
8400.997
7930.0468
7455.6706
7029.3158
6599.069
6214.5724
5816.733
5449.5229
4685.3022
4324.1001
3954.2611
3577.1404
3184.4313
2778.0649
2352.7037
1907.2995
1442.2691
4730.2803
4368.3343
3996.9302
3620.2965
3227.3595
2821.7379
2396.4867
1951.6003
1485.1684
4778.5436
4416.0768
4044.5269
3668.9235
3277.4851
2873.5572
2451.4848
2008.7762
1547.5252
4821.5856
4461.9018
4086.2895
3715.2301
3320.7927
2922.2498
2497.7115
2060.9635
1598.0123
4875.5443
4511.5962
4139.3792
3765.0019
3374.9216
2974.8296
2555.0533
2118.0324
1660.0773
4906.654
4548.67
4169.5245
3803.0779
3406.5217
3015.3005
2589.1457
2161.8561
1697.638
4974.5268
4612.9017
4236.5484
3868.16
3475.0608
3084.1176
2661.1818
2237.3185
1774.1519
4987.2085
4629.9287
4249.2438
3885.8143
3488.7955
3103.0885
2676.7928
2257.8735
1793.1397
5069.7526
4711.4748
4331.34
3969.0816
3573.7518
3190.6387
2767.1966
2355.0917
1887.5147
893.45846
242.27042
-465.56022
-1227.686
-2042.0649
-2816.0732
-3620.6193
-4601.5768
-6544.9573
940.15741
304.44469
-385.33964
-1118.2421
-1907.362
-2633.0837
-3401.8601
-4265.5404
-6019.9505
1009.2834
393.97185
-279.45887
-983.22042
-1762.8989
-2503.7962
-3321.6308
-4171.7736
-5562.6092
1073.6745
477.22469
-177.09084
-856.15713
-1620.741
-2362.0659
-3148.1922
-3942.7241
-5063.5794
1140.7867
560.23671
-73.730475
-733.81468
-1473.7083
-2208.6101
-2941.2892
-3668.9597
-4438.2288
1198.6441
635.20506
23.06716
-618.83725
-1334.285
-2078.576
-2782.3727
-3412.7617
-3746.227
1282.2006
734.15632
155.94999
-472.97202
-1147.381
-1904.112
-2564.9314
-3350.9549
-2457.5608
1318.2676
781.8437
214.95619
-393.34954
-1060.6013
-1806.8605
-2592.3629
-3129.9454
-3298.7587
1428.6838
919.3133
396.12083
-181.58671
-782.70246
-1486.1153
-2194.8054
-3641.6418
773.26319
-9754.0346
-12067.084
-13301.848
-13017.579
-13063.515
-13454.9
-13546.988
-12673.998
-11953.433
-9524.2552
-12065.58
-13115.606
-12841.502
-12971.753
-13229.016
-13302.517
-12590.907
-11900.744
-9366.8961
-12127.15
-12852.933
-12739.561
-13049.075
-13381.571
-13220.435
-12489.111
-11834.236
-9325.6237
-12136.116
-12544.554
-12706.974
-13004.483
-13195.415
-13078.824
-12385.047
-11757.008
-9358.6006
-12015.1
-12137.992
-12670.174
-13082.84
-13258.475
-12963.131
-12278.089
-11674.638
-8935.7536
-11742.66
-12087.148
-12693.063
-13015.585
-13151.561
-12842.28
-12171.906
-11598.618
-7733.02
-11447.189
-12100.804
-12715.142
-13055.158
-13106.49
-12708.13
-12080.699
-11536.372
-8055.4711
-11868.139
-12053.111
-12788.675
-13080.979
-13052.014
-12622.312
-12008.759
-11492.563
-18472.323
-10252.945
-12629.842
-12906.589
-13089.904
-12953.354
-12502.545
-11940.288
-11459.127
-11296.219
-10882.021
-10730.402
-10848.003
-11326.643
-12150.773
-13394.92
-15959.502
-16455.187
-11261.449
-10796.759
-10594.272
-10703.433
-11235.985
-12179.775
-13490.233
-16274.604
-16233.601
-11199.459
-10720.236
-10532.21
-10660.062
-11288.546
-12384.535
-13894.601
-16336.236
-16280.472
-11105.368
-10616.54
-10452.815
-10615.788
-11319.164
-12546.567
-14238.555
-16266.377
-16241.786
-10983.911
-10491.996
-10349.305
-10549.382
-11333.267
-12671.133
-14490.927
-16219.457
-15889.466
-10864.46
-10368.861
-10236.696
-10486.789
-11347.412
-12757.403
-14590.606
-15750.009
-15302.193
-10758.046
-10263.584
-10131.421
-10439.405
-11378.506
-12894.283
-14524.634
-15431.953