/*--------------------------------*- C++ -*----------------------------------*\
  =========                 |
  \\      /  F ield         | OpenFOAM: The Open Source CFD Toolbox
   \\    /   O peration     | Website:  https://openfoam.org
    \\  /    A nd           | Version:  11
     \\/     M anipulation  |
\*---------------------------------------------------------------------------*/
FoamFile
{
    format      ascii;
    class       surfaceScalarField;
    location    "2.3";
    object      phi;
}
// * * * * * * * * * * * * * * * * * * * * * * * * * * * * * * * * * * * * * //

dimensions      [0 3 -1 0 0 0 0];

internalField   nonuniform List<scalar> 
8667
(
15.888597
1.823426
0.065754567
13.993677
1.6191193
0.27580109
12.101498
1.462412
0.42976638
10.209272
1.2243511
0.66787517
8.3345253
0.99695077
0.87779618
6.4758877
0.7220915
1.136546
4.6466811
0.34010944
1.4890972
2.8841511
-0.079061977
1.8415919
-0.99354773
2.6752426
1.2024563
15.889323
3.7118809
13.98843
3.5200125
12.089555
3.361287
10.194451
3.1194552
8.3132032
2.8781985
6.4564097
2.5788849
4.6290924
2.1674268
2.8888506
1.6611799
0.68329361
1.2120092
15.88672
5.6029385
13.984664
5.4220692
12.079482
5.2664691
10.180258
5.0186789
8.2916741
4.7667824
6.4348599
4.4356991
4.61634
3.9859467
2.8661763
3.4113436
2.3449349
1.204535
15.889188
7.4915281
13.981445
7.3298125
12.071926
7.1759878
10.169059
6.9215462
8.2753627
6.6604788
6.413236
6.2978258
4.5875978
5.8115849
2.8635581
5.1353834
3.9968668
1.2116262
15.888446
9.3808577
13.980047
9.2382115
12.06607
9.0899656
10.160622
8.8269937
8.258866
8.5622349
6.3967833
8.1599084
4.5621621
7.6462061
2.851693
6.8458524
5.6234155
1.2251443
15.889233
11.269402
13.978382
11.149063
12.065284
11.003064
10.151811
10.740467
8.2462799
10.467766
6.3732564
10.032932
4.5335652
9.4858972
2.8403139
8.5391038
7.2313182
1.2324111
15.8884
13.15878
13.980238
13.057225
12.06422
12.919082
10.145332
12.659354
8.2351552
12.377943
6.3561524
11.911935
4.5025935
11.339456
2.8207413
10.220956
8.7994263
1.2526332
15.889552
15.047007
13.981555
14.965222
12.065147
14.83549
10.140541
14.58396
8.2249118
14.293572
6.3362847
13.800562
4.4770505
13.19869
2.7909209
11.907086
10.328019
1.262328
15.890416
16.934369
13.984553
16.871085
12.066754
16.753289
10.141324
16.50939
8.216522
16.218374
6.3207144
15.69637
4.4461088
15.073296
2.7620538
13.591141
11.832923
1.2571502
18.759977
15.95217
20.586688
15.951067
22.413668
15.950804
24.239692
15.951756
26.064185
15.953267
27.886867
15.955098
29.707599
15.957048
31.52629
15.959089
15.959432
33.344638
18.710195
14.113061
20.547728
14.113533
22.38409
14.114442
24.218953
14.116893
26.052318
14.119902
27.883959
14.123457
29.713188
14.127819
31.539169
14.133108
14.137976
33.360624
18.606643
12.259706
20.456947
12.263229
22.307004
12.264385
24.156771
12.267126
26.00487
12.271803
27.851795
12.276532
29.696881
12.282733
31.543857
12.286133
12.290258
33.391575
18.372066
10.397031
20.236269
10.399025
22.101102
10.399553
23.967464
10.400764
25.834175
10.405092
27.701943
10.408763
29.566856
10.417821
31.429104
10.423884
10.433471
33.285892
18.080901
8.534504
19.95654
8.5233856
21.836841
8.5192526
23.722635
8.5149695
25.610091
8.5176354
27.503515
8.5153401
29.39968
8.521655
31.30374
8.5198245
8.5255546
33.211656
17.520913
6.7099604
19.360772
6.6835269
21.217864
6.66216
23.093153
6.639681
24.982153
6.6286349
26.882771
6.6147228
28.789998
6.6144279
30.700666
6.6091561
6.6143174
32.611903
16.866334
4.9169227
18.686443
4.8634176
20.531915
4.8166876
22.418464
4.7531324
24.332377
4.7147217
26.277898
4.6692022
28.24335
4.6489757
30.232168
4.6203378
4.6138764
32.232609
15.168964
3.339099
16.861641
3.1707406
18.631125
3.0472038
20.487111
2.8971468
22.390236
2.8115961
24.356305
2.7031332
26.340379
2.6649024
28.366764
2.5939531
2.5910553
30.389585
13.183536
1.9884857
14.816063
1.5382133
16.87617
0.9870977
19.14496
0.62835591
21.483186
0.4733706
23.868018
0.31830064
26.24007
0.29285121
28.612966
0.22105664
30.975703
0.2283188
33.226368
0.11826983
33.109048
0.11731978
32.991849
0.11719987
32.87613
0.11571859
32.760743
0.1153868
32.647668
0.11307573
32.535121
0.112547
32.425861
0.10925927
0.10853047
32.317331
33.244773
0.23412142
33.130585
0.23150776
33.017973
0.22981148
32.907286
0.22640579
32.798378
0.22429515
32.692649
0.21880475
32.589204
0.21599165
32.490386
0.20807739
0.20484792
32.394068
33.276246
0.34944975
33.163661
0.34409327
33.053951
0.33952153
32.945792
0.33456426
32.840608
0.32947956
32.738267
0.32114558
32.639726
0.31453314
32.545387
0.30241596
0.29486112
32.455374
33.173699
0.46164262
33.064406
0.45338612
32.95943
0.44449724
32.857728
0.43626615
32.760487
0.42672087
32.667854
0.41377876
32.579982
0.40240469
32.497314
0.38508389
0.37290763
32.419268
33.098042
0.57525664
32.991211
0.56021729
32.889595
0.54611315
32.79331
0.53255167
32.702049
0.51798114
32.616886
0.49894213
32.536256
0.4830353
32.4622
0.45913906
0.44317109
32.391937
32.523882
0.66327782
32.445674
0.63842594
32.373239
0.61854822
32.31035
0.59544064
32.252073
0.57625741
32.202799
0.5482161
32.157625
0.52821004
32.120077
0.49668645
0.47858426
32.084664
32.180075
0.71581231
32.143746
0.67475508
32.111258
0.65103547
32.090643
0.6160563
32.070636
0.59626437
32.056249
0.5626023
32.039335
0.54512478
32.022355
0.51366664
0.50053302
32.000406
30.526746
0.57865082
30.663154
0.53834687
30.815629
0.49856112
30.962533
0.46915234
31.124836
0.43396095
31.270985
0.41645325
31.414625
0.40148447
31.522857
0.40543495
0.41656084
31.606829
31.388217
0.16613667
31.748566
0.17799747
32.070446
0.17668085
32.331558
0.20804084
32.53241
0.23310924
32.646305
0.30255821
32.69197
0.35581938
32.649216
0.44818854
32.564836
0.50094094
32.530995
0.47769814
-0.44385658
32.36076
0.46158256
-0.29134784
32.113115
0.44558782
-0.19794329
31.847664
0.434478
-0.16902648
31.563885
0.42284532
-0.13906696
31.275161
0.41638526
-0.12766104
30.971452
0.40824345
-0.10453444
30.670707
0.40503639
-0.10429154
0.40170101
30.359679
-0.09067231
31.74358
0.34094772
31.843755
0.36140704
31.908249
0.38109381
31.947153
0.39557447
31.95923
0.41076777
31.953115
0.42250074
31.925761
0.43559711
31.883155
0.44764303
0.46571359
31.819142
32.076262
0.26509145
32.149311
0.28835843
32.216284
0.31412087
32.276126
0.33573181
32.326211
0.36068334
32.366782
0.38192982
32.395033
0.40734579
32.413584
0.42909185
0.45539741
32.4239
32.16149
0.18826516
32.241278
0.2085711
32.320186
0.23521293
32.400369
0.25554853
32.477088
0.28396444
32.554324
0.30469393
32.62607
0.33559987
32.697871
0.35729062
0.39034502
32.762923
32.441371
0.13883132
32.496145
0.15379669
32.555101
0.17625703
32.618686
0.19196339
32.684839
0.21781152
32.75505
0.23448309
32.826303
0.26434685
32.901479
0.28211484
0.31584327
32.97598
32.467509
0.090589988
32.521175
0.10013114
32.579294
0.11813791
32.642986
0.128271
32.710817
0.14998126
32.784359
0.16094048
32.861826
0.18687951
32.945553
0.1983881
0.22871573
33.032681
32.492256
0.053707501
32.534578
0.057809055
32.581056
0.071660076
32.633139
0.076188418
32.690047
0.093073261
32.753373
0.09761468
32.821891
0.11836112
32.897514
0.12276503
0.14779956
32.97843
32.426474
0.021301587
32.462993
0.021290591
32.504668
0.029984474
32.551531
0.029325619
32.6045
0.040104284
32.662678
0.039436313
32.728773
0.0522669
32.799835
0.051702638
0.067108034
32.880527
32.338632
32.359923
32.389907
32.419233
32.459337
32.498774
32.551041
32.602743
32.669851
32.736477
-0.066625959
32.821035
-0.08455743
32.904888
-0.083853578
33.009741
-0.10485324
33.113728
-0.10398686
33.242202
-0.12847387
33.36979
-0.12758747
33.525498
-0.15570828
-0.15468083
33.680179
32.965742
-0.15184179
33.062704
-0.18151914
33.163856
-0.18500557
33.278814
-0.21981118
33.397542
-0.22271459
33.532518
-0.26345011
33.670672
-0.26574167
33.828224
-0.31326015
-0.3147645
33.988308
33.067206
-0.24061811
33.161201
-0.27551395
33.264079
-0.28788336
33.372098
-0.32782961
33.49023
-0.34084732
33.613347
-0.38656679
33.747963
-0.40035794
33.887431
-0.45272773
-0.46727518
34.039941
33.126513
-0.33444989
33.223002
-0.37200377
33.326856
-0.39173655
33.432609
-0.43358314
33.546631
-0.45486909
33.661939
-0.50187515
33.786813
-0.52523184
33.912745
-0.57865939
-0.60441808
34.049888
33.054561
-0.41303029
33.130989
-0.44843187
33.212739
-0.47348622
33.291793
-0.51263717
33.377744
-0.54082011
33.46064
-0.58477143
33.551986
-0.61657802
33.640203
-0.66687601
-0.70283301
33.738618
32.829201
-0.47930784
32.888021
-0.5072526
32.949178
-0.53464247
33.001965
-0.56542404
33.058377
-0.59723281
33.106168
-0.63256212
33.159284
-0.66969403
33.204073
-0.71166472
-0.75514108
33.256381
32.424416
-0.47982318
32.419506
-0.50234346
32.404106
-0.51924222
32.385929
-0.5472466
32.357205
-0.5685094
32.32899
-0.60434667
32.290373
-0.6310771
32.254199
-0.67549088
-0.7092594
32.208317
31.743978
-0.40465945
31.650562
-0.40892759
31.546218
-0.4148981
31.426561
-0.42758933
31.295378
-0.43732595
31.150872
-0.45984089
30.994866
-0.47507128
30.829194
-0.50981896
-0.52617727
30.646112
30.058545
-0.10352538
29.744338
-0.094720592
29.443116
-0.11367669
29.122009
-0.10648181
28.814215
-0.12953264
28.477367
-0.12299236
28.157172
-0.1548767
27.79704
-0.14968646
27.464488
-0.19362588
0.57689771
27.078235
-0.19064493
0.7627347
30.460275
0.80556785
32.165484
0.76093918
33.301009
0.66567088
33.833886
0.5272211
34.188337
0.36973158
34.197431
0.1870957
34.170944
33.867274
0.60479818
26.727089
-0.25365163
0.8051343
30.259939
0.85657877
32.11404
0.80231446
33.355274
0.69391124
33.942289
0.54228787
34.339961
0.37083389
34.368885
0.18655722
34.35522
34.053832
0.66495113
26.315627
-0.25348909
0.87129519
30.053595
0.91518601
32.070149
0.86645654
33.404003
0.76439296
34.044353
0.61076221
34.493592
0.43128461
34.548363
0.22053721
34.565968
34.274369
0.71459211
25.945291
-0.34425668
0.9226972
29.84549
0.977445
32.015401
0.91834276
33.463105
0.79490302
34.167793
0.62596031
34.662534
0.43668718
34.737636
0.2259153
34.77674
34.500284
0.79471029
25.502956
-0.35237529
1.0071625
29.633037
1.0448986
31.977665
0.98654326
33.521461
0.87596252
34.278373
0.70284131
34.835655
0.49861903
34.941858
0.25851712
35.016842
34.758801
0.8516181
25.135302
-0.48396331
1.0679169
29.416739
1.1184784
31.927104
1.0483675
33.591572
0.90787962
34.418861
0.7210231
35.022512
0.51151942
35.151362
0.26954646
35.258815
35.028348
0.95862433
24.694439
-0.51776196
1.168105
29.207258
1.1940723
31.901136
1.1257286
33.659915
1.0006664
34.543923
0.80198786
35.22119
0.57066167
35.382688
0.30135104
35.528125
35.329699
1.0493798
24.382623
-0.73756309
1.2495392
29.007099
1.2865452
31.86413
1.1932926
33.753168
1.0316077
34.705608
0.82336661
35.429432
0.59223812
35.613816
0.31752657
35.802837
35.647225
1.1893679
23.960647
-0.7673922
1.3608474
28.835619
1.3642557
31.860722
1.2828947
33.834529
1.1439301
34.844573
0.91394105
35.659421
0.65019064
35.877567
0.34763243
36.105395
35.994858
-0.0044004929
35.999258
0.060426519
36.040568
0.15143542
35.786558
0.26841441
35.542442
0.37202636
34.740961
0.49563813
33.710917
0.64125904
31.715101
0.75292242
28.723956
24.097422
0.61614733
-0.018905641
36.018164
0.027680579
35.993982
0.080186212
35.734052
0.1701128
35.452515
0.30428239
34.606791
0.44888983
33.56631
0.53505241
31.628939
0.59034289
28.668665
24.136463
0.55130173
-0.03093311
36.049097
0.0045516118
35.958497
0.076189622
35.662414
0.184079
35.344626
0.26187784
34.528993
0.35839982
33.469788
0.47140082
31.515938
0.53742279
28.602643
24.205324
0.46856205
-0.040098282
36.089195
-0.015386371
35.933785
0.0097971367
35.637231
0.081232846
35.27319
0.19946995
34.410755
0.32856638
33.340691
0.39138009
31.453124
0.43432367
28.5597
24.195971
0.44367637
-0.057313934
36.146509
-0.049070143
35.925541
0.0075961743
35.580564
0.11059503
35.170191
0.1701602
34.35119
0.24757094
33.263281
0.34418931
31.356505
0.38503101
28.518858
24.275844
0.30515872
-0.062919364
36.209429
-0.052330573
35.914953
-0.047353825
35.575588
0.0074017754
35.115435
0.11296679
34.245625
0.22876707
33.14748
0.28066838
31.304604
0.32006734
28.479459
24.262198
0.33371304
-0.087957434
36.297386
-0.096173207
35.923168
-0.049976074
35.52939
0.051053018
35.014406
0.097933192
34.198745
0.16557586
33.079838
0.25070284
31.219477
0.2760209
28.454141
24.296956
0.241263
-0.084928314
36.382314
-0.079373718
35.917614
-0.094599736
35.544617
-0.045240697
34.965047
0.048922524
34.104582
0.14680337
32.981957
0.18832901
31.177952
0.2154424
28.427028
24.205847
0.30655112
-0.11308065
36.495395
-0.13461925
35.939152
-0.095138943
35.505136
0.0027076468
34.867201
0.044914499
34.062375
0.1096501
32.917221
0.1842582
31.103343
0.21317314
28.398113
24.201617
0.21740316
-0.1536291
24.077206
0.27804032
-0.13291147
28.377395
-0.096826433
31.067258
-0.0083937109
32.828788
0.075092758
33.978889
0.12300236
34.819291
0.098948176
35.52919
0.10046119
35.937639
36.595856
-0.17245263
24.053583
0.19607496
-0.14410352
28.349046
-0.084137208
31.007292
-0.023802492
32.768454
0.026173318
33.928913
0.12974128
34.715723
0.16198369
35.496948
0.13245355
35.967169
36.72831
-0.13138501
23.908748
0.2762201
-0.11430043
28.331961
-0.085981204
30.978973
-0.0013968631
32.683869
0.080072628
33.847443
0.13155137
34.664244
0.10983069
35.518669
0.11246589
35.964534
36.840776
-0.15813432
23.863895
0.20298749
-0.14481987
28.318647
-0.097545547
30.931699
-0.037737343
32.624061
0.026888727
33.782817
0.14198246
34.549151
0.17710327
35.483548
0.14656719
35.99507
36.987343
-0.13711527
23.720494
0.28051674
-0.13455288
28.316084
-0.11455143
30.911697
-0.02453923
32.534049
0.06921068
33.689067
0.13295464
34.485407
0.11700201
35.4995
0.12282582
35.989246
37.110169
-0.17301485
23.699445
0.19406351
-0.1943311
28.337401
-0.15318501
30.870551
-0.08053494
32.461399
0.0049044092
33.603628
0.13344553
34.356866
0.17794299
35.455003
0.15596443
36.011225
37.266133
-0.17479562
23.594707
0.27953354
-0.19950573
28.362111
-0.18694694
30.857992
-0.080653718
32.355106
0.03833897
33.484635
0.12125465
34.27395
0.11993567
35.456322
0.13314364
35.998017
37.399277
-0.23181763
23.62603
0.20049448
-0.29268564
28.422979
-0.25687724
30.822184
-0.15572137
32.25395
-0.040866327
33.36978
0.11095514
34.122129
0.17420202
35.393075
0.16449921
36.00772
37.563776
-0.25729318
23.601976
0.28134803
-0.31846097
28.484147
-0.30495182
30.808675
-0.16961999
32.118618
-0.0097729494
33.209933
0.099910486
34.012445
0.12069145
35.372294
0.14576241
35.982649
37.709538
-0.04703439
37.756573
0.05495696
35.880658
0.23368139
35.19357
0.50137805
33.744748
0.71373385
32.997577
0.89668892
31.935663
0.93149981
30.773864
0.70352886
28.712117
23.966715
0.33878914
-0.020605978
37.777179
0.12206372
35.737988
0.25993824
35.055695
0.49272424
33.511962
0.75990174
32.7304
0.99838796
31.697177
1.035615
30.736637
0.81910556
28.928627
24.298811
0.48700958
-0.047914178
37.825093
0.065340974
35.624733
0.26456428
34.856472
0.57425619
33.202271
0.86395658
32.440699
1.1338369
31.427296
1.2617933
30.60868
1.0386194
29.151801
24.981107
0.35632409
-0.0147758
37.839869
0.13340266
35.476554
0.29724617
34.692628
0.56989166
32.929625
0.90644498
32.104146
1.2364709
31.097271
1.4075503
30.437601
1.2773461
29.282005
25.753287
0.5051659
-0.046423981
37.886293
0.063440619
35.36669
0.28167112
34.474398
0.63071405
32.580582
0.99864139
31.736219
1.3696995
30.726212
1.6543249
30.152976
1.6024581
29.333872
26.918757
0.43698804
-0.0087319017
37.895025
0.13230514
35.225653
0.31416134
34.292542
0.61403745
32.280706
1.0244539
31.325802
1.4549521
30.295714
1.7916041
29.816324
1.9250476
29.200428
28.055868
0.78793601
-0.042167186
37.937192
0.052462716
35.131023
0.28781988
34.057185
0.65555188
31.912974
1.0958721
30.885482
1.5592618
29.832325
1.9792695
29.396316
2.3030258
28.876672
29.338865
1.0200291
0.010304853
37.926887
0.11741768
35.02391
0.29994129
33.874661
0.59757315
31.615342
1.0926512
30.390404
1.6083966
29.316579
2.0574939
28.947219
2.678536
28.25563
29.936714
2.0806866
0.0083872548
37.9185
0.041464583
34.990833
0.27672944
33.639396
0.61998168
31.27209
1.1306022
29.879784
1.7079607
28.739221
2.2574304
28.397749
3.0608198
27.452241
29.849196
3.1483386
-1.890942
39.809442
-3.3762973
36.476188
-4.7449779
35.008077
-5.7355031
32.262615
-6.4353162
30.579597
-7.0989875
29.402892
-7.9332057
29.231967
-8.9727747
28.491809
31.339818
-10.463397
-1.9595036
41.768945
-3.5648591
38.081543
-4.8900874
36.333305
-5.8378824
33.21041
-6.5250186
31.266733
-7.142101
30.019974
-8.0369082
30.126774
-8.9418124
29.396714
31.330498
-8.932492
-2.0138173
43.782763
-3.5859354
39.653661
-4.9914637
37.738833
-5.969683
34.188629
-6.6130956
31.910146
-7.1871993
30.594078
-8.033538
30.973113
-8.5185648
29.88174
26.961229
-4.149296
-2.0958148
45.878577
-3.7793911
41.337238
-5.1643559
39.123798
-6.083475
35.107749
-6.6980696
32.52474
-7.1832399
31.079248
-7.9270367
31.71691
-7.9496649
29.904369
19.713368
-0.70180408
-2.1278363
48.006414
-3.8073425
43.016744
-5.2611426
40.577598
-6.1884897
36.035096
-6.7517497
33.088
-7.1401179
31.467617
-7.7580634
32.334855
-7.1642497
29.310555
12.681687
-0.13256922
-2.2005377
50.206951
-3.9987436
44.81495
-5.452979
42.031834
-6.3079597
36.890076
-6.8416901
33.62173
-7.0965588
31.722485
-7.5372977
32.775594
-6.3253731
28.09863
6.353393
0.0029213214
-2.2191396
52.426091
-4.0237518
46.619562
-5.5476895
43.555771
-6.4489862
37.791373
-6.8969004
34.069645
-6.9704932
31.796078
-7.191232
32.996333
-4.7505034
25.657902
1.0270923
0.57579728
-2.2665548
54.692646
-4.2037968
48.556804
-5.7528041
45.104779
-6.6210945
38.659663
-7.003741
34.452291
-6.817624
31.609961
-6.5565987
32.735308
-2.2410987
21.342402
-2.6038113
1.3898049
-2.2858762
56.978522
-4.2209939
50.491922
-5.8457205
46.729505
-6.7813107
39.595254
-7.0376517
34.708632
-6.5601093
31.132419
-5.5959111
31.771109
-1.6423665
17.388857
-5.1523138
0.90613602
0.63589394
-6.120119
0.33191122
2.7286932
15.296058
3.663126
30.836677
4.561327
30.234218
4.7559081
34.514051
4.2421095
40.109052
3.1073041
47.864311
1.6243813
51.974845
58.602903
0.46093468
-6.9297863
0.34873258
2.4375777
13.319415
3.6203028
29.653952
4.657425
29.197096
4.9162555
34.255221
4.2783599
40.746948
3.088943
49.053727
1.6124566
53.451331
60.21536
0.17391997
-7.5678242
0.46411791
1.9873348
11.506
3.4519478
28.189339
4.6789708
27.970073
5.0465959
33.887596
4.4113489
41.382195
3.1804385
50.284638
1.5782297
55.05354
61.79359
-0.04751501
-8.0283502
0.508041
1.6249578
9.8335272
3.3220245
26.492272
4.7613617
26.530735
5.2037517
33.445206
4.4325885
42.153358
3.1455918
51.571634
1.5382186
56.660913
63.331808
-0.33555891
-8.2855597
0.5927684
1.2648604
8.2331079
3.2142458
24.542887
4.7763153
24.968666
5.3327788
32.888742
4.555388
42.930749
3.2093026
52.91772
1.4765056
58.39371
64.808314
-0.81155302
-8.0811619
0.60715523
0.509803
6.9117519
2.966598
22.086092
4.8708239
23.06444
5.4967819
32.262784
4.5610787
43.866452
3.1788453
54.299953
1.395627
60.176928
66.203941
-1.1755346
-7.3529057
0.44727836
0.0015625466
5.7346548
2.8076751
19.279979
4.8403468
21.031768
5.6055366
31.497594
4.6685688
44.80342
3.201046
55.767476
1.296045
62.081929
67.499986
-1.1698855
-6.015067
-0.16795332
-0.14468109
4.7094504
2.7359981
16.3993
4.9752292
18.792537
5.766516
30.706307
4.6505014
45.919435
3.121661
57.296316
1.2069818
63.996609
68.706968
-1.1098181
-4.6677484
-0.23750044
-0.4398177
4.03945
2.1998233
13.759659
4.814063
16.178298
5.8222956
29.698075
4.7374916
47.004239
3.0896237
58.944184
1.1106943
65.975538
69.817662
-1.7962232
-2.2880278
-0.58349747
-2.3833639
4.6265907
1.8065518
9.5697432
7.7954095
10.18944
9.3360659
28.157418
6.2107741
50.12953
3.3063013
61.848657
0.42748704
68.854352
70.245149
-1.8564831
-0.014777565
-0.41676713
-1.3942363
4.1643439
2.9955273
5.1799796
8.1066149
5.0783522
9.2187581
27.045275
5.8471441
53.501144
2.4095752
65.286226
-0.41250993
71.676437
69.832639
-1.7285501
2.1808055
-0.46703293
-0.44403945
2.8798332
4.757082
-0.021141778
9.2515243
0.58390996
8.5585383
27.738261
4.355758
57.703925
1.1601938
68.48179
-1.0343181
73.870949
68.798321
-1.4625651
3.1368665
0.50650409
0.56412894
0.85313918
6.1969503
-5.6539632
10.031164
-3.2503041
7.7983818
29.971044
3.4091914
62.093115
-0.14552816
72.03651
-1.8235777
75.548999
66.974743
-1.2127944
3.467744
0.88191696
1.4856409
-1.8452961
7.4364581
-11.60478
10.340239
-6.154085
6.4155309
33.895752
1.5623454
66.946301
-1.3797416
74.978597
-2.2020743
76.371332
64.772669
-0.92122983
3.1732209
1.2157528
2.4943021
-5.2608281
8.372394
-17.482872
10.082581
-7.8642717
5.2431434
38.735189
0.43451026
71.754934
-2.5108345
77.923942
-2.6525633
76.51306
62.120106
-0.65233719
2.3991519
1.4264062
3.3312523
-9.2444176
9.0092583
-23.160878
9.4907239
-8.3457372
3.3161134
44.9098
-1.6380164
76.709064
-3.5084179
79.794343
-2.6460518
75.650694
59.474054
-0.22022022
1.1176132
1.5017589
4.2916457
-13.756283
9.3796449
-28.248878
8.4983286
-7.4644209
2.0366724
51.371456
-2.6577441
81.40348
-4.2058559
81.342455
-2.7615714
74.20641
56.712483
0.22091413
1.4044474
-0.50774825
5.0334039
-18.568773
9.489017
-32.704491
7.0890339
-5.0644378
-0.79622088
59.256711
-5.2516416
85.858901
-4.9913705
81.082184
-2.4451935
71.660233
54.267289
-2.3246235
-25.977869
0.01737896
28.285114
-5.7121518
-6.6081793
9.9957077
-9.5889926
23.26915
-19.392309
-13.500027
37.109642
-33.198607
-15.731121
34.773054
-32.54196
-13.954557
12.138151
-13.914715
-10.416872
1.9505448
-5.4882294
-3.4684242
-13.600355
6.6519077
-18.475484
12.139679
-2.3408352
-23.701032
0.063998208
-5.7765414
-3.1724731
-9.5114446
27.004053
-13.248679
40.846877
-14.779367
36.303741
-11.964443
9.3232267
-7.8462698
-2.1676283
-1.6947625
-19.751863
-23.489581
-2.3370619
-21.480167
0.11619668
-5.7513532
0.24181817
-9.2932991
30.545999
-12.825192
44.37877
-13.849249
37.327799
-10.155939
5.6299166
-5.0900724
-7.233495
1.0005983
-25.842533
-27.829762
-2.2730104
-19.366004
0.15884712
-5.5438784
3.5126861
-8.7668243
33.768945
-11.90523
47.517176
-12.378817
37.801386
-8.0571484
1.3082478
-2.2918461
-12.998797
3.4677662
-31.602146
-31.380364
-2.2396851
-17.332924
0.2066048
-5.3377186
6.6107195
-8.1598136
36.59104
-10.934895
50.292257
-10.661897
37.528387
-5.6331746
-3.7204742
0.50197069
-19.133943
6.3668625
-37.467038
-34.70128
-2.151505
-15.416058
0.2346394
-5.0336117
9.4928262
-7.59436
39.151788
-9.9575449
52.655442
-8.6001072
36.17095
-2.6538981
-9.6666833
3.875132
-25.662973
9.301097
-42.893002
-37.554966
-2.0892798
-13.576981
0.25020246
-4.7270154
12.130562
-6.8123411
41.237114
-8.6205583
54.463659
-6.0547482
33.60514
0.76888883
-16.49032
7.090648
-31.984732
12.032268
-47.834623
-40.235159
-1.9796069
-11.852846
0.25547178
-4.3222202
14.473175
-6.0653405
42.980234
-7.3935157
55.791834
-3.503186
29.71481
4.1724069
-24.165913
10.497111
-38.309436
15.027476
-52.364988
-42.78596
-1.9188891
0.25284471
-10.186801
-4.0645646
16.618851
-5.4786261
44.394296
-6.0581368
56.371345
-0.67281888
24.329492
7.5201841
-32.358916
13.542817
-44.332069
17.597725
-56.419896
-45.209467
3.7030975
40.634582
-4.3837322
-39.953947
1.8184389
6.1953186
-4.3106615
-1.339831
-27.86732
31.025591
-4.3425107
-66.457694
69.460374
-5.3845784
-76.674567
77.716635
-4.2661787
-70.039363
68.920963
-2.9713922
-60.02748
58.732694
-1.0425236
-55.627121
53.698253
-43.91208
42.869556
3.9968857
41.067056
-4.4293603
2.1243045
8.0678997
-0.58713655
-25.155879
-3.2390193
-63.805811
-4.5511102
-75.362476
-3.9851481
-70.605325
-2.954943
-61.057685
-1.3634319
-57.218632
-45.275512
4.2838954
41.063502
-4.2803409
2.6759823
9.6758128
0.024541016
-22.504437
-2.7844906
-60.99678
-4.3662525
-73.780714
-4.0704963
-70.901081
-3.1105164
-62.017665
-1.5280467
-58.801102
-46.803558
4.5524286
40.352757
-3.841684
3.0660623
11.162179
0.62365271
-20.062028
-1.9054165
-58.46771
-3.5733456
-72.112785
-3.6929278
-70.781499
-2.9820628
-62.72853
-1.7446122
-60.038553
-48.548171
4.6702561
38.464201
-2.7817005
3.5192756
12.31316
1.288597
-17.831349
-1.3094811
-55.869632
-3.235931
-70.186335
-3.5803847
-70.437045
-2.9894896
-63.319425
-1.8263119
-61.20173
-50.374483
4.7429238
35.254179
-1.5329016
3.8138251
13.242259
1.9157727
-15.933296
-0.36573909
-53.588121
-2.3474382
-68.204636
-3.0350493
-69.749434
-2.702165
-63.652309
-1.9121544
-61.991741
-52.286637
4.6856421
30.986687
-0.41814984
4.0817532
13.846147
2.5298844
-14.381427
0.38189465
-51.440131
-1.8081017
-66.01464
-2.7085753
-68.84896
-2.5194435
-63.841441
-1.850848
-62.660336
-54.137485
4.6827131
26.283373
0.020600305
4.3868508
14.142009
3.1850667
-13.179643
1.3513163
-49.60638
-0.75298164
-63.910342
-1.9597915
-67.642151
-2.0689882
-63.732244
-1.7596298
-62.969695
-55.897115
4.4452025
22.398685
-0.56051438
4.7248778
13.862334
3.9036674
-12.358432
2.1430298
-47.845743
-0.11359013
-61.653722
-1.4523756
-66.303365
-1.6884654
-63.496155
-1.5215544
-63.136606
-57.418669
-0.55207756
55.0991
-54.547022
-1.5846094
55.906579
-54.874047
-2.6093095
55.717762
-54.693062
-3.9271584
55.197424
-53.879575
-5.0080297
52.568041
-51.48717
-5.58114
46.614055
-46.040945
-3.521324
29.548408
-31.608224
-0.79310914
2.7486172
-5.4768321
-14.738234
13.539475
0.40564953
-0.4830587
55.582159
-1.4852629
56.908783
-2.4840632
56.716562
-3.8329556
56.546317
-4.9523223
53.687408
-5.4933721
47.155105
-3.1063699
27.161406
-0.55246506
0.19471235
-15.70865
0.41795119
-0.42687085
56.00903
-1.4216415
57.903553
-2.4280765
57.722997
-3.7945942
57.912834
-4.9053509
54.798164
-5.3066762
47.55643
-2.7699579
24.624688
-0.38131016
-2.1939354
-16.512721
0.42276115
-0.36228437
56.371314
-1.3182809
58.85955
-2.2989594
58.703676
-3.6877301
59.301605
-4.8207982
55.931232
-5.1247682
47.8604
-2.6362218
22.136142
-0.40002462
-4.4301326
-17.294744
0.38199745
-0.30991047
56.681224
-1.2488884
59.798528
-2.2371823
59.69197
-3.6353364
60.699759
-4.7608849
57.056781
-4.9204293
48.019945
-2.6481309
19.863843
-0.53347011
-6.5447932
-18.200128
0.37191411
-0.25134272
56.932567
-1.1428024
60.689988
-2.1024526
60.65162
-3.5124503
62.109757
-4.6543351
58.198666
-4.760356
48.125966
-2.7008948
17.804383
-0.68174627
-8.5639422
-19.202809
0.32093433
-0.20429707
57.136864
-1.0711442
61.556835
-2.0372525
61.617728
-3.4462805
63.518785
-4.5851864
59.337572
-4.5670219
48.107801
-2.6353006
15.872662
-0.74822382
-10.451019
-20.251669
0.30063672
-0.15639662
57.293261
-0.96055023
62.360988
-1.8916132
62.548791
-3.2849893
64.912161
-4.4605593
60.513142
-4.4043161
48.051558
-2.5936959
14.062042
-0.80386804
-12.240848
-21.453297
0.39775934
-0.12540828
-0.90102573
-1.848389
-3.2395932
-4.3801728
-4.1743574
-2.4707471
-0.84926109
0.096127403
2.0226271
10.708607
0.80824052
6.9072035
-10.361409
9.2846703
-33.985691
8.3456633
-45.101938
6.6220207
-49.763527
4.6234645
-51.881019
2.943691
-53.013289
1.2456422
-53.175998
-53.30138
2.9119416
7.1756273
0.62103851
7.9574069
-15.406874
9.4618441
-35.490128
8.3340595
-43.974153
6.6143928
-48.04386
4.7030546
-49.969681
3.0122624
-51.322496
1.3141232
-51.477859
-51.987257
3.5697735
2.8640192
0.7418346
8.7586257
-20.595726
9.5016415
-36.233144
8.2875929
-42.760105
6.6077599
-46.364027
4.7430839
-48.105005
3.0290648
-49.608477
1.3763978
-49.825192
-50.610859
5.0078523
-2.9540481
0.81021495
9.4971292
-25.085003
9.5335816
-36.269596
8.2314375
-41.457961
6.5767768
-44.709367
4.8133925
-46.341621
3.0833992
-47.878484
1.4380015
-48.179794
-49.172858
7.7457515
-10.726538
0.026738048
9.8387108
-27.177962
9.4482248
-35.87911
8.1506817
-40.160418
6.5525966
-43.111282
4.8300191
-44.619043
3.1085893
-46.157054
1.4877785
-46.558983
-47.685079
8.751823
-19.189625
-0.28873506
9.8978056
-28.323945
9.3290792
-35.310383
8.0715929
-38.902931
6.5067652
-41.546454
4.8519748
-42.964253
3.1567239
-44.461803
1.5217578
-44.924017
-46.163321
9.2351872
-25.955585
-2.4692273
9.9703929
-29.059151
9.2343575
-34.574348
7.9795387
-37.648112
6.4750048
-40.04192
4.850271
-41.339519
3.1699666
-42.781499
1.5521986
-43.306249
-44.611123
9.8458528
-28.016295
-7.785143
9.9229258
-29.136224
9.0894408
-33.740863
7.879823
-36.438495
6.4190558
-38.581153
4.8474303
-39.767893
3.2024119
-41.13648
1.5724556
-41.676293
-43.038667
10.022217
-28.119718
-9.9187945
9.8018329
-28.91584
9.001438
-32.940468
7.7897088
-35.226766
6.3799239
-37.171368
4.8359054
-38.223875
3.2027653
-39.50334
1.592308
-40.065835
-41.446359
0.019248061
43.366497
-43.385745
0.09108586
41.557169
-41.629006
0.1699011
40.850771
-40.929586
0.2561271
39.356493
-39.442719
0.31613336
37.951727
-38.011734
0.37880434
35.728366
-35.791037
0.41974722
33.34804
-33.388983
0.42197524
29.612781
-29.615009
25.487124
-25.546351
0.48120182
0.048194993
43.318302
0.12103215
41.484331
0.18285731
40.788946
0.24569943
39.293651
0.29570783
37.901719
0.34977478
35.674299
0.38638205
33.311432
0.37169193
29.627471
25.498736
0.36008019
0.10676378
43.211539
0.22671167
41.364384
0.33872189
40.676936
0.44719076
39.185182
0.51885214
37.830058
0.57845504
35.614696
0.62220172
33.267686
0.60384142
29.645831
25.575326
0.52725127
0.14815919
43.063379
0.27305391
41.239489
0.37462506
40.575365
0.46466204
39.095145
0.53113289
37.763587
0.58735683
35.558472
0.63846489
33.216578
0.60700608
29.67729
25.763578
0.41875419
0.2108668
42.852513
0.38721099
41.063145
0.55044467
40.412131
0.68904875
38.956541
0.77905768
37.673578
0.84297689
35.494553
0.90412287
33.155432
0.89631948
29.685093
26.088086
0.57181165
0.2579788
42.594534
0.44601045
40.875113
0.60395109
40.25419
0.73022062
38.830271
0.82058743
37.583211
0.88433762
35.430803
0.95784294
33.081926
0.99845406
29.644482
26.605688
0.48085169
0.32430188
42.270232
0.56722292
40.632192
0.79544442
40.025969
0.97462659
38.651089
1.090033
37.467805
1.1580958
35.36274
1.231061
33.008961
1.3642747
29.511268
27.245631
0.72433244
0.37971062
41.890521
0.6330599
40.378843
0.8582735
39.800755
1.0322614
38.477101
1.155893
37.344173
1.2223105
35.296322
1.2658163
32.965455
1.5105101
29.266574
27.88648
0.86966131
0.44416209
0.75716962
1.0545844
1.3078108
1.4806163
1.550173
1.5751604
1.9258954
1.6926571
0.027413733
-25.770164
0.19639932
0.16964678
-29.757242
0.26997206
-33.489308
0.3352883
-35.856353
0.34479382
-38.021239
0.32794189
-39.425867
0.25154569
-40.85319
0.17685269
-41.554313
-43.208893
-0.046061592
-26.014336
0.29023357
0.098520598
-29.901824
0.19730828
-33.588096
0.27124589