/*--------------------------------*- C++ -*----------------------------------*\
  =========                 |
  \\      /  F ield         | OpenFOAM: The Open Source CFD Toolbox
   \\    /   O peration     | Website:  https://openfoam.org
    \\  /    A nd           | Version:  11
     \\/     M anipulation  |
\*---------------------------------------------------------------------------*/
FoamFile
{
    format      ascii;
    class       volScalarField;
    location    "0.1615";
    object      p;
}
// * * * * * * * * * * * * * * * * * * * * * * * * * * * * * * * * * * * * * //

dimensions      [0 2 -2 0 0 0 0];

internalField   nonuniform List<scalar> 
880
(
80
80
80.00000000570768
80.00099219765569
80
80
80.00000002981767
80.0038701187045
80
79.99999999999999
80.00000022725212
80.01824030721131
80
80
80.0000035822318
80.05814735648639
80
80.00000000000001
80.00000000000391
79.9999999990989
80.00000000020276
79.99999999064214
80.00000029026732
79.99999440884589
79.99996785636591
80.00009809100555
80.04210971326691
79.9492190824723
81.61958409766933
85.15030091415133
87.70173596876589
88.70298100545398
80.00000818726166
80.00011712111818
80.00017961986089
80.00018100689388
80.00031831732363
80.0007505687028
80.00260351440465
80.00275737272142
80.11606611285453
80.23000142551392
80.39883752784073
80.53950749148471
90.00842370915547
91.66972705612714
93.31088383995187
95.33780651624866
94.64045253745176
91.67698452712777
89.07776772203492
87.8954950100874
81.00278066539551
81.99277137679887
82.43807586250935
82.53378420928826
80.00846249930727
80.03114979564243
80.06475371807582
80.08943403319252
80.00054137090028
80.00171725813674
80.00437579485664
80.00612502354522
80.0060003895648
80.00490943422062
80.00307930712573
80.00134187516356
80.09500828562545
80.08629074356212
80.07072830243425
80.04864620418364
82.35589948427028
82.04941495766511
81.6902548517329
81.28360769826052
87.46330215513564
86.78062699759616
85.7607375597097
84.66807249675948
83.57177586877461
80.84499881990774
80.02414976114284
80.00031515771283
82.56026413759902
80.43413742555526
80.00695560767795
80.00002856738803
81.21391623462965
80.10282543833038
80.00067614193378
79.99998577130448
84.56376586195353
80.06132360165971
80.0001392405717
80.00004210590048
79.99993746312077
80.00000552855906
80.20079346250427
105.843162035883
80.0000639945935
80.00407493547578
81.00285363487728
125.2365116059146
80.00044500200733
80.01043796024855
82.13417015051247
136.2989684276713
80.00172279729682
80.03279422639207
83.80745815964461
146.0618533643504
152.9256197376301
85.94228473018372
80.05949127570734
80.00345963912672
160.2552053442614
88.56979871198936
80.1211622144104
80.00777562757679
167.4788969835397
91.96697598155379
80.20338575113522
80.01108459018539
176.5802566346983
95.80050777827327
80.31801309257962
80.01967510621769
80.02699363324319
80.48821176355531
100.7707133668333
183.735528872549
80.04391083396652
80.75360350069545
105.1283344721365
183.1887225861375
80.10774808450668
80.91170913645477
102.5060890840375
164.4354941064512
79.97751421552555
80.56432776386855
95.14082523973364
135.9494660968965
80.12076589797165
81.36776495814016
91.87246123735792
101.6083266080842
80.16139226478427
81.28401048641712
83.83045854953353
68.54839677049209
80.07914161862715
80.64957188044151
80.62837639439437
48.98503716772925
80.00629909501876
80.23648107526726
78.24487855320301
41.66956339217951
42.26358284616377
76.62420647469143
79.89094925993382
79.99673899432308
41.9327882373825
75.13799119771379
79.71652997244549
79.9926678260907
41.70673755462104
74.09976977857872
79.66210916039456
79.99419269132521
39.33263873638943
72.87579024195421
79.62727767059616
79.99601112269767
43.93855682752017
74.35938995914117
79.80293646928975
79.99855898611678
47.21801055720763
76.24281559069085
79.92610702650148
79.99960920077872
50.2910873685103
77.57300175125195
79.96890105986405
79.9998690200367
55.30341353928026
79.04856412782792
79.99469788932193
79.99995412240744
69.8905111085619
78.42671550417987
79.9190090462004
79.99889845562906
68.84021669571139
78.4795580374916
79.92172574488869
79.99889084916671
67.6335423648994
78.49070650627085
79.92690534390729
79.99890883218166
67.64041689084051
78.63088716130879
79.93478701915812
79.99894192352021
55.30341353903013
79.04856412744856
79.99469788869715
79.99995412314884
50.29108736819595
77.57300175098884
79.96890105760731
79.99986901949154
47.21801055671434
76.24281559091749
79.92610702622333
79.9996092014303
43.93855682754228
74.35938996023063
79.80293646921876
79.99855898552897
79.99673899578812
79.8909492612319
76.62420647477586
42.26358284618166
79.99266782670364
79.71652997313683
75.13799119829602
41.93278823762007
79.99419268978183
79.66210916183874
74.09976977850604
41.70673755466529
79.99601112293557
79.62727767123374
72.87579024397627
39.33263873622015
41.669563390923
78.24487855199098
80.2364810744165
80.00629909465773
48.98503716676124
80.62837639326683
80.64957187965429
80.07914161622381
68.54839677053211
83.83045854844292
81.28401048659082
80.16139226318776
101.608326608273
91.87246123707368
81.36776495692374
80.12076590103742
80.02699363269441
80.488211766692
100.7707133667747
183.7355288734342
80.04391083423259
80.7536035017048
105.1283344719405
183.1887225859685
80.10774807977049
80.91170913588991
102.5060890829545
164.4354941064325
79.97751422449493
80.56432776366344
95.14082523881324
135.9494660968215
176.58025663758
95.80050777836692
80.3180130924667
80.01967510633867
167.4788969882675
91.96697598789444
80.20338575603344
80.01108459055982
160.2552053442106
88.56979871081869
80.12116221470595
80.00777562713959
152.9256197372714
85.94228472752502
80.05949127432571
80.00345963861068
79.99993746483625
80.00000552894345
80.20079346256482
105.8431620343796
80.00006399440211
80.00407493495798
81.00285363525896
125.2365116048756
80.00044500107622
80.0104379593445
82.13417015121367
136.2989684296466
80.00172279614172
80.03279422747639
83.80745816028517
146.0618533651147
80.00004210460249
79.99998577204121
80.00002856722196
80.00031515733347
80.00013923888601
80.00067614268418
80.00695560911458
80.02414976017609
80.06132360204235
80.10282543876032
80.43413742437971
80.84499881966339
84.56376586190953
81.21391623474355
82.56026413735442
83.57177586890438
80.00134187358724
80.0486462042083
81.28360769930717
84.66807249748183
80.00307930678014
80.07072830211916
81.69025485324435
85.76073756011616
80.00490943534045
80.08629074363013
82.04941495708528
86.78062699738466
80.00600038986744
80.09500828573749
82.35589948495139
87.46330215491092
80.00054136938599
80.00846249794917
81.00278066581834
94.64045253734898
80.00171725660086
80.03114979555639
81.99277137649224
91.676984526159
80.00437579416568
80.06475371960201
82.43807586219535
89.07776772161543
80.00612502301935
80.08943403427037
82.53378420928239
87.89549500933727
95.33780651692501
80.53950749477546
80.00275737179491
80.00018100605324
93.31088384028955
80.39883753168941
80.00260351382011
80.00017961461178
91.66972705700572
80.23000142681811
80.00075056866045
80.00011712626498
90.00842370734713
80.11606610853242
80.00031831727873
80.0000081878011
88.70298100473101
79.94921908018262
79.9999944088475
79.99999999966785
87.70173596818697
80.04210971236348
80.00000029032375
79.9999999999964
85.15030091423647
80.00009809062458
79.99999999067037
79.99999999999999
81.61958409753701
79.99996785583549
80.00000000020631
79.99999999999989
80
79.99999999999997
80.00000000611786
80.00099220269924
80.00000000000003
80.00000000000001
80.00000002999305
80.00387012103768
80
80
80.00000022727713
80.01824030953274
80
80
80.00000358122018
80.05814735449511
80.00284372173746
80.01037817250524
80.03488014903203
80.35011683819
80.01037818120584
80.01672419000468
80.05959377410969
81.1965991498369
80.03488015226247
80.05959377362882
80.51821625660664
86.58970794314264
80.35011678108583
81.1965990358437
86.5897078697145
105.2868612762291
135.1378830191488
114.5727083692204
103.0745710560544
91.4133360611274
130.2468989653211
125.640790946736
123.6494396022685
114.7783453677607
127.999019850122
126.5973314978866
126.1033294372544
122.1360246638254
127.8628571867966
126.9195244903936
126.7904696169763
124.2806962436354
125.2964652129895
124.8963398244558
125.1579346955466
126.2544962728585
126.9820152825408
125.7031706880185
125.7836325683932
126.887069597545
127.3501317419722
126.209451589436
126.0662625335083
126.8210972091037
127.6981446468848
126.5150841631227
126.179440593082
123.5079185501659
105.1211910117487
83.72094443436745
76.94317040985713
78.00653981838026
95.72091367320216
76.7692364786744
75.0208121480904
77.54414031564176
86.300414996751
74.17633353377215
75.75691424952991
78.34664509937978
68.87172115906463
69.49009230359501
74.6658335439413
77.62755124319389
79.87473518261706
81.21278129914631
81.65469387901085
81.78025503637183
79.74497695144817
80.89563948716642
81.35012284834616
81.47528385231585
80.23196331837147
80.98890802396539
81.38057620219936
81.54459698446396
79.49858992450753
80.41222820965243
81.09771895779507
81.40082517460918
81.82744069978959
81.64140720910662
82.01204268640319
116.7934689998014
81.53729690563254
81.5778300808751
82.69287001722702
132.0896221037752
81.58488977786898
81.73492456837145
83.50499982733244
139.5840470580778
81.32359810638216
81.64590093702333
84.86988889377523
145.3068681268866
213.3512133676654
223.2663106731253
221.4029203103015
219.838200513224
230.7253627751275
229.1772704249537
223.9111405261228
220.9849411073246
227.006616838381
225.8202962678471
223.9957262923724
222.0836081221997
235.1424024844581
229.3361928210346
225.9542197269309
222.7520087702044
214.1632463861739
210.052922124106
208.2628648095707
210.5287012249102
214.9542224232063
210.5550099578826
208.3037825645424
210.0384792796957
215.8685285353554
210.798233184947
208.5223535825158
209.9329963608068
217.7109294457927
211.5494746770274
208.6030852597104
209.60233483523
211.6906934645866
207.5570608025878
190.9036129818881
159.4544571510713
211.1450940576196
208.1385816769669
191.3597069494961
170.4295591204425
211.1988708194368
208.5853797658814
194.4796482362703
180.1895108083298
210.8736920318942
209.2097809624854
197.893104759543
200.3134103613534
93.45268797124385
18.51999035610638
2.994230662235039
4.159471555243859
74.42554410857085
10.85129915386157
3.670896477426526
4.280554693139647
50.82650807541815
5.482366490333874
3.131793262482534
4.786635195381916
28.01152539988615
1.964512487236926
3.475928494241442
5.071545620910753
6.787600703798645
9.300849295223051
11.53297636305582
11.37812522117269
6.702871156627324
9.705968159113326
11.82028836806306
11.82073944772348
7.398581607080655
10.34121238573987
12.04321373470454
12.73845446574231
7.80825936236144
10.95046249279006
12.70868100387697
14.10981877989739
20.11033845839624
23.92885968029071
26.96737671481324
32.01989619134682
19.41310175825317
23.24626866789603
25.34229870226299
30.80813469174348
17.84543817133346
22.20846283462306
24.35870226083355
29.13947780869431
16.04710666220472
20.68000927898351
22.79619533171546
29.49796770486419
22.91950248733473
13.88109584122192
12.6273306327694
13.02633940660065
21.25527462395771
15.08993224144653
16.00501506398724
13.4214346702982
17.3960972822822
16.72751485207648
15.668900209391
13.32833631964957
13.85740380814262
15.94446259949923
14.96959989925477
14.06722154177384
13.28122721095299
12.85402724905709
12.8989904983931
13.02284653189357
11.81408202203523
11.0010753524448
10.94102992721204
10.96342939847344
11.69518234698952
11.69450564769311
11.37258009192399
11.29879037363644
15.98122377768554
16.73141204832276
15.9257776312323
15.67575961298764
13.02284653189472
10.96342939847607
11.29879037364443
15.67575961307089
12.89899049838495
10.94102992720611
11.37258009194638
15.92577763123581
12.85402724904611
11.00107535245116
11.69450564771729
16.73141204825564
13.28122721094508
11.81408202204606
11.69518234702505
15.98122377762408
13.02633940655203
12.62733063269007
13.8810958411031
22.91950248704797
13.42143467028668
16.00501506396955
15.08993224144082
21.25527462377916
13.32833631965808
15.66890020938917
16.72751485205156
17.39609728220686
14.06722154178266
14.96959989926259
15.94446259947411
13.85740380809637
29.49796770469948
22.79619533144228
20.68000927851619
16.04710666190699
29.1394778085599
24.35870226067692
22.20846283421608
17.84543817101698
30.80813469157613
25.34229870215259
23.24626866755736
19.41310175799525
32.01989619113561
26.96737671470793
23.92885967997946
20.11033845814642
11.37812522096574
11.53297636303958
9.300849295244801
6.787600703750046
11.82073944752607
11.82028836799229
9.705968159124341
6.702871156611924
12.73845446555724
12.04321373460219
10.34121238572077
7.39858160707889
14.10981877965538
12.70868100374262
10.95046249274749
7.808259362340517
4.159471555179064
2.99423066214839
18.51999035587063
93.45268797099773
4.280554693109319
3.670896477337398
10.85129915371239
74.4255441081629
4.786635195340271
3.131793262385751
5.482366490274675
50.82650807527808
5.071545620882067
3.475928494171929
1.964512487185825
28.01152539984011
159.4544571508982
190.9036129824595
207.5570608034715
211.6906934668509
170.4295591203734
191.3597069500555
208.1385816781505
211.1450940601325
180.1895108083576
194.4796482369901
208.5853797674365
211.1988708219718
200.3134103616741
197.8931047606542
209.2097809642959
210.8736920344973
210.5287012278924
208.2628648109175
210.0529221241914
214.1632463860035
210.0384792826227
208.3037825657826
210.5550099579712
214.9542224230011
209.9329963634924
208.5223535836142
210.7982331848523
215.8685285351533
209.6023348379408
208.6030852607406
211.5494746768132
217.7109294456119
219.8382005142156
221.402920311964
223.2663106724851
213.3512133657173
220.984941108645
223.9111405277268
229.1772704247743
230.7253627743657
222.0836081234937
223.9957262937778
225.8202962678156
227.0066168387999
222.7520087712711
225.9542197285729
229.3361928208426
235.1424024848411
116.7934689976864
82.01204268593307
81.6414072094544
81.82744070046667
132.0896221015134
82.69287001645272
81.57783008140443
81.5372969065247
139.5840470558133
83.50499982653764
81.73492456943708
81.58488977878493
145.3068681252006
84.86988889252525
81.64590093839676
81.32359810758508
81.78025503690911
81.65469387947496
81.21278129894965
79.8747351822385
81.47528385271849
81.35012284876494
80.89563948693696
79.74497695098137
81.54459698472549
81.38057620250405
80.98890802380659
80.23196331786099
81.40082517495397
81.09771895820069
80.41222820943598
79.49858992408213
78.00653981757264
76.94317040927508
83.7209444339028
105.1211910121922
77.54414031469841
75.02081214747444
76.76923647824691
95.72091367390358
78.34664509833516
75.75691424906771
74.17633353336277
86.30041499761073
77.62755124202202
74.66583354336285
69.49009230290497
68.87172115976263
126.2544962730563
125.1579346948327
124.8963398257251
125.2964652128054
126.88706959749
125.7836325678816
125.7031706893426
126.9820152815832
126.8210972087774
126.0662625330718
126.209451590853
127.3501317414969
123.507918550489
126.1794405927483
126.5150841642854
127.69814464565
124.2806962437247
122.1360246604497
114.778345365168
91.41333608227293
126.7904696159953
126.1033294333514
123.6494395971926
103.0745710458343
126.9195244904472
126.5973314948355
125.6407909332124
114.572708328405
127.8628571874687
127.9990198489981
130.2468989508625
135.1378829842676
56.87002164766076
78.59179870884
79.97451265014752
79.9998488903974
56.46042618532908
78.488711965939
79.97096805507094
79.9997793711162
59.80891206607453
78.60718706432668
79.96723078299885
79.99969137705703
64.17437303205033
78.65202856295119
79.9541452887605
79.99939220065434
79.9988984559145
79.91900904739471
78.42671550293377
69.89051110878937
79.99889084966894
79.92172574597851
78.4795580365205
68.84021669477977
79.99890883100724
79.92690534441132
78.49070650643036
67.63354236408796
79.99894192090713
79.93478702008242
78.63088715986908
67.64041689030074
79.99939219900493
79.99969137545976
79.99977936772925
79.99984888719517
79.95414528952105
79.96723078310484
79.97096805486447
79.97451264943479
78.65202856241967
78.60718706260478
78.48871196658006
78.59179870856926
64.17437303149124
59.80891206499673
56.46042618500893
56.87002164820362
)
;

boundaryField
{
    back
    {
        type            empty;
    }
    inlet
    {
        type            zeroGradient;
    }
    front
    {
        type            empty;
    }
    top
    {
        type            zeroGradient;
    }
    outlet
    {
        type            fixedValue;
        value           uniform 80;
    }
    bottom
    {
        type            zeroGradient;
    }
    wall
    {
        type            zeroGradient;
    }
}


// ************************************************************************* //
