/*--------------------------------*- C++ -*----------------------------------*\
  =========                 |
  \\      /  F ield         | OpenFOAM: The Open Source CFD Toolbox
   \\    /   O peration     | Website:  https://openfoam.org
    \\  /    A nd           | Version:  11
     \\/     M anipulation  |
\*---------------------------------------------------------------------------*/
FoamFile
{
    format      ascii;
    class       volScalarField;
    location    "0.1615";
    object      T;
}
// * * * * * * * * * * * * * * * * * * * * * * * * * * * * * * * * * * * * * //

dimensions      [0 0 0 1 0 0 0];

internalField   nonuniform List<scalar> 
880
(
300
300
300.0000000064222
300.0010470562116
300
300
300.0000000358191
300.0043515568356
300
300
300.0000002696059
300.0205486319992
300.0000000000001
300
300.0000036481142
300.0568347217984
300
300
300.0000000000152
299.9999999990619
300.0000000002067
299.9999999899813
300.0000003111177
299.9999940091899
299.999968323354
300.0002467114593
300.0599992491684
299.9166519558788
301.7884904446825
306.1034275875101
309.8151021921193
311.3228495983968
300.0000087579233
300.0001255723993
300.0001932951403
300.0001943475654
300.0003552877247
300.0009173237024
300.0033627545466
300.0033069833786
300.1476119725141
300.3149130023805
300.5506212456457
300.7139220412307
313.0945448956108
315.0063037337088
316.8297812471768
319.0428880602846
318.3134070595798
315.323499028144
312.6582095816869
311.0825081532946
301.2744242734148
302.5688093903761
303.1428133053065
303.1591511697021
300.0101254104562
300.0364264606808
300.0733764909619
300.0990764086057
300.0005817503407
300.0018427641687
300.004686682539
300.0065505316397
300.0064140859611
300.0052460236345
300.0032891773067
300.0014331624374
300.104232248175
300.0937492790398
300.0756397244523
300.0514769660589
302.8852146519723
302.4099865838367
301.8939682386234
301.3840154440829
309.9755135589784
308.520795845453
306.7572182724827
305.1443317688423
303.7874879197859
300.8921636833049
300.0254826067288
300.0003366545712
302.6845752997163
300.4566192349146
300.0073670868666
300.0000305355381
301.2820785720852
300.1079143163536
300.0007124987446
299.9999847306202
305.5204816732177
300.069888232412
300.000168692551
300.0000453756815
299.9999330850543
299.9999786117185
300.2291698764611
330.8384307664537
300.0000683612935
300.0045455046776
301.2055784302714
351.0772626185632
300.0004763438224
300.0112502490241
302.6787242617119
362.0672487702386
300.0018473309783
300.0387988575928
304.8973397775346
371.0796651256826
377.9414584084667
307.8220605419198
300.0709643884527
300.0037027498208
385.1075148662987
311.4751459462357
300.1537322238775
300.008384688088
391.6582287303758
315.9827184932279
300.2545171057456
300.0118687072485
398.6977709775221
320.9512877105827
300.4130987757083
300.0212154988918
300.0289246454585
300.6187793034629
326.7497841509297
403.48601483652
300.0468873379464
300.9821024515052
331.7626881560329
403.0493376948297
300.1159546187467
301.1821720394552
328.7577199556446
389.7772208911406
299.9761325322077
300.7256581415803
319.8191854059905
365.5404615291039
300.1293939896422
301.5674279146845
317.6071185647262
342.9562166599418
300.1588279796563
301.6996107920892
309.9890612395644
320.730087686011
300.0642233704061
301.1159127702151
307.6005421962078
311.0027120146993
300.0029237674624
300.6722088057541
308.0040304729893
322.1538450329318
325.119102733333
305.5858520561206
300.0344477167506
299.9883008438574
321.104042905615
302.5205816919663
299.7769766428579
299.9798673951202
315.5246146739673
299.9301139737601
299.6447177481671
299.9856093124511
307.3708702710519
298.0772307673979
299.6012208184355
299.9938441153566
297.360633446105
297.7737301000023
299.8118612002847
299.9983422310366
284.2179304584001
297.9500607598035
299.9434288377666
299.9996420956259
276.9270647185445
298.2812221386405
299.9743145109167
299.9998763902183
277.1619132759045
299.221728404119
299.9950777562721
299.9999507967846
301.4557626216056
299.1978228155452
299.9027468308373
299.9986172834007
300.0182847389399
299.217771591253
299.9033615992701
299.9985410234603
298.357232693153
299.1780572381426
299.9142256760197
299.9985139362061
298.4949356178881
299.2658424767254
299.9088385498809
299.998155763788
277.161913275426
299.2217284033914
299.9950777546554
299.9999508000893
276.9270647181748
298.2812221387931
299.9743145077828
299.9998763892773
284.2179304577738
297.950060761272
299.9434288383439
299.9996420963177
297.360633446147
297.773730102006
299.8118612004133
299.9983422300086
299.988300844465
300.0344477182541
305.5858520555183
325.1191027346155
299.9798673962293
299.7769766436027
302.5205816929104
321.1040429060732
299.9856093106139
299.6447177501436
299.9301139728007
315.5246146740441
299.9938441159908
299.6012208195997
298.0772307698219
307.3708702706098
322.1538450290808
308.004030471194
300.6722088028632
300.0029237664534
311.0027120135196
307.6005421947647
301.1159127693023
300.0642233674195
320.7300876865971
309.989061238249
301.699610792203
300.1588279787926
342.9562166600697
317.6071185644112
301.567427913414
300.1293939948914
300.0289246446118
300.618779306893
326.7497841519539
403.4860148373019
300.0468873378625
300.9821024547709
331.7626881572649
403.0493376949493
300.1159546139403
301.1821720395753
328.757719955635
389.777220891368
299.9761325428525
300.7256581420609
319.8191854052768
365.540461529122
398.697770979037
320.9512877103527
300.4130987754896
300.0212154994131
391.6582287327951
315.9827184979712
300.2545171103581
300.0118687073753
385.1075148659754
311.4751459456025
300.1537322270157
300.0083846869268
377.9414584090625
307.82206053985
300.0709643811098
300.0037027487135
299.9999330873638
299.9999786121526
300.2291698764101
330.838430765007
300.0000683612192
300.004545506712
301.2055784314157
351.0772626179958
300.0004763426967
300.011250242817
302.6787242623356
362.0672487713409
300.0018473291714
300.0387988663279
304.8973397777659
371.0796651258887
300.0000453744078
299.9999847317336
300.000030535102
300.0003366534932
300.0001686902727
300.0007125001971
300.0073670884992
300.025482605075
300.0698882329207
300.107914316849
300.456619233507
300.8921636837817
305.520481673222
301.2820785723154
302.6845752995475
303.7874879199605
300.0014331599719
300.0514769663719
301.3840154456638
305.1443317694414
300.0032891774266
300.0756397241515
301.8939682405218
306.7572182725763
300.0052460251009
300.0937492793391
302.409986583101
308.5207958448284
300.0064140858755
300.1042322485545
302.8852146529217
309.9755135584656
300.0005817481931
300.0101254087811
301.274424274597
318.3134070596918
300.0018427616568
300.0364264602735
302.5688093915011
315.3234990275105
300.0046866808199
300.0733764925571
303.1428133055882
312.6582095814425
300.0065505303638
300.0990764099677
303.1591511697792
311.0825081525236
319.0428880610795
300.7139220443829
300.0033069823829
300.0001943464951
316.8297812474869
300.5506212481582
300.0033627538323
300.0001932897258
315.0063037348235
300.314913003425
300.0009173236515
300.0001255780543
313.0945448937934
300.1476119688032
300.0003552874847
300.000008758929
311.3228495973108
299.9166519537856
299.9999940092679
299.9999999999475
309.8151021910338
300.0599992461754
300.0000003112161
299.9999999999926
306.1034275878211
300.000246710863
299.9999999900313
300
301.7884904449962
299.9999683225777
300.0000000002083
299.9999999999999
300
299.9999999999999
300.0000000070779
300.0010470617103
300.0000000000002
300
300.0000000361072
300.0043515595111
300
300
300.0000002697128
300.0205486347129
300
300
300.0000036464789
300.0568347198934
300.0030864527656
300.0113626418137
300.0377064014897
300.3789424090218
300.01136265137
300.0181522487806
300.0638926470652
301.3202002063501
300.0377064051291
300.0638926467957
300.5606162708377
307.3872695391012
300.3789423480503
301.3202000876319
307.3872694631561
327.5891439485384
356.2381341402069
337.627116367644
324.5000976948128
312.2040938734273
353.0099472954001
347.9974074250712
343.2513919163932
334.4608217731126
350.6890975794903
348.6236158696397
346.4163920013652
342.631335267061
349.4745781551526
348.3926756062415
347.6438957806114
345.5686521431359
346.8055508824238
346.5135593041227
346.7695758283534
348.1246891661073
347.6593042113743
346.3027765182106
346.1133921082563
347.3740823907997
347.8968879551907
346.2551546426109
345.5103178972794
346.2577832371343
348.2025518219893
346.3147837087153
345.3997521592559
341.4431479534446
330.6357975997052
310.9275199068819
301.4741806954881
302.0210247073669
321.6250773151781
303.5561992352241
299.7390816650091
302.6646508497253
311.0064272689347
298.2287802731941
300.4427996799171
304.2496924526602
287.9654167345756
291.2922701003779
299.5918828678234
304.0723262131435
303.1816184522425
303.5255971160363
303.171562331707
302.6228103446463
304.4024501789389
304.3189358462623
303.7684415413975
302.8943284344793
305.7270178247957
305.3151933226234
304.5151757520789
303.4018600740814
305.212803863291
304.976940892368
304.4348472012732
303.3952369751375
302.2551512199519
301.8301510248704
302.161692703869
341.9028780929665
302.2336779677239
301.8757183233216
302.926673844094
359.1597591093106
302.4412313949766
302.1153329010126
304.1728980878121
368.9574453130998
302.1870136470261
302.0952904604975
306.6758251779301
376.1771232289303
417.4464249853818
425.7788909517887
426.0890952871813
426.7201348945323
429.2157836139353
430.0411018399583
427.7131213702727
426.2851944637459
430.4030041233197
429.3069943236347
427.9943860585892
426.0806420552798
436.5180285097574
431.9758463229413
429.2644233822829
426.1418433513281
425.0987730350845
424.7391588687486
425.1123179105054
427.2691137870663
423.3692490569585
422.2419747574498
422.0960188567626
423.653944528423
421.775153520509
419.1155950444361
418.3839156237263
419.419709522493
422.0193508054201
418.0912999967829
416.6633486303235
417.3339305702982
427.9830743829742
424.854408685171
413.0781302668232
394.3580077479363
424.5729687090233
422.2351308169368
411.646541135543
412.5907859898441
420.3831994764073
419.075040106918
414.8891229273387
428.2738078538373
418.0768764422236
418.1602272976802
421.0061744839903
410.6719309921557
359.4723261353911
299.8645030986942
203.5605077090368
189.1843539786212
351.7821103085914
266.4362677235885
178.8653858121439
150.1563481121308
318.1356856874783
215.0319057316028
153.3159313469289
139.1523130043116
242.6561968432572
143.8201110239436
148.711827661662
137.6084031752322
210.4177322980764
234.5548888942243
251.5466110025147
251.3591801822984
166.1087160353725
198.6255402690195
228.1353940993623
243.1383579873728
148.2375002060669
174.8786923470043
211.0232128366027
242.3712957706338
144.7227369762469
169.5368743355392
209.7756745444713
246.9193579171449
281.9910335783711
264.4220748114634
250.1496839044394
247.1812840804002
283.0027533195448
270.5488286206617
253.8332532086239
253.515119304054
274.5260944761742
275.2902838160039
265.2812457523916
268.3001919663625
262.7013730897851
274.5713528238348
271.921498789411
284.4479484457887
227.7360248882748
203.9237036859078
207.7114062290484
213.0743046106637
234.0278705834829
223.9616455208445
226.8142214240889
211.1354585181143
237.0574124289872
235.8003673698332
223.7268197420918
193.8237119504099
228.2785730160563
231.1191723744016
209.4144867834362
183.4308369120938
171.2119386078593
169.3826630640474
171.2898681392414
172.8844121602188
174.7488618517567
171.1052422723404
174.053949105944
176.1703090447021
196.2913508651095
198.4048034524863
200.5519896518215
201.9478100341263
233.6818190220337
239.5994562038658
236.503175368431
235.1682216089227
172.8844121602963
176.1703090446665
201.9478100339737
235.1682216086866
171.2898681394362
174.0539491058389
200.5519896517156
236.5031753681961
169.3826630642097
171.1052422724305
198.404803452498
239.5994562034724
171.211938607972
174.748861851953
196.2913508653408
233.6818190217637
213.0743046105096
207.7114062286601
203.9237036853224
227.7360248872724
211.1354585181392
226.8142214241948
223.9616455210444
234.027870582777
193.8237119505214
223.7268197420841
235.8003673697192
237.0574124287153
183.4308369121442
209.4144867834517
231.1191723744572
228.2785730160169
284.4479484454828
271.9214987885479
274.5713528219908
262.7013730878878
268.3001919659599
265.2812457517695
275.2902838143733
274.5260944743648
253.5151193035676
253.8332532080367
270.5488286192835
283.0027533187176
247.1812840798936
250.1496839039509
264.4220748101886
281.9910335780999
251.3591801818558
251.5466110028782
234.5548888951376
210.4177322982242
243.1383579861757
228.1353940994529
198.6255402701491
166.1087160356574
242.3712957691636
211.0232128361351
174.8786923475489
148.2375002063825
246.9193579153403
209.775674543614
169.5368743356492
144.7227369764259
189.1843539774718
203.5605077081116
299.8645030986408
359.4723261353171
150.1563481116121
178.8653858110419
266.4362677228953
351.7821103079068
139.1523130039087
153.3159313453708
215.0319057312962
318.1356856873901
137.6084031751362
148.7118276602161
143.8201110225908
242.6561968430178
394.3580077477671
413.0781302670095
424.8544086852997
427.9830743839051
412.5907859897601
411.6465411357436
422.2351308173405
424.5729687102441
428.2738078539371
414.8891229276939
419.0750401077259
420.3831994779433
410.6719309922384
421.0061744846308
418.1602272987298
418.0768764440019
427.2691137889644
425.1123179109221
424.7391588685401
425.0987730351283
423.6539445303332
422.096018857372
422.2419747574031
423.3692490568083
419.4197095243056
418.3839156244563
419.1155950444687
421.7751535204201
417.3339305721569
416.6633486310986
418.0912999968195
422.0193508054146
426.7201348948971
426.089095287728
425.7788909511896
417.4464249841805
426.2851944642591
427.7131213708222
430.0411018397376
429.2157836132218
426.0806420558326
427.9943860590756
429.3069943234675
430.4030041237405
426.1418433517669
429.2644233829586
431.9758463226746
436.5180285102267
341.9028780911204
302.1616927034087
301.8301510252714
302.2551512205214
359.1597591077696
302.9266738432891
301.8757183238629
302.2336779684648
368.957445311746
304.1728980867981
302.1153329021423
302.4412313957536
376.1771232279547
306.6758251760389
302.0952904618513
302.1870136481759
302.6228103449906
303.1715623318298
303.5255971155994
303.1816184516856
302.8943284346841
303.7684415415266
304.3189358458313
304.4024501783744
303.4018600742057
304.5151757521585
305.3151933222726
305.7270178242547
303.3952369754333
304.4348472014531
304.9769408919726
305.2128038629196
302.0210247063933
301.4741806948485
310.9275199065875
330.6357976004482
302.6646508484166
299.7390816642097
303.5561992347922
321.625077316051
304.2496924510885
300.4427996792885
298.2287802726458
311.0064272694325
304.0723262113734
299.591882867085
291.2922700996354
287.9654167344708
348.1246891670627
346.7695758287169
346.5135593054584
346.8055508812926
347.3740823913859
346.1133921079996
346.302776519493
347.6593042096006
346.257783237163
345.5103178968951
346.2551546438754
347.8968879542276
341.4431479535698
345.3997521592619
346.3147837098277
348.202551820623
345.5686521422739
342.6313352654655
334.4608217665835
312.2040938913128
347.6438957794738
346.4163919996168
343.2513919105247
324.5000976815987
348.392675606389
348.6236158686797
347.9974074217732
337.6271163519794
349.474578156051
350.689097580134
353.0099472953024
356.2381341300205
275.159633555403
298.6022760062726
299.9737287915861
299.9998423477087
275.0418608279516
298.600473186826
299.972007104387
299.9997779846248
283.3529861534449
298.9035689738748
299.969057153032
299.9996723202283
294.6432341497111
299.1888292825475
299.9445214132378
299.9990520683523
299.9986172843493
299.9027468317524
299.1978228142826
301.4557626220293
299.998541024756
299.9033616006243
299.2177715895576
300.0182847380003
299.9985139337041
299.9142256776358
299.1780572370347
298.3572326915625
299.9981557589953
299.908838551666
299.2658424737226
298.4949356164729
299.9990520660684
299.9996723163937
299.9997779773881
299.9998423420897
299.9445214143977
299.9690571534724
299.9720071042103
299.9737287897846
299.1888292822817
298.9035689717298
298.6004731872795
298.6022760054512
294.6432341481955
283.3529861519162
275.0418608275844
275.1596335554791
)
;

boundaryField
{
    back
    {
        type            empty;
    }
    inlet
    {
        type            zeroGradient;
    }
    front
    {
        type            empty;
    }
    top
    {
        type            zeroGradient;
    }
    outlet
    {
        type            fixedValue;
        value           uniform 300;
    }
    bottom
    {
        type            zeroGradient;
    }
    wall
    {
        type            zeroGradient;
    }
}


// ************************************************************************* //
