/*--------------------------------*- C++ -*----------------------------------*\
  =========                 |
  \\      /  F ield         | OpenFOAM: The Open Source CFD Toolbox
   \\    /   O peration     | Website:  https://openfoam.org
    \\  /    A nd           | Version:  11
     \\/     M anipulation  |
\*---------------------------------------------------------------------------*/
FoamFile
{
    format      ascii;
    class       surfaceScalarField;
    location    "0.132";
    object      phi;
}
// * * * * * * * * * * * * * * * * * * * * * * * * * * * * * * * * * * * * * //

dimensions      [0 3 -1 0 0 0 0];

internalField   nonuniform List<scalar> 
1652
(
2.843686947071611
0.8895636090847481
0
1.954123337988149
0.8895636090834615
-2.220446049250313e-16
1.064559728909678
0.8895636090058463
-7.72715225139109e-14
0.8895540954388663
1.468780652658097e-11
0.1749975465890864
2.843686947076741
1.779127218162428
1.954123337998014
1.779127218162188
1.064559728960097
1.779127217640762
1.779061610237405
0.1750152380755106
2.843686947090741
2.668690827246526
1.954123338008367
2.668690827244562
1.064559729446555
2.66869082293511
2.668300801012208
0.1750784317403541
2.843686947092868
3.558254436328659
1.954123338013008
3.558254436324421
1.06455973997783
3.558254350886027
3.556805207891062
0.175213244087169
4.418652025448567
2.872852967045247
5.279049614570453
2.872852967043177
6.139447203694605
2.872852967042488
2.872852967041818
6.999844793035024
4.418652025437513
2.012455377932159
5.279049614550987
2.012455377929711
6.139447203662995
2.012455377929212
2.01245537792633
6.999844792776714
4.418652156684075
1.152058543226524
5.279050985520062
1.152055069486953
6.138663171977499
1.152129096627839
1.152312943214097
6.99851381631552
4.438851578460303
0.2490129877460346
5.424622440985493
0.1104604725979724
6.45743257723012
0.04772488665044172
7.501024327208859
0.0304251146834198
6.941512767582496
0.0583318484463583
6.883177237989438
0.058331958357698
6.82484726494496
0.05832175161542841
0.0583242052477313
6.766515328848842
6.941521068345542
0.1166459641475728
6.883230853710041
0.1166018590756998
6.824964213835385
0.1165062666928219
0.1164915718883306
6.766697331029087
6.946265647797402
0.1666950013423508
6.896581931558373
0.1625168688427441
6.847596884075724
0.1590418923103643
0.1542019939462685
6.797243133184164
7.573720095518339
0.02138517097536274
7.637235935657415
0.01488368589756572
7.694223730635985
0.01417076770010739
7.75885995671073
0.0008201093040187679
7.812256462588056
0.0453647602986309
-0.1799491572956303
7.697464383546647
0.1003266019462566
-0.0566140844384338
7.580710943174355
0.08311837620497409
-0.01418981353243343
0.06422959523801597
7.469828704034947
-0.008983378805025755
6.819688708333312
0.0004924406400587111
6.868403217515996
0.001816460885876059
6.893354507345183
0.003430194980715728
0.003694142997087035
6.89415706681631
6.766883518746069
2.287881568130423e-05
6.767514445706516
7.015975418267484e-05
6.76857864714191
0.0001677193335782867
0.0002187304773654253
6.768997162073354
6.766516490365238
6.766518185970838
6.766514557306041
6.766505629604045
6.766497458623847
-0.0002060184714490765
6.766496505818914
-0.0001617043714171595
6.766504771129148
-8.792979986826932e-05
-2.640267053144463e-05
6.766513782524877
6.768941373505066
-0.003331857075384748
6.76836439491515
-0.002579013693426613
6.767398165528056
-0.001573139742807705
-0.00060246788724716
6.766696421333238
6.879398628154891
-0.04662648909857903
6.85366803726034
-0.03309123194142566
6.820512540982619
-0.02305658673997074
-0.01531303790370925
6.787699638315594
7.346559683008977
-0.005750428811484076
7.219360038545048
-0.003678564437303466
7.094077683799351
-0.003493665285174807
6.974142006411554
-0.003455168640318251
0.005775602292852178
6.868197261952838
-0.001074223682236919
0.0001003607842242626
6.770315969827453
3.362806949791519e-06
6.766528509877808
6.766516455698357
0.001347604626328713
6.795157238248012
-0.002544525770956041
8.631046931273367e-06
6.766782534493501
2.611118724571426e-07
6.766516513579478
6.766516612822818
7.346068646846282e-05
6.77599522862114
-0.0005942561000046864
-7.781535737994005e-08
6.766570095818384
-1.844589953003961e-07
6.766515049266443
6.76651663693497
0.001829022234143052
6.861953852855387
-0.1436382927011644
8.622755385379044e-06
6.767239737889922
-8.837241481929325e-07
6.766512882075228
6.766513344815287
0.1555535713259374
6.610961432282637
0.3110811034821342
6.610981826830997
0.4564788114958526
6.617401850243564
6.954521997478563
0.1267075024695802
0.1555486747923371
6.455410401593348
0.3109239167558092
6.455463982324883
0.4350226449586594
6.471494679181593
6.896011827107286
0.1473396812484372
0.1555283051030998
6.299867224707945
0.3105814490540706
6.300096616518178
0.4067579257780816
6.329683736548852
6.765699205957648
0.09851994603408587
0.1554823815046491
6.144321044296269
0.3099385508841221
6.144700198489578
0.3728157271416071
6.190264806879635
6.569833871515637
0.06812021804043888
-0.3260289784748593
6.393635269417861
0.02240595302870707
-0.3088597627760519
6.057188641403403
-0.1554143858072783
5.989677242033048
5.988786749056323
-0.280202540498466
6.236687572944332
0.007428526673996072
-0.3072695361737348
5.927559293408853
-0.1552777410714596
5.83441858557053
5.83324833790862
-0.2291582826465258
6.052860360954923
-0.003668860346961234
-0.3054420599972977
5.783414311716377
-0.1552102426021844
5.679341718902583
5.677715043651275
-0.1760815865462306
5.778672161837417
0.003071037241268226
-0.3028254396702582
5.641024665231869
-0.1549542196055287
5.524450862514751
5.522208913271455
0.1985820462974154
5.322928603603486
0.3871696813859499
5.325181586505309
0.2203111164966642
5.434759479731053
5.444312691760102
0.03149952117122923
0.198090765766429
5.123745385699925
0.3812791562552156
5.126845877816752
0.1735089698794084
5.233105255515144
5.112662743334539
0.07372081124136187
0.1976254994182045
4.923801797402072
0.3784576787075098
4.927195025217715
0.2526772660067109
5.01287201243152
4.919090415529615
0.1882611013202824
0.1983719186579115
4.725679031943536
0.3861029723271095
4.729144558615364
0.3853391542339574
4.787799283467364
4.76787594865582
0.3714502869144604
-0.3387622736809757
5.061191873282135
-0.7166259131169161
5.072831621878203
-1.269549210494712
5.170889072693532
4.881119996603805
-1.435761126080678
-0.3399468869187234
5.396384379315336
-0.7185040316506377
5.417175527361067
-1.041732308558776
5.453785750343428
4.364981188154992
-0.4514163698214359
-0.3375706172615069
5.731596814283018
-0.6743646390964229
5.73989032559538
-0.9374167778813192
5.726522998653045
3.75992154375137
-0.05880765666142946
-0.335338670065569
6.066690392985175
-0.6642282518727957
6.06562417435231
-0.7956608729821232
5.916401388228607
3.385361197629931
-0.03782242778611376
0.3455278241007873
3.270343204399489
-0.01364561156346504
0.3399461798663173
5.9920077004897
0.1748357876268902
6.236536782840409
6.241571397302198
0.3164058371315804
3.152698605621775
-0.006137032309228137
0.3377170928295089
6.068507499249527
0.1748265239022734
6.408724551799738
6.416494550857202
0.320350875225794
3.01949205456518
5.416254863934572e-05
0.3384553558661232
6.192993862080975
0.1748803967616704
6.583399296317132
6.591491695530269
0.3026683253958838
2.852133397581049
0.01189046415016724
0.3376680586590671
6.315919823428463
0.1748843112211951
6.758922792721298
6.766492536215756
-0.1675671347136823
3.299690913311467
0.07553908024561792
-0.01044239546771952
6.498066017162657
-9.209195704684703e-05
6.764170336705036
6.766510434497776
-0.1105724684546614
3.925939147835464
0.1023918061237656
-0.003928336208004479
6.644106563182278
-2.546282514814813e-05
6.765890868767145
6.766515339296785
-0.07289643897113707
4.637327836122269
0.116180752776829
-0.001592423860536929
6.727906290200144
-8.609464922759713e-06
6.766474855144899
6.766516524988166
-0.04746112896053067
0.1130688821317789
5.285167684277724
-0.0006921717341106248
6.732778901280605
-3.4489147691108e-06
6.766181268082504
6.766516543783369
1.021022181786553
-0.91932385597234
-0.0146043278330859
-6.185585377238567e-11
1.977403830783531
-0.8681408411870746
-3.926636793494254e-12
2.858169686336038
-0.8746974849739759
3.680167282027469e-11
-0.8749777453967624
-3.666311698680147e-11
1.029429713083439
-1.799046672263962
-0.01712338653701585
1.977674711732189
-1.735459004384134
2.858170127485694
-1.749360252024904
-1.749955208298882
1.026181635349559
-2.57862020517103
-0.0299910267802651
1.977792830312154
-2.608237666936188
2.85817001860433
-2.624160217847087
-2.624933052395206
1.029229074048559
-0.04919265666055118
-3.331242794228207
1.978522214076799
-3.486440857582553
2.85817909713306
-3.499402593529585
-3.499916265662275
-0.04746112895990218
-4.637327836133366
0.113068882130743
5.28516768428739
-0.0006921717446966014
-6.727906290209681
6.732778901284767
-3.448959728480361e-06
-6.766474855165796
6.766181268106434
-6.766516525035912
6.766516543871878
-0.07289643897610942
-3.925939147859014
0.1161807527791119
-0.001592423870072635
-6.644106563206746
-8.609447486485067e-06
-6.765890868792089
-6.766515339260804
-0.1105724684740145
-3.29969091330736
0.1023918061226179
-0.003928336231088903
-6.498066017154865
-2.546282779047893e-05
-6.764170336714496
-6.766510434506033
-0.1675671347071994
-2.852133397564475
0.07553908024285866
-0.01044239545489578
-6.315919823414212
-9.209195326120856e-05
-6.758922792705192
-6.766492536216031
-0.1748357876257539
6.241571397331312
-6.066690393035786
-0.339946179855003
6.236536782894701
-6.065624174390249
-0.3455278240939912
5.992007700446243
-5.916401388169327
3.27034320435983
-3.385361197585642
-0.01364561156348965
-0.1748265238783643
6.416494550876569
-0.337717092807386
6.408724551833298
-0.3164058371279271
6.068507499235823
3.152698605593781
-0.006137032308648024
-0.1748803967523077
6.591491695539083
-0.3384553558454163
6.583399296324465
-0.3203508752189542
6.192993862076335
3.019492054548876
5.416254924810182e-05
-0.1748843112094955
-0.3376680586342838
-0.3026683253855096
0.01189046414881415
0.7956608729845541
-3.759921543712542
-0.03782242778632434
0.6642282519068641
-5.726522998623074
0.3353386700931305
-5.739890325634082
-5.731596814298873
0.9374167778871921
-4.364981188127262
-0.05880765665996459
0.6743646391174558
-5.453785750325073
0.3375706172687338
-5.417175527410146
-5.396384379366966
1.04173230856984
-4.881119996594299
-0.4514163698193446
0.7185040316728406
-5.170889072690603
0.3399468869191014
-5.07283162191701
-5.061191873261347
1.269549210508627
-4.767875948654472
-1.435761126084412
0.7166259131380064
-4.787799283469321
0.3387622736806757
-4.729144558617422
-4.725679031920633
0.1985820463040464
5.322928603618175
-5.522208913298079
0.3871696814125982
5.325181586486892
-5.524450862612253
0.2203111165076833
5.43475947970308
-5.641024665108523
5.444312691746215
-5.778672161772991
0.03149952117409982
0.1980907657622925
5.123745385722708
0.3812791562524581
5.126845877794664
0.1735089698929092
5.233105255482449
5.112662743331709
0.07372081124209484
0.1976254994251944
4.923801797564413
0.3784576787254215
4.927195025211061
0.2526772660098449
5.012872012416839
4.919090415527367
0.1882611013196597
0.1983719186699453
0.3861029723477352
0.3853391542367696
0.3714502869137221
-0.1760815864979927
-6.052860360925062
0.003071037247731945
-0.3028254396398013
-5.783414311645462
-0.1549542195890835
-5.679341718867426
-5.677715043672231
-0.2291582826580352
-6.236687572968953
-0.003668860349692493
-0.3054420599907941
-5.927559293539745
-0.1552102426002563
-5.8344185856987
-5.833248337922191
-0.2802025405157208
-6.393635269430573
0.007428526677830116
-0.3072695361497042
-6.05718864139487
-0.1552777410558277
-5.989677242113777
-5.98878674906484
-0.3260289784388573
-6.569833871498638
0.02240595303860671
-0.3088597627681556
-6.190264806804678
-0.1554143858016959
-6.14470019850764
-6.144321044306504
0.1555535713300509
6.610961432316402
-6.766513344849534
0.3110811034843233
6.610981826866539
-6.766512882064856
0.4564788115043029
6.617401850256325
-6.767239737897985
6.954521997491939
-6.86195385286612
0.1267075024656147
0.1555486747939117
6.455410401584205
0.3109239167573951
6.455463982327868
0.4350226449480546
6.471494679188525
6.896011827140341
0.1473396812622045
0.1555283051080499
6.299867224704498
0.3105814490631302
6.300096616512323
0.4067579257877356
6.329683736575767
6.76569920594303
0.09851994603390379
0.1554823814958263
0.3099385508649196
0.3728157271351881
0.06812021803818114
-6.766516636945072
8.837298656194648e-07
-6.76651661282654
1.844587641519624e-07
-6.766516455696508
-2.611120524242949e-07
-3.362802889594896e-06
-6.766513782517282
-6.76651504923365
-8.622753433717989e-06
-6.766516513584453
7.781266098128015e-08
-6.766528509891923
-8.631045053997255e-06
-0.0001003607809333396
-6.766696421336088
-6.766570095823927
-0.0018290222345268
-6.766782534494935
-7.34606848609709e-05
-6.770315969820819
-0.001347604626001198
-0.005775602297483307
-6.787699638295448
-6.775995228619636
-0.1436382926973051
-6.795157238222736
-0.0005942561020547132
-6.868197261952679
-0.002544525772907924
-6.974142006411076
-0.001074223677804242
-2.640267546571984e-05
-6.766504771131212
-0.0006024678935288019
-6.767398165522374
-0.01531303790224492
-6.820512540996798
-7.094077683809749
-0.003455168638378359
-8.792979981686599e-05
-6.766496505815565
-0.001573139744048602
-6.768364394916435
-0.02305658672502298
-6.853668037259255
-7.219360038549981
-0.00349366528164341
-0.0001617043713182387
-6.766497458632363
-0.002579013693910004
-6.768941373499436
-0.03309123194473795
-6.879398628168857
-7.346559683012948
-0.003678564437796183
-0.0002060184746300875
-6.766505629602324
-0.003331857084923229
-6.768997162084432
-0.04662648909073963
-6.894157066837455
-7.469828704038791
-0.005750428810189112
-2.287882833618138e-05
6.76651649035688
-6.766515328838354
-0.0004924406561034322
6.766883518728956
-6.766697331009734
-0.04536476031943942
6.819688708250101
-6.797243133114835
7.812256462614791
-7.758859956763063
-0.1799491572967031
-7.015975777446837e-05
6.766518185969126
-0.001816460889278226
6.767514445706863
-0.1003266019537252
6.86840321749697
7.697464383564649
-0.05661408444323607
-0.0001677193341799166
6.766514557302666
-0.003430194982696366
6.768578647152359
-0.08311837621531015
6.893354507365896
7.580710943184197
-0.01418981353428223
-0.0002187304838593418
-0.003694143007994311
-0.06422959524278116
-0.008983378807125353
-0.1542019939550962
-7.69422373068303
0.0008201093091436684
-0.1164915719036761
-6.847596884108724
-0.05832420524692905
-6.824964213832394
-6.824847264939871
-0.159041892333051
-7.637235935697501
0.01417076769756137
-0.1165062667090544
-6.896581931790958
-0.05832175162561426
-6.883230853701273
-6.883177237799761
-0.1625168688788071
-7.573720095515689
0.01488368590751082
-0.1166018590965028
-6.946265648014719
-0.05833195834952798
-6.941521068358834
-6.941512767574616
-0.1666950013396288
-7.501024327154413
0.02138517097323522
-0.1166459641708572
-6.998513816367446
-0.05833184845260919
-6.999844792819834
-6.999844793030931
-1.152312943143766
-6.457432577199953
0.03042511469097486
-2.012455377911088
-6.138663171824477
-2.872852967041764
-6.139447203690949
-6.139447203691683
-1.152129096646082
-5.424622440957526
0.04772488667304808
-2.012455377916446
-5.279050985509737
-2.872852967042245
-5.279049614566454
-5.279049614567348
-1.152055069486729
-4.43885157846178
0.1104604726222809
-2.012455377921992
-4.418652156677664
-2.872852967044603
-4.418652025443836
-4.418652025446893
-1.152058543224316
-3.556805207835281
0.2490129876797895
-2.012455377927508
-3.558254350889037
-2.872852967046921
-3.558254436324422
-3.558254436328661
2.843686947076677
0.8895636090796828
1.954123337995112
0.889563609081564
1.064559728915548
0.8895636090068633
0.8895540954041661
0.1749975465453342
2.843686947077599
1.7791272181565
1.954123337999196
1.77912721815997
1.064559728961274
1.77912721764328
1.779061610250865
0.1750152378563637
2.843686947089469
2.668690827241873
1.95412333800662
2.668690827242819
1.064559729444697
2.668690822944254
2.668300800947858
0.1750784316422628
2.843686947088214
1.954123338006611
1.064559739970933
0.1752132440448514
0.1749966622664793
0.174996662174988
0.1749930423566823
0.1750131341832499
0.1750026915868029
0.1750518665193259
0.1752152856669409
0.1749265427375877
0.1750131344676708
0.1749930421948779
0.1750090812454946
0.1750090809798487
0.1749908187329536
0.1750373256022934
0.1744824153422772
0.1755364070504781
0.1750518664621892
0.1750026914645325
0.1750373253951125
0.1749908185343025
0.17498374586468
0.1749837463144217
0.171918441834998
0.1769637558006789
0.1752152857646471
0.1749265426421537
0.1744824153513689
0.1755364070168953
0.1719184418614981
0.1769637560626248
0.1715311867179444
0.1715311868540145
-0.07297244263996505
0.243161552347412
-0.1355474997631092
0.2376941167542065
-0.2018418219030221
0.2398628992725538
0.2203836581298291
-0.01380348157390454
0.2557704672001851
-0.03329914508680998
0.2559234848619693
-0.06211531852152519
0.2666724052001218
0.2661406847520854
-0.007134460247091967
0.261309522470028
-0.02011956907959089
0.2669618873398246
-0.03187754057613834
0.2765701713961454
0.2800211117482177
-0.005141598318270102
0.2654080171878217
-0.01516013367749014
0.2763795483169052
-0.02278247885116191
0.2834455141681702
0.2860335311029765
0.288532915845009
0.01790825863021572
0.2903030662467475
0.01272126159374759
0.2929124582648984
0.01154857046683921
0.0004259053355503695
0.294336577491938
0.288557362421719
0.01175411899056261
0.2914511297881002
0.009932513858142922
0.2953619693013563
0.008454662604525709
-0.00537951179339613
0.3030148370650301
0.2851763743026119
0.001980311614299568
0.2907098265312377
0.004274176827532616
0.2956276586775723
0.004352833702228776
-0.03066201091874921
0.3228618213910145
0.2664820674499751
0.2706320004276323
0.2755162856817829
0.248449849590186
0.2727058095537
-0.1571303831823904
0.2475368508983913
-0.02746070569108539
0.2421276351409512
-0.004782530783339844
-0.006544329264781823
0.2438917546316686
0.2665151503880513
-0.1197269308017693
0.2487811051115215
-0.005923310667304782
0.2470096679465662
0.0005276153970003583
-0.003990113133150563
0.2486682207628126
0.2723847289028231
-0.06774658937934158
0.2574010539335548
0.01016606820114668
0.2541209713375742
0.007750510580022574
0.00198268349624392
0.2523601338101111
0.181450788478692
0.1914082581549773
0.2027690229988455
0.2090752682132917
0.2444325567294818
-0.004461390722931557
0.2436627491578224
-0.002023443350476495
0.2419879431971222
-0.001856607327312243
-0.001754885410578
0.2408727479002728
0.2476060419613348
-0.001065347224454449
0.2451648584377526
0.001542995498425515
0.2432834175611102
0.00105816469604314
0.0003801655309640384
0.242407924835937
0.2496332573671295
0.004012953449640699
0.2468014269485412
0.005606125473115786
0.2450808334924102
0.004643812493239863
0.002773992082246268
0.2440505622371851
0.2155596550033509
0.222242289453961
0.2284622014134376
0.2335172418375791
0.2398458771316539
-0.0007186922403056295
0.2364718699628711
-0.001403102457395222
0.2346840386775446
-0.0005766712822415365
-0.162477786961856
0.2451414356318738
0.240637117507364
0.0002621539257159355
0.2371037329396414
0.0002250050465916753
0.2353249638004069
-0.001116770258928534
-0.1524269297183631
0.215197135823804
0.241893282869034
0.001750885086383602
0.2382147810151732
0.001945941368210247
0.2350636559811637
-0.001329310868584788
-0.1018437182474102
0.1744902947188768
0.2344075485292468
0.2340913333216451
0.2285122295621432
0.1164654734724156
0.2684063712640711
0.09370916855739642
0.2722889469693247
0.13543915402895
0.2764432155931463
0.08603926767641445
0.05666888404149883
0.2787262420619318
0.2451268592791935
0.0576002967343916
0.2678340375255056
0.1079146290896991
0.2771583831466763
0.0716832360199815
0.04517907540609456
0.2816273044534419
0.1991877181165665
0.02708284546425532
0.2418104931067244
0.05920068748429563
0.2698264566712718
0.0404501265282089
0.0284420272933128
0.2808040784260907
0.1396418748890199
0.1945306795809137
0.2318019156076662
0.2548008768186142
0.278043607875299
0.01812538829691313
0.2819524575947568
0.004294271503559099
0.2884775605770205
-0.004807645778089675
0.0007368435550683117
0.2975166940890435
0.2815944523758973
0.01491388153021922
0.2846003370819101
0.003871921750395746
0.2898178779358209
-0.003492581592520083
-0.001097664092628792
0.299358160720103
0.2821029179585272
0.01105900718365038
0.2863222912527325
0.003154993231700876
0.2920614332685212
-0.001499291631780086
-0.0003245696968547929
0.3012358584488144
0.2626863127315125
0.2691945841096203
0.2753229694493032
0.2856304415513942
0.3087047206910571
0.02425366273982688
0.3258050777130809
0.05903362925019917
0.3591321576049636
0.1547617232849131
0.3045401426797764
0.4268082695241808
0.3125371597140122
0.01609437587916518
0.3289236128746729
0.04450736540875022
0.3584524853387898
0.1262123472800709
0.1997596509753085
0.4636167765941849
0.3130736155798098
0.01104268785815532
0.330188782802555
0.03046525019594037
0.3687206852973363
0.08997936766890635
0.04747526305307248
0.5246922057288966
0.303382315076993
0.3375415560000323
0.4304528578084875
0.4826722848333426
0.2199366659965936
-1.221230019250481
0.02329642282750264
-0.2510120944852591
0.00321526202023755
-0.03200901300027587
-0.02699942359075782
0.0002562705390658452
0.1541031867750743
-0.907335293876785
0.01244415388966705
-0.1070192202296304
0.002616583522044419
-0.01615527589938625
-0.01501589892086325
-0.002276247568131867
0.07664042355317299
-0.4567306397330431
0.004648394784512487
-0.03300428943157276
-0.001672473956227383
-0.00461594480864309
-0.00722222278602512
-0.002243275144486219
0.0281843704405401
-0.002164310510285627
-0.0009910651121556036
-0.001392181919893902
0.00177241549916706
-0.01133100378935699
0.001347227308585684
-0.003214350419829586
-0.0005296638104452071
0.002927700253706714
0.006735418747231547
0.004289156282295932
-0.002207425458946899
-0.007826782092599571
-0.003133889641714949
-0.000748833791520756
-0.003499426992676741
0.002217853062348819
0.004938680142472104
-0.004560035766379943
-0.002944805962586922
-0.003775594931445678
-0.004222884490511798
-6.84642312069883e-05
-0.005718426852150495
0.001551737539460384
0.00392087247428459
-0.00861137614432304
-0.001958558615609989
-0.005782304672649004
-0.008638449982856495
-0.008825342015900045
0.04855002544260165
0.03460956289516039
0.09352005861111681
0.06911057395611157
0.1358246751240493
0.09079201651882278
0.1019705036372263
0.1699567615921906
0.02234861175276275
0.01028820788318395
0.06624695673029002
0.03540753171563589
0.1115933034537027
0.06115479541973941
0.0794063655028778
0.1559906846197236
0.00425335948850411
-0.0003838015715462717
0.03983621850972399
0.009160545010369156
0.08608400535836284
0.03091028063763468
0.05204577868940066
0.134919634475499
-0.008971220505509903
0.006894611669919962
0.05056808043779339
0.1173134590237743
0.1359571940013137
-0.1565299115239251
0.2045253359569612
0.1047991925689659
-0.1081821620916502
0.1522577539987966
0.08195526756414416
-0.07412879889515746
0.09090381052938862
-0.06848101116682978
0.05481578268213247
0.09361704564033468
0.1199912367262164
-0.1108032998107866
0.09210873895661528
-0.06781144718066649
0.05477890503052368
-0.05329074845226978
-0.03529573387246121
0.01652161720744872
0.09719499060459852
-0.06603875378697298
0.055835397330989
-0.03252051016638995
0.01192219552486426
-0.02390144572433217
-0.01030928343633111
-0.01153005145584942
0.05385880775550571
0.003315215460326197
-0.02243933784712668
-0.02958060253724678
-0.02332222520689746
0.001714733945858166
-0.0146976898343622
-0.002543120545153862
-0.007735917580456442
-0.004763221444649857
-0.006059186289486235
-2.214894934127187e-14
-0.01151528180061257
0.009657498834570575
-0.008470237468172694
-0.0006285283403778992
-0.004125143427051423
-0.007037481899296255
-0.009312905993509658
5.221517662690189e-14
0.009328871883252286
0.02665449805568388
0.004597697030199563
0.01016547212237056
0.001636418172405105
-0.000303921295221523
-0.00332179204896876
1.046315811770171e-13
0.03437232347916121
0.0188875100463706
0.008776118611479276
3.386180225106727e-13
-0.006059186289502194
0.007735917580411526
-0.009312905993516557
0.004125143427115594
-0.003321792048995569
-0.001636418172151842
-0.008776118610548535
0.01460432783287531
-0.004763221444657142
0.01469768983434765
-0.007037481899304216
0.008470237468173863
-0.0003039212952276674
-0.004597697029852216
-0.01888751004546785
0.01712338653722327
-0.002543120545186007
0.0233222252068706
-0.0006285283403912913
0.01151528180064102
0.01016547212232974
-0.009328871882959371
-0.03437232347818081
0.02999102678017963
0.001714733945832568
0.02958060253725566
0.009657498834541995
0.01153005145594023
0.02665449805560525
-0.01652161720719035
-0.05481578268149465
0.04919265666042093
-0.08195526756382894
-0.06848101116669975
0.09361704564043491
-0.1047991925685881
-0.07412879889512117
0.09090381052945144
-0.1359571940008774
-0.1081821620915826
0.1522577539987011
-0.1565299115237538
-0.1699567615919483
0.204525335956823
-0.05477890503019914
-0.03529573387234736
-0.09210873895631755
-0.05329074845224196
-0.119991236725935
-0.06781144718054612
-0.1108032998106811
-0.1559906846195297
-0.0119221955247044
-0.01030928343629943
-0.05583539733080714
-0.02390144572428544
-0.09719499060443795
-0.03252051016635354
-0.06603875378689471
-0.1349196344752818
0.02243933784721818
-0.003315215460142754
-0.05385880775532517
-0.1173134590235234
-0.05056808043754196
-0.05204577868931343
-0.006894611669598226
-0.03091028063761497
0.008971220505402888
-0.00916054500983994
0.0003838015716279009
0.008825342015688811
-0.08608400535827102
-0.0794063655026199
-0.03983621850895547
-0.06115479542034417
-0.004253359488137064
-0.03540753171450525
-0.01028820788247052
0.008611376144099778
-0.1115933034538268
-0.1019705036365375
-0.0662469567294583
-0.09079201652057606
-0.0223486117518628
-0.06911057395474673
-0.0346095628932819
0.00456003576619898
-0.1358246751239362
-0.09352005861046445
-0.04855002544155488
-0.00428915628195221
0.0005296638100219971
0.006735418746583219
-0.001347227308439055
0.00292770025384162
-0.001772415498893025
-0.003214350419378988
-0.01133100378930728
-0.0002562705389407855
0.003499426992389828
0.004938680142067345
0.003133889641802209
0.002217853062303848
0.002207425459225828
-0.0007488337911345927
-0.007826782092499575
0.002276247568372051
0.005718426851916925
0.003920872474138776
0.004222884490511662
0.001551737539418702
0.002944805962953994
-6.846423102950527e-05
-0.00377559493136978
0.002243275144772556
0.008638449982595209
0.005782304672586027
0.001958558615887332
0.001392181920107994
-0.003215262020332943
-0.02699942359096999
-0.02329642282664731
-0.03200901299972678
-0.2199366659948691
-0.2510120944838092
-1.221230019252618
-0.4268082695233589
-0.002616583522037997
-0.01501589892088505
-0.01244415388930924
-0.01615527589909471
-0.1541031867739805
-0.1070192202288591
-0.9073352938781586
-0.4636167765939216
0.001672473956239633
-0.007222222785945101
-0.00464839478433268
-0.004615944808494421
-0.07664042355247927
-0.03300428943126069
-0.4567306397338066
-0.5246922057290921
0.000991065112287139
0.002164310510331978
-0.02818437044029798
-0.4826722848340038
-0.3591321576038625
0.3045401426792129
-0.3258050777121982
0.1547617232844847
-0.3087047206908347
0.05903362925059219
0.02425366274261642
-0.2975166940883984
-0.358452485338647
0.1997596509744747
-0.3289236128745333
0.1262123472783871
-0.312537159714262
0.04450736540946054
0.0160943758821499
-0.2993581607201058
-0.3687206852980591
0.04747526305197802
-0.330188782802798
0.08997936766702619
-0.3130736155803103
0.03046525019728885
0.01104268786006202
-0.3012358584489527
-0.4304528578103473
-0.3375415560034
-0.3033823150796751
-0.2856304415530551
-0.288477560577988
0.0007368435617198799
-0.281952457596747
-0.004807645780724679
-0.2780436078762432
0.004294271505705938
0.01812538830640631
-0.2787262420600747
-0.2898178779368586
-0.001097664086725292
-0.2846003370845611
-0.003492581594212729
-0.281594452378073
0.003871921752339968
0.01491388153870166
-0.2816273044525243
-0.2920614332697451
-0.0003245696930745945
-0.2863222912553565
-0.001499291632942601
-0.2821029179611003
0.003154993233407066
0.01105900719070196
-0.2808040784261428
-0.275322969450786
-0.2691945841140798
-0.2626863127347981
-0.2548008768133697
-0.2764432155908738
0.0566688840403512
-0.2722889469711908
0.08603926767783809
-0.268406371265554
0.1354391540447545
0.09370916855292155
-0.2451414356330471
-0.2771583831440909
0.045179075405822
-0.2678340375272765
0.07168323602306725
-0.2451268592758704
0.1079146291012434
0.05760029673051303
-0.2151971358236794
-0.2698264566684448
0.0284420272921998
-0.2418104931061116
0.04045012652963809
-0.1991877181109736
0.05920068749096896
0.02708284545810669
-0.1744902947161545
-0.2318019156022941
-0.1945306795796476
-0.1396418748817114
-0.1164654734743182
-0.2346840386772523
-0.1624777869608386
-0.2364718699620519
-0.0005766712887193548
-0.2398458771323627
-0.001403102458565453
-0.00071869223528781
-0.2408727479017407
-0.2353249637997799
-0.1524269297213978
-0.2371037329400699
-0.001116770270363054
-0.2406371175069367
0.0002250050477756727
0.0002621539299320075
-0.2424079248376023
-0.2350636559798049
-0.1018437182483868
-0.2382147810162854
-0.001329310876946377
-0.2418932828679568
0.001945941371827464
0.001750885088190379
-0.2440505622380122
-0.228512229561618
-0.23409133332456
-0.2344075485260247
-0.2335172418387872
-0.2419879431978761
-0.001754885407841023
-0.2436627491580372
-0.001856607324615345
-0.2444325567297643
-0.002023443351080678
-0.004461390722331315
-0.2438917546312402
-0.2432834175618978
0.0003801655311524432
-0.2451648584380361
0.001058164698050812
-0.2476060419615833
0.001542995497679334
-0.00106534722440349
-0.2486682207623785
-0.2450808334925723
0.00277399208074014
-0.246801426948602
0.004643812494577793
-0.2496332573671305
0.005606125472735424
0.0040129534494876
-0.2523601338098516
-0.2284622014135163