/*--------------------------------*- C++ -*----------------------------------*\
  =========                 |
  \\      /  F ield         | OpenFOAM: The Open Source CFD Toolbox
   \\    /   O peration     | Website:  https://openfoam.org
    \\  /    A nd           | Version:  11
     \\/     M anipulation  |
\*---------------------------------------------------------------------------*/
FoamFile
{
    format      ascii;
    class       volScalarField;
    location    "0.1175";
    object      T;
}
// * * * * * * * * * * * * * * * * * * * * * * * * * * * * * * * * * * * * * //

dimensions      [0 0 0 1 0 0 0];

internalField   nonuniform List<scalar> 
880
(
500
500.0000000001348
500.0000324922992
500.0071048562465
500.0000000000001
500.0000000007102
500.0001042647052
500.0676538022782
500
500.000000026295
500.0006364209283
500.3766526930389
500.0000000000001
499.9999999360547
500.0018452208237
501.1889234408248
500.0000000001739
499.9999999997196
500.0000000061326
500.0000010253932
500.0000001073885
499.9999999920284
500.0000034795454
500.000045268334
500.0151856081114
500.0333103715046
500.1282613968305
499.9457925390399
504.5793332592391
509.5047994450319
513.3473486562156
514.771795100327
500.0000114084268
500.0001501684264
500.0003078614339
500.0002605053414
500.0006745370459
500.0019092148431
500.0055548757105
500.005540385787
500.254580094129
500.5071105373735
500.8353307718421
501.0163559538644
516.6712563539452
519.2471723990238
521.5354129977158
523.2104423098109
519.0655416459779
515.9963892221988
514.1418425177711
512.0049823119061
501.786902718398
502.8027870444312
503.032507440043
502.7328326601755
500.0161532945052
500.0430276185937
500.0642884493812
500.0700978405304
500.0008484304521
500.0024027936608
500.0035940352002
500.0035179025694
500.002657050809
500.0013645049931
500.0004178543481
500.0000627652904
500.0613280432142
500.0441391902422
500.0225015613826
500.0068250606187
502.2441101587413
501.6713667562116
501.0675359300064
500.5075926296528
509.55804411663
507.3408604703213
505.4850771681927
503.8420016831664
502.3166695197447
500.163429760943
500.0010939168032
500.0000048422199
500.7685012536304
500.0253774195006
500.0000758273305
500.000000136191
500.9161456487631
500.004842898801
500.0000093144846
500.0000002658546
513.9338796977549
500.1884488795923
500.0006174772824
500.0000022340272
500.0000754780049
500.0037177247456
501.1247440084042
550.5777798857337
500.0004409322832
500.013377838182
502.4530272998252
564.0950185489038
500.0014516578176
500.0288232743896
504.3758383146268
575.9291592152787
500.0034948107507
500.0712713312053
507.1439982227423
586.0672936237
594.5653139324871
510.1373455452082
500.1107359233714
500.0056608282377
603.4189935659253
513.7675284157916
500.2026272358585
500.0097030565973
611.6340706220318
517.2373190328912
500.2608869744636
500.0125338137656
618.3437869628698
521.7342792153802
500.4219581441059
500.0206672746137
500.0274526071957
500.5690732536254
526.4515497812924
622.2425511504513
500.0459582166205
500.8488080468305
528.2403461933702
613.2807331905839
500.0654333741778
500.7468337371584
521.9101364814329
590.3825483243671
500.0064736606559
500.4429245956574
511.9390861594587
555.388416577029
500.0646406465518
500.7574753297171
509.9091953367925
523.3261958537098
500.0380909395354
500.4333402441126
506.0907339010564
513.9525515841555
500.002041284597
500.2236863130159
505.4084656778214
518.7828382155205
499.9852591148015
499.8383549664555
502.2285058711446
520.5345525055767
510.9450277806288
498.4693500098242
499.5993231877194
499.9919110992326
500.4122520773028
496.7186102407117
499.6241069174803
499.996026044911
490.6455624878685
496.1442853903072
499.7611849598799
499.9984325115033
475.3835407054431
495.5165774382569
499.8120523733695
499.9987978812636
467.0204124343818
496.3381172868428
499.9107836380588
499.9994380823699
462.364731832106
497.6736832239746
499.9678472964101
499.9998385395265
462.9596818374622
498.4083921526201
499.9841650709512
499.9999340718642
469.4506057463686
499.3202740896247
499.9951060573866
499.9999698710634
495.5450108091787
499.0321505958518
499.9618639743797
499.9996145739146
496.5702031594494
499.1082239378322
499.9620530301759
499.999616031326
496.0918435082331
499.1377512279544
499.9627635373603
499.9996221970636
496.9320911304437
499.2219810716622
499.9653687306197
499.9996590492437
469.4506057463519
499.3202740896305
499.9951060576148
499.9999698708953
462.9596818375112
498.408392152579
499.9841650708428
499.999934071737
462.3647318320698
497.6736832238153
499.9678472961285
499.9998385394205
467.0204124344611
496.3381172864936
499.9107836380675
499.9994380823384
499.991911099394
499.5993231880312
498.469350010142
510.945027780322
499.9960260447759
499.6241069175992
496.7186102411573
500.4122520769173
499.9984325116515
499.7611849595372
496.1442853900888
490.6455624875903
499.9987978812745
499.8120523738195
495.5165774379385
475.3835407055359
520.5345525056447
502.2285058709358
499.8383549662582
499.9852591149423
518.78283821577
505.4084656778829
500.2236863132551
500.0020412845274
513.9525515841937
506.0907339012468
500.4333402441346
500.0380909395722
523.3261958536294
509.9091953365462
500.757475329215
500.0646406467764
500.0274526068945
500.5690732525897
526.4515497816077
622.2425511507813
500.0459582166644
500.8488080462479
528.2403461937118
613.2807331908513
500.0654333737545
500.7468337373932
521.9101364813747
590.3825483242414
500.0064736609615
500.4429245956367
511.9390861594208
555.3884165769116
618.3437869630445
521.7342792157062
500.4219581467488
500.0206672751272
611.6340706224278
517.2373190325615
500.2608869725439
500.0125338137723
603.4189935662451
513.7675284159218
500.202627236796
500.0097030565791
594.5653139327037
510.1373455456801
500.1107359231515
500.0056608281925
500.0000754780722
500.0037177245769
501.1247440079219
550.5777798857026
500.0004409326025
500.0133778392648
502.4530273004908
564.0950185492993
500.0014516580575
500.0288232741204
504.3758383141551
575.9291592148362
500.003494810571
500.0712713313458
507.1439982231777
586.0672936237345
500.0000022340237
500.0000002657553
500.0000001362653
500.000004842263
500.000617476974
500.0000093143625
500.0000758272255
500.0010939166563
500.1884488794335
500.0048428989354
500.0253774193608
500.1634297607682
513.9338796976241
500.916145648796
500.7685012536775
502.31666951976
500.0000627652983
500.0068250606168
500.5075926297369
503.8420016833008
500.0004178543865
500.0225015615857
501.0675359301433
505.4850771684082
500.0013645050005
500.044139190405
501.6713667559973
507.3408604700011
500.0026570507231
500.0613280431885
502.2441101588384
509.5580441166375
500.0008484304174
500.0161532944269
501.7869027184611
519.0655416461764
500.0024027934129
500.0430276187592
502.8027870445227
515.9963892221795
500.0035940353459
500.0642884491879
503.032507439942
514.1418425174564
500.0035179025161
500.0700978404898
502.732832660385
512.0049823117253
523.2104423097825
501.0163559537292
500.0055403858258
500.0002605054754
521.5354129975749
500.8353307720454
500.0055548756375
500.0003078614131
519.2471723991819
500.5071105377166
500.0019092143825
500.0001501682339
516.6712563539219
500.2545800940113
500.0006745367582
500.0000114087329
514.7717951002363
499.9457925389662
500.0000452683384
500.0000010255797
513.347348656234
500.1282613968297
500.000003479406
500.0000000061369
509.5047994450183
500.0333103715175
499.9999999920399
499.9999999997303
504.5793332591426
500.0151856080067
500.0000001072219
500.0000000001501
500.0000000000001
500.0000000001389
500.0000324923429
500.0071048561751
500
500.000000000676
500.0001042647056
500.0676538018616
500
500.0000000262151
500.0006364208825
500.3766526930503
500
499.9999999359985
500.0018452207882
501.1889234405788
500.0382654831209
500.2127317818523
500.9123621619066
504.4980065143865
500.2127317820594
500.5668626939039
502.6546086963045
510.9707040208233
500.9123621618124
502.6546086959342
509.2011471323107
523.6359424743717
504.4980065147432
510.9707040209272
523.635942474386
542.8258363278014
564.0213197612062
547.9864437521146
538.5592957410327
524.6056045712277
560.0966692584171
555.7693644153879
553.1722540765726
545.1521795101701
558.7701281585096
556.8155714577455
556.2750058493593
553.1647739878199
558.8346782522069
558.0631085964352
558.1589498010717
556.294113056158
556.8856758802249
557.2396867319164
557.6923897925303
557.3576270872122
557.3002845953542
556.3459109350259
556.4910815771085
556.5226737165247
557.2258840443682
555.7152823712613
555.462022470491
555.1237128817164
557.7124744277767
555.4604780954293
555.0927907094098
550.8388007909663
522.5160606753731
506.6054326961988
505.8996534799687
505.8961689854805
509.934708970854
501.2191175791552
506.1765102532389
506.2812511845789
496.5821807029174
500.5178323484705
507.500372696487
507.4855288533895
473.2903917222214
494.8060452560878
505.6557349714273
506.1977405144162
505.3541078498028
504.6604563005505
503.9817531723851
504.0913041046634
505.6046827544557
504.6242548273931
504.1721481406204
504.0893625279718
506.4252796456661
505.1158765818231
504.8049008682037
504.4194304720444
505.4210934478864
504.1803796980074
504.1232225588868
504.1228921453979
503.3113719753673
501.5390815178936
511.9877427732592
571.0742997842506
503.119769366592
501.4701205939262
518.8826096714268
583.1769302189953
503.3024764937504
501.631580704713
528.087144844307
593.1979643108018
502.9163946855047
501.3680231637022
534.283474206207
599.1839249586442
644.3940705960089
645.4885942375103
648.1215188923309
649.3398198828953
652.8929741879065
649.7852616676665
648.0240612521065
647.1900395630017
653.9700367739848
651.0873893051552
647.9313070687057
645.4612333741741
657.3831683818236
653.8539170331082
648.7582916156811
644.6877932857658
649.1683776008167
651.9479025186965
655.1738385097512
657.4182666181501
646.0313276537497
647.9199387448939
650.8382314879568
653.3571261043015
642.3414512802822
643.1966852129227
645.5535784422656
648.2824130636151
640.7756934073075
641.0265718455871
643.105311893426
645.9878913017263
657.3552407521858
647.6696609966746
628.3763456449479
595.7495465452936
653.7621652668344
645.2536334664823
628.2003885364506
624.7027862205297
649.0964694974144
643.5117356425435
632.8451803546325
651.0501949634335
646.6664175634799
644.5460006170091
644.6587794843039
637.2377679696564
558.0399908241582
481.9987359954492
373.1833238236484
381.9670453433372
545.8228700895723
435.2334468967177
347.0173741128723
342.1900358214782
492.2138756630804
367.0232525932086
326.4192468675238
322.5578366028714
395.6032173024608
320.9202586674418
329.548517399219
317.0459214748239
393.5492219766522
404.3035240648993
411.0154696102716
402.7612074905377
352.853511971109
370.5905896854794
387.3262731833801
392.9288953618417
328.4311169152455
344.6516788918151
369.0839479605756
392.8641428413163
320.0785702326788
336.81762068126
364.7003399549944
397.5887031118738
431.0383361693225
419.0389023967192
414.4056015635957
418.1193362625395
434.396077481441
427.4145226674195
417.3379248841301
424.3353363991958
426.130986092569
434.7573194986923
430.4918346720966
444.3301851934228
411.1756799858473
429.6969773999137
433.1434150333902
465.673651683891
383.6426184078243
350.539466136336
372.2030376548852
416.8112347921231
392.2579306287682
390.662586838047
403.1751620212256
384.7458696868083
398.7991908739402
419.5130152149521
414.3608108688763
377.0717152796887
395.6782929879902
415.7428038220355
394.6893552843313
367.6143238037185
355.0286644268599
352.2388944239249
351.2708738717206
349.6541317641392
350.3977147548211
345.128192108805
345.6051533631822
345.3857681859208
372.5549164768517
374.6288754330877
373.631526182586
373.9520798948295
433.3269960588148
427.8955675443999
419.4858404254774
414.8771943022914
349.6541317641407
345.3857681859209
373.9520798948301
414.8771943022261
351.2708738717184
345.6051533631761
373.6315261825958
419.4858404255059
352.2388944238987
345.1281921087959
374.6288754331105
427.8955675445087
355.0286644268251
350.3977147548081
372.5549164768744
433.3269960589101
416.8112347922582
372.2030376549686
350.539466136301
383.6426184077404
384.7458696868292
403.1751620212286
390.6625868379814
392.2579306287264
377.0717152796919
414.3608108688609
419.5130152149075
398.7991908739127
367.6143238036922
394.689355284311
415.7428038219675
395.6782929878781
465.6736516838045
433.1434150334011
429.6969774000995
411.1756799861716
444.3301851934035
430.4918346720958
434.7573194988459
426.130986092842
424.3353363991183
417.3379248841002
427.4145226676025
434.3960774816991
418.1193362624721
414.4056015635707
419.0389023968808
431.0383361695571
402.7612074910898
411.0154696107116
404.3035240652696
393.5492219768868
392.9288953623584
387.3262731839401
370.5905896858885
352.8535119712049
392.8641428417889
369.0839479611516
344.6516788921503
328.4311169152707
397.5887031123936
364.7003399556046
336.817620681631
320.0785702327447
381.9670453435879
373.1833238231507
481.9987359954783
558.0399908242118
342.1900358216062
347.0173741126185
435.2334468962611
545.8228700893418
322.5578366029272
326.4192468674915
367.0232525932939
492.213875663209
317.0459214748457
329.5485173991262
320.9202586674526
395.6032173026929
595.7495465451799
628.3763456448936
647.6696609966218
657.3552407521428
624.702786220492
628.2003885364027
645.2536334663764
653.7621652667074
651.0501949634021
632.8451803545574
643.5117356423874
649.0964694972155
637.237767969686
644.658779484203
644.5460006168438
646.6664175632478
657.4182666180903
655.1738385101311
651.9479025189288
649.1683776009805
653.3571261042422
650.8382314882481
647.919938745069
646.0313276538395
648.2824130635696
645.5535784424991
643.1966852130787
642.3414512803981
645.9878913016781
643.1053118936431
641.0265718457555
640.7756934074182
649.3398198827772
648.1215188921922
645.4885942377005
644.3940705963573
647.1900395628675
648.0240612519349
649.7852616679578
652.8929741879555
645.46123337396
647.9313070685622
651.0873893053805
653.9700367738056
644.6877932855477
648.7582916155815
653.8539170332467
657.383168381655
571.0742997843224
511.9877427729015
501.5390815179438
503.3113719754931
583.176930218916
518.8826096710704
501.4701205940452
503.1197693667744
593.1979643108014
528.0871448440377
501.6315807048831
503.3024764938614
599.1839249585533
534.2834742060502
501.3680231640662
502.916394685719
504.0913041053915
503.9817531721775
504.6604563004777
505.354107849755
504.0893625285428
504.1721481401511
504.624254827597
505.604682754281
504.4194304724861
504.8049008676476
505.1158765820956
506.4252796454786
504.1228921456053
504.1232225584466
504.1803796980826
505.4210934478212
505.8961689853259
505.8996534795112
506.6054326964189
522.5160606755517
506.2812511843904
506.1765102529232
501.2191175793649
509.9347089709373
507.4855288531593
507.5003726962593
500.5178323486728
496.5821807028649
506.1977405141105
505.6557349711269
494.8060452563515
473.2903917222835
557.3576270872435
557.6923897925054
557.239686732188
556.8856758802594
556.5226737164851
556.4910815770296
556.3459109353162
557.3002845953539
555.1237128815636
555.4620224703535
555.7152823715795
557.2258840443062
550.8388007906484
555.0927907092821
555.4604780957181
557.712474427713
556.2941130560075
553.1647739878964
545.1521795102893
524.6056045713544
558.158949800898
556.2750058494714
553.172254076597
538.559295741057
558.0631085962636
556.8155714578014
555.7693644152662
547.9864437518805
558.8346782520171
558.7701281586087
560.0966692582199
564.0213197608399
476.0557029878976
499.2103927268576
499.9901279440163
499.9999513255605
481.1263520637426
499.2051020938303
499.9879845531345
499.99992226224
489.702336343326
499.2381718157334
499.9837521033406
499.9998756299973
495.7965292361191
499.2442653009844
499.9742824589141
499.9997739490934
499.999614574119
499.9618639742537
499.0321505958087
495.5450108087558
499.9996160312682
499.9620530300948
499.108223937848
496.5702031593351
499.9996221971768
499.9627635373003
499.1377512278746
496.0918435084715
499.999659049241
499.9653687307331
499.2219810716169
496.9320911306334
499.9997739489818
499.99987562999
499.9999222623479
499.9999513254838
499.974282458829
499.9837521032408
499.9879845530064
499.9901279440168
499.2442653010103
499.2381718156126
499.2051020939219
499.2103927269597
495.7965292359698
489.702336342918
481.1263520635031
476.0557029880359
)
;

boundaryField
{
    back
    {
        type            empty;
    }
    inlet
    {
        type            zeroGradient;
    }
    front
    {
        type            empty;
    }
    top
    {
        type            zeroGradient;
    }
    outlet
    {
        type            fixedValue;
        value           uniform 500;
    }
    bottom
    {
        type            zeroGradient;
    }
    wall
    {
        type            zeroGradient;
    }
}


// ************************************************************************* //
