/*--------------------------------*- C++ -*----------------------------------*\
  =========                 |
  \\      /  F ield         | OpenFOAM: The Open Source CFD Toolbox
   \\    /   O peration     | Website:  https://openfoam.org
    \\  /    A nd           | Version:  11
     \\/     M anipulation  |
\*---------------------------------------------------------------------------*/
FoamFile
{
    format      ascii;
    class       volScalarField;
    location    "0.1475";
    object      Ma;
}
// * * * * * * * * * * * * * * * * * * * * * * * * * * * * * * * * * * * * * //

dimensions      [0 0 0 0 0 0 0];

internalField   nonuniform List<scalar> 
880
(
1.443353270571932
1.443353270571932
1.443353270569352
1.443349877497831
1.443353270571932
1.443353270571932
1.443353270539622
1.443330145170529
1.443353270571932
1.443353270571933
1.443353270388233
1.443314393815586
1.443353270571932
1.443353270571932
1.44335326975062
1.443064033071605
1.443353270571932
1.443353270571932
1.443353270571933
1.443353270496744
1.443353270571932
1.443353270571932
1.443353270571935
1.443353270571932
1.443354626721797
1.443349204994354
1.443124657031115
1.444028712235464
1.429197859889206
1.393487819076087
1.373693707265494
1.367828707508218
1.443353213946058
1.443353155311738
1.44335174705685
1.443351791621412
1.443350607550663
1.443344780991955
1.443337821300419
1.443339256327721
1.44194783827628
1.440850805756704
1.440247278438436
1.43985533250202
1.364793248097028
1.355611052733647
1.359365956873823
1.343725948101635
1.375588927666207
1.407496707914762
1.434791159072139
1.451353536371511
1.437543378193358
1.432135625187621
1.434385499537272
1.439751371194546
1.443311932811135
1.443184424660519
1.443067364838107
1.443143040619716
1.443349626414978
1.443343277146953
1.443330022366967
1.44331624742728
1.443313889745069
1.443318166017905
1.443329311611426
1.443342537372474
1.443267525979241
1.443351835051725
1.443409227682147
1.443406559658824
1.442785088810693
1.445257673918283
1.446257470051254
1.445998588711205
1.462138189970939
1.465712209635789
1.465288551570459
1.46206450255405
1.457290733891439
1.444909745141457
1.443374556844974
1.443350638823716
1.452063315462141
1.443875063126957
1.443356520591227
1.443352973433799
1.446242414737012
1.443425337729671
1.44335338788229
1.443353251269757
1.413186453763537
1.44309203474511
1.443354597864038
1.443353969240947
1.443353311386191
1.443353370171142
1.441620354943725
1.217848031699546
1.44335221362155
1.4433351281663
1.435217351806281
1.095162081118044
1.443351332390694
1.443265818730946
1.424993683075543
1.045022407795287
1.443340979331815
1.443189683368693
1.41462023223327
1.035904745459387
1.030839019948167
1.400172201968016
1.44300002493324
1.44333527902176
1.038942116828284
1.387503463530084
1.442842391183251
1.44330472699659
1.043797841500787
1.374322318012001
1.442556627800095
1.4432929925337
1.04844768229736
1.358355724555234
1.442174560202899
1.443246155894621
1.443201512178302
1.441806300994102
1.340586709678941
1.046314967054237
1.443134898962191
1.44059657418566
1.322635561821801
1.076364276785709
1.443145158378676
1.440554905987067
1.341993411317198
1.143894306043118
1.442872336909416
1.441093734429845
1.375423088213623
1.24451885109274
1.442910950893195
1.440546678376566
1.425071128273177
1.44025060467955
1.442479568182594
1.446267532915417
1.473215553859735
1.606720708298335
1.443014426917184
1.447672317971056
1.473540254221743
1.626107166211325
1.443410561184724
1.444933950407143
1.447731781480361
1.427037919867122
1.237043886217
1.42971557701424
1.443545134320552
1.443394031433604
1.12562004942847
1.41269369373906
1.442702685372233
1.443366612233938
1.061191613457622
1.401142621374723
1.44249028088196
1.443355738952017
0.9864854524355241
1.389181290733101
1.441959675616639
1.443348338150843
1.044970758673402
1.400014773774622
1.442434788179594
1.443350331731486
1.163803534053252
1.417533858143971
1.443007160302353
1.443352368742622
1.274267192962638
1.430603908789315
1.44324198608895
1.44335306000465
1.367912725292501
1.439591051573381
1.443354441785946
1.443353246973472
1.315491788299451
1.433152953462128
1.443053430017194
1.443350043764092
1.326649309603779
1.43374723354516
1.443068354044172
1.443350089776019
1.323977475498882
1.433185213977047
1.443069900579216
1.443350193969521
1.319590185948644
1.433696611832238
1.443121964939344
1.443350714384319
1.367912725297875
1.439591051578552
1.443354441796462
1.443353246954921
1.274267192964401
1.430603908794483
1.443241986110266
1.443353060004058
1.163803534052023
1.417533858134617
1.443007160300425
1.443352368741899
1.044970758664991
1.400014773757144
1.442434788176097
1.443350331737535
1.443394031420969
1.44354513431127
1.429715577010909
1.237043886213614
1.443366612210899
1.442702685365595
1.412693693734298
1.125620049421766
1.443355738970348
1.44249028086597
1.40114262137721
1.061191613453909
1.44334833814719
1.441959675609685
1.38918129071553
0.9864854524396951
1.42703791988322
1.447731781493888
1.444933950424314
1.443410561201035
1.62610716622897
1.473540254236104
1.447672317986541
1.443014426947503
1.606720708295761
1.473215553874052
1.446267532921535
1.44247956818096
1.440250604678838
1.425071128279738
1.440546678379612
1.442910950845347
1.443201512183608
1.441806300990949
1.34058670966736
1.046314967045955
1.443134898962908
1.440596574164219
1.322635561814646
1.076364276782507
1.443145158323138
1.440554905985502
1.341993411320779
1.14389430604307
1.442872336945982
1.441093734421183
1.375423088214182
1.24451885109396
1.048447682284528
1.358355724542561
1.442174560158932
1.443246155893991
1.043797841487264
1.374322317995828
1.442556627823276
1.443292992527355
1.038942116827396
1.387503463532029
1.442842391145975
1.443304727004827
1.030839019941548
1.400172201982358
1.443000024955705
1.443335279029525
1.443353311378601
1.443353370163079
1.441620354946705
1.217848031705055
1.443352213628212
1.443335128180171
1.435217351792769
1.095162081130247
1.443351332403599
1.443265818741523
1.424993683071925
1.045022407786986
1.443340979349643
1.443189683337152
1.414620232234731
1.035904745459988
1.443353969233109
1.443353251261647
1.443352973433646
1.44335063882734
1.44335459787574
1.443353387878084
1.443356520574264
1.443374556857355
1.443092034740963
1.443425337724415
1.443875063142932
1.444909745138615
1.41318645376343
1.446242414733912
1.452063315460926
1.45729073389261
1.443342537391894
1.44340655965804
1.445998588696525
1.462064502547931
1.44332931161373
1.443409227686699
1.446257470038454
1.465288551569234
1.443318166004317
1.443351835052266
1.44525767392323
1.465712209638745
1.443313889743442
1.443267525974468
1.442785088805001
1.462138189978925
1.44334962643427
1.443311932823631
1.437543378176806
1.37558892766618
1.443343277166959
1.443184424666007
1.432135625181851
1.407496707923453
1.443330022377333
1.443067364822723
1.434385499534629
1.434791159079734
1.443316247435363
1.44314304060758
1.439751371196143
1.451353536379465
1.343725948099099
1.439855332481552
1.443339256338657
1.44335179163427
1.359365956866412
1.440247278434654
1.443337821304293
1.443351747027788
1.355611052721812
1.440850805785443
1.44334478099051
1.443353155332978
1.364793248092296
1.441947838302228
1.443350607554062
1.443353213939922
1.367828707503727
1.444028712196259
1.443353270571932
1.44335327049208
1.37369370727113
1.443124657075478
1.443353270571932
1.443353270571933
1.393487819073679
1.443349204999839
1.443353270571932
1.443353270571933
1.429197859874715
1.443354626726422
1.443353270571932
1.443353270571934
1.443353270571932
1.443353270571933
1.443353270565629
1.443349877609142
1.443353270571931
1.443353270571932
1.44335327053787
1.443330145239725
1.443353270571932
1.443353270571932
1.443353270387327
1.443314393828773
1.443353270571932
1.443353270571932
1.443353269761705
1.443064033080998
1.443342963898797
1.443317265834466
1.443210475940203
1.440547559637068
1.443317265621237
1.443290178613523
1.443015912560116
1.432386058939966
1.44321047558489
1.443015912400227
1.438253132371295
1.377295953368602
1.440547559366033
1.432386059475046
1.377295954377105
1.188415695942484
1.021655906902589
1.110321860191533
1.264870373300624
1.36040395252468
1.07649142321059
1.095778476356717
1.152938409520103
1.228056648703095
1.103867573334007
1.14185941316255
1.188697098960975
1.23855951628671
1.143972674745509
1.178542730744583
1.211969412463574
1.24320108708775
1.250931404698191
1.260567754823118
1.26870148611027
1.267338232309082
1.23243845061522
1.25345974950112
1.263648628962214
1.295814089457671
1.20393666886969
1.239090170787608
1.255051125294846
1.379922133633585
1.160204023666787
1.170571793308872
1.17796984150581
1.497923264829343
1.398403258952742
1.528664611020641
1.521313531949198
1.504897703414372
1.489068308987527
1.635207089074113
1.591621558727317
1.551308601544744
1.667513148892479
1.734718700006359
1.635280296080903
1.569892844017128
1.27876873966598
1.304738065270044
1.297329716143163
1.287391765618707
1.492420491037265
1.486606531073683
1.479292611143279
1.471632746585298
1.520051945076429
1.504548095653739
1.492775482622873
1.481621764605594
1.53177814850086
1.512274703731818
1.499665557232184
1.488634057707952
1.296444298858901
1.322790424159777
1.357060843593625
1.387184999459801
1.464350345895229
1.460221659483358
1.450218921169685
1.20037727564467
1.472333445847375
1.467067425578514
1.454069040784764
1.029725613149309
1.478956170794706
1.472072945120362
1.45272110368422
0.8584588826892078
1.411990046632815
1.427982521291548
1.400390148525974
0.5736005074009219
0.8106301782972484
0.8121538232350077
0.8332567890831071
0.8795634445377822
0.722055567773467
0.7783961268275245
0.8277478847743959
0.8817277806870036
0.5885499074669137
0.6950682623025806
0.7911853347275151
0.8675324042117146
0.3329845034914092
0.458565864596966
0.616558621934521
0.7499220667821558
0.9175820543124681
0.9359609335140423
0.9502688301708887
0.9532411736673186
0.9207185784768633
0.9366684958986429
0.9483939970533112
0.9523146953222837
0.9147528606129759
0.9348999585886046
0.9473108427885421
0.9519677716851666
0.8504105952356155
0.8935792793038855
0.9131306667899465
0.9138909359005595
0.970201269229965
1.002068869120408
1.07873126066959
1.178045154325111
0.9693016774521287
1.001478177513665
1.069973085642798
1.221066591825338
0.9681410006508537
0.9949152056154558
1.086058481359836
1.548518226385319
0.9401731549374788
0.9695471541642668
1.104754258150022
2.17053265812132
1.433502260271823
1.768143744366828
0.7261996888181227
0.4539278111207551
1.50048539164287
1.581201192007693
0.4784864675713876
0.2988974430010182
1.546088760891262
1.295509047757179
0.1766099142011651
0.2350918453867913
1.207919454622716
0.8151461380216396
0.1399007610664468
0.1402676292625434
0.2389175521571807
0.09738918915252845
0.06140579012158881
0.0969790717397653
0.2241817020269946
0.1209000157707096
0.1203015562974631
0.1663258241680559
0.1782509184826896
0.1762844345708691
0.2100513119813681
0.2329141967543426
0.1168504738520347
0.1807047911262754
0.2570790281862069
0.2477488453648185
0.4179108637923227
0.8286371183052398
1.114460440137967
1.365608390797106
0.1702844176141662
0.5958244313505656
0.9444265829136236
1.248331880457534
0.1169485107742328
0.2979302987065663
0.6845560140265616
1.140988405201022
0.126885318424274
0.07825970130334599
0.5283515893049503
1.241145158947884
1.559080855912418
1.901340154763932
2.015423278637094
1.604756386208265
1.461921535106125
1.727226905162165
1.428599786330475
1.004267362845366
1.457697074307185
1.292734514450325
0.8014018238910259
0.3980825481536663
1.164605253387948
0.4455191341014796
0.2475417713326853
0.2021332757943852
0.2247464531046242
0.2149773381468943
0.2028428623533875
0.1691545158800365
0.2052224687841137
0.1692318969408102
0.2542772767952665
0.2924387608174969
0.4785221896842232
0.05103317953208279
0.1860448206192668
0.2385572522774844
0.9761942245212417
0.5476140480547868
0.348586957860512
0.2810828813795402
0.1691545158794615
0.2924387608174632
0.2385572522768961
0.2810828813699363
0.2028428623521126
0.2542772767952807
0.1860448206187097
0.348586957856812
0.2149773381475937
0.1692318969415752
0.05103317952545903
0.5476140480522204
0.2247464531061627
0.2052224687846537
0.4785221896782677
0.9761942245154522
1.604756386205814
2.01542327863926
1.901340154771653
1.559080855921558
1.00426736284355
1.428599786328662
1.72722690516001
1.461921535110783
0.3980825481522481
0.8014018238895569
1.292734514447857
1.457697074307519
0.2021332757959964
0.2475417713321995
0.4455191341006769
1.164605253385986
1.241145158947627
0.5283515893042394
0.07825970130221112
0.1268853184227751
1.1409884052008
0.6845560140229674
0.2979302986994433
0.1169485107729751
1.248331880459367
0.9444265829095464
0.5958244313413427
0.1702844176095241
1.36560839080111
1.114460440133018
0.8286371182974521
0.4179108637860426
0.0969790717331367
0.06140579012371275
0.0973891891419412
0.2389175521540129
0.1663258241626583
0.1203015562936595
0.1209000157749339
0.2241817020378388
0.2329141967509679
0.2100513119761372
0.176284434573123
0.1782509184964123
0.2477488453614204
0.257079028180844
0.1807047911291712
0.1168504738625426
0.4539278111262481
0.7261996888057786
1.768143744369153
1.433502260274606
0.2988974430139519
0.4784864675744125
1.581201192012943
1.500485391650207
0.2350918453993432
0.1766099141981718
1.295509047762094
1.546088760897631
0.1402676292746017
0.1399007610738351
0.8151461380311551
1.207919454627832
1.178045154325412
1.078731260667049
1.002068869116814
0.9702012692243271
1.221066591826534
1.069973085641269
1.001478177510469
0.9693016774467604
1.548518226391447
1.086058481361018
0.9949152056120546
0.9681410006462267
2.170532658132616
1.104754258155223
0.9695471541696805
0.9401731549431835
0.9532411736614173
0.9502688301694082
0.935960933514374
0.9175820543012935
0.9523146953175414
0.9483939970534244
0.9366684959001669
0.9207185784684628
0.951967771681335
0.94731084279011
0.9348999585906105
0.9147528606060273
0.91389093590254
0.9131306667940848
0.8935792793069721
0.8504105952249524
0.8795634445322028
0.8332567890822177
0.8121538232420356
0.8106301783012596
0.8817277806788124
0.827747884772931
0.7783961268299687
0.7220555677765584
0.8675324042031277
0.7911853347242298
0.6950682623001064
0.588549907469065
0.7499220667637566
0.6165586219352961
0.4585658645866203
0.332984503486444
1.200377275655679
1.450218921172363
1.460221659474775
1.464350345897461
1.029725613166224
1.454069040794804
1.467067425569438
1.472333445846293
0.8584588827091368
1.452721103699985
1.47207294510657
1.478956170790779
0.5736005074242185
1.400390148559425
1.427982521287588
1.411990046619646
1.471632746580134
1.479292611141274
1.486606531076843
1.492420491042364
1.481621764601663
1.492775482620256
1.50454809565574
1.520051945081549
1.488634057706713
1.499665557228236
1.512274703733741
1.531778148505636
1.387184999458015
1.357060843596133
1.3227904241569
1.296444298862337
1.504897703423412
1.521313531957038
1.528664611029296
1.398403258957278
1.551308601554098
1.591621558734924
1.63520708908428
1.489068308992944
1.569892844026544
1.635280296089072
1.734718700020717
1.667513148896951
1.287391765625143
1.297329716143758
1.304738065276289
1.278768739664209
1.267338232314469
1.268701486111723
1.260567754806868
1.250931404676853
1.295814089464841
1.263648628963526
1.253459749488179
1.232438450607579
1.379922133647411
1.255051125301225
1.239090170785778
1.203936668870444
1.497923264854027
1.177969841518627
1.170571793293965
1.160204023638783
1.24320108707785
1.238559516288578
1.228056648720474
1.360403952406789
1.211969412471192
1.188697098967098
1.152938409458084
1.264870373104845
1.178542730752671
1.141859413162202
1.095778476258402
1.110321859824008
1.143972674700733
1.10386757325782
1.076491423153256
1.021655906766578
1.40047507779379
1.437808138789469
1.443273697393317
1.44335294028389
1.402706647646037
1.438604992724426
1.443262908516896
1.443352669141243
1.372942219059966
1.437657202775864
1.443239794885651
1.443352359855109
1.328448020439024
1.435264887583092
1.443187018576986
1.443351697586356
1.443350043756372
1.443053430018008
1.433152953460564
1.315491788269234
1.443350089766315
1.443068354033431
1.433747233562508
1.326649309622877
1.443350193980079
1.443069900565479
1.433185213993128
1.323977475512919
1.443350714412505
1.443121964924769
1.433696611857503
1.319590185959465
1.443351697594865
1.443352359867413
1.443352669177937
1.44335294031706
1.443187018571784
1.443239794887444
1.443262908523966
1.443273697411829
1.435264887588587
1.437657202784951
1.438604992713898
1.437808138802965
1.328448020447331
1.372942219075613
1.402706647647878
1.400475077795374
)
;

boundaryField
{
    back
    {
        type            empty;
    }
    inlet
    {
        type            calculated;
        value           nonuniform List<scalar> 
16
(
1.443353270571932
1.443353270571932
1.443353270571932
1.443353270571932
1.443353270571932
1.443353270571932
1.443353270571932
1.443353270577993
1.443353270576211
1.443353270571932
1.443353270571932
1.443353270571933
1.443353270571932
1.443353270571932
1.443353270571932
1.443353270571932
)
;
    }
    front
    {
        type            empty;
    }
    top
    {
        type            calculated;
        value           uniform 0;
    }
    outlet
    {
        type            calculated;
        value           nonuniform List<scalar> 
16
(
1.443348633463534
1.44334855691216
1.443348455457528
1.443348312306364
1.443352776769514
1.4433524201504
1.443351948705212
1.443350311540954
1.443348633458081
1.443348556905401
1.443348455462952
1.443348312323742
1.443350311545092
1.443351948709938
1.443352420171231
1.44335277679014
)
;
    }
    bottom
    {
        type            calculated;
        value           uniform 0;
    }
    wall
    {
        type            calculated;
        value           uniform 0;
    }
}


// ************************************************************************* //
