/*--------------------------------*- C++ -*----------------------------------*\
  =========                 |
  \\      /  F ield         | OpenFOAM: The Open Source CFD Toolbox
   \\    /   O peration     | Website:  https://openfoam.org
    \\  /    A nd           | Version:  11
     \\/     M anipulation  |
\*---------------------------------------------------------------------------*/
FoamFile
{
    format      ascii;
    class       volScalarField;
    location    "7.275";
    object      p;
}
// * * * * * * * * * * * * * * * * * * * * * * * * * * * * * * * * * * * * * //

dimensions      [0 2 -2 0 0 0 0];

internalField   nonuniform List<scalar> 
4455
(
7180.9221
7188.1529
7204.8692
7231.7347
7271.4284
7327.0833
7397.06
7497.8927
7573.1356
7227.611
7230.3988
7242.44
7266.6198
7306.4448
7361.5806
7434.3917
7537.4034
7654.9658
7268.7014
7267.7506
7276.6264
7298.706
7337.1608
7392.0754
7465.4589
7572.2683
7694.8872
7303.988
7300.4638
7306.9547
7327.1271
7364.8179
7419.6435
7494.5883
7605.6682
7738.6129
7333.6743
7328.6962
7333.2173
7352.1854
7389.9425
7444.2141
7521.8905
7639.721
7795.4206
7358.2161
7352.4897
7355.6848
7374.5434
7411.6994
7465.9203
7547.3623
7672.8813
7852.1463
7378.121
7372.3159
7374.9214
7393.7225
7429.9782
7484.8167
7569.9343
7704.1396
7910.1125
7394.0018
7388.4185
7390.6503
7409.5231
7445.5589
7500.9468
7589.8932
7733.0633
7970.4143
7406.2999
7400.9788
7403.5035
7422.6795
7458.5784
7514.7749
7607.5245
7760.0283
8033.0452
7415.5755
7422.3654
7427.2264
7430.6516
7433.1513
7435.0563
7436.656
7438.3746
7440.8645
7410.7731
7418.3541
7424.1422
7428.4595
7431.4546
7433.5053
7434.7322
7434.9564
7434.0205
7414.1005
7422.5896
7429.002
7433.465
7436.2501
7437.823
7438.9801
7440.4676
7443.2432
7433.5083
7442.0355
7448.3195
7452.7522
7455.5273
7456.7414
7455.8852
7452.5132
7446.6599
7469.7399
7478.0029
7483.9391
7487.7306
7489.5721
7490.7281
7491.8842
7494.4667
7497.1051
7527.7858
7538.3962
7546.5863
7551.7531
7553.0835
7551.0446
7545.263
7536.0303
7524.3389
7625.2507
7640.7418
7653.2055
7662.3621
7667.8618
7670.9714
7672.8563
7675.9231
7679.1342
7790.5943
7817.4641
7835.2501
7842.7072
7839.6934
7828.4296
7814.0273
7794.6448
7765.1284
8112.432
8181.9866
8211.4642
8198.9842
8161.383
8113.3444
8057.4849
7996.9309
7927.1647
7442.7942
7442.5423
7441.6648
7441.0526
7440.6648
7440.5349
7440.2933
7440.1476
7439.5736
7432.1278
7431.0976
7430.7319
7430.812
7431.2272
7431.5458
7431.1322
7429.7135
7427.4382
7446.8401
7449.5401
7451.4567
7452.3042
7452.2516
7451.859
7451.6073
7451.2813
7450.9983
7440.8339
7440.0262
7441.8604
7445.5073
7448.7267
7451.5849
7453.6842
7453.949
7453.7502
7500.9713
7505.738
7510.699
7514.8349
7517.5402
7518.9613
7519.8319
7520.9007
7521.9299
7515.1159
7515.0539
7520.5981
7528.2959
7535.4134
7540.3118
7542.629
7543.1626
7542.4418
7680.0671
7683.1212
7686.0098
7686.8454
7685.3101
7683.1759
7681.461
7679.9343
7679.5558
7743.69
7731.8788
7720.0628
7703.6
7683.9333
7661.9654
7638.7712
7617.2083
7599.0782
7859.0822
7791.7861
7719.8986
7655.6603
7615.6357
7579.3753
7548.68
7528.294
7522.4055
7541.685
7560.895
7590.9879
7645.0271
7724.6183
7821.9827
7929.8452
8043.9784
8162.2379
7585.5618
7578.0703
7576.5722
7581.5901
7594.5956
7615.1377
7645.3096
7686.4268
7734.5446
7681.6567
7685.8773
7690.9644
7697.3733
7705.8882
7716.7441
7729.7854
7745.9975
7765.9991
7541.3508
7540.7298
7541.1273
7541.9681
7543.0946
7544.1672
7545.0188
7546.9615
7550.0338
7522.9467
7523.7035
7523.7586
7523.0212
7521.224
7518.9839
7516.9366
7515.5005
7514.608
7452.1205
7449.7854
7448.0522
7446.7141
7444.0067
7439.3597
7434.1107
7427.7477
7420.2904
7450.2591
7448.7964
7446.2288
7442.2376
7437.2255
7432.054
7426.0482
7419.1544
7411.2264
7424.464
7421.014
7417.6397
7413.2805
7408.2225
7402.0898
7393.8179
7385.1903
7375.1378
7438.2372
7435.1623
7431.0873
7426.7907
7422.6941
7418.0874
7413.7412
7407.9682
7399.9298
7390.1889
7378.2353
7364.1773
7348.1529
7329.279
7308.0159
7283.4979
7255.3998
7222.8468
7362.6473
7348.6127
7333.7353
7314.5011
7293.1591
7270.4311
7243.3441
7213.5566
7180.1317
7401.1675
7390.3551
7376.9797
7362.6332
7346.0194
7326.4012
7305.9749
7281.0883
7253.2186
7411.8994
7403.5449
7393.359
7381.1455
7367.3462
7352.1186
7333.4845
7312.8251
7290.0727
7513.1599
7511.2019
7508.8067
7505.9062
7501.7632
7498.5581
7493.1904
7486.1945
7477.3756
7553.9751
7559.3794
7566.2274
7574.1047
7582.8949
7590.3224
7598.2573
7605.2657
7611.2209
7790.066
7818.0288
7849.3715
7882.8246
7917.9541
7954.155
7991.2913
8027.9594
8063.5354
7788.6875
7847.9692
7912.177
7981.509
8054.8269
8131.9707
8211.2709
8291.8031
8374.5913
8282.3158
8403.5322
8528.4729
8655.8648
8785.06
8914.5224
9043.9619
9176.7984
9313.0017
9448.2548
8458.3114
8096.9183
7616.6385
7465.3257
7263.1581
7221.5797
7142.3681
7185.9453
9585.4775
8541.556
8128.3841
7619.0372
7452.132
7231.4277
7186.6069
7099.6734
7143.7658
9718.8839
8620.5107
8157.4661
7617.2359
7432.5637
7195.7815
7146.8044
7052.1555
7095.7344
9848.2291
8694.0477
8184.155
7611.1439
7410.6154
7154.3223
7101.0149
6999.1131
7041.6577
9975.3364
8759.392
8207.0048
7598.9591
7384.1273
7106.6727
7050.6146
6940.0206
6980.725
10096.24
8815.5761
8224.3673
7579.6149
7349.7675
7053.1995
6993.2254
6874.4854
6912.7575
10204.502
8861.3801
8233.099
7550.5064
7311.7315
6992.7229
6929.4745
6801.5545
6836.8
10302.629
8894.1309
8230.3652
7512.507
7264.0542
6922.9195
6857.5331
6721.6966
6753.2801
10367.986
8908.5734
8213.2278
7463.1724
7206.8906
6846.5349
6777.1226
6633.9061
6661.7526
6565.3336
6538.33
6685.4373
6760.8674
7134.0481
7399.3721
8174.2942
8897.4401
10399.593
6464.9361
6433.0074
6581.4471
6663.3783
7038.1307
7315.0916
8093.7992
8821.3567
10266.849
6350.468
6317.8654
6462.9013
6552.9538
6924.785
7204.463
7974.9669
8685.6395
10039.117
6209.6761
6189.252
6332.5447
6429.3128
6791.7678
7073.3376
7827.7156
8521.9047
9810.1153
6049.3929
6048.8216
6188.6222
6292.1199
6644.3314
6925.4648
7660.7533
8342.533
9580.4387
5874.5634
5895.3528
6033.6786
6140.4527
6484.0436
6764.3929
7478.5063
8151.5155
9350.3306
5690.3394
5729.3886
5864.6146
5976.7337
6309.6171
6592.286
7284.4649
7946.2764
9117.6952
5494.2961
5552.171
5685.1496
5800.6843
6124.1556
6403.5058
7077.4249
7725.893
8877.2854
5286.1537
5362.6024
5493.2343
5611.0313
5927.3564
6201.647
6856.3304
7488.7657
8625.3815
8364.932
7237.8459
6621.2634
5986.1624
5716.9836
5414.4759
5290.022
5162.8758
5063.4272
8100.0158
6973.539
6372.9555
5753.2767
5495.198
5198.5516
5074.772
4951.6182
4828.3882
7830.3113
6697.8518
6111.1803
5510.6324
5261.0431
4977.5692
4847.1814
4730.8573
4579.6961
7551.5299
6408.0574
5835.1047
5252.4906
5014.0132
4741.6648
4610.2028
4500.4679
4322.1232
7264.43
6104.5954
5545.7904
4984.8056
4757.3185
4496.0423
4363.7193
4261.3563
4056.1176
6963.5624
5786.2007
5244.8703
4706.8152
4489.7995
4247.8202
4108.8629
4013.7187
3784.7553
6647.9434
5453.203
4933.7434
4420.3777
4214.3804
3985.4208
3848.9401
3760.0275
3508.0148
6314.2805
5106.5676
4613.1858
4125.806
3929.5439
3717.3952
3584.289
3499.793
3230.9088
5963.0427
4744.6708
4284.987
3826.4522
3640.0738
3445.7879
3317.8597
3236.5035
2957.4643
2693.0984
2968.0067
3046.8771
3168.3497
3339.342
3508.4323
3934.4563
4346.2609
5553.782
2426.7811
2696.1565
2774.5835
2883.5368
3025.5418
3171.2944
3564.9385
3901.5771
5054.9167
2155.4537
2428.9698
2504.0412
2597.8323
2715.3095
2831.0207
3197.0947
3450.8857
4503.919
1895.8144
2170.5554
2236.6643
2318.0358
2408.6213
2492.9016
2834.3004
3015.0705
3895.7084
1653.798
1921.6177
1976.9693
2046.7716
2107.5116
2155.0691
2482.8542
2610.9646
3214.655
1433.3197
1684.6185
1729.5436
1783.5561
1818.2631
1820.0665
2136.6499
2269.8337
2444.8633
1234.28
1463.1801
1495.2185
1533.2668
1543.4395
1495.0059
1792.1604
2003.6198
1582.5356
1062.1783
1260.7913
1280.0283
1306.1384
1293.6439
1176.8028
1443.3626
1838.7564
680.88608
909.42218
1075.9677
1081.5621
1093.6422
1075.918
876.47997
1084.6187
1811.0865
-98.834668
786.08767
917.64479
899.6716
889.83691
860.10469
587.61736
551.25552
1868.6818
-675.77629
701.25255
783.32936
734.62547
687.58257
644.82763
295.75153
-145.64028
2053.3319
-1243.1476
632.86065
665.8808
588.39751
483.15408
411.45387
16.62128
-826.69325
2092.1787
-1428.83
583.02052
558.83769
456.57656
270.08854
154.86411
-260.35985
-1335.458
1908.7998
-352.87619
552.54706
456.99839
340.9871
56.339709
-124.04421
-552.18117
-1677.1119
1463.6565
-43.796516
546.72432
363.85106
234.46831
-152.29239
-409.20777
-869.73538
-2080.2907
974.73868
-802.73121
561.63327
291.09019
142.12778
-351.80897
-699.34999
-1224.7807
-2534.6074
729.23584
-906.57087
598.09203
245.00597
68.371494
-525.18031
-985.93529
-1599.273
-2855.3266
402.99043
-1284.6915
648.88815
221.85654
9.6700871
-677.55777
-1268.9538
-1984.7002
-3018.9916
-221.19014
-1519.3809
-1706.5195
-577.63458
-2990.223
-2332.5732
-1518.3523
-801.01584
-33.844524
221.31926
711.86307
-1835.3691
-830.35923
-3001.0392
-2655.1487
-1728.3419
-895.29839
-60.482157
241.2436
785.41407
-1972.7494
-1004.5473
-3105.2703
-2986.0966
-1916.452
-971.05791
-74.754449
285.37586
872.26584
-2113.3266
-1201.2091
-3244.6407
-3310.0681
-2080.1165
-1029.1375
-72.125044
348.18783
967.63084
-2272.9669
-1416.5306
-3406.5962
-3618.9525
-2222.4201
-1068.7163
-54.352325
426.29313
1067.6473
-2457.5351
-1675.9048
-3600.2046
-3907.3591
-2346.8154
-1091.2763
-22.236797
518.05638
1163.4373
-2634.6243
-1934.5815
-3842.5818
-4173.8426
-2455.0355
-1097.6813
18.968636
619.8332
1255.473
-2877.1875
-2199.4242
-4097.7737
-4410.364
-2548.8869
-1094.0973
71.215588
729.35233
1342.7893
-3093.2675
-2409.2289
-4380.1782
-4630.631
-2623.149
-1075.4069
135.36849
845.1019
1428.1516
-3165.4328
-2629.2426
-4788.5088
-4847.5382
-2668.6112
-990.71471
276.97733
1048.7286
1546.8897
-3301.2803
-2867.0619
-5660.5956
-5120.2886
-2630.0406
-781.44544
518.06244
1309.3782
1646.9958
-3552.5165
-3066.8202
-6338.4184
-5226.5007
-2481.1368
-500.45554
795.67218
1551.9337
1688.998
-3616.1813
-3274.408
-6935.2784
-5141.2794
-2194.0428
-155.58804
1080.1024
1755.0728
1665.1019
-3564.9255
-3515.0405
-7439.5259
-4953.1449
-1842.7239
215.87863
1338.8692
1870.1034
1563.3093
-3601.3003
-3772.4084
-7867.4102
-4712.2364
-1433.2186
574.83157
1546.2096
1913.9618
1394.1094
-3718.4852
-4036.6507
-8193.8608
-4415.1897
-1007.9736
879.22646
1685.5999
1861.208
1201.1267
-3827.0274
-4257.6145
-8426.0598
-4062.1289
-577.59496
1131.6024
1776.9239
1791.364
969.37391
-3927.0425
-4337.784
-8453.0172
-3652.676
-183.43479
1312.0029
1770.4977
1637.1192
750.93834
-7476.8405
-8372.0655
-4003.4294
-4941.1046
-2535.4333
-839.9469
-311.85642
-650.44396
-329.59684
-7139.068
-8182.0666
-4356.9532
-5234.1125
-2717.9161
-873.14949
-57.118243
-327.63713
-10.085234
-6809.0216
-7977.6897
-4731.2664
-5470.1599
-2853.2732
-874.78558
219.36981
-27.788952
288.79004
-6493.3798
-7761.0599
-5131.9522
-5651.9026
-2941.1588
-845.86082
505.63596
221.56128
549.22538
-6193.2195
-7527.7872
-5554.9637
-5776.5365
-2983.0679
-774.95242
789.02186
396.23695
765.3196
-5912.7526
-7286.2055
-5994.3601
-5848.3313
-2986.3735
-643.66729
1050.1775
506.66228
937.27613
-5657.3632
-7044.5283
-6430.5618
-5874.7038
-2953.9208
-449.82302
1273.1894
575.72458
1083.2248
-5435.7444
-6785.0782
-6852.2231
-5857.2832
-2877.4494
-219.57422
1465.471
626.03509
1228.6639
-5244.796
-6524.7589
-7262.5418
-5802.6441
-2750.5101
7.8430899
1636.3632
683.48997
1378.5666
-12381.354
-8535.4107
2164.1598
3498.2518
3906.7681
4310.1447
2308.2992
498.66374
845.70662
-12905.701
-8992.6286
1241.9659
3777.5532
4150.1821
4533.4463
2988.6524
1227.1456
927.39998
-13055.465
-9431.7862
167.37192
3781.3949
4434.9605
4799.5437
3662.511
2032.2749
1176.578
-13304.202
-9917.2567
-942.28673
3433.4402
4497.9529
4939.4873
4185.3712
2816.2181
1621.6066
-13643.042
-10493.407
-2025.6726
2818.1491
4385.5455
4961.6263
4578.1905
3537.1927
2163.7353
-14479.489
-11194.373
-3101.3471
2066.5172
4084.3055
4845.6751
4756.4674
4103.5781
2771.6913
-15344.842
-12016.363
-4103.7896
1191.9875
3624.3767
4630.3205
4762.7442
4476.9932
3341.568
-16285.309
-12943.917
-4987.4189
246.37861
3033.4936
4288.7886
4562.509
4638.5079
3787.0244
-16819.178
-13810.387
-5724.8682
-561.76859
2425.1245
3870.304
4284.2459
4603.855
4073.4186
3669.8888
3225.4609
2642.0329
1964.867
429.5086
-2113.5142
-6052.3853
-13452.89
-17092.83
3801.3814
3416.8231
2810.1972
2151.535
569.93246
-2030.934
-6235.3408
-13424.553
-17159.292
3918.847
3604.4498
2987.9711
2351.1176
747.0122
-1907.6433
-6333.6556
-13629.323
-17076.693
4017.7918
3785.5925
3169.7312
2556.973
937.60603
-1777.4348
-6378.8806
-13941.008
-17051.258
4095.2376
3956.7056
3348.0703
2761.3488
1140.168
-1644.7756
-6396.116
-14237.111
-17020.843
4149.9327
4113.9672
3524.1594
2965.2297
1343.246
-1503.8402
-6391.5268
-14420.436
-17021.143
4178.6995
4254.7444
3694.9804
3160.1332
1555.3995
-1355.2978
-6358.1264
-14486.161
-16992.799
4182.036
4377.0643
3860.494
3356.0266
1773.9621
-1193.5939
-6305.2495
-14477.052
-16973.184
4158.7995
4477.3219
4020.422
3544.9855
2004.184
-1003.7241
-6211.0636
-14435.443
-16923.44
-17245.543
-13592.899
-5695.2031
-2141.7917
316.22526
1788.7757
2473.0523
3027.5504
3523.2169
-16729.658
-12906.167
-5199.6153
-2090.7645
218.99733
1613.7968
2305.6037
2830.0589
3359.7039
-15304.792
-11658.086
-4756.7992
-1977.2852
137.86262
1454.7976
2147.0953
2638.3134
3181.792
-14088.446
-10211.918
-4364.4732
-1840.7001
74.944609
1306.6668
1995.7994
2450.7365
3010.0434
-14925.361
-8725.9862
-3973.1481
-1686.0631
32.288768
1176.6151
1855.4998
2272.6448
2825.8953
-18422.747
-7356.969
-3522.9915
-1504.8
20.204139
1069.5991
1725.6303
2102.9488
2636.4126
-18654.321
-6045.4301
-3021.0992
-1304.613
34.027774
984.19317
1609.6481
1942.3642
2452.9364
-15929.038
-4658.5441
-2568.5437
-1139.8928
42.720058
900.21698
1491.1968
1788.8178
2275.3631
-13759.241
-3741.4056
-2351.4525
-1089.0192
-17.836733
784.52696
1352.9912
1640.295
2109.9424
1130.7998
984.1055
710.21093
286.94727
-292.93146
-1009.3177
-1815.4966
-2197.4083
-501.58105
1147.5507
966.49465
674.62332
219.04422
-416.93766
-1226.4345
-2218.6598
-3012.7844
-1472.8567
1191.4112
973.034
670.25643
185.59822
-495.50599
-1385.1829
-2552.122
-3815.9123
-2613.6161
1262.6095
1006.3561
695.70997
188.38343
-526.42708
-1475.5882
-2797.3815
-4547.6711
-3977.5234
1357.9085
1062.7797
750.78914
222.44223
-517.73557
-1500.8467
-2936.7443
-5118.3308
-5670.1103
1476.6339
1142.251
831.20712
288.22767
-470.31536
-1468.9978
-2944.8033
-5464.4668
-7628.189
1615.4747
1243.5296
935.96547
380.11287
-390.13043
-1392.2423
-2827.6157
-5516.2695
-9759.7357
1769.6498
1362.9345
1061.0009
498.14274
-280.74439
-1286.4031
-2636.0315
-5219.6707
-11478.617
1939.9543
1496.6446
1201.4106
634.72334
-153.72781
-1172.7915
-2444.4108
-4501.1155
-12577.05
258.01178
-1460.4832
-1376.9809
-748.73823
-131.69519
389.50833
775.19782
1024.763
1142.3197
882.99165
-798.32958
-936.69383
-466.73006
52.163452
515.07062
864.333
1089.0228
1181.4338
1448.8348
-169.6016
-483.88747
-162.08534
262.45731
663.60388
974.85404
1175.1616
1247.3388
1972.4499
429.76496
-32.794522
159.10136
491.74421
831.62288
1105.9256
1282.427
1336.7687
2458.9926
990.21513
415.17868
490.24359
736.6192
1016.504
1253.5275
1406.6513
1447.5634
2896.6272
1508.5548
849.69231
825.04655
990.84699
1213.1374
1416.1838
1545.5958
1577.162
3304.9458
1994.7163
1277.4077
1160.0193
1254.121
1420.5435
1591.2261
1697.8638
1722.8003
3698.9727
2452.5576
1686.6175
1491.7858
1519.3153
1634.094
1773.848
1859.3635
1881.8169
4081.2909
2884.0282
2078.0165
1815.3257
1784.1203
1850.7632
1962.9218
2028.0984
2051.9494
3668.2099
3582.4729
3627.7966
3642.7036
3810.0546
4101.011
4662.9717
5625.8955
7021.1439
3518.7597
3425.2822
3463.3872
3477.2193
3638.9869
3926.9986
4485.4825
5454.1541
6766.8282
3343.6776
3261.5085
3292.4568
3300.1261
3449.1054
3722.2523
4260.8781
5213.201
6453.2571
3160.7756
3091.8073
3111.5979
3110.5303
3241.2572
3494.6487
4007.1316
4938.4457
6139.9977
2971.9771
2918.4751
2927.4175
2915.1931
3021.8147
3249.8598
3730.4963
4646.5268
5831.6644
2785.7135
2741.1511
2739.321
2710.5865
2792.3176
2988.9654
3435.9855
4337.9791
5505.6655
2597.3385
2561.2764
2544.923
2499.7954
2550.3975
2714.3545
3124.5589
4006.5602
5160.7617
2412.4218
2382.0329
2351.3027
2286.7063
2302.2302
2428.9702
2796.0384
3656.4358
4808.4049
2228.7854
2204.1509
2156.9939
2069.2037
2045.8359
2127.5063
2446.5797
3284.9983
4451.9951
3821.3909
3976.3599
4128.2429
4274.3957
4415.0437
4549.4117
4677.6671
4799.568
4915.6209
3735.3248
3882.7675
4025.4145
4162.3988
4293.254
4419.6598
4540.4104
4655.8627
4766.8959
3783.9064
3931.2893
4071.5347
4205.7158
4333.3655
4455.2802
4571.7288
4682.7376
4788.5546
3800.4908
3947.3701
4086.2653
4218.0814
4341.7994
4458.9713
4569.9932
4675.605
4776.2064
3966.4809
4109.4397
4240.9157
4362.2134
4476.2138
4582.0236
4681.1599
4774.7897
4863.3652
4251.8041
4383.7626
4502.1558
4608.5172
4704.8094
4793.3841
4875.2453
4950.9619
5021.7847
4796.9256
4903.5949
4991.0525
5066.9965
5130.0658
5185.5159
5232.959
5275.3873
5314.6266
5716.3074
5768.9451
5796.5672
5808.7539
5811.4643
5805.2901
5794.1036
5779.9272
5762.5078
7065.667
7062.6278
7016.5439
6950.2099
6871.561
6782.8687
6693.7697
6604.4316
6514.6544
5025.7651
4872.9607
4889.8143
4872.4686
4947.6534
5088.9329
5350.0261
5745.4333
6432.3279
5130.7281
4974.699
4986.5501
4964.5305
5027.8917
5153.0611
5383.7507
5727.7635
6349.8056
5229.6689
5071.8782
5079.0124
5052.905
5105.0027
5215.063
5416.3974
5712.875
6270.9296
5323.3895
5164.6144
5167.1449
5137.7439
5179.4981
5275.3519
5449.3111
5700.3338
6196.8971
5411.9659
5253.1641
5251.4025
5219.6191
5252.1825
5334.3965
5481.2769
5690.009
6123.893
5495.1967
5337.8901
5332.1553
5298.5226
5323.042
5392.7
5515.1856
5684.387
6055.0951
5573.3935
5418.5153
5409.2573
5374.5588
5392.3089
5450.9182
5550.4969
5682.5684
5987.7955
5647.2264
5495.142
5482.5715
5447.6284
5459.8403
5509.0358
5587.5599
5685.2564
5924.601
5716.2339
5567.9747
5552.5602
5517.9485
5525.7019
5567.1467
5627.1254
5693.1197
5863.6576
6151.1832
6063.4939
6037.2958
6027.6636
6031.4829
6069.3282
6089.0636
6055.3057
5760.013
6114.5326
6021.6615
5995.276
5981.8031
5983.1803
6016.5906
6031.6795
5988.6879
5687.8521
6076.8974
5976.2864
5950.5289
5933.1877
5932.5911
5962.6523
5974.4744
5926.6535
5635.479
6037.1754
5927.9255
5903.2541
5882.0132
5880.1507
5907.8683
5918.1501
5871.5569
5614.5734
5994.5677
5876.5753
5852.7066
5828.1581
5825.9302
5852.3504
5863.4878
5823.7011
5622.2723
5947.4291
5822.1484
5799.4101
5771.6397
5769.9105
5796.2011
5811.1113
5783.7827
5654.3887
5896.3643
5764.0924
5742.8391
5712.426
5711.8691
5739.455
5761.1272
5751.8488
5699.664
5840.733
5702.4688
5682.9419
5650.4212
5651.8423
5682.3413
5713.7362
5726.4253
5749.2892
5780.7061
5637.2272
5619.5262
5585.5443
5589.7211
5624.9281
5669.1007
5706.0756
5804.0951
5836.4136
6129.4317
6148.4003
6122.4721
6078.3904
6071.3929
6076.846
6101.6727
6183.4248
5938.0135
6212.4969
6209.0196
6174.5007
6123.3805
6112.8386
6114.6728
6137.2504
6207.7969
6048.2745
6297.6062
6267.671
6223.0034
6165.0513
6150.9526
6148.9869
6169.2455
6229.5446
6161.6015
6382.8861
6322.4552
6267.7312
6203.2572
6185.9768
6179.6946
6198.3209
6247.7108
6277.8389
6466.3425
6371.9998
6308.9018
6238.0433
6218.4684
6208.0089
6223.9955
6263.6085
6393.9042
6546.7771
6416.9209
6346.8457
6269.7469
6248.2361
6233.6777
6247.1978
6276.392
6512.2562
6625.1244
6458.1111
6382.2412
6299.1404
6275.6536
6257.386
6267.7661
6287.0218
6632.2373
6702.3408
6497.5871
6416.3778
6328.0282
6301.4382
6279.8419
6285.2611
6294.105
6753.8696
6778.312
6540.9443
6451.6568
6359.2293
6326.8498
6300.9935
6299.0533
6297.9073
6892.2705
6861.2312
6601.9737
6498.8367
6403.122
6359.9225
6327.4904
6311.9826
6300.563
7049.74
6949.8844
6676.2951
6555.7327
6457.762
6404.4907
6365.4438
6335.4794
6312.0189
7209.3698
7034.1986
6750.6908
6614.0371
6512.8081
6451.5142
6405.6046
6364.3098
6330.09
7370.8449
7114.9515
6823.0679
6673.9255
6568.9258
6501.0618
6448.429
6398.2405
6354.4683
7530.8048
7191.1366
6891.2673
6733.8896
6625.4184
6552.5939
6494.151
6436.7041
6384.9627
7673.844
7260.6811
6954.4581
6793.1379
6682.0733
6605.5784
6542.5485
6479.6536
6421.3922
7778.4937
7319.5236
7011.595
6850.628
6738.5367
6659.7284
6593.4404
6526.6599
6463.7064
7821.8741
7366.4738
7065.0019
6906.9813
6795.0891
6715.1145
6646.5652
6577.3469
6511.5718
7810.0863
7400.5632
7115.9744
6961.8232
6851.3718
6771.1342
6701.3616
6631.3089
6564.6325
7128.7577
7141.7197
7164.4499
7196.2008
7239.2706
7298.3474
7371.597
7477.9714
7561.5499
7071.7212
7091.2192
7121.2375
7159.3917
7208.1465
7273.9702
7361.9856
7480.6416
7621.0877
7010.6107
7037.3924
7074.9884
7119.1738
7173.2599
7246.0162
7343.7178
7477.059
7631.7388
6946.159
6980.8846
7025.8439
7076.0638
7135.1674
7214.3323
7320.4763
7469.8768
7647.4791
6880.0085
6922.888
6974.572
7029.837
7093.4222
7178.8801
7294.6456
7462.0426
7674.4616
6813.3322
6863.8041
6921.1104
6980.8376
7049.2334
7141.1081
7266.6653
7454.7777
7699.1436
6747.3296
6804.2163
6866.4635
6930.1959
7002.6683
7100.1612
7234.678
7445.3574
7724.1838
6683.181
6745.1919
6811.4482
6878.3457
6953.9406
7056.3026
7198.4487
7433.2355
7748.1845
6622.0536
6687.4779
6756.4477
6825.4685
6903.9941
7011.0246
7159.7116
7418.4582
7774.0519
7837.2316
7895.3819
7949.8328
8017.9363
8101.6143
8193.8398
8291.856
8393.2177
8495.3364
7908.4121
7960.544
8018.4493
8089.2454
8174.9399
8267.7796
8365.0734
8466.4105
8567.7927
7979.0695
8033.4247
8095.2868
8169.1932
8255.012
8348.2213
8445.4193
8546.8491
8649.8222
8059.5981
8117.6946
8182.4189
8257.1338
8342.0109
8434.6323
8530.7322
8635.0539
8743.8644
8154.1968
8213.7991
8279.2601
8352.1199
8435.3832
8526.5748
8622.5058
8729.9271
8850.0778
8257.0435
8317.1599
8382.5902
8454.6919
8535.6044
8624.7244
8722.2771
8835.1416
8966.078
8364.7986
8423.7558
8486.8549
8556.5811
8635.6512
8725.2981
8825.5402
8945.3897
9091.9965
8473.4634
8530.0572
8591.5068
8659.6533
8739.1074
8829.8452
8934.1151
9058.0538
9211.0932
8574.2134
8628.2595
8690.4616
8761.5917
8842.7259
8935.397
9039.38
9167.8991
9344.2887
9489.3803
9332.4197
9209.0119
9092.1095
8986.9199
8894.6767
8813.1247
8742.7444
8684.6747
8855.1409
8940.1555
8925.5483
8927.1165
8899.2886
8862.7884
8816.8789
8765.8209
8715.036
8556.2464
8611.0599
8610.6918
8639.3155
8638.7934
8640.194
8632.4074
8616.168
8588.1729
8400.1537
8429.057
8414.8202
8437.7583
8429.9064
8438.9896
8437.0917
8439.5001
8426.9598
8289.3015
8308.349
8290.7757
8312.2192
8292.141
8305.797
8290.927
8297.7533
8284.0581
8193.9028
8211.7291
8189.3973
8212.8144
8185.6886
8201.6909
8179.8098
8187.7105
8170.3319
8119.1399
8125.7203
8113.3299
8129.314
8109.0987
8119.6908
8094.1915
8099.2285
8088.2679
8044.6927
8047.9277
8037.4319
8040.6796
8028.2761
8028.6707
8021.5338
8022.1139
8008.0602
7970.3721
7971.479
7959.9233
7961.1259
7951.3246
7949.2113
7941.5594
7933.5048
7919.2915
7832.2519
7762.672
7675.1311
7587.1462
7376.4988
7214.9198
7067.037
6873.9835
6671.6911
7847.9203
7777.3391
7691.7228
7595.9917
7387.0306
7206.7698
7030.0465
6824.9588
6606.0078
7858.6841
7782.4376
7693.0286
7577.6841
7370.3042
7179.3147
6969.6029
6738.2793
6495.5431
7868.311
7795.122
7702.4206
7579.1261
7378.1057
7179.895
6929.5165
6654.4185
6371.6813
7875.6355
7802.1821
7707.7967
7573.4242
7366.512
7151.5958
6887.6491
6577.1117
6239.5915
7883.6711
7810.0798
7718.0196
7580.8183
7388.9368
7150.8246
6862.9433
6512.299
6117.2036
7885.583
7812.6358
7721.9551
7580.8982
7372.6103
7135.8683
6838.1494
6470.3304
6016.6773
7898.3804
7824.2503
7733.8812
7600.5184
7388.1046
7143.282
6801.5624
6442.1201
6048.4281
7898.727
7827.5067
7743.4585
7599.7289
7398.3484
7161.8983
6839.5475
6438.3462
5825.4475
6621.3037
6812.9912
7133.4975
7398.1023
7584.5009
7739.386
7906.4644
8084.9161
8239.9186
6527.1221
6722.6874
7094.0816
7381.3584
7572.5081
7730.7018
7903.5702
8083.3946
8236.7874
6404.4555
6633.968
7065.4196
7370.1665
7560.1834
7724.5906
7903.5978
8084.3135
8235.0448
6257.5919
6548.4212
7037.7056
7353.618
7542.0846
7715.6081
7905.1199
8089.2998
8237.2885
6063.1872
6468.2142
7015.5415
7333.8629
7520.053
7702.1544
7900.8119
8087.1329
8231.4104
5786.2462
6393.9285
7012.0592
7328.1413
7515.801
7706.4867
7913.1781
8100.2089
8239.4097
5374.3606
6294.3333
6983.4865
7290.1055
7487.15
7689.4927
7906.2934
8096.5967
8233.0508
4886.0958
6271.8844
7015.0254
7288.879
7487.9058
7696.3724
7920.4554
8111.7507
8241.882
4257.3503
6188.8855
6997.0891
7268.1936
7477.8661
7691.1378
7914.8604
8108.349
8241.6206
8368.7458
8502.4595
8649.0067
8804.3469
8947.7148
9108.9436
9279.8467
9458.6464
9648.0054
8365.0003
8499.4529
8648.7659
8805.1702
8956.1413
9118.68
9288.5666
9468.1901
9659.0984
8362.199
8497.9222
8649.8509
8806.9152
8966.559
9128.9278
9296.5993
9477.363
9670.4089
8361.4034
8497.9194
8652.5177
8813.4269
8976.0319
9138.8704
9307.6854
9490.348
9685.1676
8351.681
8489.0392
8647.961
8814.5078
8979.0658
9143.0269
9311.6247
9495.6295
9692.1367
8354.1592
8490.057
8652.4006
8821.3425
8989.381
9154.8043
9322.777
9505.118
9703.2114
8344.3972
8481.4912
8647.9273
8819.9324
8988.8928
9155.4695
9323.0257
9506.8597
9707.1624
8344.9888
8478.7583
8647.3411
8824.8717
8997.6869
9162.9172
9328.2412
9510.279
9713.2236
8345.4412
8478.7067
8646.5527
8822.9156
8994.4944
9160.9202
9328.6541
9511.7853
9714.2242
9841.725
10032.94
10219.192
10403.683
10591.336
10777.09
10954.348
11099.22
11090.784
9857.0996
10053.883
10241.968
10431.055
10624.345
10815.44
11002.364
11147.095
11123.27
9873.0106
10074.141
10264.825
10458.348
10655.69
10852.02
11050.36
11189.726
11137.316
9891.3739
10094.31
10288.106
10484.088
10685.499
10885.582
11095.398
11228.489
11130.2
9902.2369
10108.688
10304.328
10503.547
10707.301
10912.677
11135.184
11264.304
11122.351
9916.4563
10126.157
10323.189
10524.209
10729.906
10937.794
11172.072
11301.921
11113.308
9923.6017
10133.2
10333.381
10533.753
10742.186
10953.614
11193.3
11315.721
11089.521
9931.9535
10144.423
10343.674
10545.297
10751.715
10965.73
11214.319
11356.014
11066.676
9931.9335
10144.73
10346.338
10546.882
10755.333
10964.329
11205.08
11352.307
11088.119
11553.113
11337.209
11076.394
10768.648
10430.446
10114.618
9809.5164
9508.8511
9211.0461
11626.573
11407.304
11155.546
10840.267
10495.611
10171.677
9860.0074
9555.0104
9255.1405
11685.802
11466.856
11228.32
10905.371
10557.948
10225.856
9909.745
9601.3052
9301.1133
11731.055
11526.996
11302.359
10970.899
10621.813
10281.045
9959.8745
9642.4893
9342.1035
11758.526
11583.398
11372.511
11031.067
10684.136
10340.607
10015.44
9695.5011
9389.9838
11770.068
11636.656
11438.579
11083.862
10736.343
10379.973
10053.355
9725.5794
9423.7015
11760.77
11682.548
11502.469
11149.135
10804.008
10447.428
10116.087
9784.9948
9479.2903
11742.02
11718.232
11546.097
11180.974
10833.911
10468.742
10138.93
9801.6375
9498.6989
11718.369
11745.511
11605.936
11256.221
10910.698
10544.327
10210.872
9872.337
9566.314
8921.809
8637.5628
8354.2176
8067.9226
7776.1684
7476.3764
7168.1045
6849.3906
6524.0512
8961.2282
8674.8189
8387.6859
8101.142
7806.7691
7507.7774
7198.2182
6879.7587
6552.1951
9004.3458
8716.1557
8427.3948
8140.8739
7846.9502
7548.6409
7240.9946
6923.811
6599.0402
9040.2781
8753.6599
8459.7197
8176.031
7877.5242
7583.518
7271.4425
6960.0667
6630.016
9088.1163
8797.9129
8504.8665
8218.5875
7922.3993
7626.8294
7317.7342
7005.5218
6678.9119
9114.646
8827.4564
8527.6866
8245.2256
7943.7374
7653.0375
7339.4015
7032.9007
6701.2606
9170.4381
8879.831
8582.2543
8296.5728
7998.6188
7705.941
7395.8826
7089.7767
6759.8863
9183.5428
8896.2918
8592.6355
8310.6887
8008.071
7719.1247
7405.7827
7102.6436
6771.2274
9250.7103
8961.3747
8658.014
8375.3224
8073.4208
7785.1552
7473.1758
7173.834
6839.0484
6146.3596
5711.9742
5261.5719
4811.6705
4372.1091
3925.6412
3448.4581
2782.9299
1830.2603
6178.8274
5752.5573
5315.9882
4880.1627
4456.9725
4027.9796
3584.3602
2968.5522
2069.7706
6228.8469
5813.4049
5387.2089
4955.4621
4528.9711
4092.743
3642.3171
3061.3865
2246.5938
6273.343
5864.7567
5453.9667
5025.7892
4600.8689
4167.6161
3741.182
3222.3056
2486.4363
6323.0932
5923.6725
5524.2187
5102.3909
4682.7759
4250.7305
3855.5489
3395.103
2855.5785
6360.6766
5969.9209
5583.4969
5168.9338
4752.0906
4320.8407
3924.0382
3573.6925
3276.393
6420.3839
6040.5286
5672.5098
5267.0043
4863.3703
4418.8777
4035.7427
3593.1688
4308.9168
6443.2013
6071.4726
5705.7594
5314.1478
4905.6837
4466.9689
3994.0405
3715.2086
3678.0757
6521.0196
6165.3455
5826.0046
5450.5713
5078.3896
4660.3768
4252.7376
3225.9702
6756.368
396.90416
-1083.7906
-1477.0366
-1509.9454
-1869.9554
-1671.122
-1466.1891
-1386.8514
-1522.7865
498.52018
-1161.9452
-1450.2525
-1459.2479
-1621.2809
-1567.722
-1451.4279
-1385.9437
-1495.806
483.85397
-1332.6939
-1418.0739
-1512.8228
-1751.4277
-1549.6915
-1427.6565
-1383.1784
-1480.2862
285.03339
-1595.9833
-1404.2922
-1506.1589
-1597.491
-1515.9169
-1414.7467
-1379.0628
-1466.6873
-81.136965
-1854.7292
-1284.2338
-1546.6642
-1625.8418
-1488.7575
-1401.392
-1373.478
-1446.36
-144.00918
-1753.9212
-1259.6242
-1573.8283
-1578.3949
-1455.7646
-1390.4792
-1363.8959
-1425.4364
432.38418
-1316.4679
-1358.4595
-1584.7569
-1557.9354
-1431.2654
-1381.0154
-1355.3699
-1405.3495
-169.30319
-2580.1361
-1333.9414
-1625.6122
-1532.8197
-1409.6564
-1371.3112
-1346.3193
-1391.4571
-7833.9755
-676.58335
-1455.2727
-1618.338
-1482.0923
-1391.5088
-1365.4337
-1342.273
-1384.0363
-1742.1218
-1956.6472
-2255.375
-2672.7545
-3172.604
-3704.0507
-3915.9091
-4747.7303
-4604.2127
-1697.2041
-1914.9036
-2209.6863
-2639.9092
-3136.3315
-3696.631
-3947.0327
-4719.3482
-4469.8918
-1676.7107
-1900.6905
-2208.5496
-2670.98
-3178.869
-3730.9723
-4063.3583
-4682.8486
-4391.7341
-1658.3021
-1894.64
-2217.1507
-2693.2399
-3226.2671
-3764.849
-4128.7687
-4679.611
-4183.6539
-1636.0413
-1881.0767
-2218.7127
-2708.2577
-3258.8302
-3800.7438
-4176.2587
-4566.8342
-3901.0288
-1612.5187
-1867.7912
-2219.6952
-2720.2793
-3284.1622
-3818.0357
-4182.4731
-4293.9624
-3585.6516
-1593.2849
-1859.5398
-2225.484
-2743.1533
-3314.1356
-3854.724
-4143.9921
-4021.2383
-3218.0663
-1579.5621
-1860.0534
-2235.1898
-2762.1361
-3330.4419
-3844.9132
-4063.2364
-3827.9997
-2961.3013
-1575.4654
-1872.6512
-2272.4855
-2829.7037
-3411.2998
-3883.4577
-3985.9317
-3515.114