/*--------------------------------*- C++ -*----------------------------------*\
  =========                 |
  \\      /  F ield         | OpenFOAM: The Open Source CFD Toolbox
   \\    /   O peration     | Website:  https://openfoam.org
    \\  /    A nd           | Version:  11
     \\/     M anipulation  |
\*---------------------------------------------------------------------------*/
FoamFile
{
    format      ascii;
    class       volVectorField;
    location    "4.775";
    object      U;
}
// * * * * * * * * * * * * * * * * * * * * * * * * * * * * * * * * * * * * * //

dimensions      [0 1 -1 0 0 0 0];

internalField   nonuniform List<vector> 
4455
(
(99.996274 0.48313273 0)
(99.956647 1.3575751 -1.8270895e-18)
(99.681936 2.3395513 6.2791682e-18)
(99.462872 3.0737996 2.6694965e-20)
(98.970307 3.857925 5.8921205e-18)
(98.521934 4.4745483 -2.2330988e-17)
(97.619674 5.2524274 9.9570507e-18)
(96.667564 5.8247592 0)
(95.018887 7.5268895 -6.0615982e-17)
(100.01886 0.5480472 -1.1709389e-17)
(100.01241 1.440127 1.1449548e-17)
(99.713862 2.4954547 -1.4135699e-17)
(99.535006 3.2717846 2.3652134e-17)
(99.032925 4.1020174 -4.5537257e-17)
(98.53074 4.6568019 4.9801187e-17)
(97.604146 5.4015807 -4.7812935e-18)
(96.585091 5.9231963 6.968675e-18)
(94.827822 7.2815063 2.6277325e-16)
(100.09191 0.55346159 -1.2010528e-17)
(100.01454 1.5446118 1.529871e-17)
(99.77624 2.6100928 1.3850321e-17)
(99.54029 3.4702657 -1.3817395e-17)
(99.099138 4.3243875 6.0337568e-17)
(98.628472 4.956938 -3.4261855e-17)
(97.648872 5.7297859 4.3949589e-18)
(96.556958 6.1414398 -9.7861547e-17)
(94.763865 7.5675244 -1.8618402e-16)
(100.1483 0.57513144 2.7641828e-19)
(100.04204 1.6114291 -1.9522824e-18)
(99.818287 2.7173984 3.2321108e-17)
(99.598479 3.623316 4.461173e-18)
(99.208085 4.5855559 -2.6781034e-19)
(98.745001 5.2128362 -6.5108458e-18)
(97.74478 6.1890414 7.2472243e-17)
(96.531287 6.5380564 1.954688e-16)
(94.62717 8.2824604 1.544965e-16)
(100.18691 0.58226032 2.3236401e-17)
(100.07918 1.6487172 -2.6150168e-17)
(99.87381 2.8022256 3.2963124e-17)
(99.679276 3.7676073 3.7718101e-20)
(99.315268 4.7908367 -4.096505e-17)
(98.845454 5.406913 -1.2577377e-17)
(97.908472 6.4996158 -5.7147355e-17)
(96.467086 6.7949803 -9.1728973e-17)
(94.445931 8.7100367 -4.5531402e-16)
(100.21505 0.57873692 0)
(100.12406 1.6650404 0)
(99.9138 2.8567096 -5.7841972e-17)
(99.778693 3.8689069 -6.6331876e-17)
(99.468734 5.0068272 0)
(98.998307 5.7200238 -9.0033823e-17)
(98.010112 6.8951493 -7.6824392e-18)
(96.50328 7.216194 -5.489296e-18)
(94.178966 9.3188604 5.6088245e-16)
(100.24282 0.57186499 0)
(100.15349 1.6426187 -1.5443416e-18)
(99.986544 2.9018311 1.7382276e-18)
(99.86304 3.940369 6.4832812e-17)
(99.612341 5.1153438 -4.7913953e-18)
(99.165327 5.8445138 1.9116176e-16)
(98.239415 7.1891553 0)
(96.478931 7.5436341 0)
(93.970784 9.8886992 2.5525332e-16)
(100.26221 0.547051 4.2326534e-17)
(100.18406 1.6159657 0)
(100.04768 2.913438 0)
(100.02036 4.0327978 0)
(99.777202 5.3096107 0)
(99.316032 6.1161459 -9.5128654e-17)
(98.366582 7.4935909 -1.019454e-16)
(96.595794 7.9639804 1.4823159e-16)
(93.779104 10.596947 -4.9091516e-19)
(100.27549 0.52507006 -4.1679488e-17)
(100.21884 1.5393538 -1.4625928e-18)
(100.09454 2.8676746 -1.674918e-18)
(100.09898 3.9838532 3.7690862e-18)
(99.971315 5.3217428 1.4593973e-16)
(99.536051 6.1868165 1.6546896e-16)
(98.627119 7.7791094 3.2340379e-16)
(96.621014 8.3358246 -1.4549809e-16)
(93.688781 11.244933 -4.3873002e-16)
(100.28276 0.48964979 0)
(100.28347 0.45551541 7.5746672e-17)
(100.27553 0.4063497 -7.5143265e-17)
(100.25383 0.35697033 7.1199931e-17)
(100.23816 0.30684944 -6.9601706e-17)
(100.20052 0.24486664 1.3791538e-16)
(100.16415 0.19627713 -1.3388671e-16)
(100.13152 0.12621379 0)
(100.04668 0.058549635 0)
(100.24987 1.4989462 0)
(100.28177 1.408781 1.3223337e-18)
(100.31406 1.3340974 0)
(100.34081 1.20752 3.7329305e-18)
(100.35259 1.1046128 7.5519837e-17)
(100.38961 0.96396364 -2.2488526e-16)
(100.37452 0.81882671 1.4535544e-16)
(100.41062 0.7144065 -2.2056788e-18)
(100.33972 0.44896472 1.3873282e-16)
(100.18522 2.8557566 9.7476047e-17)
(100.25264 2.8184392 -1.9142328e-16)
(100.33763 2.7285788 1.8152134e-16)
(100.41501 2.638407 -6.2109338e-18)
(100.46642 2.4778647 -8.48376e-17)
(100.57472 2.3756127 -2.5620136e-18)
(100.58398 2.1548124 0)
(100.7452 2.0258545 4.7778432e-18)
(100.71051 1.6298181 -2.3103781e-18)
(100.24017 4.0353907 1.0225398e-16)
(100.39678 4.0526277 -2.0709766e-16)
(100.50639 3.9962118 1.9560675e-16)
(100.70669 3.9640688 -9.447434e-17)
(100.77127 3.8096649 -5.864297e-18)
(100.99579 3.7336409 2.8000084e-18)
(101.02764 3.5217534 0)
(101.27573 3.3945382 -2.605345e-18)
(101.24457 2.9849463 1.5598588e-16)
(100.11313 5.4498276 -1.1722891e-16)
(100.39517 5.5853637 0)
(100.53481 5.6062518 -1.0597307e-16)
(100.82492 5.6845312 1.0927967e-16)
(100.96791 5.610575 -9.7254473e-17)
(101.26733 5.6362605 1.0050712e-16)
(101.40335 5.4967439 0)
(101.76537 5.4778168 0)
(101.82831 5.1704424 5.5356651e-18)
(99.705252 6.3746255 -1.4434963e-16)
(100.02646 6.655091 -1.3589174e-16)
(100.22923 6.7300527 1.3062838e-16)
(100.57404 6.9508533 1.2324612e-16)
(100.79017 6.9222703 -1.1881052e-16)
(101.14826 7.0704432 0)
(101.36004 6.940758 2.1495224e-16)
(101.74994 7.0375523 -2.0395541e-18)
(101.9093 6.7474762 -3.9668977e-16)
(98.78945 8.0037693 -1.7095547e-16)
(99.117656 8.5929824 0)
(99.396936 8.7322807 0)
(99.79064 9.2332179 4.5662731e-18)
(100.15252 9.2674805 0)
(100.60063 9.7222706 0)
(101.01259 9.6520411 0)
(101.51372 10.079487 0)
(101.88567 9.8459241 0)
(96.81923 8.7559981 6.7163277e-18)
(97.043779 9.6740262 0)
(97.458878 10.032574 5.8546459e-18)
(97.861574 10.784872 -1.0769701e-17)
(98.359033 10.928152 -1.607565e-16)
(98.820355 11.480852 -1.4941935e-16)
(99.329953 11.496155 2.8991448e-16)
(99.832307 11.898065 2.746379e-16)
(100.39095 11.874931 -2.5995552e-16)
(93.612969 12.091158 8.073247e-16)
(94.111776 13.660127 -5.0563116e-16)
(95.067902 14.441951 4.4326583e-16)
(96.070354 15.900966 -4.2713619e-16)
(97.039799 16.27903 -5.8357571e-16)
(97.90648 17.446247 1.0795209e-15)
(98.887231 17.60175 -6.777961e-16)
(99.89061 18.707445 -3.1225631e-16)
(100.71526 18.64184 2.9380482e-16)
(100.08902 0.10226157 -1.8256875e-19)
(100.14266 0.13671442 1.8682755e-16)
(100.23269 0.18351575 -2.7429307e-19)
(100.35442 0.23876992 -1.8798993e-16)
(100.50184 0.29495293 1.8306832e-19)
(100.67783 0.35283004 1.8805434e-16)
(100.88077 0.41287015 -1.8896768e-16)
(101.11288 0.47395785 -1.8292056e-19)
(101.39667 0.55365345 -9.4143929e-17)
(100.40464 0.58228097 -1.9902047e-16)
(100.57943 0.61593405 1.9996789e-16)
(100.68751 0.80029576 -2.0018462e-16)
(100.976 0.88961636 0)
(101.1355 0.99799471 2.0008838e-16)
(101.47394 1.1743804 -5.8349765e-19)
(101.71463 1.1724887 -4.779718e-19)
(102.04635 1.4109559 -1.997143e-16)
(102.37984 1.3296577 9.9531104e-17)
(100.96431 1.7449638 2.1209246e-16)
(101.09261 2.0685772 -2.1286938e-16)
(101.39205 2.1307186 -2.1302088e-16)
(101.53087 2.4543338 2.1353347e-16)
(101.86489 2.4844017 -2.1372315e-16)
(102.05535 2.8280741 2.1299737e-16)
(102.43493 2.83541 -2.1326243e-16)
(102.66242 3.1943722 9.1831542e-19)
(103.0849 3.169618 2.1251925e-16)
(101.5422 3.112931 -2.2805324e-16)
(101.69461 3.4834096 -8.917546e-19)
(102.03503 3.5518493 8.9384391e-19)
(102.19536 3.9204195 0)
(102.56732 3.9620257 -3.3659637e-22)
(102.75961 4.3389011 -2.264736e-16)
(103.16401 4.3583661 2.3021023e-16)
(103.39876 4.7553379 8.8676024e-19)
(103.84276 4.7363329 8.8407631e-19)
(102.19648 5.3544635 -9.6187981e-19)
(102.36022 5.7597954 -2.4590558e-16)
(102.70345 5.8555259 3.927901e-19)
(102.84102 6.2217985 2.4702644e-16)
(103.20002 6.2849984 2.4625954e-16)
(103.3642 6.6578423 -2.4750917e-16)
(103.75964 6.6987236 -9.5833233e-19)
(103.97201 7.1007896 -9.5605861e-19)
(104.4136 7.1034827 -9.5376786e-19)
(102.28406 6.9333972 2.7051688e-16)
(102.44101 7.382593 0)
(102.79846 7.485715 0)
(102.94092 7.8896369 2.6666879e-16)
(103.32252 7.9587209 -2.7023474e-16)
(103.49317 8.3597932 -2.675202e-16)
(103.91719 8.4104627 5.336245e-16)
(104.122 8.7927347 -2.435722e-18)
(104.59908 8.8311108 -5.2991725e-16)
(102.3744 10.20525 -1.1675733e-18)
(102.56765 10.58729 0)
(102.94616 10.794503 1.1556022e-18)
(103.11135 11.061585 2.9420235e-16)
(103.50381 11.205691 -2.9595459e-16)
(103.72336 11.426352 2.9233177e-16)
(104.13885 11.559253 -2.9295766e-16)
(104.41335 11.756036 -1.1232233e-18)
(104.85279 11.862869 2.8746463e-16)
(100.92455 12.143651 -3.276098e-16)
(101.39141 12.497991 3.3189222e-16)
(101.99506 12.800337 -3.2626083e-16)
(102.49657 13.070252 3.2462982e-16)
(103.11146 13.305481 -3.1633458e-16)
(103.56591 13.405264 3.2834368e-18)
(104.15131 13.579657 3.1738989e-16)
(104.62453 13.564102 2.427472e-18)
(105.17832 13.563275 1.5386301e-16)
(101.57079 19.539584 0)
(102.06674 19.622944 -3.4974255e-16)
(102.80424 20.147285 6.3530944e-18)
(103.28575 19.978007 7.6479966e-18)
(104.15107 20.293648 6.7950729e-16)
(104.58339 19.766058 -3.3798733e-16)
(105.67883 19.615613 -3.2879129e-16)
(106.29259 18.348238 3.3023872e-16)
(107.30045 17.576509 1.6246602e-16)
(107.8956 15.625723 -1.8963009e-16)
(108.05519 14.530127 0)
(108.42585 13.310776 1.8504962e-16)
(107.99722 12.512551 -1.8505237e-16)
(107.8086 11.795982 0)
(106.82238 10.899675 0)
(106.36277 10.228911 0)
(105.1216 9.5412905 -1.9433895e-16)
(104.47056 9.1295867 1.9434054e-16)
(105.58504 13.497993 -1.7525246e-16)
(105.90309 13.448383 0)
(106.2211 13.346748 0)
(106.4992 13.135872 0)
(106.65784 12.976892 0)
(106.73697 12.719949 0)
(106.69202 12.607575 0)
(106.61587 12.454871 1.6530295e-16)
(106.376 12.375276 -3.3050968e-16)
(105.12919 12.018629 -3.1875516e-18)
(105.51071 12.164664 -3.1291526e-16)
(105.77789 12.293877 0)
(106.13235 12.367901 -1.5175653e-16)
(106.3583 12.471896 1.5174428e-16)
(106.63621 12.498628 0)
(106.81559 12.563337 0)
(106.96138 12.578892 0)
(107.13189 12.648506 0)
(104.81243 9.1776767 2.8381652e-16)
(105.28909 9.2843815 0)
(105.51127 9.6036774 1.3778115e-16)
(105.99897 9.7028006 -2.7415373e-16)
(106.21129 10.001316 1.363734e-16)
(106.6731 10.080338 0)
(106.85539 10.367932 0)
(107.29395 10.443933 0)
(107.45313 10.746736 1.2955867e-16)
(104.64259 7.5205849 0)
(105.11194 7.561569 2.5216438e-16)
(105.36291 7.9679512 -3.7704064e-16)
(105.85277 7.9886926 1.2487631e-16)
(106.11215 8.3822209 1.2236196e-16)
(106.60974 8.3823833 -1.2977484e-18)
(106.86589 8.7693782 -2.4080292e-16)
(107.36935 8.7627932 2.3812496e-16)
(107.62456 9.1579663 -1.1837815e-16)
(104.10442 5.1544596 0)
(104.57668 5.1454374 1.1551774e-16)
(104.87136 5.578003 -1.1551773e-16)
(105.37062 5.5423344 0)
(105.69533 5.977998 -2.2438006e-16)
(106.21779 5.9172821 2.2438097e-16)
(106.56172 6.3533009 1.0971703e-16)
(107.10785 6.271441 -2.1812076e-16)
(107.47476 6.7138638 1.084021e-16)
(103.34916 3.5627105 0)
(103.82351 3.536036 0)
(104.11852 3.9521648 0)
(104.61873 3.9008729 -1.0498807e-16)
(104.94144 4.3230293 2.089822e-16)
(105.46872 4.2533787 -2.0693744e-16)
(105.82532 4.6931481 1.0294384e-16)
(106.38769 4.6028044 -1.0067656e-16)
(106.78015 5.0610636 2.0012499e-16)
(102.76082 1.6000681 -2.0116785e-16)
(103.11324 1.5264603 7.8027949e-19)
(103.60177 1.7958148 9.9440585e-17)
(103.96022 1.7306112 -9.7718496e-17)
(104.49296 1.9938112 9.7718486e-17)
(104.90188 1.886279 0)
(105.46424 2.1758204 9.4724595e-17)
(105.91291 2.0276095 -1.8833103e-16)
(106.51764 2.3302041 9.36082e-17)
(101.5769 0.62255354 5.7552462e-19)
(101.90615 0.70165545 9.4871048e-17)
(102.33002 0.86299805 9.35877e-17)
(102.6508 0.90494359 -9.3587709e-17)
(103.1115 1.0329867 0)
(103.45555 1.069842 0)
(103.99496 1.1862118 -9.0516769e-17)
(104.41282 1.2295672 1.8008526e-16)
(105.0176 1.3616757 -8.9568459e-17)
(105.49236 1.396346 0)
(106.15243 1.5197729 -8.6301621e-17)
(106.68831 1.5651344 1.2351095e-18)
(107.39393 1.6811437 1.3131934e-18)
(108.00067 1.7128677 1.3935134e-18)
(108.75743 1.8348016 8.23598e-17)
(109.40966 1.8760594 7.9325195e-17)
(110.23117 1.9776645 -7.9325198e-17)
(110.95755 2.0123457 0)
(107.00431 2.1676343 0)
(107.63879 2.5037832 0)
(108.1875 2.2963966 -8.8504509e-17)
(108.84093 2.6691211 1.4373612e-18)
(109.42736 2.4376769 1.5086286e-18)
(110.12225 2.8293493 8.5559407e-17)
(110.7647 2.5761951 8.2333829e-17)
(111.44612 3.017059 -8.2333482e-17)
(112.20069 2.7201809 0)
(107.38148 4.9498845 -9.9451686e-17)
(107.80597 5.4279575 0)
(108.44214 5.3003329 0)
(108.89454 5.7984542 -9.3929939e-17)
(109.56768 5.6571208 1.8631952e-16)
(110.04777 6.1799366 -1.6074256e-18)
(110.76289 6.027602 -1.681795e-18)
(111.27608 6.5834903 -8.9096155e-17)
(112.04235 6.4201404 0)
(108.0462 6.6178209 -1.0562646e-16)
(108.4309 7.0692309 1.0562266e-16)
(109.0281 6.9637262 0)
(109.42547 7.4317787 0)
(110.05713 7.3269874 9.9469981e-17)
(110.46264 7.8222359 -9.9466198e-17)
(111.13608 7.728142 9.6062595e-17)
(111.5522 8.2671466 -4.8927995e-17)
(112.27792 8.1887479 -4.7127558e-17)
(108.14082 9.1578663 -1.1557903e-16)
(108.39196 9.5753668 1.1557522e-16)
(108.92633 9.5907023 0)
(109.16613 10.037719 0)
(109.72086 10.078232 0)
(109.94587 10.568136 0)
(110.53366 10.64778 0)
(110.75846 11.205766 0)
(111.3674 11.310569 0)
(107.8743 10.837466 -1.2956084e-16)
(108.00495 11.160126 1.2688393e-16)
(108.42133 11.274319 -1.2689234e-16)
(108.52319 11.63836 1.2424121e-16)
(108.95311 11.798672 -1.2423238e-16)
(109.00622 12.22482 0)
(109.46158 12.461949 0)
(109.47446 12.980104 0)
(109.98388 13.296813 0)
(107.16124 12.725037 0)
(107.28019 12.845641 -1.4364597e-16)
(107.2251 12.976927 1.436863e-16)
(107.29833 13.20271 0)
(107.17807 13.392376 1.4175876e-16)
(107.16628 13.801644 -1.4175873e-16)
(107.09583 14.070717 0)
(106.9456 14.632588 6.9967734e-17)
(106.97554 15.03945 -1.3960827e-16)
(106.18621 12.390325 1.6517942e-16)
(105.78423 12.366914 1.6556444e-16)
(105.53961 12.518702 -1.6557002e-16)
(104.97287 12.667612 1.6658415e-16)
(104.67595 12.923977 -3.3394222e-16)
(103.96142 13.261357 3.3548942e-16)
(103.62498 13.639201 -3.3727809e-16)
(102.77952 14.198794 1.6910266e-16)
(102.43518 14.735988 0)
(103.12163 8.6909017 -2.0012091e-16)
(102.38223 8.5995667 2.0012185e-16)
(101.01793 8.1334574 0)
(100.17739 8.410556 0)
(98.767208 7.9524508 0)
(97.896208 8.4979378 0)
(96.280186 8.2879495 0)
(95.412184 9.0635669 -1.1152876e-16)
(93.637952 9.0287982 1.1152693e-16)
(92.775495 10.174045 1.1522967e-16)
(101.4697 15.543765 0)
(106.73133 15.795504 6.9643425e-17)
(109.96946 13.943304 0)
(111.68888 11.970363 0)
(112.71643 8.7904598 0)
(112.5964 7.0171445 4.1780925e-17)
(112.85998 3.234749 3.8456394e-17)
(111.81073 2.1300712 3.7046837e-17)
(90.734824 10.390511 -1.1522718e-16)
(101.14837 16.266162 0)
(106.82971 16.329346 0)
(110.56289 14.329442 5.7094039e-17)
(112.22863 12.119971 0)
(113.49429 8.7277813 -4.4193437e-17)
(113.41681 6.8392066 -8.2546798e-17)
(113.68364 2.9102818 -7.5924295e-17)
(112.61651 2.1535283 -7.3125821e-17)
(89.980455 11.939572 0)
(100.08141 17.362978 0)
(106.59113 17.333859 6.8429259e-17)
(110.56153 15.148312 -5.7110467e-17)
(112.74785 12.844615 0)
(114.01037 9.3673014 4.4194093e-17)
(114.02597 7.4849582 4.077041e-17)
(114.40046 3.4693848 3.7474953e-17)
(113.51876 2.2700807 3.6078973e-17)
(87.668886 12.654721 1.2100641e-16)
(99.82514 18.287673 0)
(106.79167 18.006335 -1.3630007e-16)
(111.23263 15.58103 0)
(113.27139 13.074678 0)
(114.79087 9.4139281 -4.1969913e-17)
(114.87637 7.283184 -3.8596176e-17)
(115.24672 3.1437563 0)
(114.39597 2.3001848 -3.3989234e-17)
(86.89863 14.779198 -1.2102927e-16)
(98.714754 19.760952 -8.7696094e-17)
(106.54722 19.286061 6.7874292e-17)
(111.31795 16.599211 0)
(113.8932 13.886151 0)
(115.47492 9.9892445 4.1969901e-17)
(115.62305 7.9502327 3.8596041e-17)
(116.03072 3.6992381 0)
(115.35134 2.3934054 3.3989229e-17)
(84.569045 16.09187 0)
(98.582519 20.909743 8.7691946e-17)
(106.93801 20.11074 -6.6410278e-17)
(112.1135 17.095727 0)
(114.51944 14.136843 0)
(116.26685 10.160572 -3.9484517e-17)
(116.44954 7.7921877 -3.6202594e-17)
(116.92303 3.479434 0)
(116.2947 2.4264053 -3.1690521e-17)
(83.81781 19.177232 0)
(97.493628 22.837497 0)
(106.73252 21.704483 6.6410204e-17)
(112.24136 18.312342 -2.5894494e-17)
(115.27655 15.070414 -2.1873102e-17)
(117.05337 10.716323 5.854546e-17)
(117.3135 8.3811016 5.3656454e-17)
(117.77056 3.9005115 0)
(117.30588 2.5241336 4.692258e-17)
(81.564953 21.32099 0)
(97.608982 24.228729 -4.3629088e-17)
(107.35778 22.645155 0)
(113.29631 18.846793 2.5876098e-17)
(115.98175 15.341018 2.1874621e-17)
(118.01631 10.931237 -7.1842478e-19)
(118.27637 8.2966781 -3.4232655e-17)
(118.7127 3.8037295 0)
(118.30528 2.5461126 -1.5232061e-17)
(81.275437 25.498898 -6.3284482e-17)
(96.63624 26.808632 4.3617975e-17)
(107.34079 24.719892 0)
(113.55085 20.44421 0)
(116.93529 16.338465 0)
(118.80048 11.516659 -3.5916711e-17)
(119.10377 8.8053109 7.166446e-19)
(119.60809 4.1617373 0)
(119.33803 2.6109107 0)
(120.70349 2.6037051 0)
(120.60764 4.1015687 0)
(120.25633 8.80946 -2.1738866e-19)
(119.95707 11.760156 1.8424162e-17)
(117.80033 16.652587 0)
(114.81213 20.664662 -3.142388e-18)
(108.2673 25.497037 -6.7263999e-19)
(97.408698 28.200129 -3.5529736e-17)
(79.727092 28.618004 1.1723243e-16)
(121.77692 2.5556521 -6.3529681e-18)
(121.55489 4.2225578 -8.644384e-19)
(121.23247 8.9182716 8.0855884e-18)
(120.91229 11.935703 -3.4460221e-20)
(119.05157 17.288374 -8.0210198e-18)
(115.63313 22.183425 1.0990951e-17)
(109.10562 27.607533 -4.0824074e-18)
(97.544692 31.30918 4.5527819e-17)
(81.096841 33.879241 -5.9300486e-17)
(122.89028 2.5012458 1.2455885e-17)
(122.59976 4.1862366 0)
(122.3673 8.9996558 1.4342288e-17)
(122.16708 12.210964 -7.5787767e-18)
(120.16894 17.49095 8.1186752e-18)
(117.23236 22.172895 -2.0386978e-17)
(110.65409 28.163632 -1.7647028e-17)
(99.95134 32.244742 1.0018344e-17)
(83.385481 35.820375 1.8326918e-18)
(124.06981 2.4418778 -6.1063434e-18)
(123.62995 4.1723735 -7.8617214e-19)
(123.52614 9.0281644 -6.1974087e-18)
(123.30438 12.281707 8.6390839e-18)
(121.6862 18.086987 3.0881917e-18)
(118.52465 23.793952 1.0689538e-17)
(112.34653 30.366966 1.3935948e-17)
(100.87538 35.351196 5.398233e-18)
(85.525241 40.133016 -6.1831225e-18)
(125.24379 2.3693304 1.3377522e-18)
(124.73425 4.1312299 -1.4247562e-18)
(124.78186 8.9620687 -8.0600863e-19)
(124.72578 12.485534 2.5563522e-18)
(123.08363 18.043796 -3.1381719e-18)
(120.42274 23.436973 -3.4933064e-18)
(114.17124 30.671183 -3.6283504e-18)
(103.78364 35.942406 4.0961983e-18)
(87.606061 41.516927 -7.7176936e-18)
(126.39306 2.2750865 -1.3525895e-18)
(125.79083 4.0652686 1.4418833e-18)
(125.91625 8.8772155 -7.5373663e-19)
(125.93248 12.397315 -4.8684851e-20)
(124.75454 18.59203 -9.1708739e-19)
(122.08444 25.017669 2.3686835e-18)
(116.30012 32.779392 -3.4282106e-18)
(105.06933 39.059552 3.8797325e-18)
(89.463166 45.428376 0)
(127.51456 2.1551781 -1.1545387e-18)
(126.95276 3.9652174 -6.4801524e-19)
(127.27925 8.6987806 -6.3692162e-19)
(127.49328 12.37298 -7.7028522e-19)
(126.28277 18.353623 -7.8131889e-19)
(124.1056 24.394974 2.2781231e-18)
(118.32645 32.798511 -5.7505284e-18)
(108.10576 39.344856 8.4166664e-18)
(91.988526 46.303399 -5.530786e-18)
(128.59914 2.0098608 3.287919e-18)
(127.99172 3.8086517 2.2833682e-18)
(128.42702 8.4576935 3.1645488e-18)
(128.81211 12.075673 3.2922944e-18)
(128.23383 18.599552 2.4623236e-18)
(126.06772 25.774581 -8.9838116e-19)
(120.80137 34.794061 -2.9486629e-18)
(109.86062 42.44283 -1.1691729e-18)
(94.196072 49.893876 -6.3490996e-18)
(129.63223 1.836855 -6.0049001e-18)
(129.09523 3.6194834 -2.3118269e-18)
(129.76039 8.1113544 -7.4879194e-18)
(130.31019 11.965654 -2.0057812e-18)
(129.76958 18.035891 4.3733693e-18)
(128.28463 24.786741 2.6076983e-18)
(123.02252 34.415495 -1.2888811e-17)
(113.12229 42.355866 3.0342538e-18)
(96.850115 50.449647 1.1908867e-17)
(99.073074 53.767781 -1.0835731e-17)
(115.40742 45.421057 3.9052178e-18)
(126.05167 36.131716 1.6960795e-17)
(130.48813 25.843889 -2.2263876e-18)
(131.81307 18.073683 3.5038259e-19)
(131.71249 11.363181 2.9367528e-18)
(130.8429 7.6831013 5.0037646e-18)
(130.0983 3.3525519 -2.5048498e-19)
(130.59662 1.6347 7.6175482e-18)
(102.12218 53.830345 3.831893e-17)
(118.92971 44.914234 2.265958e-18)
(128.35357 35.380965 -1.9763539e-17)
(132.85304 24.594353 -5.5643826e-19)
(133.39738 17.183118 -3.886358e-18)
(133.14272 11.036922 -3.6114007e-18)
(132.21553 7.1362087 -7.3882761e-18)
(131.12925 3.080784 0)
(131.47606 1.4063259 -3.5236773e-18)
(104.62814 57.050586 -4.8664914e-17)
(121.79855 47.927951 2.0662009e-17)
(131.90313 36.712823 9.443935e-18)
(135.26111 25.240061 -4.2692374e-19)
(135.51747 16.927526 5.2841791e-18)
(134.5781 10.096706 -4.631223e-20)
(133.08388 6.5668305 1.8587107e-18)
(131.93724 2.6702703 5.5710221e-18)
(132.24855 1.1540434 5.5174115e-18)
(108.33746 56.90615 -8.2744974e-18)
(125.48831 46.93575 -9.0376657e-19)
(134.28366 35.400742 -1.1249301e-18)
(137.67478 23.527009 0)
(137.06007 15.646628 -5.4052915e-18)
(135.8026 9.5106136 0)
(134.38924 5.7718205 5.7031962e-18)
(132.88995 2.2834374 -1.0907063e-17)
(132.89151 0.87410009 -7.2924955e-19)
(111.06207 60.518836 -2.543335e-18)
(129.03804 49.771634 -1.0149777e-17)
(138.30311 36.272742 6.3611136e-19)
(140.19109 23.630445 0)
(139.11935 14.992862 -2.0558903e-18)
(137.25254 8.2924957 3.118794e-18)
(135.03993 4.9788957 2.5231834e-19)
(133.45061 1.7782493 9.7750587e-18)
(133.3874 0.578099 -4.9144855e-18)
(114.79735 60.023036 -2.5608281e-17)
(132.95072 48.105799 -4.1670364e-19)
(140.59532 34.342756 -2.6564929e-19)
(142.52837 21.440994 1.5056525e-19)
(140.4976 13.231421 1.6498688e-18)
(138.17224 7.4124993 -5.3780676e-18)
(136.15672 4.0576795 1.9008031e-19)
(134.17577 1.2659288 -4.5610455e-18)
(133.71492 0.27177974 0)
(118.11779 63.483174 1.7681541e-17)
(137.05423 50.542906 8.2184538e-19)
(145.09776 34.484766 -1.2965257e-19)
(145.03472 20.875845 5.4986806e-19)
(142.40236 12.257407 7.8486442e-20)
(139.45021 5.9388509 2.0818789e-18)
(136.48432 3.0076701 2.1176203e-19)
(134.46538 0.68168335 -1.9403957e-19)
(133.9164 0.098131136 0)
(122.31329 62.081317 0)
(141.63467 48.338246 1.343545e-18)
(147.11443 31.773763 -1.1456723e-18)
(147.08378 18.146964 1.4851863e-17)
(143.43794 10.059396 2.5394857e-19)
(140.03575 4.6737103 -3.1711786e-19)
(137.33676 1.9814417 -3.5688356e-18)
(134.89504 0.032355957 5.6140251e-18)
(133.79393 -0.31336508 5.9782468e-18)
(126.72672 65.408344 1.4101602e-18)
(146.02888 49.960477 -4.4731122e-17)
(151.77765 31.000934 1.8374184e-18)
(149.39105 16.903759 -1.5456297e-17)
(145.06565 8.6660857 1.4976967e-19)
(141.02352 3.0962303 1.0204645e-19)
(137.28262 0.79433986 3.8373686e-18)
(134.82308 -0.61690837 -5.8168209e-18)
(133.84942 -0.44906387 -4.3966969e-19)
(133.16748 -0.72413197 -5.6344418e-18)
(134.88645 -1.3004203 4.24708e-18)
(137.72884 -0.35192428 0)
(141.14605 1.5141223 3.9163163e-19)
(145.6283 6.0707975 -1.2067849e-17)
(151.01144 13.553775 -2.3618723e-17)
(153.71517 27.235181 0)
(151.44825 46.830406 -1.616145e-17)
(132.02599 62.928671 -1.2030781e-18)
(132.86641 -0.95240357 0)
(134.32673 -2.0898337 -4.4087413e-18)
(137.27925 -1.6674225 0)
(141.75454 -0.26520764 5.0718326e-19)
(146.82067 4.1080473 2.5273864e-17)
(153.0038 11.205391 2.6338021e-17)
(158.49132 24.799672 -5.0865873e-17)
(156.84525 46.776303 5.5683015e-17)
(140.03048 66.664072 -4.4839854e-17)
(131.67205 -1.2628743 0)
(134.04903 -2.7830573 0)
(137.13531 -2.7929299 -8.7312985e-19)
(141.22346 -2.0953486 0)
(146.66597 1.2335481 -1.4255656e-17)
(153.6991 7.3063848 3.1504584e-17)
(159.81008 19.66301 4.6053816e-17)
(162.82954 41.657296 4.5864721e-18)
(146.45672 62.867927 -2.7678171e-17)
(130.78535 -1.4387921 0)
(133.0481 -3.5570377 0)
(136.27674 -4.0645529 8.9125454e-19)
(141.29953 -3.752934 -5.1117849e-18)
(147.18936 -0.83118589 -1.6108961e-17)
(154.87891 4.5646155 -3.4034796e-17)
(163.46065 15.97679 0)
(167.99601 39.474356 -1.1304247e-16)
(157.33829 64.992869 8.3206015e-17)
(129.31515 -1.490927 9.3574603e-20)
(132.44723 -4.2631862 -1.013306e-19)
(135.481 -5.002531 0)
(140.15528 -5.60364 2.2166607e-19)
(146.24647 -3.6379509 3.6306074e-17)
(154.39351 0.57320073 -1.746767e-18)
(163.51349 9.8111221 -6.7627661e-17)
(172.99193 32.213202 1.2500366e-16)
(164.23448 59.279586 -1.793789e-16)
(127.91695 -1.6425715 -1.0939225e-19)
(130.99557 -4.9284302 1.18639e-19)
(134.28256 -6.1655775 0)
(139.75668 -7.0725537 6.4962775e-18)
(146.11526 -5.565695 -2.0291503e-17)
(154.62283 -2.0437871 1.8043071e-18)
(165.34649 5.5810375 6.9940406e-17)
(176.49749 27.710103 0)
(178.1258 58.165797 1.8016295e-16)
(126.07613 -1.6419473 1.2962056e-19)
(130.04592 -5.5818645 7.058667e-18)
(132.90936 -6.7973603 1.9338251e-20)
(138.08284 -8.8069568 -3.6092569e-18)
(144.51707 -8.1705195 -1.787304e-17)
(153.08023 -5.7002761 0)
(163.6256 -0.53154683 0)
(178.63502 17.98857 1.5347246e-16)
(184.50496 50.233491 0)
(124.34036 -1.6564558 0)
(128.32965 -6.1183466 -7.3480784e-18)
(131.43768 -7.8398498 0)
(137.26389 -9.9854322 4.9448112e-18)
(143.88468 -9.7904214 1.6935513e-17)
(152.6503 -7.6961579 -3.708019e-17)
(163.39875 -4.0736186 0)
(179.08314 11.523242 -1.734859e-16)
(198.63146 46.132648 3.8544491e-16)
(122.281 -1.5447253 0)
(127.01236 -6.7362703 0)
(129.58452 -8.1326005 -7.1711097e-20)
(135.03201 -11.664891 6.0034979e-19)
(141.57245 -12.460756 -5.8450826e-19)
(150.39587 -11.127915 3.8274209e-17)
(160.0183 -10.204634 0)
(176.42841 -2.8036917 0)
(200.52313 29.372808 -3.8735722e-16)
(119.54387 -1.6746408 -4.0766557e-19)
(125.23708 -7.1832658 1.535144e-19)
(128.07751 -8.9956175 9.5507137e-18)
(134.17164 -12.374694 0)
(141.18657 -13.344103 0)
(150.7199 -11.916218 2.6229228e-18)
(160.34369 -10.224951 5.7469024e-17)
(176.77106 0.70122793 -2.7552344e-18)
(212.48054 32.111185 0)
(117.72984 -1.6661159 -4.402855e-19)
(123.87208 -7.8669263 1.5308826e-19)
(126.20047 -9.1993088 -8.5530401e-18)
(132.28673 -13.878075 0)
(139.76837 -15.05569 0)
(150.69728 -13.650689 -2.6722006e-18)
(161.80401 -11.008883 -1.7885566e-16)
(181.98794 1.5465586 2.9986577e-18)
(210.15384 28.998556 -7.8403785e-16)
(115.81281 -1.503693 0)
(122.07417 -8.1192659 2.7280795e-17)
(125.07771 -10.260539 0)
(131.82628 -14.992727 -3.2253921e-19)
(140.31417 -16.554744 3.5212896e-19)
(152.77126 -15.642894 2.9333627e-18)
(164.87577 -12.89482 2.5810743e-16)
(186.71858 1.5116309 -3.5532043e-18)
(196.7328 27.349396 7.425531e-16)
(113.91546 -1.2631559 4.1932165e-17)
(120.55569 -8.8372143 -2.5866672e-17)
(123.35257 -10.62626 2.4130281e-17)
(130.15422 -16.792398 4.7750483e-18)
(139.47247 -19.167656 2.7978211e-17)
(152.75385 -17.994042 -7.7349629e-17)
(167.10578 -16.003721 -1.3972384e-16)
(189.84483 -1.067651 -3.7257653e-16)
(178.9794 38.215189 0)
(112.11259 -0.95925664 -8.6503406e-17)
(118.64103 -8.9576603 3.1942518e-17)
(122.23495 -11.667735 -2.3342959e-17)
(129.48816 -17.980256 1.9186728e-18)
(139.44726 -20.845455 -2.7028519e-17)
(155.15705 -20.961703 -4.8834003e-18)
(169.64379 -18.092155 0)
(188.5147 -4.6869368 3.5536782e-16)
(145.60365 56.655438 0)
(110.45985 -0.59439459 9.1337062e-17)
(116.85389 -9.5397119 -3.0358532e-17)
(120.20025 -11.954675 2.8501812e-17)
(127.30298 -19.62767 -6.8607808e-18)
(138.78093 -23.502835 1.5866661e-18)
(154.6442 -23.322398 7.7166586e-17)
(170.70855 -20.313652 -1.5923858e-16)
(186.55084 -5.1164391 -4.4687678e-16)
(118.39326 77.143591 5.4965183e-16)
(108.97388 -0.14266413 -4.7272481e-17)
(114.77671 -9.4709681 1.1654527e-18)
(119.02483 -12.747183 -2.7643078e-17)
(126.26268 -20.717819 -2.1001566e-19)
(137.41384 -25.704017 2.2655475e-19)
(156.62392 -26.694929 8.6864824e-17)
(168.83914 -24.773302 3.2820767e-16)
(184.10801 -4.5596907 4.1847415e-16)
(101.27422 79.867214 -5.2063323e-16)
(107.68132 0.3910636 -6.7320086e-19)
(112.84857 -9.7445494 7.2198238e-19)
(116.77313 -12.979986 3.2038701e-17)
(123.54787 -21.991035 1.3658414e-17)
(137.18784 -27.975713 2.2711785e-17)
(155.18845 -28.9758 -1.7188625e-16)
(169.06771 -26.860912 -3.441487e-16)
(177.6185 -7.1290165 -4.7474881e-16)
(38.686537 46.215929 5.8610988e-16)
(106.65487 0.94216337 5.5244983e-17)
(110.6667 -9.4924655 -5.5546889e-19)
(115.57476 -13.519271 3.5718629e-18)
(122.32624 -23.108663 -1.324383e-17)
(134.89646 -30.443688 -2.0367869e-17)
(156.19554 -32.854221 8.7330755e-17)
(166.48147 -31.585647 1.7401075e-16)
(161.99918 -10.027628 4.5613744e-16)
(-10.309477 -3.6217602 -5.5814002e-16)
(-23.186383 7.0630803 -9.4491384e-16)
(149.43278 -9.1214447 -5.667057e-18)
(163.22343 -33.768791 3.0330456e-18)
(154.82281 -34.745767 -2.5857598e-18)
(134.21445 -32.680641 0)
(119.34384 -23.964135 -4.7846071e-19)
(113.27563 -13.576899 -7.4324693e-17)
(108.59039 -9.3996068 -4.8564511e-17)
(105.79773 1.6404183 -1.1311097e-16)
(-24.171237 9.0337155 9.1625065e-16)
(140.59088 -12.312754 0)
(161.67046 -39.194023 0)
(154.1607 -38.551508 2.1479758e-16)
(131.62361 -34.835079 0)
(117.88665 -24.522381 4.9434465e-17)
(112.12035 -13.646844 1.2343216e-16)
(106.69404 -8.8017493 4.6171428e-17)
(105.18523 2.1598378 -6.4354202e-17)
(-29.019776 13.997549 6.5913333e-18)
(130.3702 -12.013524 -5.3115055e-18)
(157.60427 -40.036458 0)
(152.06784 -39.765697 -2.1009384e-16)
(130.41152 -36.268491 0)
(114.66172 -24.921748 -4.9101428e-17)
(109.77283 -13.545421 -8.1527216e-17)
(104.73894 -8.3211869 -1.1769707e-18)
(104.83198 2.6801201 1.2119333e-16)
(-38.68734 9.1730989 1.686183e-15)
(122.49652 -15.67199 -1.2621866e-15)
(155.23085 -44.994261 6.1291115e-18)
(150.79794 -43.301564 0)
(127.73611 -38.04241 -2.1816209e-17)
(113.07892 -24.962582 0)
(108.60122 -13.254147 8.2675789e-19)
(103.00448 -7.5945889 -1.2438933e-18)
(104.5662 3.6038398 4.4977816e-19)
(-48.181991 7.8247141 -1.6207316e-15)
(112.36763 -15.141622 -1.9048304e-18)
(150.82049 -45.561442 4.9538634e-16)
(148.19762 -44.378808 -2.4200782e-18)
(125.48615 -39.511979 7.8151649e-18)
(109.70086 -25.117398 0)
(106.22574 -12.855385 9.9435467e-17)
(101.30331 -6.5235048 0)
(104.91304 3.9448685 0)
(-55.110393 6.2032574 5.8211228e-18)
(104.58606 -18.311092 1.1703003e-15)
(148.15655 -50.440957 -9.5144549e-16)
(146.91436 -47.621251 1.8324561e-16)
(123.44178 -40.674443 1.3348277e-17)
(108.13903 -24.756243 -7.9023451e-17)
(105.18066 -12.212631 -9.6379904e-17)
(100.19676 -5.4204834 -1.3697286e-18)
(105.3713 4.875791 1.4055552e-16)
(-62.345252 5.3910342 5.5671677e-18)
(94.837875 -16.624273 -1.1237339e-15)