/*--------------------------------*- C++ -*----------------------------------*\
  =========                 |
  \\      /  F ield         | OpenFOAM: The Open Source CFD Toolbox
   \\    /   O peration     | Website:  https://openfoam.org
    \\  /    A nd           | Version:  11
     \\/     M anipulation  |
\*---------------------------------------------------------------------------*/
FoamFile
{
    format      ascii;
    class       surfaceScalarField;
    location    "0.35923575";
    object      phi;
}
// * * * * * * * * * * * * * * * * * * * * * * * * * * * * * * * * * * * * * //

dimensions      [0 3 -1 0 0 0 0];

internalField   nonuniform List<scalar> 
1652
(
1.706212168242977
0.5337381654478366
-1.763034163104749e-13
1.172474003768354
0.5337381584214087
9.352518759442319e-13
0.6387445851092129
0.5335571564343677
6.363798377151397e-13
0.5291695192333994
-8.920197913653283e-12
0.1057111319376808
1.706212168247671
1.067476330876202
1.172474005829457
1.06747630284079
0.6387502467084303
1.067105512096666
1.053469950499109
0.1085008249893964
1.706212168244341
1.60121449629751
1.172474013702272
1.601214386897406
0.6388068709423262
1.600473907053415
1.575038105929393
0.1089061410214701
1.706212168319533
2.134952661525115
1.172474043756155
2.134952228741003
0.6388942753344913
2.133493291055637
2.097351280923781
0.1052259233756675
2.651191214817006
1.723711780177984
3.16742976378235
1.723711779125775
3.683668090058566
1.723711851207285
1.723712858917758
4.199906971681027
2.651189460804801
1.207473399360632
3.167421594012404
1.207473287058477
3.683647048715218
1.207475968301094
1.207511807740796
4.199820706252976
2.649581376995045
0.6899954983069421
3.166040571952997
0.6888415149385807
3.682702445211558
0.6872903507185038
0.6887247661679904
4.194525764929541
2.650874404265635
0.1168379364815877
3.273931903897284
0.04172464847638474
3.912954909111168
0.01811967448882917
4.554446208457832
0.01129149310179856
4.164891487030637
0.03501639667078416
4.12986113458721
0.03500481574773284
4.094845355983708
0.03485880943322017
0.03478328245449636
4.059708003037995
4.164989934673181
0.06971402252165976
4.130355905991538
0.06893656845185658
4.096344152977945
0.06750054678750761
0.06567963605456029
4.062546328103373
4.174765238937024
0.08242255119039227
4.160204120143614
0.07410499207244048
4.152940539378948
0.06155658332198727
0.05298189132591863
4.14797458725676
4.603055935865211
0.006229214668507232
4.647547081724598
0.005264146953758375
4.680683621528437
0.006631561476130865
4.712916739610473
0.00774120580257065
4.670365300542587
0.1044174486845166
-0.06872496343117379
4.585724725572903
0.1015334993637619
-0.01838187752355239
4.503680698313258
0.09666906447001511
-0.008941765106940364
0.08785840337508855
4.431572907877936
-0.006796810857330304
4.220096074802647
0.01360737677362639
4.275162779529339
0.02651434275375214
4.314339598756511
0.03726905346354104
0.0454098093742854
4.338142298225919
4.068844731816331
0.001073224030293862
4.081319681127781
0.002963598195453221
4.098854621093376
0.005655602333518028
0.009950107511794481
4.118433178841942
4.059561402451542
4.05993464523113
4.06125417197269
4.064432366874279
4.069795800316085
-0.01554488597558679
4.07767943662242
-0.02162142067216488
4.087623348714261
-0.02801775736899592
-0.03210788259234321
4.096916766262811
4.138847240745337
-0.05369582196564243
4.158817081935388
-0.06003522144270201
4.176997145240255
-0.06321980629803742
-0.06156505182692856
4.190974422315177
4.34763352269063
-0.07864933934677437
4.345713636206095
-0.06822780298908088
4.33366378816026
-0.05402387865308989
-0.04809055421420144
4.319208401510235
4.365060125694932
-0.007518757457487146
4.316426025500885
-0.005960757425197721
4.273216745315676
-0.003535280942057573
4.244285403347979
-0.002871890528283377
0.04263134766039739
4.228675832672442
-0.01747907733112344
0.05775035807641021
4.308730769736841
0.03447579269078915
4.199831754922802
4.101808267912402
0.04041897297288549
4.249425800833547
-0.1456619914320777
0.04760712794311206
4.301615962393357
0.03368327015969763
4.206143907742353
4.102832016435291
0.07818105125898062
3.985010192647561
-0.1400064132029162
0.04627117543748244
4.308885685477956
0.02810052672934815
4.211433788427517
4.098033370341303
0.174659726928621
3.682279381683329
-0.04233687849973117
0.06565764534099677
4.316411459641035
0.02803749674273071
4.226444755037939
4.10047651627236
0.07033245862130333
3.979813259181575
0.123557097319661
4.13243391550423
0.08028001574808785
4.217519745678989
3.56089649925546
0.1473568156316067
0.06627795261005287
3.876832397662716
0.08925470728417884
4.042790815981984
0.008556135612790783
4.094878543364254
3.434670729482174
0.111800015084359
0.05279882210718589
3.784937691618357
0.01845478517805577
3.955717859800893
-0.07013652336758625
3.934671539162625
3.332939958346222
0.05847368654024343
0.02149103993780521
3.705441841198505
-0.08849056349898476
3.86147237060725
-0.118551805474459
3.745431534811231
3.239258601939524
0.02716036139824762
0.1401543828762265
3.155193234356676
0.002273063352434823
0.1880840255922392
3.58408822265736
0.03402499471689191
3.734482841559148
3.642164247979721
0.1485182845942924
3.077803999303277
-0.006619712473883932
0.2559937714305222
3.472524692240893
0.1028827743775145
3.584916113067168
3.592147144843794
0.1404624079245917
2.99552098531386
0.00247486335556879
0.2945970846002249
3.346350295368943
0.1909889096313349
3.450090320185331
3.557356806188275
0.1099866591369305
2.890870322921992
0.01568642335141401
0.2666318578442671
3.221599851234525
0.2510951923693711
3.304259384072259
3.515469200438723
-0.2198607472224209
3.464402455892572
-0.1874178222898314
3.230011797967078
-0.04683165506794684
3.107243599785761
2.789609198987328
0.04415747736219311
-0.1620751115748956
3.402430336895544
-0.127106439441437
3.139807466109158
0.0015516395982349
3.004998058143597
2.707306033401951
0.06647360401631008
-0.1025101111492137
3.328922001543109
-0.05274357372173921
3.057280262149199
0.06928485949340107
2.911616027568178
2.64131147805104
0.1219616584957195
-0.03597188819011987
3.224300580244212
0.0338714438624671
2.967052024456892
0.155689285761332
2.819842865963682
2.569307932287695
0.2296406676192713
-0.3468347844553943
3.454809609506357
-0.5764961845717562
3.185791884784348
-0.715324190788535
3.00004520047448
2.633114283694252
-0.7690707092565452
-0.3002095648238571
3.659647097675482
-0.5257818885955996
3.407275105565521
-0.6286983757371576
3.176612542292061
2.281263482076922
-0.2632237201998161
-0.2736591485899928
3.844640493578519
-0.482140974884205
3.621427974699353
-0.5140377132935985
3.331027200986175
1.803004525964939
-0.02966580442514162
-0.240261269562513
4.011164337723183
-0.439478050926897
3.827811474076607
-0.3630671840463851
3.438908671496881
1.417737890749565
-0.01228132312941382
0.1576830478531015
1.459286817974625
-0.01047798896413908
0.207584515043229
3.529873540265016
0.1042121327274285
3.938192305767873
4.062972545822543
0.16562967909196
1.439679744889732
-0.007978812151912835
0.1877444894212777
3.625679206559997
0.09472393827198738
4.050908220118403
4.10804522419004
0.1503823133440799
1.343317967080708
-0.00339383414375323
0.1686299829608958
3.723215803655326
0.08924800900163099
4.160211730495448
4.149920409777822
0.1199112548764925
1.2542807937729
0.002202998024909853
0.1500458462358489
3.816533116714918
0.08903445837434537
4.257714096085619
4.196621990455076
-0.2359535259163277
1.570205629873753
-0.01567245066563101
-0.1845873682433697
3.985442519232536
-0.04698161974148696
4.197994474060773
4.097716126047658
-0.2649900383709191
1.927854859532883
0.005974309502265296
-0.1781044998383632
4.069002643635481
-0.03211389757688443
4.113301762686838
4.060050627512126
-0.2623650199821481
2.24516303035556
0.03358774067173721
-0.1344445336090981
4.102205784067324
-0.0206305268228848
4.067474885976491
4.056535937784256
-0.2321303469317947
0.08786631993339961
2.498262002961305
-0.111383096020597
4.099522911259224
-0.01648748855024151
4.039832147497514
4.056691418684171
0.3370438896067405
-0.4386198839426618
-0.01287175867648162
5.615952147763892e-12
0.8928700271388513
-0.4130635608803597
-3.135269821541442e-13
1.633811461857562
-0.4646882181174723
7.505107646466058e-13
-0.517101401526558
-1.273425809245055e-11
0.334116239954406
-0.8918415168878036
-0.01277418448229117
0.9068224828251163
-0.8655128007774802
1.634737181421461
-0.9425093410786398
-1.035759546704373
0.3307524578600519
-1.351363925133045
-0.01558050256371147
0.9266036371625131
-1.343376621062573
1.63884424551961
-1.451593702902044
-1.556744033479764
0.3240820413341494
-0.01607261268958186
-1.703816933051376
0.9567821367974114
-1.851424981287345
1.647527608192286
-1.983871162369706
-2.082285938470454
-0.2321303469317499
-2.245163030357803
0.08786631993334278
2.498262002958006
-0.1113830960177113
-4.102205784070823
4.099522911258503
-0.01648748854627047
-4.067474885975084
4.039832147495641
-4.056535937782018
4.056691418679855
-0.2623650199810579
-1.927854859536425
0.03358774067220321
-0.1344445336110471
-4.069002643645347
-0.02063052682501754
-4.11330176269019
-4.060050627516384
-0.2649900383722392
-1.570205629879624
0.005974309502506298
-0.1781044998419421
-3.985442519239053
-0.03211389758160865
-4.197994474062132
-4.097716126048075
-0.2359535259165236
-1.254280793775271
-0.01567245066543248
-0.1845873682478777
-3.816533116726267
-0.04698161974575665
-4.257714096085396
-4.196621990447539
-0.1042121327224301
4.062972545840766
-4.01116433774811
-0.2075845150314033
3.938192305790022
-3.827811474106989
-0.1576830478466848
3.529873540241987
-3.438908671467111
1.459286817946351
-1.417737890727361
-0.01047798896436721
-0.09472393826607711
4.108045224193896
-0.1877444894072938
4.050908220133897
-0.1656296790868997
3.625679206547451
1.439679744879498
-0.00797881215203212
-0.0892480089959945
4.149920409771681
-0.1686299829437704
4.160211730503358
-0.150382313338914
3.723215803652896
1.343317967078253
-0.003393834143508898
-0.08903445836747564
-0.1500458462196096
-0.1199112548715005
0.002202998024850057
0.3630671840501709
-1.803004525951752
-0.01228132312941501
0.4394780509421035
-3.33102720097235
0.240261269577619
-3.6214279747263
-3.844640493598306
0.5140377132976921
-2.281263482064728
-0.02966580442439124
0.4821409748990388
-3.176612542287472
0.2736591486011464
-3.407275105587114
-3.659647097690281
0.6286983757444409
-2.633114283690133
-0.2632237201986566
0.5257818886104632
-3.000045200472366
0.3002095648340123
-3.185791884796422
-3.454809609512346
0.7153241907955701
-2.569307932287816
-0.7690707092584097
0.5764961845837695
-2.819842865964973
0.3468347844593135
-2.967052024462795
-3.224300580243646
-0.2198607472223472
3.464402455903445
-3.515469200454127
-0.1874178222828368
3.230011797982464
-3.304259384095015
-0.04683165506310483
3.107243599774487
-3.221599851217228
2.789609198977002
-2.890870322910341
0.04415747736046138
-0.1620751115676663
3.402430336902444
-0.1271064394332556
3.139807466117714
0.00155163960398419
3.004998058134834
2.70730603339503
0.06647360401731273
-0.1025101111468051
3.328922001545596
-0.05274357371377436
3.057280262155722
0.0692848594975255
2.911616027563222
2.6413114780476
0.1219616584957784
-0.03597188818595098
0.03387144387170016
0.1556892857646106
0.2296406676195495
0.1099866591397449
-2.995520985303319
0.0156864233517473
0.2666318578506295
-3.346350295359529
0.2510951923720685
-3.450090320199797
-3.557356806199748
0.1404624079274793
-3.07780399929842
0.002474863355255374
0.2945970846075668
-3.472524692237501
0.1909889096357008
-3.584916113074656
-3.592147144851168
0.1485182845974912
-3.155193234349862
-0.006619712475160133
0.2559937714370994
-3.584088222660399
0.1028827743773065
-3.734482841562743
-3.642164247981834
0.140154382877979
-3.239258601939336
0.002273063351560078
0.1880840256005601
-3.745431534813791
0.03402499472060649
-3.861472370608035
-3.705441841196327
0.07033245862254311
3.979813259182289
-4.100476516270605
0.123557097320704
4.132433915505331
-4.226444755035973
0.08028001574951649
4.217519745682495
-4.316411459643299
3.560896499260636
-3.682279381685698
0.1473568156309565
0.06627795261204972
3.876832397663932
0.08925470728528523
4.042790815984103
0.008556135614543714
4.09487854336736
3.434670729480529
0.111800015082555
0.05279882210896958
3.784937691620123
0.01845478518381105
3.955717859805085
-0.07013652336743947
3.934671539170458
3.332939958347843
0.05847368654037766
0.02149103994059987
-0.08849056349559026
-0.1185518054727928
0.02716036139855649
-4.09803337034077
-0.02803749674191869
-4.102832016437137
-0.02810052672833385
-4.101808267913873
-0.03368327015850259
-0.03447579269124057
-4.096916766263867
-4.211433788428697
-0.06565764534348079
-4.206143907740982
-0.04627117543825937
-4.19983175491716
-0.04760712794283223
-0.05775035807591505
-4.19097442231048
-4.308885685480859
-0.1746597269269297
-4.30161596239461
-0.07818105125745362
-4.308730769736092
-0.0404189729738037
-0.04263134766019572
-4.31920840151141
-3.985010192654236
-0.04233687849991513
-4.249425800834608
-0.1400064132037069
-4.228675832671372
-0.1456619914299233
-4.244285403348783
-0.01747907733097812
-0.03210788259060882
-4.087623348713373
-0.06156505182608457
-4.176997145235362
-0.04809055421312608
-4.333663788164297
-4.273216745316792
-0.002871890528059085
-0.02801775737010215
-4.077679436622505
-0.06321980629635721
-4.158817081930073
-0.05402387865123764
-4.345713636212373
-4.316426025499317
-0.003535280940130864
-0.02162142067078432
-4.069795800317617
-0.06003522144238843
-4.138847240738797
-0.06822780298818698
-4.347633522699171
-4.365060125694077
-0.005960757425009844
-0.01554488597263015
-4.064432366879762
-0.05369582196664757
-4.118433178834673
-0.07864933934632917
-4.338142298235745
-4.43157290787922
-0.007518757456643654
-0.001073224032172693
4.059561402450856
-4.059708003033641
-0.01360737677569474
4.068844731799859
-4.062546328082776
-0.1044174486883123
4.220096074817652
-4.147974587273622
4.670365300552063
-4.712916739621416
-0.06872496343062914
-0.002963598199914097
4.059934645230944
-0.02651434275877734
4.081319681113929
-0.1015334993671188
4.275162779543582
4.585724725580246
-0.01838187752418766
-0.005655602336033128
4.061254171974838
-0.03726905347115372
4.09885462108153
-0.0966690644742369
4.314339598768654
4.50368069831773
-0.008941765108418626
-0.00995010751501324
-0.04540980937900491
-0.08785840337780515
-0.006796810857045144
-0.05298189133069392
-4.680683621536854
0.007741205802321294
-0.0656796360670972
-4.1529405393862
-0.03478328245972895
-4.096344152969742
-4.094845355983205
-0.06155658332721275
-4.647547081729429
0.00663156147592936
-0.0675005468005877
-4.160204120142515
-0.03485880943639708
-4.130355905995597
-4.129861134593213
-0.07410499207909371
-4.603055935863242
0.005264146953494975
-0.06893656846367135
-4.174765238929167
-0.03500481574832592
-4.164989934691116
-4.164891487032218
-0.08242255119484404
-4.554446208443434
0.006229214669577932
-0.06971402253424286
-4.194525764914128
-0.03501639667430545
-4.199820706280319
-4.199906971686092
-0.6887247661660949
-3.912954909080517
0.01129149310280503
-1.20751180773307
-3.682702445200508
-1.723712858923176
-3.683647048731255
-3.683668090058949
-0.6872903507164676
-3.273931903864541
0.01811967449082769
-1.207475968293678
-3.166040571948755
-1.723711851208835
-3.167421594025657
-3.167429763786014
-0.6888415149381866
-2.650874404237437
0.04172464847366247
-1.207473287054576
-2.649581376994459
-1.723711779126109
-2.65118946081211
-2.651191214823112
-0.689995498306933
-2.097351280911871
0.1168379364743069
-1.207473399360543
-2.133493291060472
-1.723711780188848
-2.134952228742953
-2.13495266152912
1.706212168246033
0.5337381654428741
1.17247400377297
0.5337381584280596
0.6387445851124327
0.5335571564378403
0.5291695192192865
0.1057111319412934
1.706212168248594
1.067476330870287
1.172474005829703
1.067476302840125
0.6387502467088992
1.067105512100504
1.053469950490642
0.1085008249914228
1.706212168246498
1.601214496294722
1.172474013702156
1.60121438689515
0.6388068709415989
1.600473907056589
1.575038105928001
0.1089061410205118
1.706212168319974
1.172474043753763
0.6388942753315745
0.1052259233733703
0.1054762299278012
0.1054762299319431
0.1054653870302327
0.1079721192670664
0.1059225084914751
0.1078287815595917
0.1026793256868777
0.1077871358525738
0.1079721192645217
0.1054653870345616
0.1076782088958438
0.1076782088982714
0.1081688369181053
0.1066957000713395
0.09903952896307763
0.1111325156372509
0.1078287815605984
0.1059225084949014
0.1066957000719598
0.1081688369207143
0.1063680739338018
0.106368073934084
0.09589780740387742
0.108924392892385
0.1026793256908514
0.1077871358543801
0.09903952896621954
0.1111325156392187
0.09589780740820526
0.1089243928920426
0.09567818659886132
0.09567818660385151
-0.03916483703592055
0.1340425021446735
-0.06253206007249101
0.1313125778485349
-0.08851466510098838
0.1359908705399952
0.1348760679208755
-0.005682178864762522
0.138860964704704
-0.01617534732754988
0.140866943169674
-0.0270598958307679
0.1458977643997664
0.1484336243706872
-0.0009897552765684714
0.1391852396919226
-0.007344063065737039
0.1464985326437344
-0.0131344397933707
0.1509051889820331
0.152507687122688
-0.001218713800780535
0.1398031817108299
-0.006135057607184413
0.1507758253861674
-0.009219361090916645
0.1533082434925259
0.1538215641403874
0.1533031425962408
0.006169577767887124
0.1533721155513021
0.004948546081622485
0.1526201193381907
0.007183184356819583
0.00666956115918349
0.1537745060500757
0.1535206908518711
0.005391476003567708
0.1538379827620757
0.004325676258813138
0.153916166560569
0.006914472162340368
0.003199575724415038
0.1574316476283908
0.1528814259519108
0.002725278929289809
0.153862947282487
0.003033497115155825
0.1547047860615192
0.005885398152102206
-0.009752646217997762
0.1676840365236276
0.1419776625304421
0.1446515708365376
0.1502910806596244
0.1404652922648753
0.140298928111916
-0.05510088664481741
0.13109281640777
-0.00887037551191508
0.1296688152824927
-0.006961200333978679
-0.006209411109975055
0.1296551368508019
0.1446496399095431
-0.04222970537890414
0.1388103051204458
-0.002739828892798613
0.1356410329172915
-0.003209402654147764
-0.003925134251969609
0.1339573125971804
0.1511964792969084
-0.02570025215460606
0.1456023240667839
0.003129669778626915
0.1416373108963457
0.001326778135092022
8.87024401107217e-05
0.1382176050821314
0.1147562749436376
0.1181759391875558
0.1201040836495706
0.1208094129435023
0.129920130587036
-0.006882552855088736
0.1308442116802787
-0.005824232579837024
0.1320144530690731
-0.003767134635457331
-0.003038512311028335
0.1331208036494331
0.1327150023161455
-0.004747781810389817
0.1322449057377665
-0.004284432409242395
0.1322701337637552
-0.002830379127918586
-0.002528206391054527
0.1326951520246171
0.1355128878442483
-0.001149130191648445
0.1336078994842961
-0.001296574980051091
0.1325487666429548
-0.0007878594386861448
-0.001115519828026046
0.1321949008486039
0.1205604718522778
0.1203303351852177
0.1204691694517453
0.1203652799560593
0.1377886062219288
-0.02482774171533711
0.1348830155836153
-0.1504990578674021
0.1107602049042809
-0.1229672862842525
-0.01104229296927783
0.08051174013364494
0.1322029750012616
-0.02831541389125417
0.1023258506109967
-0.1270266090969002
0.05610867835242266
-0.08144852117989115
-0.002616777565000838
0.0467970069668963
0.1239357533272323
-0.02441100672009899
0.05391371975069223
-0.06299648950173653
0.002564762555264652
-0.0352410209794059
-0.006634938040001148
0.004849453162397599
0.09095701439417342
0.022053792340536
-0.0173236852214389
-0.02687790572364435
0.1047431545592582
0.1254182152443868
0.1177022438138941
0.1030276178885215
0.1245919809856641
0.05756191137422673
0.02675338979642539
0.1298441144365335
0.08613678530417074
0.08814337573146724
0.1121677635913367
0.08104248367077793
0.1233710986123977
0.05040402507598563
0.02496179341565408
0.129595430200261
0.05318309364714621
0.04164888721048721
0.09764547900615364
0.04052014980697405
0.1175439522278843
0.03378406490456487
0.02014547239314612
0.1261443366023405
0.0160636308668928
0.06047046727822558
0.09669651533249575
0.1200202614474337
0.1350667247768591
0.003068435500372835
0.1400250324130529
-0.006417390944752355
0.1434898307922443
0.001381366342493751
0.0111215227111916
0.1477709455285305
0.1347764148440435
0.005054858643787297
0.1395688139972134
-0.00260357464085148
0.1424688754915873
0.001754610645335775
0.006794945759616811
0.146499819951641
0.1319898314527078
0.00620528292521505
0.1376972859351116
0.0001345276891294711
0.1417126932473791
0.00146140717503962
0.003119688888019612
0.1452932739298958
0.1330968450017193
0.1388413750728737
0.1429868053010006
0.1462795777195739
0.1586638178892417
0.03178750762621074
0.1726591063512542
0.05121747219901673
0.1922476019850746
0.1023174524618941
0.1805136461148192
0.2412399967775613
0.1566728406379204
0.01993616173053603
0.1704611635311391
0.03610923253352816
0.1914989165976661
0.08113536299100116
0.1229081185315887
0.2492073914462808
0.1538903083241572
0.009770544132304715
0.1672302415752831
0.02141994102404854
0.1942631547412085
0.0534521455286765
0.03428852955032691
0.2830991282960927
0.1546647494823303
0.1746624852910608
0.227371189423999
0.261530874947647
0.1220014682012041
-0.6494854321245624
0.01214931651968492
-0.1526510173972755
-0.002597180611089006
-0.013847056480087
-0.009765799205046742
-0.003860815380919941
0.08463898988419243
-0.4845210717166127
0.001807020428474239
-0.06912186059785023
-0.004315351464206535
-0.006799074555127246
-0.006316660238171286
-0.006748332795390064
0.04503313751075533
-0.246329819373805
-0.002596057405892269
-0.02080259069153802
-0.005881516355368208
-0.00257690909313511
-0.003320604306263481
-0.008045825624211312
0.01517958300576618
-0.004926163553135384
-0.006659538391670421
-0.009082511346608726
-0.005367104255920468
-0.007899587562409969
-0.006842756850895484
-0.005047260660608122
-0.008519357048638643
-0.0008104517134853439
0.003538187753064664
-0.009128784775886595
-0.008192626585567336
-0.005611320394192489
-0.009147317318607672
-0.002763089713960862
-0.009653915722710169
0.0007067069360547386
0.003168536113194904
-0.00847671713351035
-0.009688842312362011
-0.002882226550073846
-0.009469071557122059
-0.001545599791656478
-0.00870283980104157
0.0009291183188674806
0.002634954420262133
-0.007328827996968915
-0.0107924078365882
-0.0109499185377607
-0.009120751090507541
-0.005723262730916685
-0.008421184879721055
-0.01576915220614852
0.001943302469946149
-0.002849275339418339
0.02247394048737715
0.0146206761994567
0.07047430227333137
0.04243691245088622
-0.009508995043503155
-0.01396198656851527
-0.00705359796326762
-0.003681648390651451
0.008909231200930817
4.095228241213222e-05
0.04770604847290953
0.03388611818233821
-0.01176751513234852
-0.008575052780305618
-0.01145438484170293
-0.002555777487647008
-0.003607168857765908
-0.006445965540255227
0.02557375955622772
0.02032701390444622
-0.01309193248412856
-0.01388653705771177
-0.01901286548398369
0.00897632638193354
0.04129080942503158
-0.006356898488244667
0.01063497800141244
0.03999965211182595
-0.007445524111659794
0.01126611569350403
0.03677254136010048
-0.0123733152094706
0.01704059856209808
-0.0169692463907648
0.02818008473399792
0.02546638243461945
0.03266481025737238
-0.003783968813069125
0.03078359582656193
-0.004784263939889406
0.02748591113328119
-0.008732338012793869
-0.01083089941917312
0.02110011273905601
0.0184978648464631
-0.001709273116846249
0.01641360231014184
-0.002220808234236017
0.01257224429560355
-0.004437116481749468
-0.005015216704105617
0.006837961128395895
0.006533490889693808
0.004582912401248994
0.0002902052530519561
-0.004408825495542959
-0.006411182211096995
0.002584416451770342
-0.006056303012300306
0.0007784030219313946
-0.003634287556555038
-0.0008802631857520067
-0.001874245508674412
-6.231126725708691e-14
0.003495942350146289
0.006009768297099913
0.001028006918408202
0.003639548765437008
-4.023693792946925e-05
0.0009232671119149306
-0.0009164571065566375
-2.686045830202488e-14
0.01669140823722249
0.01018031201676299
0.01132041129763135
0.008928239630212106
0.00568085421060633
0.006652685835356144
0.005073052612579326
1.68962066560141e-14
0.02174021638232752
0.01431348623924186
0.007707610821829997
5.664912983149861e-14
-0.001874245508669128
0.003634287556427862
-0.0009164571065698977
4.023693785255855e-05
0.005073052612611317
-0.005680854210541868
-0.007707610821701717
0.01287175867642598
-0.0008802631857433296
0.006056303012285304
0.0009232671119113051
-0.001028006918480096
0.006652685835409521
-0.0113204112976933
-0.01431348623923794
0.01277418448238858
0.0007784030218911699
0.006411182210926056
0.003639548765436158
-0.003495942350096891
0.00892823963027679
-0.01669140823723737
-0.02174021638234572
0.01558050256371725
0.002584416451841254
0.004408825495605853
0.006009768297098813
-0.0068379611284696
0.01018031201679419
-0.02110011273906628
-0.02818008473415365
0.01607261268953844
-0.03677254136002045
-0.01696924639063465
0.02546638243475607
-0.03999965211184105
-0.01237331520949618
0.01704059856204893
-0.04129080942501122
-0.007445524111681118
0.01126611569355662
-0.006356898488321966
-0.04243691245091605
0.01063497800148603
-0.02748591113330699
-0.01083089941919707
-0.03078359582654754
-0.008732338012839277
-0.03266481025738432
-0.004784263939933038
-0.003783968813133476
-0.03388611818243213
-0.01257224429564284
-0.005015216704082708
-0.01641360231014018
-0.004437116481712963
-0.01849786484654531
-0.002220808234261646
-0.001709273116868495
-0.02032701390452642
-0.0002902052530946997
-0.004582912401287199
-0.006533490889767034
-0.008976326382037346
0.01901286548387703
-0.02557375955627401
0.01388653705768893
0.006445965540432697
0.01309193248411576
0.002555777487589062
0.008575052780154607
0.00572326273094171
0.003607168857701772
-0.04770604847296561
0.01145438484163736
-4.095228264434925e-05
0.01176751513225884
0.003681648390557582
0.01396198656856365
0.007328827996975392
-0.008909231201086977
-0.07047430227336463
0.007053597963170302
-0.01462067619969414
0.009508995043408103
0.002849275339401325
0.01576915220587578
0.00847671713349178
-0.02247394048753169
-0.001943302470045902
0.008421184879570822
0.009128784775876848
0.008519357048647636
0.003538187753072009
0.006842756850971618
-0.0008104517134480786
0.005367104255973632
-0.005047260660743701
-0.007899587562458213
0.003860815380875625
0.009653915722705233
0.003168536113185995
0.009147317318645249
0.0007067069360558835
0.008192626585578844
-0.002763089714047495
-0.005611320394239613
0.006748332795396011
0.00870283980102452
0.00263495442027558
0.009469071557148141
0.0009291183189395202
0.009688842312369319
-0.001545599791702955
-0.002882226550105367
0.008045825624210606
0.009120751090554848
0.01094991853780143
0.0107924078366127
0.009082511346609694
0.002597180611061865
-0.009765799204960849
-0.01214931651917936
-0.01384705647983347
-0.1220014682002267
-0.1526510173965892
-0.6494854321251617
-0.2412399967772358
0.004315351464249086
-0.006316660238095108
-0.001807020428292878
-0.006799074555027133
-0.08463898988353397
-0.06912186059759566
-0.4845210717165805
-0.2492073914458857
0.00588151635539723
-0.003320604306253502
0.002596057405967893
-0.002576909093089402
-0.04503313751046607
-0.02080259069146603
-0.2463298193737526
-0.2830991282958494
0.006659538391676168
0.004926163553166951
-0.01517958300569978
-0.2615308749478083
-0.1922476019851025
0.1805136461155165
-0.1726591063511907
0.1023174524627659
-0.1586638178892693
0.05121747220023265
0.0317875076269718
-0.1477709455285953
-0.1914989165975728
0.1229081185312946
-0.1704611635311415
0.08113536299123542
-0.156672840637769
0.03610923253448461
0.01993616172987389
-0.1464998199516718
-0.1942631547409358
0.03428852955018746
-0.167230241575248
0.05345214552893973
-0.1538903083239573
0.02141994102528133
0.00977054413286027
-0.1452932739300054
-0.2273711894235969
-0.1746624852913066
-0.1546647494821592
-0.1462795777196156
-0.1434898307922503
0.01112152271122413
-0.1400250324129183
0.001381366342219081
-0.1350667247763333
-0.006417390944135182
0.003068435500213407
-0.1298441144364323
-0.1424688754916671
0.006794945758387794
-0.1395688139967861
0.001754610647752841
-0.1347764148437186
-0.002603574640402506
0.005054858644024995
-0.1295954302001499
-0.1417126932472132
0.003119688889156147
-0.1376972859347445
0.001461407174739637
-0.1319898314522899
0.0001345276890879488
0.006205282924776845
-0.1261443366023201
-0.1429868053010019
-0.1388413750727392
-0.1330968450015548
-0.1200202614471872
-0.1245919809857791
0.02675338979628294
-0.1177022438139299
0.05756191137396094
-0.1047431545593971
0.1030276178878979
0.1254182152446043
-0.08051174013386445
-0.1233710986124656
0.02496179341565552
-0.1121677635913524
0.0504040250748613
-0.08613678530448202
0.08104248366927824
0.08814337573240794
-0.04679700696704962
-0.1175439522278335
0.02014547239313602
-0.09764547900628825
0.03378406490412689
-0.05318309364732621
0.04052014980765684
0.04164888720937399
-0.004849453162756867
-0.0966965153321267
-0.06047046727789397
-0.01606363086712265
0.02687790572398754
-0.1107602049047485
-0.01104229296930154
-0.1348830155840698
-0.1229672862848997
-0.1377886062221263
-0.150499057866344
-0.02482774171499152
-0.1331208036497073
-0.05610867835277523
-0.002616777565589312
-0.1023258506116494
-0.08144852118030649
-0.1322029750015246
-0.1270266090964477
-0.0283154138909682
-0.132695152024818
-0.002564762555479203
-0.006634938039846383
-0.05391371975130164
-0.03524102097944409
-0.1239357533275089
-0.06299648950165798
-0.02441100671994126
-0.1321949008487439
0.01732368522139907
-0.02205379234064084
-0.0909570143943056
-0.1203652799560207
-0.1320144530691502
-0.003038512310357705
-0.1308442116800959
-0.00376713463513248
-0.1299201305870291
-0.005824232580011718
-0.006882552855342644
-0.1296551368506429
-0.1322701337638031
-0.002528206390526228
-0.1322449057376186
-0.002830379127454263
-0.1327150023160478
-0.004284432409500133
-0.00474778181032004
-0.133957312597159
-0.1325487666428396
-0.001115519827793204