/*--------------------------------*- C++ -*----------------------------------*\
  =========                 |
  \\      /  F ield         | OpenFOAM: The Open Source CFD Toolbox
   \\    /   O peration     | Website:  https://openfoam.org
    \\  /    A nd           | Version:  11
     \\/     M anipulation  |
\*---------------------------------------------------------------------------*/
FoamFile
{
    format      ascii;
    class       volScalarField;
    location    "0.1625";
    object      Ma;
}
// * * * * * * * * * * * * * * * * * * * * * * * * * * * * * * * * * * * * * //

dimensions      [0 0 0 0 0 0 0];

internalField   nonuniform List<scalar> 
880
(
1.443353270571932
1.443353270571932
1.443353270548601
1.44334820808441
1.443353270571932
1.443353270571932
1.443353270418786
1.44332246351813
1.443353270571932
1.443353270571933
1.443353269205651
1.443302969334107
1.443353270571932
1.443353270571932
1.443353250365234
1.442944016109224
1.443353270571932
1.443353270571932
1.443353270571838
1.443353270526388
1.443353270577915
1.443353270389046
1.443353273916739
1.443353196625359
1.443355662187024
1.443346996284903
1.443014057106647
1.444216088694432
1.427677906321199
1.388620436781428
1.366819686443494
1.360653511654886
1.443353186643212
1.443353117059321
1.443351174143773
1.443350963657553
1.443349976188139
1.443341940144092
1.443330026948321
1.443330108991484
1.441768308524007
1.440255288250823
1.439267685639902
1.43866241412833
1.357174122240267
1.346800825531161
1.350602042979395
1.333765883480216
1.366199058809609
1.399677786761742
1.428902839516228
1.44569018954568
1.435567773514235
1.429118072244607
1.430861274247726
1.43742232543997
1.443285086858065
1.443079195198872
1.442854634408617
1.442925833840495
1.443347352708353
1.443335512740563
1.44331204065851
1.443282659978678
1.443273776205608
1.443276741543431
1.443291973349575
1.443316139067023
1.443166530011079
1.443310893702833
1.443436045148556
1.443474627851936
1.441485122583635
1.444890265737721
1.446850342226587
1.447295477547129
1.458620983747817
1.465794107665662
1.467947091519658
1.466718261626554
1.462909127013136
1.446581105667671
1.44343689019174
1.443338238663931
1.458212360027227
1.445210073246227
1.44338163703013
1.443349813701566
1.450424323495841
1.444001872561195
1.443356962367062
1.443352861552902
1.410747282771927
1.443006403661183
1.443354441923622
1.443354343328595
1.443353132816138
1.443352528113984
1.441106793643475
1.198459776875024
1.443351206736209
1.443328139456988
1.432792565032136
1.06433498717403
1.443349824963266
1.443218836721678
1.419082589300475
1.013026811782089
1.443333072803351
1.443089044894029
1.404860641682003
1.007085723592027
1.004607046900738
1.385310829621269
1.442747762005125
1.443320997486929
1.014097615544728
1.366761269617727
1.442378304730162
1.443267538631156
1.019659578803343
1.34851983702002
1.441841822857373
1.44322634686891
1.025342318873754
1.326401768690576
1.440967915184768
1.443135784605238
1.443017931968213
1.44014264468991
1.30422368238631
1.034391350526507
1.442863567941254
1.437750659279896
1.290072468428247
1.069058258540205
1.443103733210626
1.437969423045632
1.316513507185454
1.146949479416005
1.44191600242333
1.439356914691419
1.364485196883123
1.251819375194715
1.442608815669527
1.438064144219105
1.416488941154675
1.446705592285141
1.441753520097875
1.447097588521655
1.480623416234801
1.618236567660044
1.442548900950742
1.45054142498448
1.48788650323204
1.673514821373567
1.443455449489028
1.446878151019822
1.461229661612769
1.501112814850132
1.281635731489919
1.438370379431044
1.444418113974516
1.443424536256909
1.154801682265512
1.417091953402549
1.442865712868726
1.443395270776498
1.06201309847951
1.400645792129571
1.442216751823018
1.443369289500692
0.9708921946876189
1.382949990942878
1.441481047269499
1.443345859844107
1.015007382318204
1.390519680723096
1.441906647462309
1.443347300977832
1.125932295183205
1.408549108835366
1.442697483889755
1.443351127925499
1.237415390201362
1.42426070270745
1.443114738285022
1.44335270245342
1.337307534594471
1.436560234296944
1.443345356610274
1.44335316328135
1.292306108851301
1.429535048722917
1.442869491680802
1.44334688835677
1.303272265105485
1.430289994044983
1.442894281704331
1.443347061640797
1.304116779127545
1.429506771492695
1.442889138199857
1.44334732593682
1.299718825414207
1.430324404019124
1.442970974189175
1.443348560959833
1.337307534598886
1.436560234302044
1.443345356620928
1.443353163261161
1.237415390202656
1.424260702711123
1.443114738307474
1.443352702453387
1.125932295182757
1.408549108825509
1.442697483887941
1.443351127924947
1.015007382310274
1.390519680706106
1.441906647458339
1.44334730098407
1.443424536243735
1.44441811396624
1.438370379428387
1.281635731487755
1.443395270754169
1.442865712861511
1.417091953397557
1.154801682257133
1.443369289517107
1.442216751807158
1.400645792131302
1.062013098475925
1.443345859841705
1.441481047262123
1.38294999092425
0.9708921946915453
1.501112814871052
1.461229661627748
1.446878151036611
1.443455449506959
1.673514821390567
1.487886503248549
1.450541425004387
1.442548900979453
1.618236567657979
1.480623416251782
1.44709758852801
1.44175352009537
1.446705592284647
1.416488941159153
1.438064144215341
1.442608815610805
1.443017931972903
1.440142644683934
1.304223682373756
1.034391350519809
1.44286356794092
1.437750659255902
1.290072468419964
1.069058258535991
1.44310373309894
1.437969423048619
1.316513507187506
1.146949479414258
1.441916002529477
1.439356914676711
1.364485196881565
1.251819375195074
1.025342318861969
1.326401768680435
1.44096791513878
1.443135784604846
1.019659578787929
1.348519837008239
1.441841822896549
1.443226346860287
1.014097615539958
1.366761269613056
1.442378304678245
1.443267538641209
1.004607046895468
1.385310829632084
1.442747762030281
1.443320997496901
1.443353132811953
1.443352528103286
1.441106793645544
1.198459776881608
1.443351206743976
1.443328139468956
1.432792565019778
1.064334987183603
1.443349824977823
1.443218836734182
1.419082589293887
1.013026811773396
1.443333072823911
1.443089044859911
1.404860641687882
1.007085723595509
1.443354343311848
1.443352861544233
1.443349813702544
1.443338238669654
1.443354441941582
1.443356962361331
1.443381637012967
1.443436890204502
1.443006403656844
1.44400187255637
1.445210073260915
1.446581105663465
1.410747282772485
1.450424323493118
1.458212360027957
1.462909127013333
1.4433161390892
1.443474627851033
1.44729547753348
1.466718261619342
1.443291973349921
1.443436045153204
1.446850342215475
1.467947091519137
1.443276741529343
1.443310893701976
1.444890265740585
1.465794107668084
1.443273776204024
1.443166530007594
1.441485122579908
1.458620983756375
1.44334735272756
1.443285086871032
1.435567773499803
1.36619905880941
1.443335512761621
1.44307919520528
1.429118072239066
1.399677786770744
1.443312040670673
1.442854634393553
1.430861274243263
1.428902839524081
1.443282659988478
1.442925833825975
1.437422325437645
1.445690189555086
1.33376588347712
1.438662414114121
1.443330109003721
1.443350963682802
1.350602042970596
1.439267685638414
1.443330026955078
1.44335117407222
1.34680082551711
1.440255288273292
1.443341940144369
1.443353117109359
1.357174122233529
1.441768308536777
1.443349976192271
1.443353186636281
1.360653511652624
1.444216088665047
1.443353196622738
1.443353270520662
1.366819686450542
1.443014057152715
1.443353273916022
1.443353270571984
1.388620436776208
1.443346996291053
1.443353270388577
1.443353270571933
1.427677906296186
1.443355662191873
1.443353270577799
1.443353270571934
1.443353270571932
1.443353270571933
1.443353270543013
1.443348208105282
1.443353270571931
1.443353270571932
1.443353270416145
1.443322463550189
1.443353270571932
1.443353270571932
1.443353269204796
1.44330296933883
1.443353270571932
1.443353270571932
1.443353250377796
1.442944016139796
1.443337216381631
1.443302303856546
1.443174925671281
1.440155240241883
1.443302303727668
1.443252447354296
1.442883545300724
1.431509039308981
1.443174925437753
1.44288354515118
1.437632444146761
1.374012161128674
1.44015523999087
1.431509039386963
1.374012161687198
1.182240353351427
1.016260944040744
1.10508246341944
1.259920893381223
1.356903856865617
1.074435513851646
1.091736104961611
1.147285201832214
1.222332460617353
1.092518211975816
1.135993964180033
1.183544484881258
1.232347224538112
1.126384872682349
1.169832311409535
1.204322682350828
1.233744394855089
1.240286101766415
1.25080347419128
1.260555460619095
1.259685363048053
1.22082934291972
1.242324708272691
1.254036965697102
1.288494477566182
1.193578362014673
1.225680442409637
1.243079582616628
1.369522450803877
1.152256225429502
1.166126836195782
1.170231923212769
1.485017183755546
1.392799897199316
1.524085462014427
1.518697962909102
1.504000989579749
1.482254752868597
1.631907568808422
1.591687031409735
1.553270066759035
1.658752407709195
1.733042535852208
1.63560663178475
1.575175775989395
1.278720351697873
1.305634412320634
1.306008916329392
1.297661664803337
1.491378023939897
1.48788686284982
1.483689672983418
1.478246618689402
1.521634030528177
1.50471917002408
1.495261596118593
1.486602211123617
1.533521648426835
1.512406220071369
1.500113970050232
1.490737418603372
1.2961210017481
1.312317160818467
1.34022699017962
1.370495079672274
1.471131130579075
1.464205773335546
1.455471770549756
1.180497389670124
1.478332662970562
1.470036465449606
1.458626651077815
1.001439287403541
1.483285365428697
1.474240999524141
1.453091151388818
0.820606899092297
1.394472415670643
1.420912302990059
1.370646587047649
0.5252512373036959
0.7942380353713463
0.7929893705257736
0.8139863058776104
0.8584089486814451
0.712219335653834
0.762023211318643
0.8080300954136564
0.8595152063964073
0.5769119928559011
0.6770176381796625
0.7688008486377589
0.8434471483173746
0.3086295184253651
0.4263844782887169
0.5822867623148907
0.7205764343198504
0.9035322257649503
0.9272793461852817
0.9414893495351293
0.9392252552256598
0.9067890621804867
0.9289298383118666
0.9409023985369624
0.9412858960651804
0.8999641964499229
0.9261527850466436
0.9397202298418885
0.9421300803591393
0.8360077458082708
0.887808273311975
0.9113452286677884
0.9087012577157396
0.9510713521195118
0.988506167376104
1.076883548673043
1.183105298392495
0.9555599246318873
0.9926811379876046
1.067619577641721
1.223625505662018
0.9566866286234075
0.9897350033993976
1.081930038685497
1.554497177157761
0.9317570159015319
0.962650609927624
1.099527913977209
2.182355851164673
1.442921013125408
1.772477484422996
0.7565142826963009
0.5028763211385771
1.502631060804948
1.588374232210531
0.4607965621377128
0.4000695177177823
1.550180844318937
1.333272507848195
0.1831215508456135
0.3469311191280997
1.202005969202165
0.8467100356016
0.2190952488340771
0.2484292133848337
0.2909686214850392
0.1163408661220563
0.06250774165966722
0.08718518164129818
0.3288566570194594
0.2057506149233559
0.1208503959620826
0.1315556254938373
0.2950587190943122
0.2475396804508519
0.2285474334038072
0.194025508240603
0.2298447039657685
0.2373979747793171
0.2564877512913756
0.1997895726834661
0.3981860101782666
0.7894517259327762
1.047713857704893
1.312657172958445
0.1770256388200858
0.5785839948237944
0.8902359345384977
1.195729099612397
0.1318526258690084
0.3091110746077664
0.6467322586052505
1.080440202539359
0.11607953945575
0.06830843096663829
0.4858309314838294
1.156298288681438
1.510437463982732
1.814727576067304
1.756697353008745
1.430489551572035
1.408948485200824
1.522649346493179
1.278602205835706
0.964494748225428
1.371112499509121
1.131332410494102
0.7385831155235912
0.4034555695912717
1.079857624879709
0.5017585146283323
0.2173925992598565
0.1350387682835837
0.1452662074906413
0.1867993143578502
0.1913663718047189
0.1578053577804515
0.1811629145493828
0.1290695846063925
0.2043807552050449
0.229416871726884
0.4510464999938081
0.07966930068526483
0.178312922366676
0.2178767097828626
0.8670004400866923
0.496207056701045
0.3267097405903479
0.2840769392704849
0.157805357779875
0.2294168717276971
0.2178767097830837
0.2840769392590596
0.1913663718034904
0.204380755206374
0.1783129223655888
0.3267097405862498
0.1867993143589715
0.1290695846076322
0.07966930068000057
0.4962070567002004
0.1452662074922373
0.1811629145471982
0.4510464999878235
0.8670004400836764
1.430489551570094
1.756697353010168
1.814727576071404
1.510437463990953
0.9644947482226063
1.278602205833858
1.522649346489844
1.408948485204394
0.4034555695881545
0.7385831155210761
1.131332410490893
1.371112499507366
0.1350387682839624
0.217392599258923
0.5017585146271362
1.079857624875658
1.156298288679755
0.4858309314819722
0.06830843096410195
0.116079539453948
1.080440202537587
0.6467322586006977
0.3091110746005331
0.1318526258700106
1.195729099613025
0.8902359345337624
0.5785839948141297
0.1770256388191833
1.312657172961456
1.04771385769976
0.7894517259246685
0.3981860101735437
0.08718518163481709
0.06250774166022863
0.116340866113504
0.2909686214860444
0.1315556254900314
0.1208503959561549
0.205750614922303
0.3288566570297697
0.1940255082376796
0.2285474333966296
0.2475396804495057
0.2950587191069751
0.199789572680393
0.2564877512851338
0.2373979747793827
0.2298447039756949
0.5028763211426961
0.7565142826869883
1.772477484427847
1.442921013128279
0.4000695177338355
0.4607965621491696
1.588374232218942
1.502631060811965
0.3469311191448224
0.1831215508500127
1.333272507854618
1.550180844324908
0.2484292133987244
0.2190952488486349
0.8467100356088365
1.202005969205888
1.183105298392473
1.076883548671386
0.9885061673743097
0.9510713521184483
1.223625505662936
1.067619577640533
0.992681137984768
0.9555599246288239
1.554497177162818
1.081930038685879
0.9897350033953211
0.9566866286201305
2.182355851173412
1.099527913981503
0.962650609933318
0.9317570159081425
0.9392252552203754
0.9414893495310068
0.9272793461812383
0.9035322257547956
0.9412858960607325
0.9409023985345882
0.9289298383091731
0.9067890621714078
0.9421300803555633
0.9397202298410521
0.9261527850452447
0.8999641964418447
0.9087012577176183
0.9113452286709108
0.8878082733116315
0.8360077457941669
0.8584089486811237
0.813986305874133
0.7929893705298403
0.7942380353750816
0.8595152063936237
0.8080300954107356
0.7620232113206845
0.7122193356547352
0.8434471483127344
0.7688008486333806
0.6770176381778488
0.5769119928568859
0.7205764343050437
0.5822867623122238
0.4263844782808277
0.3086295184229288
1.180497389685103
1.455471770547949
1.464205773334312
1.471131130576357
1.001439287424703
1.45862665108006
1.470036465444816
1.478332662965478
0.8206068991117474
1.453091151397589
1.474240999516327
1.483285365421425
0.5252512373349451
1.370646587077914
1.420912302983799
1.394472415663449
1.478246618683783
1.483689672981035
1.487886862853521
1.491378023946226
1.486602211118813
1.495261596115257
1.504719170028055
1.521634030533683
1.490737418600505
1.500113970046551
1.512406220074432
1.533521648431425
1.37049507967061
1.340226990179346
1.312317160818107
1.296121001749204
1.504000989590134
1.518697962918214
1.524085462025077
1.392799897201711
1.553270066769925
1.591687031420098
1.631907568821343
1.482254752872496
1.575175775999645
1.635606631796705
1.733042535869232
1.658752407711317
1.297661664808097
1.306008916332415
1.305634412331927
1.278720351695924
1.259685363050454
1.260555460618083
1.250803474172896
1.240286101745985
1.288494477571061
1.254036965696165
1.242324708257144
1.220829342913478
1.369522450817132
1.243079582620416
1.225680442403225
1.193578362019916
1.485017183778573
1.170231923216988
1.166126836175523
1.152256225384803
1.233744394846586
1.232347224542747
1.222332460611673
1.356903856725781
1.204322682360003
1.183544484879492
1.147285201724202
1.259920893131362
1.169832311415658
1.135993964149092
1.091736104818067
1.105082463113264
1.126384872609735
1.092518211868549
1.074435513773609
1.01626094380488
1.380253118621989
1.434388594314152
1.443182330471884
1.443352455646106
1.382696386577179
1.435074754133513
1.443165303136757
1.443351903396987
1.361295377304252
1.434548525530931
1.443143117931555
1.443351428320907
1.306605475746916
1.432073945847372
1.443070768714859
1.443350317531024
1.44334688834857
1.442869491680782
1.429535048719945
1.292306108817505
1.443347061630604
1.442894281692162
1.430289994067473
1.303272265123823
1.443347325948883
1.442889138184634
1.429506771508869
1.304116779144989
1.443348560989155
1.44297097417372
1.43032440404624
1.299718825426334
1.443350317541393
1.443351428335542
1.443351903436901
1.443352455681519
1.443070768709004
1.443143117933703
1.443165303144212
1.443182330493066
1.432073945849069
1.434548525543026
1.435074754124084
1.434388594329368
1.306605475758036
1.361295377319117
1.382696386580189
1.380253118621643
)
;

boundaryField
{
    back
    {
        type            empty;
    }
    inlet
    {
        type            calculated;
        value           nonuniform List<scalar> 
16
(
1.443353270571932
1.443353270571932
1.443353270571932
1.443353270571932
1.443353270571932
1.443353270571932
1.443353270571912
1.443353270574535
1.44335327057235
1.443353270571955
1.443353270571932
1.443353270571933
1.443353270571932
1.443353270571932
1.443353270571932
1.443353270571932
)
;
    }
    front
    {
        type            empty;
    }
    top
    {
        type            calculated;
        value           uniform 0;
    }
    outlet
    {
        type            calculated;
        value           nonuniform List<scalar> 
16
(
1.443343358391681
1.443343350009304
1.443343577411435
1.443343953600174
1.443352054076409
1.443351339772696
1.443350603267645
1.443347960989462
1.443343358385766
1.443343350002246
1.443343577417403
1.44334395361791
1.443347960994248
1.443350603272931
1.443351339795087
1.443352054098249
)
;
    }
    bottom
    {
        type            calculated;
        value           uniform 0;
    }
    wall
    {
        type            calculated;
        value           uniform 0;
    }
}


// ************************************************************************* //
