/*--------------------------------*- C++ -*----------------------------------*\
  =========                 |
  \\      /  F ield         | OpenFOAM: The Open Source CFD Toolbox
   \\    /   O peration     | Website:  https://openfoam.org
    \\  /    A nd           | Version:  11
     \\/     M anipulation  |
\*---------------------------------------------------------------------------*/
FoamFile
{
    format      ascii;
    class       surfaceScalarField;
    location    "0.1625";
    object      phi;
}
// * * * * * * * * * * * * * * * * * * * * * * * * * * * * * * * * * * * * * //

dimensions      [0 3 -1 0 0 0 0];

internalField   nonuniform List<scalar> 
1652
(
2.843686947071611
0.8895636090847481
0
1.954123337988149
0.8895636090834618
-2.220446049250313e-16
1.064559728975557
0.8895636083743663
-1.481037514849959e-12
0.8895480754015159
-1.996935949932777e-11
0.1749977383543254
2.843686947076741
1.779127218162428
1.954123337998014
1.779127218162188
1.064559729256468
1.77912721401117
1.779033319064038
0.175028852155088
2.843686947090741
2.668690827246526
1.954123338008367
2.668690827244564
1.064559731390158
2.668690795706105
2.668332010591139
0.1751735714826524
2.843686947092868
3.558254436328659
1.954123338013008
3.558254436328564
1.064559759839283
3.558253983431732
3.556209322357831
0.1755258391428882
4.418652025448561
2.872852967045247
5.279049614570391
2.872852967043177
6.139447203773454
2.872852967042673
2.872852966870682
6.999844793565037
4.418652023794855
2.012455377953143
5.279049658150171
2.012455377247213
6.139446368579246
2.012455392884608
2.012455109482505
6.999852546337206
4.418652553276922
1.152060425568032
5.279049808253666
1.152051190547994
6.139794735053091
1.15190163241368
1.152787955606507
6.999203943693158
4.437385577394641
0.2491788262643362
5.431830047255912
0.1079466906660952
6.474717672604827
0.04222237141768159
7.52715242861957
0.0324169012858655
6.941512618168756
0.05833196146516262
6.88317100285036
0.05833067847438733
6.824845225164796
0.05831418376182629
0.05831468842734511
6.76651355662827
6.941521744894831
0.1166395014519045
6.883239022616499
0.1165741258978451
6.825026617104282
0.1164314235599543
0.1163471171843068
6.766858720686427
6.946519792535107
0.1649915423860575
6.898064624894684
0.1591331254207757
6.853269554750926
0.1539709748251589
0.1477043140750563
6.81041747894866
7.614656102293422
0.01822185026129786
7.695128963343509
0.01188758675272461
7.755723011488892
0.01373907313539025
7.812178664375529
0.005322678021758009
7.871020884706076
0.06082676272875459
-0.1726091928166295
7.7667550543061
0.1180724715007903
-0.0549451896668709
7.651888009230495
0.1024022588510724
-0.01188588643362326
0.08577373721174214
7.579581027883519
-0.009296453231137425
6.846753718816347
0.0009962570923036651
6.924186528713647
0.003762116510981239
6.972626111489137
0.007735398872931509
0.009888314530016262
6.98769737143135
6.767336947453456
5.269777643046591e-05
6.769121090327346
0.0001839223824515734
6.772261822220996
0.0004855456345234099
0.0007656830182621865
6.77473588636189
6.766516734349268
6.766531593905582
6.766534986767152
6.766523634810672
6.766468890581036
-0.0007861409701064304
6.766428900878709
-0.0007262758248595125
6.766417013396762
-0.0005740432505991766
-0.0003647060685761927
6.766442474502432
6.775114051491283
-0.009250827264303374
6.774558254989316
-0.007929711697329145
6.772943175380301
-0.006209291143925988
-0.00425702635749392
6.770480592158841
6.978367213100316
-0.06887375613617958
6.955050118722191
-0.05216911377113242
6.92040097029609
-0.03878577518888598
-0.02866280917080921
6.878361432761065
7.514690967253357
-0.007395245218342283
7.425698154310574
-0.003989044660361207
7.32201239234025
-0.0005405289657094414
7.210715392848442
0.0002037040698585346
0.020819707719887
7.096132813567297
-0.0009702011218676865
0.002358203085649602
6.83343765861963
0.0001648304880118578
6.768065001880061
6.766484197239206
0.0146749706587111
6.981599771418991
-0.001227457664098486
0.0009039227430355234
6.793781882865545
4.442500538615057e-05
6.766789438251301
6.766510526710227
0.003179350109334955
6.897476369311945
-0.003357922649230405
0.0001202186279580797
6.771721770377604
3.907825363413941e-06
6.766541363866504
6.766519132247327
0.003973261408931394
6.956762286440794
-0.1766647188308069
3.392047224293204e-05
6.769805165467367
2.106516913458201e-06
6.766518097244932
6.766511227129936
0.1555522119742662
6.610959353137266
0.3110510717040661
6.611003504834035
0.4512542365603722
6.621395000734188
7.010770846792293
0.1253177540196815
0.1555411357358536
6.455407796564373
0.3107497703056589
6.455578906445795
0.4198184307780588
6.483844483563347
6.907017027786376
0.1462881013588119
0.1554914745561979
6.299876772686049
0.3099277595839019
6.300435809373333
0.3760086973704463
6.352858137367682
6.800806917249605
0.1033710947936822
0.1553932355685552
6.144343513335098
0.3083948207068131
6.145455159340094
0.3230062771813986
6.228459565028443
6.636742781461074
0.0792643598161844
-0.2584787987244972
6.394063851786622
0.04394967527263305
-0.3052807375388615
6.103232669738774
-0.1551456048010339
5.990996899037926
5.988869596370856
-0.1792884676267048
6.127503408741942
0.01938961831995467
-0.3004002980900578
5.990933640780109
-0.1546952756398392
5.837673421724514
5.833412995520975
-0.09470200355202618
5.834752478862038
0.0003356693168469205
-0.2929413491680223
5.868447297475729
-0.1541776499671862
5.683572209310205
5.677961801204935
0.00584517964896214
5.537780195357862
-0.004892792945201951
-0.2818146850754819
5.739603592718547
-0.1530320930883657
5.531303475537694
5.522701052720655
0.1958919268891872
5.323541894411036
0.3548144595663708
5.333714570386204
-0.01121175975053079
5.557818031142326
5.292783967184199
0.01861801731526525
0.1934033762648425
5.124948553782392
0.3320917702467598
5.137022257206661
-0.0322486414090033
5.312753233654786
5.031102708770176
0.05827462298677299
0.1919181255605394
4.919533351470311
0.3335008512517631
4.936083747895083
0.1262114442711469
5.075804086672887
4.902118778663757
0.175280932063425
0.1946439351517584
4.728340208917746
0.3548973119010869
4.735742810030088
0.3081280815037776
4.818522547003919
4.789640969011978
0.35378549879462
-0.3473844043586746
5.065153663387013
-0.7662328679427846
5.086112269605398
-1.305823220001998
5.189673659810596
4.868526199299932
-1.420711791015006
-0.3509767568053574
5.399857960144119
-0.7625499163825722
5.443389010039835
-1.075260276268988
5.479588140648814
4.284255247842651
-0.4413538148497346
-0.344670907706202
5.733636090602097
-0.7016957820121864
5.767719535894759
-0.9529846857822915
5.76525354731149
3.574609658308826
-0.04979052097729601
-0.3372758148070167
6.067798516292584
-0.6690908909548259
6.082160411733436
-0.7993593476623413
5.969304076151682
3.148493899784679
-0.03680844113003387
0.3398204272498314
3.079042624818869
-0.01759105076487118
0.3371577394843215
6.047763848904313
0.174723044350266
6.24036164024688
6.241967866389562
0.2975254647952671
3.031750511062647
-0.01219972832644464
0.3309070041009166
6.100809453416487
0.1745373453041278
6.404872473472587
6.416677099067635
0.2802913238869892
2.948369996816402
-0.005057961242739675
0.3295509341768607
6.149330945968232
0.174584352459778
6.576836465283107
6.591479128082858
0.2557758167578976
2.871087285284266
0.008081936083054922
0.326296859735713
6.207642629245166
0.1745833830016735
6.748721589936184
6.766407029057609
-0.2160528154014303
3.259015941200466
0.08475403694806059
-0.02504351434267083
6.321347864169542
-0.000394181429312912
6.757513892784913
6.766479272028306
-0.1573012991864163
3.576770744520684
0.1203178020704473
-0.01198164627411114
6.47803816534654
-0.0001272959894051962
6.763250251044198
6.766506897282089
-0.1131023080047111
4.009757222073501
0.1170084512255225
-0.005634462876881186
6.628054016546295
-4.563804398372007e-05
6.766025797519957
6.766515037170276
-0.08706322672457312
0.1213916199872887
4.521709532531442
-0.00245413023850638
6.677670981181761
-1.605702798479491e-05
6.764782445570527
6.766515513881106
0.9942366525871106
-0.8918670576135388
-0.005878122980928178
1.00509822686945e-10
1.969747153960878
-0.8689090848411718
8.999911926821369e-11
2.85788665234066
-0.8742433068460804
8.116263217061714e-11
-0.8749675311744221
-7.114486777481943e-11
0.9917561619990548
-1.707062529456442
-0.007684731224775643
1.970694448253204
-1.733927121685229
2.857902373729997
-1.748420010142043
-1.749934743856339
0.9813575746015584
-2.408108670848915
-0.0158511661670122
1.970808002519395
-2.600450408157899
2.857923964630388
-2.62327464215095
-2.624908602784994
0.9798377679854003
-0.03188787461300899
-2.989557980382835
1.972386634907689
-3.464744287618791
2.857984395154706
-3.498840488774675
-3.499903761998211
-0.08706322672531064
-4.009757222088221
0.1213916199856938
4.521709532554056
-0.0024541302521075
-6.628054016568747
6.677670981195961
-1.605709151486501e-05
-6.766025797530049
6.764782445614437
-6.766515037213725
6.766515513998698
-0.1131023080129425
-3.576770744545825
0.1170084512277927
-0.005634462890767189
-6.478038165360537
-4.563800834223031e-05
-6.763250251075342
-6.766506897216984
-0.1573012992055651
-3.259015941197475
0.120317802068208
-0.01198164630661691
-6.321347864144532
-0.0001272960033509296
-6.757513892788578
-6.76647927205907
-0.216052815401317
-2.871087285270415
0.0847540369461959
-0.02504351432256069
-6.207642629237882
-0.0003941814209551531
-6.748721589924329
-6.766407029039904
-0.1747230443544256
6.241967866434986
-6.067798516352257
-0.3371577394804004
6.240361640278052
-6.082160411776337
-0.339820427242825
6.047763848856345
-5.969304076100053
3.079042624792163
-3.148493899739564
-0.01759105076512331
-0.1745373452719925
6.416677099109158
-0.3309070040832674
6.404872473496553
-0.2975254647904247
6.10080945338205
3.031750511037608
-0.01219972832568607
-0.1745843524561115
6.591479128036267
-0.3295509341573816
6.576836465297932
-0.2802913238810869
6.149330945953247
2.948369996799204
-0.005057961241989276
-0.1745833829935476
-0.3262968597119951
-0.2557758167487192
0.00808193608157215
0.7993593476628127
-3.574609658260862
-0.03680844113003039
0.6690908909818656
-5.765253547282621
0.3372758148227055
-5.7677195359807
-5.733636090617437
0.9529846857876898
-4.284255247814285
-0.04979052097612616
0.7016957820340171
-5.479588140632571
0.3446709077156668
-5.443389010119473
-5.399857960131668
1.075260276282632
-4.868526199293346
-0.4413538148477154
0.7625499164094477
-5.189673659812585
0.3509767568145533
-5.086112269646144
-5.065153663377625
1.305823220017221
-4.789640969011808
-1.420711791019917
0.7662328679581683
-4.818522546974354
0.3473844043366166
-4.735742809994378
-4.728340209066562
0.195891926904645
5.323541894427072
-5.522701052739819
0.3548144596077457
5.333714570407568
-5.531303475497354
-0.0112117597500192
5.557818031064407
-5.739603592621368
5.292783967140167
-5.537780195328594
0.01861801731594204
0.1934033762575129
5.12494855381534
0.3320917702430698
5.137022257177854
-0.03224864138736039
5.312753233596296
5.031102708755638
0.05827462299006592
0.1919181255601545
4.919533352089508
0.3335008512676231
4.936083747877048
0.1262114442815901
5.075804086638743
4.902118778660384
0.1752809320669422
0.1946439351670208
0.3548973119261399
0.3081280815039756
0.3537854987961895
0.005845179674669687
-5.834752478900363
-0.00489279293858047
-0.2818146850121852
-5.86844729758715
-0.1530320930475862
-5.683572209366935
-5.677961801212961
-0.09470200358007941
-6.127503408730112
0.0003356693160027069
-0.2929413492063768
-5.990933640851019
-0.1541776499863224
-5.837673421922743
-5.833412995554764
-0.1792884676126877
-6.3940638517187
0.01938961832241359
-0.300400298019195
-6.103232669613682
-0.1546952755964519
-5.990996898967381
-5.988869596390498
-0.2584787986663227
-6.636742781450662
0.04394967527410942
-0.3052807375403038
-6.228459564995012
-0.155145604802212
-6.145455159348947
-6.144343513352093
0.1555522119774978
6.610959353232893
-6.766511227226406
0.3110510717044368
6.611003504816731
-6.766518097219118
0.4512542365674325
6.621395000736311
-6.769805165474756
7.010770846769678
-6.956762286430552
0.1253177540131805
0.1555411357398584
6.455407796585228
0.3107497703087231
6.455578906458241
0.4198184307759258
6.483844483555415
6.90701702780522
0.1462881013608284
0.1554914745652404
6.299876772687951
0.3099277595986117
6.300435809383473
0.3760086973692467
6.352858137408327
6.800806917300765
0.1033710947983778
0.1553932355582105
0.3083948206851123
0.3230062771914884
0.07926435982078606
-6.766519132221644
-2.106520445188664e-06
-6.766510526713763
-3.907825079307869e-06
-6.766484197239486
-4.442500431911522e-05
-0.0001648304850865312
-6.766442474506957
-6.766541363843189
-3.392047452221991e-05
-6.766789438273463
-0.0001202186276778594
-6.768065001881
-0.0009039227354755708
-0.002358203087034827
-6.770480592164987
-6.771721770387066
-0.003973261409825957
-6.793781882856234
-0.003179350107151924
-6.833437658592259
-0.01467497067362256
-0.02081970771980268
-6.878361432754624
-6.897476369307069
-0.1766647188181515
-6.981599771410036
-0.003357922649684042
-7.096132813557731
-0.001227457670748056
-7.210715392858258
-0.0009702011173219893
-0.0003647060760125775
-6.766417013387357
-0.00425702636597225
-6.772943175373217
-0.02866280916705322
-6.92040097032451
-7.322012392358077
0.0002037040714986116
-0.0005740432523885231
-6.766428900875133
-0.006209291147297402
-6.774558254993631
-0.03878577517474996
-6.955050118728527
-7.425698154321946
-0.0005405289623275911
-0.000726275825355005
-6.766468890590041
-0.007929711701145981
-6.77511405150325
-0.05216911377656691
-6.97836721310544
-7.514690967266591
-0.003989044661656393
-0.0007861409729523761
-6.766523634799069
-0.009250827273166506
-6.774735886377348
-0.06887375612912339
-6.987697371430664
-7.579581027899056
-0.007395245216832991
-5.269779204575276e-05
6.766516734342677
-6.766513556650222
-0.000996257113768495
6.767336947434393
-6.766858720664637
-0.0608267627429675
6.846753718839272
-6.81041747912392
7.871020884728082
-7.81217866441616
-0.1726091928164639
-0.0001839223893957964
6.766531593911522
-0.003762116516201841
6.769121090333428
-0.1180724715149933
6.924186528663701
7.766755054319793
-0.05494518967275697
-0.0004855456342189868
6.766534986772394
-0.007735398868569998
6.772261822234348
-0.1024022588629723
6.972626111448029
7.651888009248119
-0.01188588643581301
-0.000765683023321917
-0.009888314536589227
-0.08577373721704995
-0.00929645323285333
-0.1477043140902286
-7.755723011514808
0.005322678029253347
-0.116347117197116
-6.85326955501449
-0.05831468843198317
-6.825026617083508
-6.824845225182852
-0.1539709748602435
-7.695128963332724
0.01373907313928274
-0.116431423573321
-6.89806462507888
-0.05831418376716913
-6.883239022595739
-6.883171002021199
-0.1591331254527713
-7.614656102231883
0.01188758676386148
-0.1165741259234329
-6.94651979254944
-0.05833067846004636
-6.941521744938061
-6.941512618162121
-0.1649915423675379
-7.52715242853939
0.01822185025217704
-0.1166395014745129
-6.999203943382802
-0.0583319614704717
-6.999852546401376
-6.999844793566455
-1.152787955553304
-6.474717672590107
0.03241690129881647
-2.012455109463736
-6.13979473490062
-2.87285296687605
-6.139446368596343
-6.139447203765099
-1.151901632443515
-5.431830047218204
0.04222237144948104
-2.012455392872211
-5.279049808241454
-2.872852967042601
-5.279049658166547
-5.279049614567289
-1.152051190548284
-4.437385577325287
0.1079466906813853
-2.012455377239522
-4.41865255326847
-2.872852967044603
-4.418652023801192
-4.418652025446894
-1.152060425565219
-3.556209322244793
0.2491788261352001
-2.012455377948471
-3.558253983437575
-2.87285296704692
-3.558254436328564
-3.55825443632866
2.843686947076677
0.8895636090796828
1.954123337995112
0.8895636090815646
1.06455972898173
0.889563608377224
0.889548075430036
0.1749977383664199
2.843686947077599
1.7791272181565
1.954123337999196
1.779127218159969
1.064559729257193
1.779127214016245
1.779033319120522
0.1750288521281591
2.843686947089469
2.668690827241873
1.95412333800662
2.668690827242823
1.064559731387784
2.668690795719016
2.668332010593926
0.1751735713706962
2.843686947088214
1.954123338006611
1.064559759831817
0.1755258393179402
0.174996457313487
0.174996457289279
0.1749876457109212
0.1750309503519664
0.1749872134824337
0.1751567923197064
0.1755309839543911
0.1748692845675039
0.1750309504472871
0.1749876456321001
0.1750247660685163
0.1750247659094128
0.1750282852446619
0.1751211693477407
0.1746465531195935
0.1757083371934523
0.1751567924448112
0.17498721338417
0.1751211694805515
0.1750282850778299
0.1750682003091678
0.1750682003754719
0.1718838060421472
0.1772900191310265
0.1755309836661971
0.1748692844851936
0.1746465527456054
0.1757083370189033
0.1718838057233402
0.1772900193556025
0.1715262608594022
0.1715262608247643
-0.0731461715140318
0.2434032968937044
-0.1350183679666687
0.2375348925407442
-0.2011173104011107
0.2401169616823832
0.2214419252335935
-0.01231013375195267
0.2541709989164794
-0.03206392299208605
0.2557761506587097
-0.06064085796304008
0.2666213475702161
0.2665417548704586
-0.003881423491115199
0.2565622655476505
-0.01622586430574768
0.2665150293148169
-0.02742358424738123
0.2761877262590359
0.2792621928563954
-0.006964030597089721
0.2612232107989001
-0.01773205633505748
0.2747161908251606
-0.02530065497180134
0.2812928246670657
0.2834886464820006
0.2854643700573126
0.0147988260959126
0.2869527256983247
0.009660686996291523
0.2891105538214838
0.01136254598223213
0.00481379878439403
0.2898667736360666
0.2844160224156937
0.0103374114669576
0.2867662280695384
0.00671189830055996
0.2904027589904611
0.007698632943712647
-0.00175978086580364
0.2977878650856723
0.2802007181784197
0.004070207980536034
0.2849676510802161
0.001425544073494767
0.2900420126524977
0.002497941693566152
-0.02778400853506885
0.3167436376866944
0.2651344433822176
0.2660600550352836
0.2682473457046893
0.2424100784849358
0.2677802113359451
-0.1490305999454215
0.2416126355094802
-0.02724739240413476
0.2353975734840604
-0.003358502996998136
-0.007172052964569298
0.2366223162685415
0.2618630548409772
-0.1116770270028256
0.243875338093677
-0.008076518604482719
0.2412429818688155
0.001692138765152063
-0.005095815304959839
0.2426789976376304
0.268219720736037
-0.061820265226183
0.2531298740410722
0.00803927651097941
0.2482218565867602
0.008581557487899627
0.0002449258715898073
0.2465007709982485
0.1811983184843391
0.1899515706977606
0.2004333714839499
0.2042937408651807
0.240791869352541
-0.007844757478061681
0.2431939737638728
-0.003717861174497017
0.2434614359002413
0.0005125230629146049
0.0016146661355253
0.2430156160679158
0.2433042470839773
-0.004593181092865883
0.2441248501813262
-0.001473349903274801
0.2439288449707567
0.00221070781969146
0.003252192750369642
0.2432254840946202
0.2456441009874593
0.0003089512136543737
0.2449410505854065
0.002488298499786767
0.244487554067512
0.004730543348038407
0.004809915844690038
0.2439662809710833
0.2085634563673826
0.2142210318184774
0.2210998717318029
0.2265768077718817
0.2417831838067703
0.0006208536912257201
0.2406613783158937
-0.0001115921458772484
0.240674660779865
-0.00519573275134777
-0.1909350398661984
0.245592290854769
0.2421615093476334
0.002157751877147507
0.24155940486731
0.0008252712990060584
0.2426177587781033
-0.008589213124989004
-0.1710929846378894
0.2132019700670423
0.2431081521270936
0.003800085738249026
0.242608576587348
0.001970884690457697
0.2429194444736272
-0.0111242576906625
-0.1065889285002081
0.1682026386181849
0.2305424117149915
0.2335397833434875
0.2194430964930722
0.1015037522792399
0.2645296181499714
0.0953976915893362
0.2667285240523204
0.1348425283955711
0.2692980937764081
0.09461575564658053
0.06690341489612017
0.2768500082839624
0.240222466027583
0.06039349484244039
0.2612661556096357
0.1063082004770717
0.2688112823620268
0.08171724734793728
0.0542532838421742
0.2782201525899738
0.1976883516393019
0.02279847052567496
0.235644514797221
0.0598663814695416
0.259385398143671
0.05240336900704268
0.03637179931702073
0.2753405959457016
0.1179476127310547
0.1704065932270582
0.2176525447702132
0.2522052083046973
0.277168195561622
0.03457836766854383
0.2767329409614416
0.01428904037678169
0.2768113134538228
-0.00131918786948948
-0.004094843486549427
0.278537437495088
0.2794174263455046
0.02637859127493747
0.2786752576039391
0.01062553165034807
0.2782987750368019
-0.001591759601758835
-0.003164365122835022
0.2808754695793356
0.2788805864874645
0.01777827357612582
0.2791872766629641
0.006561068725563168
0.2795558266419879
-0.001432948022542346
-0.001986990739860306
0.2826224764313002
0.265377251814107
0.2675155397603622
0.2667012396841603
0.2691722845030837
0.2920187321976333
0.01379761273355529
0.3160988422948567
0.04356775373957056
0.3517727512902316
0.1486740713587114
0.2865452970588718
0.4233214301371528
0.2959761421717753
0.008378366928529446
0.3180637919164609
0.0326267958114681
0.3557245384663533
0.1202653772687841
0.1899963206432224
0.4567896143954048
0.2969798066424183
0.004014608293304245
0.3188560315324055
0.02380676020336814
0.3632744039967307
0.08676905162814652
0.04171410186803826
0.5197926061360083
0.2833544429938682
0.3208224986420675
0.4218283928975324
0.4753298581926901
0.2150645413219117
-1.206799229205212
0.02150518931844149
-0.2465487046316101
0.003344437841271686
-0.02754994954703367
-0.0265617866842381
-0.001649034917328439
0.1511454265252252
-0.8975714013426882
0.009888296718564903
-0.1044210176304499
0.000974294224475117
-0.0140869747645447
-0.01550629669126514
-0.004938950242628253
0.07659291717869916
-0.4514622544155436
0.003193574136472003
-0.0298692117301335
-0.002932690478799091
-0.004227688780767364
-0.007190655838981767
-0.005674252617383187
0.02627966325852096
-0.002047966391178141
-0.003026733082614516
-0.005030267558587279
-0.0002151394690637805
-0.01545329293511159
0.0005212333072499888
-0.01020612828989968
-4.073367859771387e-05
-0.003038719614026922
0.004617459528458927
0.003849718423605621
-0.004408455270957512
-0.01239668509308374
-0.003818152607198677
-0.008504978634374598
-0.003075867967441774
-0.002832940122818053
0.002583020361045012
-0.001276371461595812
-0.006319818854658599
-0.007236688336922259
-0.005413865511634766
-0.005979050235238065
-0.004760090517735405
-0.002090094449377883
0.002348413293552176
-0.005589110925786685
-0.007020668072415859
-0.007180290704194766
-0.007455439216051071
-0.00661551083625091
0.04305878685090039
0.04743877299226562
0.07829249939717313
0.08999272108887099
0.1099698144104437
0.09427010353190643
0.1060930410979233
0.1394147075590374
0.0230163935094941
0.02141472988596617
0.05872276071784951
0.05564643300148839
0.09118725071666435
0.06655207497007581
0.07927865748925213
0.1277333980043249
0.006604995596413813
0.005251825494390336
0.03668796775357287
0.02288896814435834
0.06863405930225819
0.03584111179244012
0.04763366667302839
0.1065906218815885
-0.006391509597765761
0.01026400038650545
0.04372517685498824
0.09488167759659219
0.1112244573707467
-0.1189202701902736
0.1555996890365368
0.08271045742379397
-0.08808560237644572
0.1130324030896113
0.06288484552110374
-0.07917162857258375
0.09734844916391808
-0.05748477739475834
0.03690327417383983
0.0847820863251966
0.09775741273489137
-0.08431408018928802
0.06949837159933005
-0.06600627769101408
0.04319743575913744
-0.051220328479823
-0.02809531805915417
0.01766988554212102
0.07632129695814029
-0.05268987824158125
0.04677610904513503
-0.03600486221448581
0.01991932034928818
-0.01922743797590595
-0.00924574104148726
0.002638798444919238
0.04409551415193879
0.01314363255299038
-0.001652590295675292
-0.008122458697897877
-0.01048789255151886
0.002373789089929669
-0.009978596060968882
-0.0008743930654390303
-0.006310502372368493
-0.003035132470179587
-0.004452180321123451
-7.488454301096681e-14
-0.005064854989636474
0.008397074345123273
-0.006652034966366439
-0.0002355233135597507
-0.003882778049719801
-0.004510395741030952
-0.005994073107618483
1.868644128322217e-14
0.007907011036010745
0.01737057580663429
0.002918652064453197
0.004396027604114606
0.0008685242876794071
-0.00134072043217685
-0.002456465890691003
1.208547151243522e-13
0.02289162408802276
0.01211360563555084
0.004926819411830173
3.780586954604814e-13
-0.004452180321153519
0.006310502372232879
-0.005994073107653488
0.003882778049767752
-0.002456465890859965
-0.000868524287297414
-0.004926819410392642
0.00587812298004128
-0.003035132470169415
0.009978596060952714
-0.004510395741069113
0.006652034966406793
-0.001340720432220202
-0.00291865206402735
-0.01211360563479147
0.007684731225337534
-0.0008743930654717541
0.01048789255158147
-0.0002355233136282688
0.005064854989728858
0.004396027604107726
-0.00790701103572904
-0.02289162408759954
0.01585116616731268
0.002373789089878668
0.008122458697986792
0.008397074345018138
-0.002638798444741325
0.01737057580656247
-0.01766988554184824
-0.03690327417338343
0.03188787461298003
-0.06288484552054847
-0.05748477739464668
0.08478208632504181
-0.08271045742312862
-0.0791716285723983
0.09734844916365257
-0.1112244573700413
-0.08808560237626159
0.1130324030893651
-0.1189202701897638
-0.1394147075583857
0.1555996890359206
-0.04319743575892428
-0.0280953180590349
-0.06949837159901733
-0.05122032847970744
-0.09775741273440174
-0.06600627769083259
-0.08431408018890921
-0.1277333980038121
-0.01991932034909369
-0.009245741041443673
-0.04677610904486915
-0.0192274379758554
-0.07632129695776169
-0.03600486221437162
-0.05268987824129205
-0.1065906218810926
0.001652590295758941
-0.01314363255282853
-0.0440955141516052
-0.09488167759594411
-0.04372517685443829
-0.04763366667286635
-0.01026400038606214
-0.03584111179227968
0.006391509597408876
-0.02288896814345864
-0.005251825494631629
0.006615510836044215
-0.06863405930186453
-0.07927865748892246
-0.03668796775254749
-0.06655207497050676
-0.006604995596248168
-0.05564643299965709
-0.02141472988595558
0.005589110925652639
-0.09118725071653033
-0.1060930410970604
-0.05872276071680479
-0.09427010353348068
-0.02301639350879247
-0.08999272108655045
-0.04743877299134475
0.001276371461466311
-0.1099698144101947
-0.0782924993963305
-0.04305878684982475
-0.003849718423315301
4.073367821291751e-05
0.004617459527690305
-0.000521233307224785
-0.003038719613703937
0.0002151394692479977
-0.01020612828920707
-0.01545329293507916
0.001649034917412038
0.003075867967142158
0.002583020360570669
0.003818152607121922
-0.002832940122688317
0.004408455271146453
-0.008504978633823962
-0.01239668509299409
0.004938950242849979
0.004760090517504813
0.002348413293394649
0.005413865511555396
-0.002090094449348802
0.006319818854767165
-0.005979050234876659
-0.007236688336926193
0.005674252617737148
0.007455439215746495
0.007180290703959705
0.007020668072551573
0.005030267558822591
-0.003344437841002197
-0.02656178668445142
-0.0215051893175487
-0.02754994954695084
-0.2150645413203836
-0.2465487046300394
-1.206799229208332
-0.4233214301374709
-0.0009742942244205244
-0.01550629669144167
-0.009888296718323936
-0.01408697476478432
-0.1511454265241733
-0.104421017629734
-0.8975714013447995
-0.4567896143957719
0.002932690478969099
-0.007190655839088195
-0.003193574136345237
-0.004227688780963097
-0.07659291717811467
-0.02986921172985347
-0.4514622544166713
-0.5197926061370528
0.003026733082791632
0.002047966391224175
-0.02627966325828412
-0.4753298581940266
-0.3517727512913479
0.2865452970608937
-0.3160988422957023
0.1486740713617114
-0.2920187322000821
0.04356775374348842
0.01379761273533053
-0.278537437498325
-0.3557245384673021
0.1899963206446467
-0.3180637919177405
0.1202653772714108
-0.2959761421739444
0.03262679581511807
0.008378366931389269
-0.2808754695823625
-0.3632744039981151
0.04171410186823687
-0.3188560315335601
0.08676905162856929
-0.2969798066446136
0.02380676020649897
0.004014608295431876
-0.2826224764339034
-0.4218283929004386
-0.3208224986473433
-0.2833544429984726
-0.2691722845067616
-0.2768113134548732
-0.004094843482034372
-0.2767329409611644
-0.001319187870076899
-0.2771681955600014
0.01428904037848344
0.03457836767294831
-0.2768500082831794
-0.2782987750377254
-0.003164365120253865
-0.2786752576040311
-0.001591759601680121
-0.2794174263443706
0.01062553165245173
0.02637859128078857
-0.2782201525893409
-0.2795558266433353
-0.001986990738708116
-0.2791872766632184
-0.001432948022280334
-0.2788805864866154
0.006561068728018427
0.01777827358147999
-0.2753405959449181
-0.2667012396870517
-0.2675155397622577
-0.2653772518120148
-0.2522052082986702
-0.2692980937778663
0.06690341489915541
-0.2667285240527694
0.09461575564964897
-0.264529618150405
0.134842528397781
0.09539769158062839
-0.2455922908548676
-0.2688112823631629
0.05425328384351524
-0.261266155610045
0.08171724735032315
-0.2402224660269419
0.1063082004777475
0.06039349483287648
-0.2132019700680092
-0.2593853981439848
0.03637179931593537
-0.2356445147962415
0.05240336900810239
-0.1976883516360673
0.05986638146924794
0.02279847051675377
-0.1682026386167529
-0.2176525447685929
-0.1704065932249627
-0.1179476127295078
-0.1015037522857355
-0.2406746607777279
-0.1909350398559496
-0.2406613783148407
-0.005195732750363169
-0.2417831838082375
-0.000111592149899864
0.0006208536943855814
-0.2430156160681468
-0.2426177587766272
-0.17109298463284
-0.2415594048677933
-0.008589213121268202
-0.2421615093492982
0.0008252712971102971
0.002157751879081016
-0.2432254840951397
-0.2429194444726784
-0.1065889284974595
-0.2426085765889429
-0.01112425768503378
-0.2431081521286237
0.001970884689665164
0.003800085738805081
-0.2439662809716504
-0.2194430964993563
-0.2335397833458175
-0.230542411717205
-0.2265768077732681
-0.2434614359012117
0.00161466613798722
-0.2431939737643859
0.0005125230655120272
-0.2407918693529002
-0.003717861175308923
-0.007844757477059427
-0.2366223162678968
-0.2439288449714243
0.003252192752644212
-0.2441248501816905
0.002210707821604596
-0.2433042470840509
-0.001473349903690968
-0.004593181092319487
-0.2426789976368838
-0.2444875540678088
0.004809915845859936
-0.2449410505857549
0.004730543349886374
-0.2456441009871135
0.00248829849915494
0.0003089512141180029
-0.2465007709972311