/*--------------------------------*- C++ -*----------------------------------*\
  =========                 |
  \\      /  F ield         | OpenFOAM: The Open Source CFD Toolbox
   \\    /   O peration     | Website:  https://openfoam.org
    \\  /    A nd           | Version:  11
     \\/     M anipulation  |
\*---------------------------------------------------------------------------*/
FoamFile
{
    format      ascii;
    class       volScalarField;
    location    "0.033";
    object      rho;
}
// * * * * * * * * * * * * * * * * * * * * * * * * * * * * * * * * * * * * * //

dimensions      [0 0 0 0 0 0 0];

internalField   nonuniform List<scalar> 
880
(
0.3733250556165154
0.3733250556165154
0.3733250556165154
0.3733250554220909
0.3733250556165154
0.3733250556165154
0.3733250556165152
0.3733250556028722
0.3733250556165154
0.3733250556165153
0.3733250556165154
0.3733251194669712
0.3733250556165154
0.3733250556165154
0.3733250556165154
0.3733252841899445
0.3733250556165154
0.3733250556165155
0.3733250556165152
0.3733250556165154
0.3733250556165154
0.3733250556165154
0.3733250556165151
0.3733250556165154
0.3733250556165154
0.373325055616515
0.3733250745327539
0.373324903122632
0.3735043998458281
0.3742360808885954
0.3747781752855588
0.3747991470073428
0.3733250556187424
0.3733250556192839
0.3733250556194606
0.3733250556172239
0.3733250559397397
0.3733250560373161
0.3733250560833356
0.3733250557745368
0.3733260336171375
0.3733261442412645
0.3733262252441862
0.3733258303505124
0.3748927216598985
0.3750311076389186
0.3750897323648549
0.3750996613913527
0.3755454465916961
0.3745267483477742
0.3736277283386862
0.3733498825312948
0.3733281144239867
0.373327065275837
0.3733256542267611
0.3733251126590685
0.3733250575625583
0.3733250569764042
0.3733250560354138
0.3733250556550688
0.3733250556332779
0.3733250556274856
0.3733250556188525
0.3733250556165155
0.3733250556165152
0.3733250556165152
0.3733250556165154
0.3733250556165155
0.3733250556171511
0.3733250556165155
0.3733250556165154
0.3733250556165155
0.3733250573341223
0.3733250555959357
0.3733250556066978
0.3733250556154584
0.3733253897460646
0.3733250372415399
0.3733250503858098
0.37332505525676
0.373325055614192
0.3733250556165154
0.3733250556165154
0.3733250556165154
0.3733250534599616
0.3733250555708733
0.3733250556158031
0.3733250556165153
0.3733262833959557
0.3733250825905719
0.3733250556417219
0.3733250556165165
0.3724940166771518
0.3733234465900926
0.3733250543974863
0.3733250556162668
0.3733250556165152
0.3733250556468597
0.3733253104870966
0.3745501856121366
0.3733250556215108
0.3733250564877392
0.3733277717880515
0.3787466123211281
0.3733250556237293
0.3733250568602052
0.373328668519992
0.3797829312322432
0.3733250556254589
0.3733250571372445
0.3733291915699857
0.3801115858427057
0.3804631569268466
0.3733298242352899
0.3733250574969524
0.3733250556280424
0.3808721605136893
0.3733306154068113
0.3733250579753564
0.3733250556312708
0.3813085097171519
0.3733315498589033
0.3733250585788704
0.3733250556356321
0.3819265585899827
0.3733329961638773
0.3733250595991201
0.3733250556436042
0.3733250556334378
0.3733250581696982
0.3733310338692747
0.3812574818538739
0.3733250556336515
0.3733250581469075
0.3733307274419595
0.3805036607882226
0.3733250557002916
0.3733250582809566
0.3733305728696467
0.3797493141634988
0.3733250554597817
0.3733250570826772
0.3733277772969945
0.3764012773926656
0.3733250555470323
0.3733246242660117
0.3732099703606915
0.3710973833891499
0.3733250556320161
0.3733244954397737
0.3730241487703554
0.3482116580615111
0.3733250556106462
0.3733244764157663
0.3729081638239614
0.3280820090702733
0.373325055638688
0.3733245392822495
0.3728423769981316
0.3218759547861884
0.3341440896062624
0.3730850927554913
0.3733247206688848
0.3733250555559479
0.3360795188883859
0.3731117479051032
0.3733247898366636
0.3733250556022208
0.3402304489162798
0.373168480229937
0.3733248760172588
0.3733250556438117
0.3335923841113152
0.3731194593474764
0.3733248352384778
0.3733250555684702
0.36189179518594
0.3732974984285856
0.3733250294445564
0.3733250556148712
0.3722793512780077
0.3733239633200905
0.3733250549110281
0.3733250556182397
0.3732288664187974
0.3733249234393775
0.3733250555045805
0.3733250556165154
0.372981755264336
0.3733243847116016
0.3733250548821588
0.3733250556142884
0.3707659817191877
0.373314228702932
0.3733250450810295
0.3733250558535426
0.3707716824899523
0.3733142383498108
0.3733250449817299
0.3733250558511435
0.3707787435646516
0.3733142073548225
0.3733250440107477
0.3733250558207722
0.3708146893769552
0.3733142344694484
0.3733250421808241
0.3733250557594661
0.3729817552640328
0.3733243847112621
0.3733250548817107
0.3733250556144787
0.3732288664181591
0.3733249234389683
0.3733250555036875
0.3733250556165154
0.3722793512777585
0.3733239633201186
0.3733250549109933
0.3733250556182978
0.3618917951865684
0.3732974984294495
0.3733250294446272
0.3733250556146897
0.3733250555567033
0.3733247206699289
0.3730850927559205
0.3341440896067617
0.373325055602553
0.3733247898368525
0.3731117479054738
0.3360795188883219
0.3733250556432122
0.3733248760178357
0.3731684802299311
0.3402304489171908
0.373325055568642
0.3733248352385851
0.3731194593485302
0.3335923841105319
0.3218759547850399
0.3728423769977052
0.3733245392819516
0.3733250556385801
0.3280820090690547
0.3729081638233659
0.373324476414745
0.3733250556096634
0.3482116580610869
0.3730241487694915
0.3733244954397428
0.3733250556310586
0.3710973833893974
0.3732099703603745
0.3733246242656483
0.3733250555481974
0.3733250556333187
0.373325058170155
0.373331033869771
0.381257481854617
0.3733250556337461
0.3733250581470633
0.3733307274419552
0.380503660787935
0.3733250557008489
0.3733250582809703
0.3733305728690634
0.3797493141633803
0.3733250554607622
0.3733250570826701
0.3733277772965632
0.3764012773926705
0.3819265585914698
0.3733329961632392
0.3733250595998324
0.3733250556435083
0.3813085097184525
0.373331549859685
0.3733250585791251
0.3733250556357511
0.3808721605139274
0.3733306154079699
0.3733250579759419
0.3733250556311885
0.3804631569272503
0.3733298242348426
0.3733250574970198
0.3733250556279343
0.3733250556165154
0.3733250556473452
0.3733253104870391
0.3745501856110026
0.3733250556212305
0.3733250564872879
0.373327771788421
0.3787466123212501
0.3733250556236145
0.3733250568602178
0.3733286685201623
0.3797829312327782
0.3733250556253174
0.3733250571374077
0.3733291915692494
0.3801115858429595
0.3733250556162552
0.3733250556165367
0.3733250556165154
0.3733250556165154
0.3733250543965863
0.3733250556415735
0.3733250556162425
0.3733250556165153
0.3733234465902076
0.3733250825911616
0.3733250555704847
0.3733250556165154
0.3724940166770814
0.3733262833959926
0.3733250534599946
0.373325055614191
0.3733250556165152
0.3733250556165154
0.3733250556154827
0.3733250552568997
0.3733250556165154
0.3733250556165153
0.3733250556073804
0.3733250503858206
0.3733250556165154
0.3733250556165154
0.3733250555956695
0.3733250372416094
0.3733250556165154
0.3733250556171052
0.3733250573345651
0.373325389745918
0.373325055632826
0.3733250575618073
0.3733281144234395
0.3755454465914922
0.3733250556270096
0.3733250569767135
0.3733270652759445
0.3745267483470198
0.3733250556188026
0.373325056036373
0.3733256542265087
0.3736277283386208
0.3733250556165156
0.3733250556553118
0.3733251126591573
0.3733498825307757
0.3750996613916346
0.3733258303513466
0.3733250557741146
0.3733250556171371
0.3750897323645482
0.3733262252456904
0.3733250560831317
0.373325055619562
0.3750311076397396
0.3733261442419529
0.3733250560374322
0.3733250556192006
0.374892721659725
0.3733260336152687
0.3733250559396111
0.373325055618802
0.3747991470077819
0.3733249031228094
0.3733250556165154
0.3733250556165154
0.3747781752852997
0.3733250745318282
0.3733250556165154
0.3733250556165154
0.3742360808891048
0.3733250556165149
0.3733250556165154
0.3733250556165153
0.3735043998456847
0.3733250556165154
0.3733250556165154
0.3733250556165151
0.3733250556165154
0.3733250556165154
0.3733250556165154
0.3733250554718266
0.3733250556165152
0.3733250556165155
0.3733250556165153
0.3733250555998363
0.3733250556165154
0.3733250556165154
0.3733250556165154
0.3733251194676966
0.3733250556165154
0.3733250556165154
0.3733250556165151
0.3733252841897113
0.3733250332836774
0.3733247888311387
0.3733226694748564
0.3733837477227016
0.3733247888326741
0.3733227311593242
0.3733087753825571
0.3732970091037778
0.3733226694752633
0.3733087753830384
0.3733668849070781
0.3781396100859997
0.3733837477230993
0.373297009104212
0.3781396100864628
0.4191941941243169
0.505458666296427
0.4351133695772522
0.4074376088620552
0.382433269742429
0.5182919628221022
0.488691233892434
0.4710936466118913
0.4214157083897025
0.5258825174400593
0.5143192721046085
0.5045827644072319
0.4523313235171355
0.5306270836936813
0.5222098870271314
0.51334126792611
0.4587282991053339
0.4625520275750676
0.4643371861837922
0.4649619405995185
0.4768353069521073
0.5151045653823175
0.5155342398753791
0.515840251400659
0.5400061147703662
0.5238470708090424
0.52410001611747
0.5244062645280371
0.5412522538773584
0.5322267567320063
0.5318867738291821
0.5318476592560677
0.5497121232823449
0.4416588841792813
0.3979150389588627
0.3777503995682928
0.3735732008054924
0.4578295640404502
0.3990658890171953
0.3773172685099361
0.3734976422406627
0.4133590108934259
0.381028585053965
0.3759298661947737
0.37348928973886
0.3527403407843441
0.3599212575609871
0.3708759328790058
0.3730769193541678
0.3733235004054419
0.3733243812050551
0.3733249933368417
0.3733250541232397
0.3733174770335879
0.3733243021635776
0.3733250464499133
0.3733250554924644
0.3733157746560449
0.3733246638171964
0.3733250623863016
0.3733250556905549
0.3732931934379266
0.3733220803354326
0.3733249604385925
0.3733250550844928
0.3733250555790885
0.373325055708466
0.3733251482878425
0.3545528612675886
0.3733250556326106
0.3733250556441224
0.3733250914462959
0.3555786690370009
0.3733250556304619
0.3733250556300891
0.3733250617683233
0.3842962673538413
0.3733250556240243
0.3733250556271298
0.373325057044087
0.4446664566936558
0.5140109462618017
0.6336233772553567
0.651509730900363
0.652673720436834
0.6479975750669217
0.7411354041883538
0.761117623755076
0.7625001136195527
0.6876632934915802
0.746625872645947
0.7714838070550066
0.7737310094179736
0.7126242704699812
0.715967215955824
0.7358275422504575
0.7387935223424518
0.6530418538922601
0.6535991247548777
0.654273644755508
0.6553769248703273
0.7624712715632214
0.762445356623687
0.7624980354075075
0.7618717029902259
0.773808133025339
0.7737601577306839
0.7737578743112161
0.7733505567247185
0.7390306382530103
0.7390141618772879
0.7390040386356617
0.7385670579676892
0.6367092512108565
0.6210848125573167
0.6014159549201732
0.5209735701765169
0.7580387407419988
0.7531928912387286
0.7382422967027098
0.6719330612810176
0.7727066205456783
0.7694596345363767
0.7473616443475161
0.6880082609427228
0.7413827627036601
0.7420314868773237
0.7224050438170981
0.7224914808505848
0.3630857460611124
0.1995305353218818
0.09586295107212793
0.08179614108549786
0.3524349410786116
0.1374268538678992
0.07607622798612312
0.06612804533306885
0.2756703044633482
0.08535027555139722
0.06647343717225836
0.06093719478951466
0.1928431925181431
0.03881782031349832
0.05151561192151934
0.05188980213403897
0.08105543374818257
0.0819910195587325
0.08438023761207487
0.07435725756448787
0.06610034390935429
0.06700468928823418
0.07197955464209507
0.06565829128489832
0.05946106027066564
0.06090764424938303
0.06852219636363424
0.06415871928050938
0.04860530648619441
0.04965137308359402
0.05955674164078412
0.05186661713276373
0.2240592583010069
0.3383735439538976
0.3665747856687959
0.3562802005270246
0.1716816659901649
0.2912379179682837
0.3460452952212484
0.3482397118203575
0.1469249467762204
0.254023975021937
0.3207246600581617
0.3464311400273424
0.09923316916816387
0.2202408275497121
0.2961717775787979
0.3441779318199429
0.3467481722049556
0.3171438770573818
0.2719412355970347
0.2299425017498704
0.2836563715652152
0.25631307700644
0.2197117287031943
0.1595282696024627
0.2026273714172695
0.1617775590160972
0.177842473439882
0.1356925572767476
0.1618875134763394
0.09284295941559086
0.09366624543319019
0.09202895681128057
0.06302449318867873
0.0485148791994481
0.04718532512402368
0.04671724083089547
0.08659041700549784
0.075379750768412
0.07346300607479393
0.07237230890109589
0.1290862105232963
0.1246925365788096
0.1235131524562209
0.1227808681058187
0.2126567970177403
0.2102174361292004
0.2091563158301239
0.208599873452173
0.04671724083086547
0.07237230890126291
0.1227808681056823
0.2085998734529494
0.04718532512392659
0.07346300607505278
0.1235131524561252
0.2091563158297929
0.04851487919931571
0.07537975076846067
0.1246925365786
0.2102174361296692
0.06302449318890543
0.08659041700530619
0.129086210523016
0.2126567970172129
0.2299425017496819
0.271941235596531
0.3171438770569027
0.3467481722041841
0.1595282696023271
0.2197117287032268
0.2563130770067047
0.2836563715648066
0.1356925572766856
0.17784247343998
0.1617775590160235
0.2026273714170405
0.0920289568114164
0.09366624543315533
0.09284295941558439
0.161887513476208
0.3441779318194934
0.2961717775783642
0.2202408275498103
0.09923316916814216
0.3464311400271947
0.3207246600580017
0.2540239750219617
0.1469249467763169
0.348239711820325
0.3460452952209377
0.2912379179681893
0.1716816659903235
0.3562802005268393
0.3665747856684328
0.3383735439538035
0.2240592583012093
0.07435725756436695
0.0843802376121474
0.08199101955863836
0.08105543374803117
0.06565829128480902
0.07197955464205659
0.06700468928816666
0.06610034390925042
0.06415871928046467
0.06852219636371339
0.06090764424949978
0.05946106027073456
0.05186661713288111
0.05955674164097039
0.04965137308381196
0.04860530648632666
0.08179614108491169
0.09586295107161469
0.1995305353216724
0.3630857460609572
0.06612804533292775
0.07607622798595194
0.1374268538677136
0.3524349410777826
0.06093719478962874
0.06647343717218347
0.08535027555140101
0.2756703044626831
0.05188980213423851
0.05151561192153059
0.03881782031344198
0.192843192517997
0.5209735701755854
0.6014159549200884
0.621084812556832
0.6367092512106233
0.6719330612802219
0.7382422967026253
0.7531928912387608
0.7580387407423325
0.6880082609421622
0.7473616443472743
0.7694596345364433
0.7727066205453046
0.722491480850447
0.7224050438170645
0.7420314868774291
0.7413827627036813
0.6553769248697413
0.6542736447562904
0.6535991247552727
0.6530418538921258
0.7618717029896982
0.7624980354081008
0.7624453566241284
0.7624712715631583
0.7733505567236318
0.7737578743113941
0.7737601577307311
0.7738081330250188
0.7385670579672967
0.7390040386359541
0.7390141618772808
0.739030638252831
0.6526737204364362
0.6515097309008322
0.6336233772553344
0.51401094626268
0.7625001136192959
0.7611176237555222
0.7411354041880185
0.647997575067509
0.7737310094176982
0.7714838070553406
0.7466258726457049
0.6876632934917286
0.7387935223423732
0.7358275422508517
0.7159672159552831
0.712624270469939
0.35455286126758
0.3733251482877371
0.3733250557083648
0.3733250555790944
0.3555786690370951
0.3733250914462451
0.3733250556440738
0.3733250556326168
0.3842962673540263
0.3733250617683023
0.3733250556300762
0.37332505563044
0.4446664566937085
0.3733250570440774
0.3733250556271194
0.3733250556240048
0.3733250541232583
0.3733249933369396
0.3733243812050782
0.373323500405411
0.3733250554924403
0.3733250464498262
0.3733243021636897
0.3733174770334787
0.3733250556905119
0.3733250623862465
0.3733246638174951
0.3733157746558907
0.3733250550844742
0.3733249604386076
0.3733220803357193
0.3732931934380765
0.373573200805276
0.3777503995681961
0.3979150389584986
0.4416588841790461
0.3734976422404686
0.3773172685099241
0.3990658890170106
0.4578295640405415
0.3734892897386757
0.3759298661947833
0.3810285850538748
0.4133590108937195
0.3730769193536205
0.3708759328791414
0.3599212575607805
0.3527403407844076
0.4768353069518413
0.4649619405990286
0.4643371861832827
0.462552027575572
0.5400061147699773
0.5158402514003719
0.5155342398749635
0.5151045653828015
0.5412522538769102
0.5244062645275138
0.524100016116408
0.5238470708092624
0.5497121232821542
0.5318476592557645
0.5318867738285411
0.5322267567321923
0.4587282991053108
0.452331323516499
0.4214157083902615
0.3824332697428774
0.5133412679262805
0.5045827644068765
0.4710936466119885
0.4074376088621798
0.522209887027649
0.5143192721038087
0.4886912338923383
0.435113369577009
0.5306270836944484
0.5258825174399061
0.5182919628219707
0.5054586662965943
0.3728328285756504
0.3733233532248007
0.3733250536727967
0.3733250556406141
0.3719833248454656
0.3733199690881299
0.3733250496952598
0.3733250556945601
0.370729290452039
0.3733151674277787
0.3733250425991614
0.3733250556943607
0.3696691362748245
0.3733117349996895
0.3733250385671655
0.3733250557115386
0.3733250558538636
0.3733250450808029
0.373314228703035
0.3707659817192131
0.3733250558513791
0.3733250449822463
0.3733142383491016
0.3707716824901646
0.3733250558205133
0.3733250440112196
0.3733142073549718
0.3707787435641371
0.3733250557585528
0.3733250421813781
0.373314234467273
0.3708146893768495
0.3733250557114087
0.3733250556942609
0.3733250556936118
0.3733250556395394
0.3733250385673083
0.3733250425991518
0.3733250496950412
0.3733250536721325
0.373311735000416
0.3733151674268866
0.373319969088987
0.3733233532242322
0.3696691362740217
0.3707292904512476
0.3719833248455962
0.372832828575826
)
;

boundaryField
{
    back
    {
        type            empty;
    }
    inlet
    {
        type            calculated;
        value           nonuniform List<scalar> 
16
(
0.3733250556165154
0.3733250556165154
0.3733250556165154
0.3733250556165154
0.3733250556165154
0.3733250556165155
0.3733250556165152
0.3733250556165154
0.3733250556165154
0.3733250556165154
0.3733250556165154
0.3733250556165151
0.3733250556165154
0.3733250556165152
0.3733250556165154
0.3733250556165154
)
;
    }
    front
    {
        type            empty;
    }
    top
    {
        type            calculated;
        value           nonuniform List<scalar> 
40
(
0.3733250556187424
0.3733250556192839
0.3733250556194606
0.3733250556172239
0.3733250556332779
0.3733250556274856
0.3733250556188525
0.3733250556165155
0.3733250556165152
0.3733250556165152
0.3733250556165154
0.3733250556165155
0.3733250556165154
0.3733250556165154
0.3733250556165165
0.3733250556162668
0.3733250556165152
0.3733250556215109
0.3733250556237293
0.3733250556254589
0.3733250556280424
0.3733250556312708
0.3733250556356321
0.3733250556436042
0.3733250556334378
0.3733250556336515
0.3733250557002916
0.3733250554597817
0.3733250555470323
0.3733250556320161
0.3733250556106461
0.373325055638688
0.3733250555559479
0.3733250556022208
0.3733250556438117
0.3733250555684702
0.3733250556148712
0.3733250556182396
0.3733250556165154
0.3733250556142884
)
;
    }
    outlet
    {
        type            calculated;
        value           uniform 0.3733250556165154;
    }
    bottom
    {
        type            calculated;
        value           nonuniform List<scalar> 
40
(
0.3733250556144787
0.3733250556165154
0.3733250556182978
0.3733250556146897
0.3733250555567033
0.373325055602553
0.3733250556432122
0.373325055568642
0.3733250556385801
0.3733250556096634
0.3733250556310586
0.3733250555481974
0.3733250556333187
0.3733250556337461
0.3733250557008489
0.3733250554607622
0.3733250556435084
0.3733250556357511
0.3733250556311885
0.3733250556279343
0.3733250556165154
0.3733250556212305
0.3733250556236145
0.3733250556253174
0.3733250556162552
0.3733250556165367
0.3733250556165154
0.3733250556165154
0.3733250556165152
0.3733250556165154
0.3733250556165154
0.3733250556165154
0.373325055632826
0.3733250556270096
0.3733250556188026
0.3733250556165156
0.3733250556171371
0.373325055619562
0.3733250556192006
0.373325055618802
)
;
    }
    wall
    {
        type            calculated;
        value           nonuniform List<scalar> 
104
(
0.505458666296427
0.5182919628221021
0.5258825174400593
0.5306270836936813
0.5322267567320063
0.5318867738291821
0.5318476592560677
0.5497121232823449
0.3527403407843441
0.3599212575609871
0.3708759328790057
0.3730769193541678
0.3732931934379266
0.3733220803354326
0.3733249604385925
0.3733250550844928
0.3733250556240243
0.3733250556271297
0.373325057044087
0.4446664566936558
0.7126242704699812
0.715967215955824
0.7358275422504575
0.7387935223424518
0.7390306382530103
0.7390141618772879
0.7390040386356617
0.7385670579676892
0.7413827627036601
0.7420314868773237
0.7224050438170981
0.7224914808505848
0.1928431925181431
0.03881782031349832
0.05151561192151934
0.05188980213403897
0.04860530648619441
0.04965137308359402
0.05955674164078412
0.05186661713276373
0.09923316916816387
0.2202408275497121
0.2961717775787979
0.3441779318199429
0.1618875134763394
0.09284295941559084
0.09366624543319019
0.09202895681128057
0.06302449318867873
0.0485148791994481
0.04718532512402368
0.04671724083089547
0.04671724083086547
0.04718532512392659
0.04851487919931571
0.06302449318890543
0.0920289568114164
0.09366624543315533
0.09284295941558439
0.161887513476208
0.3441779318194934
0.2961717775783642
0.2202408275498103
0.09923316916814216
0.0518666171328811
0.05955674164097038
0.04965137308381196
0.04860530648632666
0.05188980213423851
0.05151561192153059
0.03881782031344198
0.192843192517997
0.722491480850447
0.7224050438170645
0.7420314868774291
0.7413827627036813
0.7385670579672967
0.7390040386359541
0.7390141618772808
0.739030638252831
0.7387935223423732
0.7358275422508517
0.7159672159552831
0.712624270469939
0.4446664566937085
0.3733250570440774
0.3733250556271194
0.3733250556240048
0.3733250550844742
0.3733249604386076
0.3733220803357193
0.3732931934380765
0.3730769193536205
0.3708759328791415
0.3599212575607805
0.3527403407844076
0.5497121232821541
0.5318476592557645
0.5318867738285411
0.5322267567321923
0.5306270836944483
0.5258825174399061
0.5182919628219707
0.5054586662965943
)
;
    }
}


// ************************************************************************* //
