/*--------------------------------*- C++ -*----------------------------------*\
  =========                 |
  \\      /  F ield         | OpenFOAM: The Open Source CFD Toolbox
   \\    /   O peration     | Website:  https://openfoam.org
    \\  /    A nd           | Version:  11
     \\/     M anipulation  |
\*---------------------------------------------------------------------------*/
FoamFile
{
    format      ascii;
    class       surfaceScalarField;
    location    "19.1";
    object      phi;
}
// * * * * * * * * * * * * * * * * * * * * * * * * * * * * * * * * * * * * * //

dimensions      [0 3 -1 0 0 0 0];

internalField   nonuniform List<scalar> 
10792
(
0.069884547
-0.043444234
-0.070451732
0.04401142
0.069336428
-0.041463199
0.042011319
0.068616273
-0.039290315
0.04001047
0.067909052
-0.037096677
0.037803899
0.067144015
-0.034969923
0.03573496
0.066301203
-0.032524261
0.033367073
0.065446932
-0.030245994
0.031100265
0.064643965
-0.027809335
0.028612302
0.06381147
-0.02548168
0.026314175
0.0630894
-0.022906076
0.023628146
0.06233196
-0.020594285
0.021351726
0.061649656
-0.017842725
0.01852503
0.061055007
-0.015538726
0.016133375
0.060436472
-0.012777986
0.013396521
0.060018422
-0.010349091
0.010767141
0.059524421
-0.0077872732
0.0082812743
0.059262959
-0.0051285665
0.0053900289
0.058997293
-0.0028377061
0.0031033718
-5.7086997e-05
0.059147029
-9.2648837e-05
0.073767623
-0.04293095
-0.074280908
0.073200597
-0.040896173
0.07251136
-0.038601078
0.071841785
-0.036427102
0.071034026
-0.034162164
0.070247567
-0.031737802
0.069482605
-0.029481032
0.068714776
-0.027041506
0.067946457
-0.02471336
0.067216732
-0.022176351
0.066439258
-0.019816812
0.065786327
-0.017189793
0.065139483
-0.014891882
0.064532416
-0.012170919
0.064123071
-0.0099397464
0.06365024
-0.0073144422
0.063476313
-0.0049546395
0.063212413
-0.0025738059
2.9127692e-05
0.063126199
0.078470814
-0.042459827
-0.078941937
0.07790104
-0.040326399
0.077247039
-0.037947077
0.076540805
-0.035720869
0.0757082
-0.033329559
0.074992502
-0.031022104
0.074212523
-0.028701053
0.073426216
-0.026255199
0.072616533
-0.023903678
0.071814594
-0.021374413
0.071033017
-0.019035235
0.070337844
-0.016494621
0.069649059
-0.014203097
0.069106199
-0.011628059
0.06861374
-0.0094472875
0.068191803
-0.0068925054
0.06794889
-0.0047117266
0.067634835
-0.002259751
5.9879095e-05
0.067604084
0.082844214
-0.042093065
-0.083210975
0.082244963
-0.039727148
0.081625961
-0.037328075
0.08090334
-0.034998248
0.080153972
-0.032580191
0.079490187
-0.030358319
0.078648639
-0.027859505
0.077847481
-0.025454041
0.077003988
-0.023060184
0.076247915
-0.02061834
0.075536518
-0.018323838
0.074872465
-0.015830567
0.074240732
-0.013571364
0.073718635
-0.011105962
0.073198442
-0.008927094
0.072820126
-0.0065141891
0.072497079
-0.0043886793
0.072272395
-0.0020350669
0.0001179067
0.072214367
0.088256056
-0.041666834
-0.088682287
0.087516488
-0.038987581
0.086927382
-0.03673897
0.086219192
-0.034290058
0.085541944
-0.031902943
0.084727831
-0.029544206
0.083829123
-0.026960797
0.083072298
-0.024697216
0.082275977
-0.022263864
0.081587013
-0.019929376
0.080846559
-0.017583384
0.080183836
-0.015167844
0.079525189
-0.012912717
0.07896557
-0.010546343
0.078435747
-0.0083972709
0.078035478
-0.0061139198
0.07770252
-0.0040557212
0.077489652
-0.0018221988
0.00020512172
0.077402437
0.093244874
-0.041018331
-0.093893377
0.09261917
-0.038361877
0.092090133
-0.036209932
0.091271185
-0.033471111
0.090528924
-0.031160682
0.089666146
-0.028681428
0.088975077
-0.026269728
0.088258946
-0.023981085
0.087461409
-0.021466327
0.08673697
-0.019204936
0.085924557
-0.016770971
0.085278799
-0.014522085
0.084609542
-0.012243461
0.084087079
-0.01002388
0.083582718
-0.0078929094
0.083217224
-0.0057484256
0.082890319
-0.0037288168
0.082691668
-0.0016235475
0.00033217161
0.082564618
0.099148532
-0.040283697
-0.099883166
0.098546159
-0.037759504
0.097885587
-0.035549361
0.097113902
-0.032699425
0.096483303
-0.030530083
0.095676798
-0.027874923
0.095058182
-0.025651112
0.094236343
-0.023159246
0.093496916
-0.0207269
0.092748081
-0.018456101
0.091993127
-0.016016017
0.09134337
-0.013872328
0.090673981
-0.011574073
0.090163322
-0.0095132204
0.08961371
-0.0073432974
0.089224436
-0.0053591514
0.088850168
-0.0033545485
0.088611744
-0.0013851236
0.00050091342
0.088443002
0.10528713
-0.039562458
-0.10600837
0.10472948
-0.037201856
0.10393087
-0.034750748
0.10326114
-0.032029692
0.10256585
-0.029834792
0.10167417
-0.026983246
0.10089917
-0.024876112
0.10000328
-0.022263351
0.099343219
-0.020066843
0.098547603
-0.017660486
0.09791049
-0.015378904
0.097220888
-0.013182726
0.096585355
-0.01093854
0.096015797
-0.0089436625
0.095496849
-0.0068243499
0.095148437
-0.0050107389
0.094822686
-0.0030287973
0.094649954
-0.0012123923
0.00063853048
0.094512337
0.11199795
-0.038706935
-0.11285347
0.11125562
-0.036459528
0.11041495
-0.033910083
0.10987128
-0.031486016
0.10906025
-0.02902377
0.10831975
-0.026242745
0.10757021
-0.02412657
0.10676323
-0.021456365
0.10614618
-0.0194498
0.10538227
-0.016896575
0.10478692
-0.014783549
0.10401056
-0.012406369
0.10342876
-0.010356743
0.10280483
-0.0083197333
0.10232594
-0.0063454543
0.10188428
-0.0045690828
0.10151762
-0.002662132
0.10130593
-0.0010007015
0.00081865127
0.10112581
0.11921433
-0.037910979
-0.12001028
0.11848964
-0.035734842
0.11758536
-0.033005804
0.11685256
-0.030753213
0.11601627
-0.028187479
0.11549844
-0.025724917
0.11467381
-0.023301942
0.11390374
-0.020686296
0.11309384
-0.018639895
0.11232271
-0.016125448
0.11173201
-0.014192848
0.11104562
-0.011719975
0.11054464
-0.0098557712
0.10989203
-0.0076671199
0.1094572
-0.0059106283
0.10898919
-0.0041010719
0.10871502
-0.0023879633
0.10849079
-0.00077646685
0.00092730163
0.10838214
0.12698803
-0.037025462
-0.12787355
0.12613403
-0.034880834
0.12537718
-0.032248954
0.12457432
-0.029950362
0.12362648
-0.027239637
0.12295617
-0.02505461
0.12214009
-0.022485859
0.12151903
-0.020065232
0.12061272
-0.017733591
0.11987822
-0.015390949
0.11911425
-0.013428873
0.11847235
-0.011078075
0.1178907
-0.0092741247
0.1172673
-0.0070437169
0.11680892
-0.0054522481
0.11629374
-0.0035858894
0.11601792
-0.0021121428
0.11572468
-0.00048322702
0.0010044856
0.11564749
0.13562889
-0.036210866
-0.13644348
0.13463897
-0.033890919
0.13379049
-0.031400477
0.13292836
-0.029088228
0.13210275
-0.026414029
0.13126057
-0.024212424
0.1303513
-0.021576596
0.12965135
-0.019365282
0.12878361
-0.016865851
0.12816923
-0.01477657
0.12733225
-0.012591895
0.12679855
-0.010544375
0.12614446
-0.0086200342
0.12567116
-0.0065704149
0.12518161
-0.0049626982
0.12477888
-0.0031831612
0.12449187
-0.0018251264
0.12423246
-0.00022382315
0.0010750362
0.12416191
0.14457708
-0.035147502
-0.14564044
0.14340066
-0.032714502
0.14249528
-0.030495091
0.14145279
-0.02804574
0.14068186
-0.025643103
0.13982205
-0.023352617
0.13900998
-0.020764524
0.13824835
-0.018603653
0.13744291
-0.016060412
0.13674454
-0.014078199
0.13593375
-0.011781106
0.13536134
-0.009971958
0.13461773
-0.007876422
0.1341574
-0.0061100925
0.1335463
-0.0043515937
0.13319051
-0.0028273683
0.13278516
-0.001419782
0.13260333
-4.1994697e-05
0.0012243497
0.13245402
0.15470568
-0.034051928
-0.15580125
0.15355174
-0.031560557
0.15248137
-0.029424722
0.15136492
-0.026929289
0.15048593
-0.024764114
0.14940509
-0.022271779
0.14864395
-0.020003387
0.14774967
-0.017709375
0.14701468
-0.015325412
0.14622731
-0.013290837
0.1455381
-0.01109189
0.14492656
-0.0093604254
0.1442933
-0.0072431549
0.14383302
-0.0056498127
0.14323347
-0.0037520508
0.14289044
-0.0024843391
0.14245279
-0.00098212756
0.14233126
7.9533054e-05
0.0014024652
0.14215315
0.16484226
-0.032478997
-0.16641519
0.16360853
-0.03032682
0.16237194
-0.028188134
0.16124226
-0.025799617
0.16022007
-0.023741922
0.15920916
-0.021260869
0.15846721
-0.019261438
0.15753124
-0.016773397
0.15682091
-0.014615082
0.15592716
-0.012397092
0.15526915
-0.010433879
0.15449928
-0.0085905529
0.15398938
-0.0067332516
0.15347423
-0.0051346671
0.15305178
-0.0033295987
0.15265065
-0.0020832102
0.15227938
-0.00061086028
0.15206385
0.00029506429
0.0015603013
0.15190601
0.17709386
-0.030866789
-0.17870607
0.17565108
-0.028884037
0.17425696
-0.026794014
0.17308373
-0.024626393
0.17184061
-0.022498793
0.17082725
-0.020247513
0.16982475
-0.01825894
0.1689201
-0.015868742
0.16817011
-0.0138651
0.16734281
-0.011569786
0.1666716
-0.0097626688
0.16587574
-0.0077946947
0.16540534
-0.0062628478
0.16477063
-0.0044999598
0.16442844
-0.0029874073
0.16389466
-0.001549438
0.16359713
-0.00031332754
0.16319422
0.00069797239
0.001771832
0.16298269
0.18916648
-0.029096409
-0.19093686
0.1875108
-0.027228354
0.18597496
-0.025258181
0.18462395
-0.023275378
0.18328927
-0.021164109
0.18216795
-0.019126199
0.18102726
-0.01711825
0.1801266
-0.014968076
0.17928007
-0.013018575
0.17854147
-0.010831186
0.17780772
-0.0090289179
0.17709259
-0.0070795615
0.17648379
-0.0056540506
0.17592569
-0.0039418586
0.17565773
-0.0027194458
0.1753308
-0.0012225161
0.17522785
-0.00021037241
0.17496331
0.00096251603
0.0017861173
0.17494902
0.20323691
-0.027173686
-0.20515963
0.20140581
-0.025397256
0.19977569
-0.023628063
0.19823889
-0.021738582
0.19688477
-0.019809986
0.19564516
-0.017886591
0.19445527
-0.015928361
0.19346111
-0.013973917
0.19251042
-0.012067881
0.19175473
-0.010075498
0.19097074
-0.0082449229
0.19028731
-0.0063961365
0.18952999
-0.0048967322
0.18890284
-0.0033147064
0.18834428
-0.0021608864
0.18792272
-0.00080095846
0.18764277
6.9580422e-05
0.18743564
0.001169646
0.0018714833
0.18735028
0.21750328
-0.025003038
-0.21967392
0.21549915
-0.023393128
0.21363521
-0.021764123
0.21186808
-0.019971453
0.21033156
-0.018273466
0.2089193
-0.016474334
0.20764535
-0.014654411
0.20648836
-0.012816921
0.20545991
-0.011039432
0.20463931
-0.0092549017
0.2039297
-0.0075353125
0.20339547
-0.0058619009
0.20281862
-0.0043198881
0.20237809
-0.0028741794
0.20190928
-0.0016920715
0.20160965
-0.00050133185
0.20131639
0.00036284126
0.2012042
0.0012818386
0.0019926486
0.20108303
0.23384358
-0.022644718
-0.2362019
0.23163697
-0.02118652
0.22955227
-0.019679418
0.22766502
-0.018084209
0.22594718
-0.016555622
0.22439652
-0.014923675
0.22302644
-0.013284331
0.22177419
-0.011564669
0.22062176
-0.0098870062
0.21960206
-0.0082352021
0.21874606
-0.0066793113
0.21807047
-0.005186305
0.21750879
-0.003758216
0.21705354
-0.0024189246
0.21666672
-0.0013052551
0.21637069
-0.00020529652
0.2161061
0.00062743047
0.21598482
0.0014031168
0.0021310647
0.2158464
0.25043067
-0.020102649
-0.25297274
0.24807923
-0.018835083
0.2457884
-0.017388582
0.24374954
-0.01604535
0.24182861
-0.01463469
0.24015848
-0.013253549
0.23870204
-0.011827889
0.23743333
-0.010295955
0.23631645
-0.008770134
0.23533645
-0.0072551985
0.23443819
-0.0057810469
0.23368877
-0.0044368935
0.23311727
-0.0031867115
0.23267569
-0.0019773417
0.23236579
-0.00099535881
0.23217746
-1.696399e-05
0.23203802
0.00076686533
0.23197168
0.0014694639
0.0021348155
0.23196792
0.26915301
-0.017381545
-0.27187411
0.26657777
-0.01625985
0.26421142
-0.01502223
0.26193826
-0.013772189
0.25979027
-0.012486699
0.25786816
-0.011331444
0.25612432
-0.010084043
0.2546766
-0.0088482353
0.25344726
-0.0075407979
0.2524648
-0.0062727366
0.25160697
-0.0049232171
0.25089499
-0.0037249113
0.25026179
-0.0025535148
0.24979561
-0.0015111618
0.24942717
-0.00062691143
0.24915136
0.00025884393
0.24905489
0.00086333475
0.24904765
0.0014766992
0.0020193348
0.24916313
0.28850404
-0.014544637
-0.29134095
0.28577834
-0.013534149
0.28334087
-0.012584757
0.28106413
-0.011495453
0.27896748
-0.010390052
0.27697788
-0.0093418425
0.27512215
-0.0082283082
0.27350078
-0.007226871
0.27209323
-0.0061332431
0.27092984
-0.0051093495
0.26999292
-0.0039862966
0.26923699
-0.0029689803
0.26863826
-0.0019547868
0.2681883
-0.0010611993
0.26792597
-0.00036458545
0.26779469
0.000390128
0.26773415
0.0009238703
0.26778734
0.0014235107
0.0019239612
0.26788272
0.30984181
-0.011351087
-0.31303536
0.30684002
-0.01053236
0.30396613
-0.009710874
0.30135187
-0.0088811852
0.29901851
-0.0080566989
0.2969115
-0.0072348274
0.29504871
-0.0063655192
0.29336403
-0.0055421922
0.29189616
-0.0046653737
0.2906546
-0.0038677885
0.28968443
-0.0030161267
0.28896347
-0.0022480228
0.28846366
-0.0014549687
0.2881253
-0.00072283981
0.28790269
-0.00014197393
0.2878435
0.00044931682
0.28795361
0.00081375867
0.28815438
0.0012227385
0.001553339
0.288525
0.33259027
-0.0080693148
-0.33587204
0.32948354
-0.0074256343
0.32654775
-0.0067750883
0.32381265
-0.0061460851
0.32129245
-0.0055364899
0.31900088
-0.0049432624
0.31698392
-0.0043485558
0.31519383
-0.0037521101
0.31365481
-0.0031263505
0.31236565
-0.0025786233
0.31130545
-0.001955935
0.31051166
-0.0014542333
0.30993304
-0.00087633951
0.30961317
-0.0004029706
0.30952772
-5.6527137e-05
0.30955845
0.00041859112
0.3097663
0.00060590036
0.30998317
0.0010058756
0.0011871497
0.31034936
0.35699566
-0.0042810007
-0.36078398
0.35352593
-0.0039558989
0.35033158
-0.0035807345
0.34740412
-0.0032186262
0.34472857
-0.0028609399
0.34232061
-0.0025353071
0.34019347
-0.0022214151
0.33831954
-0.0018781748
0.33675373
-0.0015605427
0.33541862
-0.0012435134
0.3344016
-0.00093891841
0.33363215
-0.00068478326
0.3331662
-0.00041039011
0.33296333
-0.00020010182
0.33289092
1.5890746e-05
0.33314088
0.00016862704
0.33355767
0.00018911465
0.33406277
0.00050077503
0.00046300474
0.33478691
0.38441135
-0.38869236
0.38045546
0.37687472
0.3736561
0.37079516
0.36825985
0.36603843
0.36416026
0.36259972
0.3613562
0.36041728
0.3597325
0.35932211
0.35912201
0.3591379
0.35930653
0.35949564
0.35999642
0.36045942
0.059175917
0.0022604928
-0.0022893807
0.059337783
0.0048762867
-0.005038153
0.060060886
0.0070390892
-0.0077621914
0.06070514
0.0095730275
-0.010217282
0.06182105
0.011962441
-0.013078351
0.062980551
0.0140502
-0.0152097
0.064377282
0.016734602
-0.018131332
0.066080406
0.018620654
-0.020323778
0.067684068
0.021234715
-0.022838377
0.069834149
0.02315998
-0.025310061
0.07175842
0.025313516
-0.027237787
0.074049838
0.027465077
-0.029756495
0.076378105
0.029074338
-0.031402604
0.078717452
0.031149026
-0.033488374
0.08154674
0.032574794
-0.035404082
0.084184939
0.034242247
-0.036880446
0.087207653
0.035555695
-0.038578409
0.090036642
0.036677233
-0.039506223
0.037580429
0.093180741
-0.040724528
0.063186626
0.0022000654
0.06345652
0.0046063928
0.064130906
0.0063647035
0.064889126
0.0088148069
0.066154613
0.010696954
0.06726525
0.012939563
0.068917886
0.015081966
0.07047721
0.01706133
0.072300593
0.019411332
0.074351227
0.021109346
0.076234046
0.023430696
0.078527553
0.025171571
0.080451694
0.027150196
0.082696006
0.028904714
0.084804384
0.030466416
0.086832752
0.03221388
0.088873342
0.033515105
0.090543412
0.035007164
0.03571732
0.092406521
0.06755078
0.0022533696
0.067925232
0.0042319404
0.068445287
0.0058446489
0.069291972
0.0079681216
0.070402401
0.0095865263
0.07157995
0.011762014
0.073159778
0.013502138
0.074654642
0.015566467
0.076517434
0.01754854
0.07824394
0.01938284
0.080150943
0.021523693
0.082031089
0.023291425
0.083779386
0.0254019
0.085569879
0.027114221
0.087103091
0.028933203
0.088534693
0.030782278
0.089607448
0.03244235
0.090294484
0.034320128
0.035467936
0.090543868
0.072225253
0.0022424835
0.072650022
0.0038071718
0.073189235
0.0053054363
0.074117531
0.0070398252
0.07515833
0.0085457273
0.076471004
0.01044934
0.077866657
0.012106485
0.079442348
0.013990776
0.081041431
0.015949457
0.082658304
0.017765967
0.084271223
0.019910774
0.085740663
0.021821986
0.087155295
0.023987269
0.088209091
0.026060425
0.089100744
0.028041551
0.089507371
0.030375651
0.089491713
0.032458009
0.088905614
0.034906226
0.036862038
0.087511512
0.077401611
0.0022433092
0.077735934
0.0034728486
0.078255358
0.0047860123
0.079039196
0.0062559872
0.079965594
0.0076193298
0.081144214
0.0092707197
0.082413355
0.010837344
0.083830027
0.012574104
0.08523318
0.014546304
0.086657012
0.016342136
0.087834051
0.018733735
0.089012388
0.020643649
0.089755142
0.023244515
0.090358517
0.02545705
0.090311981
0.028088086
0.089917299
0.030770332
0.088717476
0.033657832
0.086904645
0.036719058
0.039774071
0.083992612
0.082598661
0.0022092659
0.082956663
0.0031148472
0.083532656
0.0042100189
0.084411697
0.0053769467
0.085424465
0.0066065623
0.086661721
0.0080334633
0.087855268
0.0096437977
0.089064529
0.011364843
0.090219315
0.013391519
0.091185545
0.015375906
0.091983883
0.017935398
0.092491489
0.020136043
0.092569429
0.023166575
0.092409153
0.025617327
0.091278374
0.029218865
0.09003124
0.032017466
0.087550341
0.036138732
0.084749131
0.039520267
0.043906817
0.080616386
0.088462479
0.002189789
0.088693631
0.0028836955
0.089219153
0.0036844967
0.089939196
0.004656904
0.090839486
0.005706272
0.091831949
0.0070410002
0.092830803
0.008644944
0.093885353
0.010310294
0.094768714
0.012508158
0.095515332
0.014629288
0.095892141
0.017558589
0.095918766
0.020109418
0.095460056
0.023625285
0.094386166
0.026691217
0.092612396
0.030992636
0.090271587
0.034358275
0.087041479
0.039368839
0.083566912
0.042994835
0.048632584
0.078841144
0.094555848
0.0021462781
0.094814575
0.0026249681
0.095335647
0.003163425
0.096044007
0.0039485444
0.096974622
0.0047756567
0.097838317
0.0061773062
0.098832055
0.0076512058
0.099491824
0.0096505252
0.10005999
0.011939989
0.10019185
0.014497434
0.10005915
0.017691291
0.099436495
0.02073207
0.098228257
0.024833523
0.096504678
0.028414796
0.094161787
0.033335527
0.091115891
0.037404171
0.087658877
0.042825853
0.083495337
0.047158374
0.053540387
0.078587535
0.10107925
0.0021928381
0.10125488
0.0024493334
0.10173573
0.0026825784
0.10234236
0.0033419109
0.10305435
0.0040636643
0.10377067
0.0054609896
0.10454937
0.0068725059
0.10498036
0.009219531
0.10543503
0.011485322
0.10514896
0.014783501
0.10480959
0.018030664
0.10348762
0.022054042
0.10201478
0.026306362
0.099607382
0.030822194
0.096920069
0.036022841
0.093495199
0.040829041
0.089728819
0.046592233
0.085172207
0.051714988
0.058411316
0.080301277
0.10833936
0.002235615
0.10847928
0.0023094153
0.10891822
0.0022436391
0.10945758
0.0028025514
0.11005286
0.0034683872
0.11061208
0.0049017659
0.11102473
0.0064598549
0.1111403
0.0091039592
0.11099838
0.01162725
0.11025771
0.01552417
0.10938873
0.018899639
0.10763937
0.023803408
0.10590988
0.02803585
0.10302441
0.03370766
0.10042746
0.038619796
0.096630637
0.044625863
0.093178535
0.050044335
0.088824581
0.056068942
0.062492774
0.084743123
0.11549963
0.0023834808
0.11569022
0.0021188206
0.11604045
0.0018934161
0.1164831
0.0023599027
0.11691247
0.0030390092
0.11737795
0.0044362876
0.11765799
0.0061798129
0.1176317
0.0091302539
0.11715058
0.012108373
0.11631941
0.01635534
0.11501266
0.020206388
0.11313984
0.025676231
0.11097694
0.030198742
0.10820458
0.036480023
0.1056687
0.041155676
0.10224255
0.048052017
0.099805034
0.052481849
0.096553552
0.059320424
0.06406723
0.094979095
0.12395528
0.002590113
0.12419526
0.0018788429
0.12438853
0.0017001405
0.1247186
0.0020298413
0.12491035
0.0028472519
0.12506098
0.0042856654
0.12488807
0.0063527211
0.12458376
0.009434563
0.12382004
0.012872088
0.12278238
0.017393006
0.1211034
0.021885366
0.11931319
0.027466442
0.11712014
0.032391796
0.1150682
0.038531963
0.11301557
0.0432083
0.11124867
0.04981892
0.110697
0.053033514
0.11081841
0.059199015
0.060318844
0.1145668
0.13230513
0.002739003
0.13244659
0.0017373774
0.13259637
0.0015503695
0.13297918
0.0016470285
0.13323011
0.0025963164
0.1333164
0.0041993802
0.13297916
0.006689961
0.13255664
0.0098570809
0.13153634
0.013892394
0.13034803
0.01858131
0.12858646
0.02364694
0.12714982
0.02890308
0.12550406
0.034037564
0.12463615
0.039399868
0.12399531
0.043849142
0.12515995
0.048654284
0.12775523
0.050438232
0.13311998
0.053834259
0.051132534
0.14230629
0.14216077
0.0027313759
0.14196336
0.0019347923
0.14191034
0.001603392
0.14203364
0.0015237268
0.14203954
0.0025904184
0.14195353
0.0042853834
0.14162193
0.0070215659
0.14105358
0.010425433
0.13992249
0.015023478
0.13888175
0.019622053
0.13758907
0.024939622
0.13699043
0.029501716
0.13650017
0.034527829
0.13730828
0.03859176
0.13911039
0.042047027
0.14362333
0.04414135
0.14965453
0.044407029
0.15918843
0.044300358
0.039713403
0.17060756
0.15207204
0.0025653516
0.15200864
0.0019981916
0.15213774
0.0014742959
0.15215356
0.0015079069
0.15205658
0.002687396
0.15185947
0.0044824943
0.15140375
0.0074772843
0.15058858
0.011240601
0.14959978
0.016012283
0.14891753
0.020304301
0.14846895
0.025388199
0.14891565
0.029055023
0.14998489
0.033458584
0.1529193
0.035657351
0.15734693
0.0376194
0.16453106
0.03695722
0.17278241
0.036155677
0.18362243
0.033460335
0.029038281
0.19429756
0.16278283
0.002765219
0.16265013
0.0021308887
0.16280592
0.0013185073
0.16267598
0.0016378433
0.16262272
0.0027406604
0.16235403
0.004751185
0.16185171
0.0079795972
0.16120853
0.011883782
0.16085701
0.016363808
0.16090917
0.020252136
0.16164709
0.024650285
0.16328389
0.027418218
0.16617027
0.030572205
0.17107765
0.03074997
0.1774288
0.031268256
0.18590261
0.028483403
0.19456018
0.027498115
0.20436647
0.023654042
0.021258311
0.21214644
0.17454922
0.003165021
0.17467778
0.0020023233
0.1746315
0.0013647953
0.17444523
0.0018241074
0.1744169
0.0027689956
0.17400696
0.0051611233
0.17354133
0.0084452288
0.17322679
0.012198319
0.17349093
0.016099669
0.17428572
0.019457351
0.17612745
0.02280855
0.17897044
0.024575231
0.18354122
0.026001428
0.18972872
0.024562464
0.19694169
0.024055292
0.20501765
0.02040744
0.2122693
0.020246468
0.21932433
0.016599008
0.01754539
0.22303725
0.18704217
0.0034731258
0.18725885
0.0017856406
0.18697728
0.0016463685
0.18706483
0.0017365548
0.18700956
0.0028242692
0.18674933
0.005421352
0.18669201
0.0085025506
0.1870019
0.011888431
0.18805492
0.015046644
0.18974042
0.01777185
0.19286242
0.019686559
0.19691754
0.020520105
0.20269698
0.020221993
0.20904518
0.018214259
0.21561801
0.017482464
0.22154407
0.014481378
0.2260641
0.015726441
0.22913887
0.01352424
0.018014176
0.22867008
0.20105743
0.0034987338
0.20099483
0.0018482415
0.20089035
0.0017508421
0.20106183
0.0015650808
0.20073443
0.0031516616
0.20068427
0.0054715172
0.2009576
0.008229219
0.20181981
0.011026223
0.20345899
0.013407467
0.20584477
0.01538607
0.20967018
0.015861149
0.21412692
0.016063364
0.22007926
0.014269646
0.22511955
0.013173975
0.23003841
0.012563596
0.23311017
0.011409621
0.23485808
0.013978528
0.2340503
0.014332021
0.021864816
0.23019966
0.21589949
0.0034456449
0.21573408
0.002013653
0.21591239
0.0015725345
0.21596078
0.0015166881
0.21599231
0.0031201338
0.21649953
0.004964294
0.21731202
0.0074167303
0.21881065
0.0095275919
0.22093737
0.011280746
0.22421221
0.012111237
0.22826384
0.011809516
0.23291077
0.011416434
0.23774157
0.0094388502
0.2408163
0.010099247
0.24369887
0.0096810258
0.24350691
0.011601579
0.24222274
0.015262697
0.23739645
0.019158311
0.028634447
0.23062682
0.2320181
0.0033954677
0.23192734
0.0021044105
0.23206802
0.0014318633
0.23181226
0.001772446
0.23217138
0.0027610088
0.23269843
0.0044372445
0.23378769
0.0063274739
0.23566496
0.0076503234
0.23818261
0.0087630969
0.24178814
0.0085057065
0.24513842
0.0084592323
0.24919282
0.0073620319
0.25170282
0.0069288516
0.25333635
0.0084657193
0.2534853
0.0095320739
0.25039864
0.014688239
0.24665479
0.019006544
0.23999883
0.02581427
0.034188226
0.23444505
0.24940761
0.0031509882
0.24972041
0.0017916119
0.24988225
0.0012700274
0.25019199
0.0014627084
0.25081995
0.0021330467
0.25154351
0.0037136828
0.25320794
0.0046630464
0.25530423
0.0055540325
0.25812909
0.0059382322
0.26116984
0.0054649628
0.26396815
0.005660917
0.26654829
0.0047818945
0.26712115
0.0063559931
0.26705363
0.0085332341
0.26396388
0.012621823
0.26022988
0.018422247
0.25641711
0.022819306
0.25251122
0.029720162
0.033603171
0.25309628
0.26814643
0.0028872734
0.26820874
0.0017292991
0.26827037
0.0012083956
0.26882615
0.00090693358
0.26935503
0.0016041627
0.27043069
0.0026380212
0.27196548
0.0031282604
0.27382262
0.0036968886
0.27629205
0.0034688013
0.27825783
0.0034991888
0.28025119
0.0036675519
0.28098038
0.0040527087
0.28041636
0.0069200135
0.27881329
0.010136303
0.27611434
0.015320774
0.27528206
0.019254527
0.27452589
0.023575472
0.27739588
0.026850178
0.02603377
0.28496528
0.28911341
0.002298861
0.28948743
0.0013552801
0.28997291
0.00072292058
0.29048522
0.00039462354
0.29129642
0.00079296509
0.29257928
0.0013551541
0.29384816
0.0018593874
0.29560214
0.0019429032
0.29730674
0.0017641974
0.29882035
0.0019855805
0.29977777
0.0027101344
0.29912997
0.0047005093
0.2979675
0.0080824876
0.29646327
0.011640532
0.29650689
0.015277149
0.29818181
0.017579613
0.30212337
0.019633903
0.31074713
0.018226419
0.016692822
0.32008808
0.31086924
0.0017789809
0.3110253
0.001199214
0.31137725
0.00037096976
0.31191779
-0.00014591702
0.3125166
0.00019415973
0.31322083
0.00065092024
0.31417699
0.0009032326
0.31516428
0.00095561
0.3159066
0.0010218787
0.31657952
0.00131266
0.31681197
0.0024776779
0.31683062
0.0046818679
0.31767136
0.0072417483
0.31969789
0.0096140003
0.32370292
0.011272117
0.32914495
0.012137583
0.33684182
0.011937027
0.3445835
0.010484747
0.011396902
0.34987942
0.33571759
0.00084829943
0.33657736
0.00033944484
0.33722314
-0.00027481115
0.33774939
-0.00067216312
0.33831047
-0.00036692698
0.33887949
8.1907995e-05
0.33940368
0.00037903403
0.33988598
0.00047331149
0.34041526
0.00049260365
0.34081207
0.00091584878
0.34123055
0.0020591949
0.34254752
0.0033648953
0.34465834
0.0051309317
0.34836409
0.005908253
0.35287223
0.0067639768
0.35854567
0.006464145
0.36431281
0.0061698869
0.36913099
0.0056665606
0.0058888298
0.37463907
0.36130772
0.36164717
0.36137235
0.36070019
0.36033326
0.36041517
0.36079421
0.36126752
0.36176012
0.36267597
0.36473516
0.36810006
0.37323099
0.37913924
0.38590322
0.39236737
0.39853725
0.40420381
0.41009264
0.090227673
0.044223344
-0.041270276
0.087565481
0.044533642
-0.04187145
0.084852322
0.044098849
-0.04138569
0.082223972
0.044043991
-0.041415641
0.080181305
0.042161359
-0.040118693
0.077539331
0.041432673
-0.038790699
0.076016894
0.038750973
-0.037228536
0.074091858
0.03626695
-0.034341914
0.072686944
0.03292928
-0.031524365
0.072817827
0.027705905
-0.027836788
0.072054813
0.023683044
-0.02292003
0.072172284
0.017998407
-0.018115877
0.076398623
0.0088454002
-0.01307174
0.081380275
-0.00075305632
-0.004228596
0.083415003
-0.0074935381
0.0054588099
0.081493217
-0.010093868
0.012015655
0.076046431
-0.0080618615
0.013508648
0.065649438
-0.0015439289
0.011940922
0.0089374018
0.049203383
0.0075086535
0.088657099
0.047972766
0.085155482
0.048035258
0.081093273
0.048161058
0.07796431
0.047172955
0.073968685
0.046156984
0.071089278
0.04431208
0.067782299
0.042057952
0.064276876
0.039772372
0.062358682
0.034847474
0.059233149
0.030831438
0.058567715
0.024348477
0.062545918
0.014020204
0.064684033
0.0067072854
0.060266737
0.0036642388
0.049508074
0.0032651256
0.033905211
0.0055089948
0.016422844
0.0094205047
-0.0024071003
0.017286016
0.027370991
-0.020840689
0.086162996
0.052353639
0.081403676
0.052794578
0.076675604
0.05288913
0.071791527
0.052057032
0.066611669
0.051336843
0.061955489
0.04896826
0.056418476
0.047594966
0.05271842
0.043472428
0.047279019
0.040286875
0.043228877
0.03488158
0.043427984
0.024149371
0.040743852
0.016704336
0.030571025
0.016880112
0.015998171
0.018237093
-9.4955922e-05
0.019358253
-0.018341979
0.023756018
-0.038315923
0.029394449
-0.058117262
0.037087355
0.046028259
-0.07677453
0.082013499
0.057851652
0.076210061
0.058598015
0.070326926
0.058772265
0.063788956
0.058595002
0.057606592
0.057519206
0.050347794
0.056227058
0.043707522
0.054235238
0.036065248
0.051114702
0.027164224
0.049187899
0.02258837
0.039457434
0.015761987
0.030975754
0.0039119646
0.028554358
-0.010620972
0.031413048
-0.027201461
0.034817582
-0.045299671
0.037456463
-0.063726627
0.042182974
-0.082339128
0.04800695
-0.10003416
0.054782381
0.061470715
-0.11547661
0.077141468
0.064702797
0.070317211
0.065422271
0.063070866
0.06601861
0.055283541
0.066382328
0.047173344
0.065629403
0.037944101
0.065456301
0.028482447
0.063696893
0.016678623
0.062918525
0.0081335976
0.057732924
2.3233727e-07
0.0475908
-0.015188467
0.046164454
-0.031826873
0.045192763
-0.047870977
0.047457153
-0.064223869
0.051170474
-0.08137209
0.054604684
-0.097887735
0.058698619
-0.11297729
0.063096503
-0.12624999
0.068055086
0.072764989
-0.13754427
0.072911487
0.072407696
0.065107918
0.07322584
0.05681196
0.074314568
0.048225636
0.074968651
0.038632669
0.075222371
0.028170523
0.075918447
0.016338658
0.075528758
0.0043913159
0.074865867
-0.0027864991
0.06491074
-0.014836894
0.059641194
-0.033163977
0.064491536
-0.052781865
0.064810652
-0.071974158
0.066649446
-0.089458619
0.068654935
-0.10559702
0.070743086
-0.12024238
0.073343978
-0.13291935
0.075773476
-0.14308998
0.078225717
0.080622626
-0.15094762
0.070536991
0.08071185
0.061992791
0.08177004
0.053064915
0.083242445
0.044071627
0.083961939
0.034387183
0.084906814
0.024675438
0.085630192
0.013547078
0.086657118
0.0034187168
0.084994228
-0.0058913417
0.074220798
-0.02275748
0.076507333
-0.041257786
0.082991842
-0.061291411
0.084844276
-0.082015358
0.087373393
-0.10102821
0.087667786
-0.1179627
0.087677576
-0.13184378
0.087225061
-0.14253219
0.086461885
-0.15064782
0.086341349
0.086404176
-0.15642937
0.069570366
0.089729019
0.06044538
0.090895026
0.051180583
0.092507242
0.041856415
0.093286107
0.032577443
0.094185787
0.024390048
0.093817588
0.015196945
0.095850221
0.0050182446
0.095172928
-0.012124452
0.091363495
-0.036213208
0.10059609
-0.058258285
0.10503692
-0.079987039
0.10657303
-0.099991349
0.1073777
-0.11762809
0.10530452
-0.13279785
0.10284734
-0.14476731
0.099194521
-0.15375429
0.095448869
-0.15925439
0.091841446
0.088890915
-0.16174113
0.070556852
0.099473444
0.060048294
0.10140358
0.049323734
0.1032318
0.038244636
0.10436521
0.02706169
0.10536873
0.017037606
0.10384167
0.0071980771
0.10568975
-0.0088989967
0.11127
-0.036122929
0.11858743
-0.064346968
0.12882013
-0.091117693
0.13180765
-0.11578309
0.13123843
-0.13662513
0.12821974
-0.15368148
0.12236087
-0.16620254
0.1153684
-0.17365609
0.10664807
-0.17798516