/*--------------------------------*- C++ -*----------------------------------*\
  =========                 |
  \\      /  F ield         | OpenFOAM: The Open Source CFD Toolbox
   \\    /   O peration     | Website:  https://openfoam.org
    \\  /    A nd           | Version:  11
     \\/     M anipulation  |
\*---------------------------------------------------------------------------*/
FoamFile
{
    format      ascii;
    class       volScalarField;
    location    "15.7";
    object      p;
}
// * * * * * * * * * * * * * * * * * * * * * * * * * * * * * * * * * * * * * //

dimensions      [0 2 -2 0 0 0 0];

internalField   nonuniform List<scalar> 
5472
(
97.258887
94.870849
92.492451
90.12249
87.775317
85.477375
83.253944
81.092414
79.043441
77.085864
75.247889
73.546292
71.945864
70.524957
69.238635
68.144271
67.244893
66.493328
66.029382
98.005084
95.793335
93.579602
91.347733
89.109397
86.912739
84.758271
82.664468
80.665082
78.733261
76.917172
75.211316
73.618009
72.198436
70.904256
69.825946
68.888564
68.114649
67.560698
98.709469
96.675781
94.614897
92.518937
90.397521
88.290112
86.216702
84.192251
82.231779
80.353998
78.562907
76.863708
75.293371
73.855481
72.576242
71.470615
70.519368
69.758445
69.168169
99.360231
97.509863
95.595092
93.629624
91.624509
89.622704
87.635246
85.673995
83.772173
81.928047
80.156626
78.478327
76.913371
75.476113
74.208565
73.091721
72.149205
71.377457
70.807159
99.939794
98.245245
96.471771
94.644261
92.752841
90.861836
88.966167
87.093589
85.260441
83.453327
81.70674
80.04654
78.503267
77.0719
75.809768
74.702181
73.755238
72.990036
72.402967
100.45348
98.888546
97.266946
95.580751
93.808996
92.017871
90.216791
88.433061
86.65395
84.909003
83.210189
81.574923
80.050284
78.638739
77.386546
76.27923
75.347789
74.597487
74.024997
100.91382
99.476508
97.98177
96.408323
94.765542
93.093486
91.402079
89.699601
87.976919
86.290756
84.637398
83.045177
81.544661
80.154354
78.912759
77.815769
76.88714
76.136339
75.566913
101.29188
99.981286
98.622507
97.167579
95.646241
94.078228
92.486416
90.883128
89.245869
87.612566
85.99892
84.454611
82.985594
81.629026
80.41188
79.331373
78.413474
77.671605
77.116817
101.64337
100.44774
99.18476
97.841254
96.449453
94.985159
93.485114
91.965681
90.425599
88.865643
87.309861
85.803512
84.359087
83.04126
81.839771
80.777033
79.884348
79.153243
78.601911
101.92753
100.86938
99.713947
98.467259
97.169297
95.812746
94.42314
92.977113
91.512746
90.024613
88.543186
87.091275
85.704532
84.421912
83.231985
82.191446
81.305021
80.588248
80.059692
102.18351
101.21021
100.14754
99.025897
97.822209
96.556968
95.273504
93.93209
92.543315
91.111863
89.689345
88.28741
86.962688
85.712391
84.568235
83.558343
82.681729
81.979546
81.462566
102.43633
101.5526
100.56947
99.518911
98.403118
97.250825
96.050342
94.791013
93.478408
92.135258
90.788396
89.436797
88.15663
86.947368
85.839277
84.848719
84.00238
83.312467
82.810678
102.61057
101.80951
100.93329
99.973075
98.946995
97.881122
96.760942
95.590897
94.350299
93.080645
91.795096
90.519622
89.284865
88.117561
87.044679
86.081266
85.264754
84.59111
84.110227
102.79543
102.06415
101.24891
100.36475
99.427635
98.435727
97.392473
96.300686
95.138913
93.949574
92.730157
91.522561
90.344877
89.228876
88.18686
87.25274
86.453595
85.804206
85.344792
102.91153
102.26505
101.55126
100.73596
99.866842
98.948333
97.988479
96.971639
95.884646
94.74759
93.591416
92.444307
91.324236
90.265782
89.263436
88.371156
87.595413
86.964403
86.512061
103.06494
102.4603
101.79389
101.05435
100.25308
99.395811
98.510762
97.565323
96.557287
95.488592
94.396819
93.302985
92.236606
91.213591
90.255598
89.396691
88.651146
88.062185
87.627363
103.18525
102.64168
102.02527
101.3493
100.61415
99.825833
98.993226
98.101232
97.156891
96.160052
95.139153
94.107821
93.100221
92.115076
91.197033
90.360625
89.642126
89.069197
88.655156
103.29635
102.79806
102.23345
101.61119
100.93186
100.20926
99.43402
98.597666
97.705311
96.767493
95.802416
94.831879
93.874321
92.939728
92.06219
91.260468
90.579953
90.026097
89.626956
103.41245
102.95899
102.44098
101.85734
101.22353
100.55691
99.83779
99.057222
98.217816
97.330177
96.416761
95.499391
94.584415
93.691661
92.843443
92.072727
91.415953
90.896097
90.52841
103.51012
103.10025
102.62398
102.08332
101.49605
100.86903
100.19539
99.46679
98.681061
97.84623
96.983008
96.110898
95.236668
94.385687
93.580776
92.838649
92.185227
91.657912
91.236538
103.62783
103.25389
102.81437
102.31531
101.76595
101.17084
100.53307
99.842655
99.096703
98.308633
97.489204
96.653452
95.816122
94.993435
94.22441
93.533641
92.930916
92.446805
92.110581
103.71739
103.38564
102.98648
102.52402
102.01516
101.46321
100.86225
100.20491
99.4927
98.743142
97.964317
97.166196
96.354422
95.54622
94.776327
94.067976
93.462163
92.961999
92.572775
103.83921
103.53725
103.16979
102.73984
102.26026
101.7352
101.16278
100.5374
99.85978
99.138059
98.386278
97.629138
96.868279
96.116677
95.406429
94.745381
94.163425
93.718852
93.364669
103.93306
103.67833
103.35539
102.97033
102.52677
102.03124
101.48274
100.87706
100.21208
99.494724
98.740219
97.964239
97.184561
96.411294
95.676595
95.013427
94.451391
93.953413
93.589725
104.02187
103.80814
103.52883
103.18548
102.78137
102.32612
101.8207
101.26444
100.65223
99.985787
99.277082
98.542028
97.7905
97.042487
96.315293
95.622311
95.020041
94.560581
94.221538
104.11241
103.95429
103.72293
103.41092
103.02438
102.56725
102.04597
101.46204
100.82141
100.13222
99.398234
98.638325
97.866441
97.104258
96.371789
95.707295
95.130551
94.635352
94.277806
104.16625
104.10119
103.9693
103.76511
103.48536
103.12745
102.68704
102.16735
101.57166
100.90158
100.16974
99.385812
98.571358
97.746623
96.92478
96.161321
95.481997
94.945001
94.586898
65.605839
65.360651
65.314624
65.43087
65.848662
66.304969
66.92636
67.680895
68.486103
69.450571
70.459993
71.552572
72.71082
73.948351
75.261465
76.578925
77.910445
79.216648
80.477957
67.084064
66.967628
66.961775
67.205985
67.654351
68.237662
69.032298
69.893126
70.921968
72.06486
73.282788
74.601369
75.972491
77.424724
78.912489
80.414311
81.904575
83.385723
84.742333
68.77207
68.601555
68.654538
68.986257
69.479649
70.226968
71.124533
72.145093
73.357247
74.667153
76.085794
77.576715
79.122019
80.721835
82.362624
83.995321
85.652835
87.253509
88.785391
70.405695
70.226465
70.350334
70.738399
71.338411
72.188292
73.203026
74.388403
75.745515
77.204345
78.771032
80.400979
82.070979
83.805658
85.545744
87.29799
89.061906
90.773075
92.463814
71.993743
71.847403
72.012252
72.473305
73.162989
74.118315
75.265855
76.591281
78.078952
79.665532
81.347459
83.068987
84.843047
86.661047
88.473888
90.305428
92.124661
93.91803
95.647104
73.625335
73.463619
73.678863
74.193384
74.976721
76.040782
77.303865
78.76365
80.333716
82.02634
83.784422
85.598887
87.452058
89.320937
91.178811
93.034179
94.859536
96.637358
98.322139
75.147881
75.041603
75.303283
75.886942
76.768583
77.915768
79.28544
80.834352
82.492903
84.276702
86.093187
87.97509
89.853552
91.738504
93.594194
95.413736
97.177876
98.859436
100.40026
76.737291
76.611787
76.915252
77.547611
78.51538
79.754647
81.209557
82.832634
84.567395
86.402629
88.270963
90.173378
92.049435
93.911486
95.699669
97.428259
99.052463
100.53962
101.85697
78.182831
78.128512
78.478662
79.159406
80.218799
81.513404
83.048828
84.725377
86.522299
88.390776
90.269565
92.154515
93.989457
95.769442
97.446882
99.024511
100.43643
101.69587
102.76825
79.665036
79.623483
79.992889
80.753445
81.862978
83.211113
84.814244
86.529634
88.375363
90.226824
92.098018
93.928529
95.675131
97.33593
98.856413
100.2321
101.42264
102.44861
103.25925
81.078876
81.055732
81.466009
82.281732
83.417192
84.827612
86.46849
88.21879
90.064078
91.889992
93.720891
95.444073
97.087364
98.592804
99.932428
101.1084
102.09292
102.89926
103.53568
82.436567
82.437769
82.885826
83.732359
84.904814
86.374685
88.035329
89.801069
91.612661
93.393212
95.131539
96.740529
98.252495
99.58121
100.74428
101.72094
102.52726
103.18355
103.69802
83.744824
83.77952
84.240825
85.107045
86.320821
87.825147
89.476507
91.235556
92.993502
94.707644
96.336978
97.828856
99.185234
100.33778
101.33014
102.11941
102.7843
103.29132
103.64263
84.992173
85.04201
85.512944
86.415082
87.664628
89.175187
90.813869
92.540668
94.222036
95.847216
97.355383
98.708214
99.895203
100.8875
101.71082
102.32385
102.82236
103.11407
103.28227
86.177006
86.233206
86.722643
87.650687
88.915617
90.413342
92.029111
93.699962
95.297468
96.825306
98.200207
99.404751
100.42623
101.25731
101.8893
102.33086
102.63659
102.73822
102.72167
87.300278
87.351261
87.867831
88.807786
90.070227
91.545685
93.129497
94.717947
96.226174
97.635624
98.863211
99.922255
100.78146
101.44486
101.90155
102.19754
102.35041
102.37409
102.29727
88.34491
88.402516
88.941386
89.870219
91.130369
92.582339
94.112972
95.613927
97.031453
98.310479
99.396617
100.31282
101.0123
101.51992
101.84947
102.05789
102.14858
102.18503
102.23014
89.315521
89.388542
89.922313
90.838497
92.092011
93.496461
94.961686
96.377315
97.694861
98.840981
99.79639
100.57947
101.1476
101.54386
101.81478
102.00609
102.12618
102.24987
102.40458
90.254186
90.292487
90.813658
91.752212
92.98267
94.348095
95.736973
97.065451
98.272844
99.290837
100.13113
100.79712
101.27023
101.60915
101.8714
102.09513
102.28024
102.47966
102.67108
90.862349
91.070276
91.613094
92.542997
93.731993
95.03848
96.380206
97.62662
98.727143
99.645863
100.39962
100.98194
101.40557
101.72147
102.00073
102.26711
102.49019
102.72291
102.92425
91.869085
91.859685
92.386796
93.303309
94.46699
95.749473
96.989994
98.141948
99.151029
99.992284
100.6694
101.17506
101.58923
101.91062
102.20402
102.47901
102.71092
102.93131
103.09486
92.228434
92.444728
92.992411
93.888279
95.039123
96.23943
97.450336
98.554536
99.518655
100.29539
100.90125
101.38876
101.79765
102.12817
102.42094
102.6654
102.87625
103.02123
103.06374
93.096098
93.108274
93.627834
94.547206
95.647037
96.857451
97.991536
99.026464
99.908383
100.62336
101.17484
101.64611
102.02069
102.32615
102.56337
102.71363
102.81568
102.81493
102.70042
93.274214
93.482575
94.035711
94.924914
96.012244
97.185985
98.331958
99.345217
100.19735
100.90188
101.45765
101.90057
102.24078
102.49012
102.62552
102.67597
102.61597
102.41471
102.14637
93.969182
93.990275
94.56294
95.531922
96.702406
97.855661
98.918467
99.864925
100.652
101.26092
101.73083
102.07931
102.30749
102.42161
102.43388
102.33997
102.11948
101.83362
101.54051
94.006557
94.161987
94.75968
95.703931
96.81504
97.985339
99.127317
100.10764
100.88968
101.50011
101.95207
102.25527
102.42646
102.45748
102.34619
102.10685
101.78305
101.42172
101.04254
94.287353
94.443798
95.195895
96.326323
97.610274
98.856986
99.938269
100.81281
101.45701
101.89343
102.1664
102.29139
102.23651
102.05592
101.78284
101.45611
101.12135
100.80063
100.53927
81.650212
82.788083
83.798787
84.680091
85.472788
86.070379
86.439612
86.773354
86.615071
85.944456
85.154826
83.739923
81.27629
78.332126
75.18011
70.99583
65.957148
61.106656
56.289174
86.053763
87.220525
88.286685
89.193448
90.011335
90.737806
91.28763
91.653908
91.571247
91.114344
90.149384
88.421028
86.032903
82.649994
78.053253
72.436211
66.15233
59.039452
51.173884
90.26734
91.525337
92.652719
93.537656
94.46791
95.263362
95.923506
96.375929
96.339863
95.833
94.758216
92.871691
89.864143
85.422503
79.927889
72.972165
64.275817
53.343492
40.453746
94.03838
95.408724
96.472719
97.427076
98.39121
99.289734
100.06908
100.48515
100.48267
99.994146
98.755748
96.56824
92.889822
87.925042
81.816411
74.113516
64.585433
53.169297
40.112157
97.277722
98.602009
99.613133
100.58936
101.5649
102.56759
103.32263
103.80729
103.92102
103.42716
102.14077
99.57828
95.252139
90.350161
84.548673
77.345491
68.854055
59.172218
48.819868
99.89325
101.09014
102.04262
102.98249
104.00158
104.97839
105.77708
106.3146
106.37778
105.90692
104.53082
101.57279
97.376346
92.882185
87.663587
81.70489
75.071366
67.933699
60.750674
101.79438
102.82788
103.69982
104.57897
105.54115
106.41273
107.12742
107.5286
107.53129
107.05493
105.79825
103.41448
100.01628
96.126297
91.654269
86.872063
81.80551
76.65754
71.970211
102.99711
103.85754
104.59501
105.32052
106.09573
106.74622
107.25998
107.49765
107.47733
107.20157
106.44569
104.82996
102.25485
99.035775
95.261798
91.307637
87.525048
83.919799
80.709911
103.63367
104.31753
104.88229
105.44487
106.00521
106.42794
106.74825
106.89024
106.99406
106.88617
106.19654
104.73542
102.5059
99.726698
96.737378
93.549811
90.568603
88.19043
86.503843
103.93164
104.47505
104.90648
105.36391
105.75907
106.05349
106.28188
106.40439
106.38052
105.94683
104.88279
102.98366
100.55005
97.724045
95.024147
92.694414
90.52049
88.62728
87.457473
104.10073
104.50314
104.84624
105.18708
105.4135
105.46191
105.24016
105.05105
104.73913
103.7111
101.72648
98.987416
95.830976
92.650956
89.755938
87.712437
86.570504
86.289598
86.57726
104.13011
104.43376
104.72801
104.95637
104.97747
104.74618
103.90643
102.75993
100.89799
98.363661
95.180023
91.294809
87.11517
83.357996
80.777584
79.43433
79.255315
80.196797
82.059798
103.90314
104.13449
104.41566
104.56606
104.48497
104.09129
102.92461
101.08551
97.234006
92.069035
86.579218
80.489512
74.493457
69.646938
65.959289
63.589704
63.741803
66.228023
70.430151
103.29129
103.41136
103.61219
103.64799
103.49875
103.04985
102.18358
100.65086
97.136439
91.068485
82.6579
72.684757
61.860437
51.62824
42.94003
37.272279
36.765547
41.618096
50.485173
102.49507
102.4863
102.47875
102.27826
101.79164
100.87462
99.44384
97.175184
93.350155
87.214507
79.021093
69.279712
58.986202
49.410593
42.566218
39.152817
40.061122
45.697568
54.753195
102.08706
102.04035
101.95002
101.67357
101.14789
100.34395
99.201855
97.534371
95.145804
91.728608
87.142304
81.699688
75.897012
70.157235
65.704735
63.049494
62.58924
64.982376
69.703803
102.19678
102.20716
102.13968
101.97692
101.68393
101.24396
100.65225
99.791154
98.648865
97.047941
94.90108
92.348272
89.421482
86.411481
83.767336
81.336074
79.759773
79.947826
81.453282
102.5325
102.62469
102.62892
102.58813
102.43197
102.25151
101.97269
101.51318
100.90023
100.02785
98.860813
97.363485
95.531629
93.522795
91.377161
89.568997
88.449147
87.634922
87.173328
102.9092
103.07953
103.16602
103.17385
103.18955
103.19245
103.14383
102.9475
102.6405
102.15254
101.43749
100.45002
99.174292
97.760914
96.174026
94.443199
92.713345
91.11686
89.526982
103.24089
103.43944
103.54844
103.65856
103.81275
103.97581
104.09591
104.09138
103.99708
103.86424
103.37382
102.08724
100.63927
99.287333
97.396802
94.774544
91.43526
87.256901
82.730487
103.34799
103.50715
103.62869
103.83136
104.01545
104.20133
104.28153
104.33641
104.13794
103.18574
102.33062
102.24925
101.92459
100.69855
98.526979
95.756122
92.321206
86.097309
81.754139
103.15062
103.2646
103.44341
103.65879
103.84939
103.9944
104.17463
104.03812
104.16439
103.80928
102.63412
101.79068
100.90533
99.535898
97.755938
95.567714
92.942539
90.010672
87.243361
102.54565
102.65514
102.86936
103.0315
103.18161
103.26702
103.38291
103.25709
103.02149
102.52061
100.54766
99.24975
98.565216
97.60245
96.489676
95.295867
94.12342
93.181614
92.56827
101.85917
101.90524
102.01992
102.12811
102.22257
102.2773
102.36465
102.38216
102.34964
102.10007
101.16786
99.784858
97.291409
94.084051
91.272936
89.814552
89.629875
90.430607
91.957563
101.24313
101.20116
101.19714
101.17881
101.09047
100.97898
100.82945
100.56893
100.17487
99.455116
97.924569
95.972719
94.271891
92.899083
91.543738
90.328044
89.862793
90.284625
91.534779
100.74684
100.68126
100.6509
100.57618
100.44101
100.2509
100.0422
99.846112
99.695802
99.445077
99.024556
98.618578
98.290136
97.629423
96.595278
95.67977
95.194631
95.246875
95.778767
100.34299
100.3508
100.33468
100.28593
100.22681
100.18413
100.10866
99.952296
99.734216
99.454627
99.127086
98.479484
97.578634
97.238276
97.57019
98.032081
98.512601
98.974479
99.398816
51.827357
49.194741
49.007029
51.511585
57.029999
65.401956
76.645943
88.587333
100.14429
109.54918
115.61531
118.01978
116.83564
115.6145
113.82215
112.1112
110.33034
108.66694
107.02984
43.402221
36.741226
32.248026
31.637433
36.11725
44.652359
55.726847
67.516193
80.389466
92.907434
101.49382
106.52134
109.25586
110.22639
110.09277
109.50593
108.59997
107.58881
106.53094
27.969199
16.982998
8.2656088
4.2514549
7.2579843
17.435717
32.054826
47.885554
63.094553
75.678139
85.62564
93.792744
99.868567
103.24324
105.13214
105.94592
106.15946
105.95513
105.58297
26.435941
13.816501
3.4247941
-1.8679267
-1.041464
6.4312558
18.859803
34.005743
50.075265
64.27645
75.956914
85.243688
92.074747
96.736211
99.857284
101.85161
103.05725
103.67347
104.0185
38.498757
29.35996
22.640566
19.512426
20.650995
26.201793
35.069161
45.788864
56.996371
67.252394
76.215355
83.496488
89.072074
93.353841
96.449055
98.738264
100.32693
101.41376
102.18037
53.999209
48.461394
45.036543
44.265758
46.062608
49.994494
55.738656
62.387645
69.239394
75.62711
81.262127
86.086884
89.981093
93.216971
95.717393
97.627288
99.048092
100.09876
100.93551
68.028392
65.009475
63.449299
63.665789
65.564984
68.442035
71.890905
75.872237
79.800948
83.64472
87.002839
89.973561
92.541078
94.714543
96.612906
98.058323
99.169332
99.989301
100.66197
78.427821
77.299247
76.908433
76.822214
77.518079
79.46222
81.876202
84.545925
87.136365
89.614898
91.824448
93.649727
95.375641
96.817757
98.128694
99.223213
100.0497
100.66002
101.09841
85.273924
84.403775
84.114984
84.632074
85.808313
87.257783
88.9054
90.583572
92.283864
93.913793
95.494708
96.76582
97.851273
98.876211
99.771159
100.5869
101.19811
101.68211
101.92887
87.071518
87.429829
88.388517
89.451279
90.601044
91.926141
93.383777
94.808945
96.080463
97.266905
98.325072
99.248864
99.992613
100.6795
101.27515
101.86254
102.34498
102.67065
102.82316
87.26994
88.367903
89.954241
91.819282
93.464996
94.925986
96.341314
97.667919
98.749591
99.720213
100.58323
101.25928
101.78321
102.23466
102.6312
103.01257
103.36691
103.58382
103.639
84.494348
86.938213
89.487939
92.2071
94.671068
96.511754
98.139389
99.617571
100.69192
101.46245
102.15405
102.72386
103.15828
103.47532
103.73382
103.99254
104.23656
104.40493
104.38396
75.418905
80.409299
85.152266
89.600594
93.426488
96.212008
98.275333
100.10787
101.41235
102.34347
103.01517
103.54542
103.96317
104.26878
104.49392
104.69538
104.8641
105.00721
104.99973
61.056682
71.054292
79.477381
86.359868
91.655486
95.340578
97.827672
99.943524
101.51036
102.53881
103.33464
103.95532
104.41997
104.73164
104.95644
105.1493
105.28665
105.36823
105.36681
64.803772
74.213157
82.241975
88.734312
93.60929
96.95652
99.001587
100.80315
102.73672
103.65404
104.13413
104.61283
105.01801
105.29046
105.44593
105.57344
105.68097
105.71407
105.66333
75.473905
81.423926
87.058608
92.015837
96.045335
99.116959
101.39889
102.95753
103.54406
104.33353
105.27326
105.63135
105.80533
105.95373
106.02746
106.02636
106.05476
106.0425
105.93664
83.763035
86.560431
89.703831
92.918322
95.932589
98.607954
100.97346
102.91484
104.37703
104.92933
104.92799
105.50555
106.00304
106.20551
106.28358
106.27911
106.23313
106.21513
106.10699
87.264053
87.967174
89.254874
90.899632
92.78531
94.884645
96.985235
98.966654
100.90098
102.63889
104.35232
105.45502
105.85511
106.23389
106.29062
106.27886
106.18624
106.09627
106.04079
87.968909
86.852379
86.292416
86.380483
87.163065
88.487147
90.094688
92.476398
95.965186
99.807533
103.18668
104.73468
105.36955
105.73125
105.84313
105.84382
105.76704
105.63615
105.59007
78.432395
74.927241
72.926632
73.368456
76.450056
81.050555
86.416095
91.990597
97.059828
100.53822
102.72636
103.85746
104.36124
104.63538
104.80564
104.90718
104.8969
104.84014
104.81363
77.69213
74.513159
73.129642
73.279763
75.055565
78.541692
83.377731
88.824839
93.860674
97.80229
100.37132
101.83405
102.68219
103.25645
103.63622
103.91106
104.05262
104.11614
104.18998
85.08694
84.029784
84.289343
85.5862
87.852253
90.732427
93.745343
96.554031
98.912028
100.64163
101.75855
102.5342
103.0126
103.34232
103.55043
103.71964
103.82023
103.86583
103.9366
92.576621
93.450342
95.303174
97.343738
98.995208
100.35101
101.51487
102.50969
103.19597
103.58837
103.77868
103.86684
103.873
103.88615
103.85241
103.84821
103.81097
103.74557
103.72623
93.872638
95.723326
97.372217
98.893898
100.27686
101.52487
102.46916
103.15504
103.7066
103.99142
104.0278
103.98783
103.90914
103.79571
103.72597
103.64879
103.57266
103.51548
103.46977
93.266637
95.403366
97.344333
99.249012
100.99313
101.89917
102.52808
102.98861
103.52304
103.83843
103.88188
103.77725
103.64911
103.47897
103.34458
103.23446
103.11833
102.96169
102.90493
96.661487
97.735609
98.786778
99.769672
100.5415
100.93421
101.02532
101.29684
102.53115
102.71643
102.75036
102.78447
102.62591
102.56489
102.45791
102.35767
102.25883
102.09918
102.0454
99.805258
100.27418
100.81738
101.42849
102.1001
102.82833
103.67828
103.4809
102.73242
102.16473
101.72495
101.44735
101.21881
101.09302
101.0182
100.99952
101.0104
100.9626
100.91632
105.5264
104.07659
102.66485
101.25805
99.92054
98.653609
97.446853
96.321932
95.259069
94.279296
93.3656
92.542323
91.822353
91.154213
90.598787
90.129433
89.731274
89.479179
89.319032
105.51176
104.46211
103.34532
102.18359
100.98155
99.809462
98.690186
97.597517
96.53698
95.540206
94.590785
93.682834
92.891213
92.169123
91.540818
91.066036
90.64833
90.40693
90.266489
105.07829
104.46722
103.72578
102.88478
101.94065
100.92045
99.857149
98.814068
97.771676
96.747119
95.777148
94.821678
93.938729
93.183568
92.483677
91.978389
91.560725
91.298651
91.192956
104.16175
104.01782
103.66015
103.12937
102.45488
101.6616
100.75088
99.786943
98.802215
97.800636
96.818274
95.880824
94.949073
94.152219
93.433122
92.868891
92.458741
92.180954
92.095961
102.84031
103.19675
103.24227
103.0204
102.62868
102.05169
101.34521
100.50763
99.629181
98.692888
97.735054
96.821436
95.914174
95.074557
94.354647
93.74957
93.335207
93.064565
92.987966
101.74232
102.34605
102.67122
102.72559
102.59666
102.24616
101.73664
101.05962
100.31573
99.476499
98.576308
97.681796
96.818787
95.961506
95.240745
94.622423
94.196851
93.930377
93.872797
101.30703
101.83556
102.22421
102.46377
102.50118
102.34981
102.00915
101.49294
100.87446
100.14368
99.335151
98.472757
97.64696
96.818084
96.08497
95.472063
95.031165
94.767628
94.731
101.49821
101.80736
102.08968
102.32421
102.42903
102.40194
102.20122
101.84251
101.33636
100.71292
100.00701
99.193307
98.402459
97.609678
96.881247
96.286918
95.852707
95.604973
95.570264
102.03332
102.14179
102.27541
102.39215
102.47709
102.48351
102.37578
102.12822
101.73468
101.20605
100.57306
99.846197
99.099662
98.350976
97.638739
97.060182
96.616719
96.403727
96.375701
102.78786
102.7224
102.68714
102.68088
102.67495
102.65115
102.56886
102.38857
102.07632
101.63622
101.07156
100.44467
99.733759
99.039892
98.34846
97.792383
97.355014
97.165062
97.168136
103.53456
103.38967
103.23416
103.10905
103.01799
102.93062
102.80667
102.65057
102.38134
102.02573
101.52687
100.97124
100.32353
99.672908
99.022147
98.485216
98.067439
97.880669
97.933403
104.21492
104.02501
103.81747
103.6127
103.43581
103.28993
103.11407
102.94213
102.68575
102.37402
101.95036
101.44956
100.86484
100.26391
99.654204
99.13183
98.751019
98.551359
98.655409
104.818
104.61369
104.36294
104.12762
103.88805
103.68426
103.4654
103.25948
103.00493
102.71103
102.33264
101.88543
101.35743
100.79468
100.24225
99.730955
99.409649
99.202492
99.333725
105.23823
105.07965
104.85015
104.60131
104.33222
104.09019
103.84321
103.60523
103.33695
103.0499
102.6937
102.2829
101.81347
101.27756
100.79117
100.29767
100.01166
99.853846
99.960254
105.50374
105.40449
105.234
105.01112
104.74366
104.482
104.21029
103.94942
103.6719
103.37978
103.04538
102.64777
102.23482
101.72933
101.27403
100.83861
100.54691
100.45005
100.54938
105.72086
105.63357
105.48926
105.31879
105.08618
104.82461
104.55625
104.28532
103.99748
103.68653
103.3841
103.00084
102.60668
102.15818
101.70789
101.3366
101.04991
100.99252
101.11174
105.90674
105.81555
105.6734
105.52384
105.34154
105.12009
104.86467
104.58127
104.31897
104.0029
103.68891
103.34071
102.94801
102.54969
102.11599
101.78751
101.52842
101.48247
101.63491
105.92889
105.88015
105.77035
105.64501
105.50877
105.31981
105.11036
104.83512
104.56303
104.26532
103.94309
103.61829
103.25715
102.89716
102.49112
102.17475
101.96167
101.92866
102.11421
105.67346
105.74446
105.74412
105.68235
105.60268
105.45255
105.28846
105.06799
104.8095
104.53918
104.23709
103.92028
103.55469
103.20374
102.84795
102.53907
102.36625
102.34737
102.55326
105.11933
105.33316
105.49694
105.55253
105.5553
105.4843
105.36045
105.20129
104.97069
104.71528
104.41396
104.11775
103.79711
103.4557
103.13488
102.85033
102.70474
102.71076
102.93665
104.51191
104.79872
105.07344
105.27008
105.38125
105.42012
105.36926
105.27588
105.10637
104.90634
104.65479
104.36448
104.06388
103.7239
103.41972
103.16039
103.01835
103.06378
103.30299
104.12392
104.36481
104.63557
104.90904
105.10931
105.23999
105.28257
105.24919
105.1394
104.96657
104.75288
104.47331
104.1984
103.90317
103.61459
103.38979
103.27049
103.33158
103.58742
103.81065
104.03134
104.25797
104.50949
104.75937
104.96753
105.11096
105.16832
105.14594
105.0406
104.89634
104.68789
104.41906
104.12774
103.83662
103.61042
103.5234
103.59822
103.87923
103.51559
103.78014
104.03955
104.2834
104.52308
104.74928
104.93935
105.05092
105.08155
105.02651
104.88862
104.7084
104.47497
104.21454
103.95529
103.74876
103.67446
103.78855
104.07135
103.0749
103.35963
103.60275
103.84735
104.09391
104.34507
104.59688
104.8068
104.94746
104.99815
104.95423
104.83696
104.66302
104.41115
104.12847
103.89576
103.82144
103.95353
104.26481
102.53876
103.03369
103.44923
103.78766
104.06381
104.31432
104.54673
104.74051
104.88082
104.95248
104.93496
104.83521
104.66228
104.438
104.1781
103.9485
103.88084
104.05616
104.37451
101.42474
101.8953
102.38133
102.84509
103.26917
103.66653
104.01979
104.33073
104.59949
104.79316
104.88531
104.89618
104.81616
104.62809
104.34298
104.04944
103.9232
104.07568
104.45292
89.310066
89.482846
89.788227
90.209412
90.774233
91.467126
92.32518
93.311182
94.427991
95.636899
96.971944
98.415825
99.908131
101.48151
103.11964
104.80892
106.49271
108.19019
109.94645
90.267351
90.465253
90.74369
91.225898
91.847714
92.564895
93.429414
94.410625
95.516668
96.715875
98.037552
99.443065
100.89107
102.405
103.97011
105.54226
107.09957
108.69045
110.28789
91.223405
91.43415
91.762268
92.237167
92.876779
93.626287
94.503288
95.491618
96.585393
97.784895
99.073068
100.43796
101.84593
103.29447
104.74836
106.21513
107.70863
109.1443
110.54778
92.170973
92.388611
92.749918
93.245903
93.893399
94.66554
95.538677
96.540517
97.630328
98.806881
100.06619
101.39147
102.73967
104.11065
105.48556
106.83818
108.19764
109.52852
110.81652
93.096228
93.334118
93.707417
94.237957
94.881049
95.664196
96.541691
97.535619
98.609977
99.765877
100.99435
102.25767
103.5786
104.87643
106.14454
107.39698
108.62453
109.81656
110.99582
94.002279
94.266603
94.647184
95.196455
95.856733
96.636856
97.526599
98.497638
99.554916
100.6814
101.87972
103.08795
104.32027
105.56331
106.75848
107.87146
108.95328
110.04758
111.12533
94.882469
95.156947
95.57158
96.105605
96.790203
97.567328
98.445667
99.41317
100.45063
101.53872
102.68322
103.84166
105.01477
106.14861
107.24189
108.27563
109.24915
110.22501
111.17852
95.760943
96.0387
96.474065
97.036592
97.689296
98.469057
99.344104
100.27589
101.28777
102.33885
103.43739
104.53118
105.62345
106.69307
107.66737
108.59626
109.48655
110.35013
111.22924
96.592371
96.886082
97.319422
97.851929
98.534548
99.314464
100.18396
101.09683
102.06711
103.07212
104.10153
105.16478
106.17612
107.13105
108.03135
108.86789
109.67331
110.46719
111.21126
97.399836
97.706936
98.160408
98.715094
99.380772
100.14484
100.96623
101.85819
102.79067
103.76246
104.72772
105.69607
106.63912
107.52304
108.32824
109.09198
109.80986
110.49369
111.16755
98.181835
98.49187
98.929884
99.483065
100.12496
100.88322
101.69198
102.56182
103.45213
104.3711
105.2861
106.18706
107.05157
107.85718
108.5921
109.26065
109.89612
110.52179
111.13115
98.914605
99.240038
99.667382
100.22688
100.86526
101.6068
102.39785
103.22654
104.07663
104.93217
105.77809
106.60682
107.40261
108.13489
108.80602
109.41789
109.97477
110.50399
111.02744
99.606585
99.948505
100.38363
100.93348
101.56004
102.25499
103.01872
103.8038
104.61142
105.41825
106.20822
106.97959
107.70681
108.36978
108.9751
109.51706
110.0195
110.48083
110.92488
100.25336
100.59911
101.03694
101.56378
102.17
102.85601
103.60335
104.36152
105.12864
105.88189
106.60779
107.3081
107.97001
108.56485
109.10514
109.58392
110.01541
110.42285
110.82264
100.87686
101.22152
101.66096
102.18551
102.79233
103.43735
104.14003
104.85758
105.57137
106.26086
106.92559
107.56715
108.16882
108.7172
109.2065
109.63585
110.01927
110.38474
110.72792
101.45119
101.79918
102.2305
102.74122
103.31518
103.93568
104.60406
105.28516
105.95944
106.61035
107.22603
107.81997
108.36963
108.86623
109.3001
109.67575
110.0009
110.29739
110.58164
101.98133
102.33255
102.75693
103.25498
103.80694
104.4026
105.03796
105.68858
106.32407
106.93083
107.48621
108.01487
108.50591
108.95486
109.33802
109.66983
109.96735
110.24185
110.50461
102.46578
102.81803
103.23491
103.719
104.25235
104.82954
105.43403
106.0444
106.62897
107.18565
107.6986
108.17906
108.62675
109.04243
109.40447
109.7072
109.96343
110.18345
110.40285
102.91323
103.26266
103.67253
104.14648
104.66036
105.21222
105.77971
106.34474
106.89293
107.41112
107.89408
108.33954
108.7481
109.12053
109.44021
109.70201
109.92231
110.10769
110.2887
103.30879
103.653
104.05829
104.51704
105.00722
105.53297
106.07054
106.61161
107.13991
107.62518
108.06796
108.47151
108.83564
109.17267
109.46697
109.70413
109.90725
110.08105
110.24982
103.67303
104.01578
104.41225
104.86219
105.34515
105.85801
106.38348
106.88599
107.36455
107.80393
108.20698
108.57963
108.92678
109.23729
109.5113
109.728