/*--------------------------------*- C++ -*----------------------------------*\
  =========                 |
  \\      /  F ield         | OpenFOAM: The Open Source CFD Toolbox
   \\    /   O peration     | Website:  https://openfoam.org
    \\  /    A nd           | Version:  11
     \\/     M anipulation  |
\*---------------------------------------------------------------------------*/
FoamFile
{
    format      ascii;
    class       surfaceScalarField;
    location    "15.7";
    object      phi;
}
// * * * * * * * * * * * * * * * * * * * * * * * * * * * * * * * * * * * * * //

dimensions      [0 3 -1 0 0 0 0];

internalField   nonuniform List<scalar> 
10792
(
0.071160171
-0.043961154
-0.071717115
0.044518098
0.070546996
-0.041890139
0.042503314
0.069828301
-0.039806344
0.040525039
0.069051585
-0.037579479
0.038356195
0.068199753
-0.03544046
0.036292292
0.067369256
-0.03309102
0.033921517
0.066559244
-0.030966227
0.031776239
0.065644319
-0.028396877
0.029311802
0.064901611
-0.02615416
0.026896867
0.064015399
-0.023679797
0.02456601
0.063301505
-0.021174142
0.021888035
0.06264342
-0.018878409
0.019536494
0.061970768
-0.016252235
0.016924886
0.061530373
-0.013827693
0.014268088
0.061000822
-0.011348837
0.011878388
0.060666484
-0.0086902082
0.0090245455
0.060370674
-0.0062593665
0.0065551763
0.060163463
-0.00372357
0.0039307807
-0.0011751041
0.060326351
0.0010122157
0.07509328
-0.043341009
-0.075713425
0.074479516
-0.041276375
0.073734407
-0.039061234
0.072942234
-0.036787306
0.072146668
-0.034644895
0.071399925
-0.032344277
0.070541668
-0.03010797
0.069743105
-0.027598313
0.068953366
-0.02536442
0.068108616
-0.022835048
0.067493883
-0.020559408
0.066761106
-0.018145632
0.066178421
-0.01566955
0.065686209
-0.01333548
0.065147482
-0.010810111
0.064887821
-0.0084305476
0.064595964
-0.0059675098
0.064478858
-0.0036064644
-0.0011429827
0.064446737
0.079766003
-0.042779777
-0.080327235
0.079167263
-0.040677634
0.078405535
-0.038299506
0.07772605
-0.036107821
0.076988348
-0.033907193
0.076196386
-0.031552315
0.075318122
-0.029229706
0.074498648
-0.026778839
0.073631345
-0.024497118
0.0728575
-0.022061203
0.072151379
-0.019853287
0.071385334
-0.017379587
0.070790665
-0.01507488
0.070174154
-0.01271897
0.069668561
-0.010304518
0.069337976
-0.0080999625
0.069010525
-0.0056400594
0.068887117
-0.0034830564
-0.0010429265
0.068787061
0.084165568
-0.042200447
-0.084744898
0.083477693
-0.039989759
0.082792086
-0.037613899
0.08214455
-0.035460285
0.08133485
-0.033097493
0.080526025
-0.03074349
0.079709278
-0.028412959
0.078934157
-0.026003717
0.078166252
-0.023729213
0.077440297
-0.021335248
0.076667836
-0.019080827
0.075969315
-0.016681066
0.075345998
-0.014451564
0.074768109
-0.012141081
0.074357041
-0.0098934502
0.073977883
-0.0077208042
0.073755532
-0.0054177082
0.073587743
-0.0033152681
-0.0010313401
0.073576157
0.089474467
-0.041733915
-0.089940999
0.088846314
-0.039361607
0.088282379
-0.037049963
0.087567948
-0.034745854
0.086736306
-0.032265851
0.085970713
-0.029977897
0.085146783
-0.027589029
0.084387848
-0.025244783
0.083539343
-0.022880708
0.082711876
-0.02050778
0.081903655
-0.018272606
0.081201046
-0.015978457
0.080575022
-0.013825541
0.080018833
-0.011584892
0.07958475
-0.0094593676
0.079190383
-0.0073264378
0.078945511
-0.0051728361
0.078769132
-0.0031388891
-0.00098254441
0.078720336
0.094858693
-0.041231721
-0.095360887
0.094049338
-0.038552251
0.093343114
-0.03634374
0.092473016
-0.033875755
0.091685779
-0.031478615
0.09095951
-0.029251627
0.090150345
-0.026779864
0.089378244
-0.024472682
0.088530581
-0.022033045
0.087805227
-0.019782427
0.087062555
-0.017529934
0.086439647
-0.015355549
0.085844008
-0.013229901
0.085317229
-0.011058113
0.08486788
-0.0090100188
0.084459329
-0.0069178868
0.084198523
-0.0049120305
0.083988974
-0.00292934
-0.0009613299
0.083967759
0.10077078
-0.040543046
-0.10145946
0.099990556
-0.037772024
0.099391104
-0.035744287
0.098606389
-0.03309104
0.097917293
-0.030789519
0.097033237
-0.028367571
0.096226891
-0.025973518
0.095448159
-0.023693949
0.094684248
-0.021269135
0.09397945
-0.019077628
0.093213524
-0.016764008
0.092534666
-0.014676691
0.091845305
-0.01254054
0.0913057
-0.010518508
0.090809572
-0.008513891
0.090455173
-0.0065634886
0.090187014
-0.0046438717
0.090025976
-0.0027683017
-0.00091571167
0.089980358
0.10668284
-0.039644616
-0.10758127
0.10598145
-0.037070639
0.10527544
-0.035038273
0.10445157
-0.032267172
0.10374677
-0.030084718
0.10282829
-0.027449091
0.1021164
-0.025261629
0.10133412
-0.022911664
0.10064094
-0.020575963
0.099882177
-0.01831886
0.099098436
-0.015980267
0.098379085
-0.01395734
0.097689775
-0.011851231
0.097165126
-0.0099938589
0.096697189
-0.0080459544
0.096369334
-0.0062356335
0.09610308
-0.0043776176
0.095934788
-0.0026000105
-0.00083397431
0.095853051
0.11368987
-0.038728585
-0.1146059
0.1130478
-0.036428569
0.11211931
-0.034109784
0.11127267
-0.031420533
0.11047932
-0.029291361
0.1096021
-0.026571871
0.10884085
-0.024500379
0.10793554
-0.022006357
0.10725836
-0.019898786
0.10651716
-0.017577652
0.10587476
-0.015337871
0.10520987
-0.01329245
0.10461352
-0.011254884
0.10412001
-0.0095003502
0.10365813
-0.0075840689
0.10329778
-0.0058752842
0.1029954
-0.0040752393
0.10283463
-0.0024392363
-0.00075158965
0.10275224
0.120682
-0.037746838
-0.12166375
0.11990425
-0.035650815
0.11889499
-0.03310053
0.11824681
-0.030772348
0.11743064
-0.028475193
0.11667997
-0.025821198
0.11588572
-0.023706137
0.11503595
-0.021156579
0.11433669
-0.019199533
0.11355631
-0.016797272
0.11296598
-0.014747539
0.11223641
-0.012562876
0.11161142
-0.010629893
0.11099248
-0.00888142
0.11053511
-0.0071266907
0.11019222
-0.005532399
0.10995051
-0.0038335268
0.10980847
-0.0022971964
-0.00067996337
0.10973684
0.12896181
-0.036757317
-0.12995133
0.12801176
-0.034700765
0.12696364
-0.032052408
0.12608834
-0.029897055
0.12506456
-0.027451412
0.12441375
-0.025170384
0.12355136
-0.022843744
0.12279193
-0.020397152
0.12197167
-0.018379274
0.12118359
-0.01600919
0.12051679
-0.014080737
0.11981044
-0.011856527
0.11925097
-0.010070424
0.11860526
-0.0082357151
0.11816373
-0.0066851564
0.11772792
-0.0050965944
0.11746905
-0.0035746565
0.11725237
-0.0020805139
-0.00059750683
0.11716991
0.13732111
-0.035700168
-0.13837826
0.13623697
-0.033616633
0.13531714
-0.031132573
0.13443711
-0.029017027
0.13340299
-0.026417292
0.13258238
-0.024349774
0.1316338
-0.021895159
0.1309909
-0.019754257
0.13009853
-0.017486902
0.12939151
-0.015302173
0.12861942
-0.013308644
0.12796204
-0.011199143
0.12735995
-0.0094683399
0.12678426
-0.0076600287
0.12637136
-0.006272252
0.12594237
-0.0046676017
0.12572728
-0.003359569
0.12551657
-0.001869807
-0.00058018088
0.12549925
0.14653837
-0.034562089
-0.14767645
0.14529933
-0.032377591
0.14429505
-0.030128297
0.14324422
-0.027966195
0.14226927
-0.025442342
0.14130074
-0.023381241
0.14033907
-0.020933495
0.13954508
-0.018960261
0.13866128
-0.016603106
0.13803776
-0.01467865
0.13721776
-0.012488651
0.13664032
-0.010621705
0.13595996
-0.0087879763
0.13549127
-0.0071913377
0.13499089
-0.0057718683
0.1345932
-0.0042699198
0.13429298
-0.0030593469
0.13403693
-0.0016137555
-0.00047645288
0.1339332
0.15682287
-0.033154971
-0.15822999
0.15538692
-0.030941641
0.15430222
-0.029043598
0.153017
-0.026680973
0.15206687
-0.024492216
0.15100611
-0.02232048
0.15008974
-0.020017119
0.14915075
-0.018021273
0.14827216
-0.015724518
0.14752363
-0.013930117
0.14671597
-0.01168099
0.14611609
-0.010021829
0.14541964
-0.0080915281
0.14495746
-0.0067291561
0.14443472
-0.0052491275
0.1441468
-0.0039820016
0.14382133
-0.002733869
0.14365134
-0.0014437701
-0.00031564926
0.14349054
0.16752967
-0.031644429
-0.16904022
0.16600874
-0.029420712
0.16455627
-0.027591123
0.16314109
-0.025265796
0.16204496
-0.023396084
0.16083198
-0.021107505
0.15990901
-0.019094147
0.15886766
-0.016979917
0.15813157
-0.014988434
0.15728802
-0.013086561
0.15660978
-0.011002758
0.15592228
-0.009334325
0.15529522
-0.0074644679
0.15473654
-0.0061704751
0.15420215
-0.0047147355
0.15387602
-0.0036558729
0.15352713
-0.002384986
0.15342783
-0.0013444663
-0.00018495787
0.15329714
0.17926157
-0.029969376
-0.18093662
0.17787111
-0.028030248
0.17635978
-0.0260798
0.17505021
-0.023956219
0.17374679
-0.022092666
0.17251082
-0.019871535
0.17147345
-0.018056781
0.17037217
-0.015878635
0.16951157
-0.01412783
0.16851038
-0.012085372
0.16789204
-0.010384425
0.16712689
-0.0085691719
0.16662337
-0.0069609467
0.16599646
-0.0055435698
0.16556228
-0.0042805552
0.16515025
-0.0032438433
0.16485053
-0.0020852655
0.16468046
-0.0011743945
-4.553632e-05
0.16454104
0.19162498
-0.02808202
-0.19351233
0.1899015
-0.026306771
0.1882036
-0.024381899
0.18673363
-0.022486256
0.18525944
-0.020618475
0.1840231
-0.018635188
0.18283641
-0.016870093
0.18176241
-0.014804642
0.18075681
-0.013122224
0.17980441
-0.011132977
0.17907109
-0.0096511013
0.17833255
-0.0078306346
0.17783996
-0.0064683526
0.17722347
-0.0049270818
0.17681959
-0.0038766718
0.17628004
-0.0027042923
0.1760718
-0.0018770346
0.17586072
-0.00096331438
-0.00011425118
0.17592944
0.20552374
-0.026179851
-0.2074259
0.20365001
-0.024433046
0.2019346
-0.022666487
0.20033066
-0.020882318
0.19880189
-0.019089706
0.19748087
-0.017314169
0.19618116
-0.015570384
0.19510308
-0.013726559
0.19400405
-0.012023198
0.19310083
-0.010229751
0.19222659
-0.0087768618
0.19154247
-0.0071465149
0.19095544
-0.005881327
0.19040683
-0.0043784663
0.18990134
-0.0033711814
0.1893993
-0.0022022545
0.18903467
-0.001512408
0.18862946
-0.000558101
-3.1479191e-05
0.18854669
0.21997897
-0.023955309
-0.22220351
0.21788431
-0.022338391
0.21598601
-0.020768189
0.21417852
-0.019074828
0.21248976
-0.017400939
0.21094095
-0.015765358
0.20952307
-0.014152504
0.2083164
-0.01251989
0.20716315
-0.010869949
0.20618998
-0.0092565865
0.20522242
-0.0078092977
0.20448025
-0.0064043479
0.20383493
-0.0052360021
0.20340537
-0.0039489102
0.20297552
-0.0029413271
0.20269945
-0.001926183
0.20238992
-0.0012028842
0.20222032
-0.00038849539
9.2690879e-05
0.20209615
0.23594688
-0.021682784
-0.23821941
0.2338487
-0.020240204
0.23183082
-0.018750316
0.22990638
-0.017150383
0.22812963
-0.015624192
0.22646934
-0.014105067
0.22497097
-0.012654138
0.22362987
-0.011178784
0.22244186
-0.0096819409
0.22140369
-0.0082184127
0.220445
-0.0068506107
0.21957576
-0.0055351082
0.21879898
-0.004459222
0.21820941
-0.0033593403
0.21771997
-0.0024518864
0.21743423
-0.0016404442
0.21713154
-0.00090019799
0.21701307
-0.00027001828
0.00021975191
0.216886
0.25251064
-0.019106665
-0.25508676
0.2501842
-0.017913766
0.24795941
-0.016525522
0.24592266
-0.015113632
0.2440262
-0.013727734
0.24226041
-0.012339276
0.24063863
-0.011032362
0.23920743
-0.0097475801
0.23795935
-0.0084338637
0.23691772
-0.007176781
0.23604115
-0.0059740393
0.23524306
-0.0047370242
0.23451745
-0.0037336103
0.23389193
-0.0027338193
0.23341076
-0.0019707188
0.23306474
-0.0012944166
0.23282363
-0.0006590902
0.23274508
-0.00019147524
0.00031850817
0.23264633
0.27090908
-0.016563868
-0.27345187
0.26844067
-0.015445359
0.26612257
-0.014207417
0.26401866
-0.013009732
0.26199028
-0.011699346
0.26013242
-0.010481419
0.25836564
-0.00926558
0.25677332
-0.0081552594
0.25534049
-0.0070010376
0.25414799
-0.0059842759
0.25314915
-0.0049752057
0.25238165
-0.0039695232
0.2517262
-0.003078155
0.25114933
-0.0021569567
0.25069374
-0.001515128
0.25031396
-0.00091462993
0.25005257
-0.00039770102
0.24986215
-1.0574133e-06
0.0003299346
0.24985072
0.28988689
-0.01388265
-0.29256811
0.28728027
-0.012838735
0.2848554
-0.011782549
0.28264466
-0.010798991
0.28064988
-0.0097045614
0.27886104
-0.0086925789
0.27715998
-0.0075645207
0.27557718
-0.006572464
0.27414518
-0.0055690326
0.27286737
-0.0047064704
0.27176626
-0.0038740941
0.27085903
-0.0030622926
0.27014485
-0.0023639756
0.26959707
-0.0016091827
0.26913762
-0.0010556731
0.26881125
-0.00058826593
0.26857687
-0.00016331802
0.268511
6.4811561e-05
0.00044172737
0.26839921
0.31099496
-0.010940121
-0.31393749
0.30820357
-0.010047347
0.30555511
-0.0091340878
0.30301321
-0.0082570863
0.30071836
-0.0074097163
0.29866114
-0.0066353551
0.29688718
-0.005790566
0.29532249
-0.0050077705
0.29392615
-0.0041726909
0.29267468
-0.003455002
0.29157509
-0.0027744992
0.29067111
-0.0021583201
0.28997128
-0.0016641386
0.28945298
-0.0010908912
0.28913698
-0.00073967264
0.28890045
-0.00035173457
0.28878523
-4.809758e-05
0.28873381
0.00011622901
0.00033374457
0.2888418
0.33302417
-0.0078885333
-0.33607576
0.33015514
-0.007178313
0.32748273
-0.0064616736
0.32498639
-0.005760749
0.32267638
-0.0050997097
0.32053699
-0.0044959644
0.31864339
-0.0038969615
0.31699734
-0.0033617243
0.31557097
-0.0027463174
0.31438305
-0.0022670864
0.31335772
-0.001749168
0.3125263
-0.0013269014
0.31184474
-0.00098257882
0.3113217
-0.00056784975
0.31095207
-0.00037004355
0.31068251
-8.2170835e-05
0.31063861
-4.2010148e-06
0.31059399
0.00016084914
0.0003454949
0.31058224
0.35722344
-0.0042207224
-0.36089125
0.35391694
-0.0038718162
0.35091503
-0.003459763
0.34819732
-0.0030430388
0.34575093
-0.0026533202
0.34353858
-0.0022836134
0.34161117
-0.0019695462
0.33990114
-0.0016516964
0.33849632
-0.0013415017
0.3373
-0.0010707635
0.33634582
-0.00079498708
0.33560978
-0.00059086307
0.33503938
-0.00041217277
0.33471206
-0.00024053408
0.33448641
-0.00014439776
0.33437613
2.811862e-05
0.33441189
-3.9968803e-05
0.33449684
7.5904406e-05
1.1203668e-05
0.33483113
0.38444603
-0.38866675
0.38057421
0.37711445
0.37407141
0.37141809
0.36913448
0.36716493
0.36551323
0.36417173
0.36310097
0.36230598
0.36171512
0.36130295
0.36106241
0.36091801
0.36094613
0.36090616
0.36098207
0.36099327
0.060458948
0.0012290399
-0.0013616362
0.060888638
0.0037845009
-0.004214192
0.061545286
0.0059824583
-0.0066391056
0.062494249
0.0085516193
-0.0095005829
0.063717674
0.01061409
-0.011837515
0.065163691
0.013201764
-0.014647782
0.066888668
0.015266413
-0.01699139
0.068808694
0.017652056
-0.019572082
0.070888289
0.019875751
-0.021955346
0.073308257
0.021886112
-0.02430608
0.075677398
0.024080961
-0.026450102
0.078540064
0.025942595
-0.028805261
0.081268476
0.027739132
-0.030467544
0.084439793
0.02966437
-0.032835687
0.087637739
0.031207768
-0.034405714
0.091201848
0.03287085
-0.03643496
0.095010358
0.034138162
-0.037946673
0.098973207
0.035497077
-0.039459926
0.036194195
0.10342182
-0.040642809
0.064533906
0.0011418706
0.065085399
0.0032330072
0.065737407
0.0053304502
0.066843585
0.0074454412
0.068118848
0.0093388273
0.069668553
0.011652059
0.071490796
0.01344417
0.073451683
0.015691168
0.07574987
0.017577563
0.078128543
0.019507438
0.080662124
0.02154738
0.08336136
0.023243359
0.086009329
0.025091162
0.088933427
0.026740272
0.091831735
0.02830946
0.094882176
0.029820409
0.09793848
0.031081858
0.10126121
0.032174347
0.033056454
0.10439895
0.068952715
0.0009762166
0.069461163
0.0027245595
0.070155939
0.0046356742
0.071304495
0.0062968848
0.072522649
0.008120673
0.074188597
0.0099861113
0.075895117
0.01173765
0.077904701
0.013681583
0.080096008
0.015386257
0.082340614
0.017262832
0.084859651
0.019028343
0.087271099
0.02083191
0.089884712
0.02247755
0.09240389
0.024221093
0.095054527
0.025658822
0.09750049
0.027374446
0.10001967
0.028562682
0.10239138
0.029802629
0.030755184
0.10469265
0.073786776
0.00076559727
0.074257232
0.002254103
0.075043974
0.0038489324
0.076143964
0.005196894
0.077422132
0.0068425048
0.07905749
0.0083507533
0.080758387
0.010036752
0.082757414
0.011682555
0.084866013
0.013277658
0.087032508
0.015096336
0.089379176
0.016681674
0.091550911
0.018660174
0.093835332
0.020193129
0.095926446
0.02212998
0.097959555
0.023625713
0.099789026
0.025544975
0.10131886
0.027032847
0.10262697
0.028494519
0.029816696
0.10356546
0.07887805
0.00060788394
0.07935278
0.0017793725
0.080144022
0.0030576905
0.08122254
0.0041183756
0.082504594
0.0055604512
0.084135625
0.0067197218
0.085809982
0.0083623947
0.087727325
0.009765212
0.089551375
0.011453608
0.091445955
0.013201756
0.093339419
0.01478821
0.095148035
0.016851557
0.096917461
0.018423703
0.098455114
0.020592327
0.099741048
0.022339779
0.10077425
0.024511773
0.10127123
0.026535867
0.10144654
0.02831921
0.030580306
0.10068293
0.084149288
0.00042635497
0.084652562
0.0012760987
0.085499367
0.0022108851
0.086570294
0.003047448
0.087901542
0.0042292032
0.089436046
0.005185217
0.091047984
0.0067504569
0.092882839
0.0079303565
0.094553836
0.0097826108
0.096423355
0.011332236
0.097840417
0.013371148
0.099414718
0.015277255
0.10038307
0.01745535
0.10124607
0.019729326
0.10149617
0.022089678
0.10138961
0.024618332
0.10059582
0.027329659
0.099250602
0.029664429
0.033097832
0.096733075
0.090155006
0.00025170654
0.090626348
0.00080475697
0.091381902
0.0014553308
0.092385837
0.0020435135
0.093633578
0.0029814615
0.0950312
0.0037875948
0.096530807
0.0052508493
0.098050086
0.0064110773
0.099467415
0.0083652807
0.10083261
0.0099670396
0.10185868
0.012345079
0.10288638
0.014249557
0.10317349
0.017168241
0.10342713
0.019475685
0.10269504
0.022821763
0.1017011
0.025612275
0.099550753
0.029480005
0.096722001
0.03249318
0.03717957
0.092640263
0.096080138
2.4619738e-05
0.096520118
0.00036477619
0.097399224
0.00057622484
0.098378453
0.0010642837
0.099679759
0.0016801552
0.10096536
0.0025019907
0.10234784
0.0038683737
0.10366245
0.0050964699
0.10483452
0.0071932084
0.1058511
0.0089504516
0.10644655
0.011749638
0.1066526
0.014043507
0.10626378
0.017557055
0.10537806
0.020361406
0.1036758
0.024524025
0.10149134
0.027796728
0.098113733
0.032857617
0.094226508
0.036380404
0.042161711
0.089244368
0.10289116
-0.00011429648
0.10328703
-3.1096923e-05
0.10401141
-0.00014814951
0.10483826
0.00023742896
0.10607423
0.00044418834
0.10704555
0.0015306678
0.10832256
0.0025913629
0.10915816
0.0042608727
0.11007379
0.0062775719
0.11050461
0.0085196369
0.11068577
0.011568474
0.11031628
0.014412995
0.1093521
0.018521237
0.10767919
0.022034313
0.10526602
0.026937199
0.10201435
0.0310484
0.098085489
0.036786475
0.093507529
0.040958363
0.04761472
0.08805452
0.10990547
-0.00028291993
0.11035636
-0.00048199159
0.11107219
-0.00086397591
0.11198929
-0.00067967106
0.11299272
-0.00055924848
0.11386387
0.00065951697
0.1149047
0.0015505397
0.11540548
0.0037600836
0.11604481
0.0056382483
0.11576546
0.0087989857
0.11546977
0.01186416
0.11403704
0.015845723
0.11245677
0.020101506
0.10985681
0.024634281
0.10690518
0.029888826
0.10303836
0.03491522
0.098954448
0.040870385
0.093954585
0.045958225
0.052967083
0.088602221
0.11723176
-0.00034476909
0.11761899
-0.00086922326
0.11823954
-0.0014845211
0.11901887
-0.0014590032
0.11980408
-0.0013444539
0.12059829
-0.00013469329
0.12116091
0.00098791435
0.12149835
0.0034226481
0.12163999
0.0054966086
0.1210353
0.0094036756
0.12021434
0.012685115
0.11827624
0.017783825
0.11635406
0.022023686
0.11309509
0.02789325
0.10995856
0.033025352
0.10563979
0.039233993
0.10155976
0.04495041
0.096486603
0.051031385
0.057902683
0.091551004
0.12556547
-0.00041099358
0.12601431
-0.0013180619
0.12651324
-0.0019834495
0.12719998
-0.0021457469
0.12781849
-0.0019629658
0.12843636
-0.00075255831
0.12862125
0.00080301821
0.12858939
0.0034545069
0.12794007
0.0061459342
0.12692195
0.010421789
0.12536266
0.014244409
0.12320116
0.019945323
0.12069504
0.024529804
0.11725622
0.031332079
0.11402668
0.036254892
0.10974122
0.043519449
0.10615094
0.048540686
0.10151119
0.055671137
0.061695789
0.097718085
0.13396304
-0.00044083168
0.13432606
-0.0016810839
0.13467088
-0.0023282664
0.13520712
-0.0026819896
0.13558699
-0.0023428339
0.1360642
-0.0012297675
0.13606342
0.00080379776
0.13584608
0.0036718461
0.13484663
0.0071453824
0.13367864
0.01158978
0.13162458
0.016298468
0.12929938
0.022270524
0.12625502
0.027574163
0.12317335
0.03441375
0.1200826
0.039345634
0.11671613
0.046885924
0.11438607
0.050870741
0.11180904
0.058248168
0.061331663
0.11217317
0.14354391
-0.00049420241
0.14385542
-0.0019925931
0.14419113
-0.0026639791
0.14450998
-0.0030008374
0.14461513
-0.0024479916
0.14461563
-0.0012302681
0.14413198
0.0012874482
0.14359761
0.0042062161
0.14233802
0.008404972
0.14095356
0.012974241
0.13861144
0.018640585
0.13636003
0.024521933
0.13359527
0.030338929
0.13150602
0.036502996
0.12930136
0.041550295
0.1282672
0.047920088
0.12852276
0.050615173
0.13074704
0.056023895
0.054792809
0.13728589
0.15331555
-0.00051261765
0.15346497
-0.0021420097
0.1538109
-0.0030099128
0.1541373
-0.00332723
0.15421396
-0.0025246507
0.15397477
-0.00099108402
0.15339963
0.0018625904
0.15259882
0.0050070202
0.15107653
0.0099272641
0.14937988
0.014670888
0.14701013
0.02101034
0.14522349
0.026308575
0.14337259
0.03218983
0.14271776
0.037157822
0.14251501
0.041753044
0.14492107
0.045514025
0.14891402
0.046622224
0.15669682
0.0482411
0.043821474
0.16766815
0.16446969
-0.00044126575
0.16430754
-0.0019798576
0.16442834
-0.0031307175
0.16441886
-0.0033177549
0.16426953
-0.00237532
0.16386222
-0.00058377507
0.16322752
0.0024972962
0.16210655
0.0061279871
0.16059296
0.011440857
0.15899911
0.016264739
0.15744126
0.022568186
0.15673227
0.027017566
0.15640635
0.032515749
0.15774865
0.035815521
0.16039146
0.039110233
0.16623852
0.039666962
0.1735502
0.03931055
0.18435248
0.037438821
0.032142948
0.196031
0.17591856
-0.00043038202
0.1759478
-0.0020091034
0.17604592
-0.0032288337
0.17582795
-0.00309979
0.17556688
-0.002114251
0.17505941
-7.6306269e-05
0.174248
0.0033087059
0.17291402
0.0074619715
0.17160941
0.012745463
0.1704077
0.017466457
0.16993812
0.023037764
0.17035903
0.026596647
0.17184943
0.031025355
0.17538995
0.032275001
0.18077102
0.033729161
0.18882597
0.031612009
0.19762616
0.030510367
0.20848063
0.026584347
0.023055535
0.21756804
0.18823923
-0.00012292208
0.18835163
-0.0021215053
0.18819875
-0.0030759507
0.18792566
-0.0028267046
0.18760396
-0.0017925474
0.18697468
0.00055297507
0.18617285
0.0041105354
0.18508983
0.0085449896
0.18444765
0.013387638
0.18409479
0.017819323
0.18501545
0.022117102
0.18690592
0.024706179
0.19056932
0.027361952
0.19611725
0.026727066
0.20323806
0.026608348
0.21161202
0.023238054
0.21961895
0.022503437
0.22771869
0.018484605
0.018595193
0.23217903
0.20197766
-4.4346745e-06
0.20193832
-0.0020821663
0.20155864
-0.0026962682
0.20142192
-0.002689989
0.20101397
-0.0013846012
0.20029268
0.0012742671
0.19944369
0.0049595291
0.19869777
0.0092909048
0.19870883
0.013376581
0.19932612
0.017202037
0.20148393
0.019959287
0.20457968
0.021610427
0.2097242
0.022217429
0.21585521
0.020596058
0.22292026
0.019543299
0.22960917
0.016549141
0.23523254
0.016880066
0.2394028
0.014314348
0.018260013
0.23973798
0.21680461
7.696283e-05
0.21652787
-0.0018054254
0.21628074
-0.0024491434
0.21604858
-0.0024578267
0.21544715
-0.00078317257
0.21494244
0.0017789772
0.21455353
0.0053484385
0.21461586
0.0092285762
0.21545639
0.012536049
0.21734983
0.015308599
0.22051906
0.016790054
0.22459011
0.017539381
0.23048332
0.01632421
0.23592452
0.015154859
0.24167428
0.013793541
0.24559746
0.012625959
0.2481356
0.014341928
0.24775106
0.014698886
0.022047972
0.2439631
0.23264216
8.1126706e-05
0.23226189
-0.0014251501
0.23211837
-0.0023056215
0.23151057
-0.0018500303
0.23107783
-0.0003504357
0.23065776
0.0021990541
0.23046919
0.0055370094
0.23107216
0.0086256057
0.23261404
0.010994167
0.23535647
0.012566168
0.23880375
0.013342769
0.24341838
0.012924756
0.24841033
0.011332254
0.25232389
0.011241306
0.25599257
0.010124855
0.25654426
0.01207427
0.2556952
0.015190994
0.25116527
0.019228814
0.028331212
0.24488203
0.24973375
0.00019810348
0.24970394
-0.001395344
0.24954814
-0.0021498184
0.24920885
-0.0015107472
0.24898729
-0.00012887086
0.248791
0.0023953408
0.2493178
0.0050102141
0.25070747
0.0072359315
0.25294312
0.0087585224
0.2560162
0.0094930886
0.25956672
0.0097922452
0.26381371
0.0086777619
0.26689525
0.0082507148
0.26945887
0.0086776857
0.26971015
0.0098735751
0.26718154
0.014602876
0.26386695
0.018505588
0.25817131
0.024924454
0.032188835
0.25431369
0.26831428
0.00028303101
0.26809426
-0.0011753175
0.26746391
-0.0015194682
0.2671418
-0.0011886461
0.26710919
-9.6252906e-05
0.26729065
0.0022138729
0.26823143
0.0040694356
0.26972507
0.0057422931
0.27209181
0.0063917878
0.27493904
0.0066458545
0.27809909
0.0066321964
0.28100851
0.0057683426
0.2824893
0.0067699201
0.28302837
0.0081386199
0.28074482
0.012157124
0.27877097
0.016576723
0.27644403
0.020832532
0.27472347
0.026645008
0.029068726
0.27784358
0.28904423
8.0597607e-05
0.28894498
-0.0010760687
0.28879324
-0.0013677275
0.28872044
-0.0011158426
0.28858376
4.042696e-05
0.2893566
0.0014410341
0.29052436
0.0029016736
0.29230949
0.0039571658
0.29453046
0.0041708114
0.29695831
0.0042180028
0.29941825
0.0041722596
0.30058016
0.0046064307
0.30071934
0.0066307403
0.29933695
0.0095210074
0.29788887
0.013605209
0.29797122
0.01649437
0.29873639
0.020067365
0.30397113
0.021410269
0.020160008
0.31287985
0.3106682
-5.3624981e-06
0.31023129
-0.00063916138
0.30965414
-0.00079057638
0.30938021
-0.0008419131
0.30967258
-0.00025194004
0.31021024
0.00090337219
0.31124152
0.0018703979
0.31284659
0.0023520933
0.31443186
0.0025855381
0.31606636
0.0025835059
0.31746249
0.0027761255
0.31815121
0.0039177119
0.31872029
0.0060616646
0.31951474
0.0087265599
0.32204753
0.01107241
0.32585977
0.012682137
0.33202307
0.01390406
0.34091952
0.01251382
0.012265102
0.34881443
0.33516567
-0.00033989919
0.33521386
-0.00068735397
0.33520586
-0.00078257936
0.33532753
-0.00096358412
0.33568274
-0.00060715238
0.33647308
0.00011303342
0.33762371
0.00071976765
0.338821
0.0011548099
0.34007717
0.0013293691
0.341185
0.0014756758
0.34180122
0.0021598982
0.34258937
0.0031295681
0.34394132
0.0047097112
0.34687352
0.0057943617
0.35093809
0.0070078406
0.35643726
0.0071829579
0.36343523
0.0069060917
0.370184
0.0057650577
0.0057890193
0.37666008
0.36065337
0.35996602
0.35918344
0.35821986
0.3576127
0.35772574
0.3584455
0.35960031
0.36092968
0.36240536
0.36456526
0.36769483
0.37240454
0.3781989
0.38520674
0.3923897
0.39929579
0.40506085
0.41084987
0.1013919
0.04383444
-0.041804514
0.099760626
0.044344097
-0.042712828
0.09799459
0.044834596
-0.043068561
0.096906363
0.044549856
-0.04346163
0.095700534
0.04451048
-0.043304651
0.094933756
0.043297211
-0.042530433
0.094561656
0.042264701
-0.041892601
0.094609622
0.041175623
-0.04122359
0.095219875
0.038386104
-0.038996356
0.096172765
0.036353506
-0.037306396
0.098109617
0.034270313
-0.036207165
0.10096661
0.030714152
-0.033571141
0.10447369
0.026922562
-0.030429647
0.10824596
0.024307215
-0.028079487
0.11238143
0.021791465
-0.025926928
0.11673683
0.019473248
-0.02382865
0.1225386
0.017694149
-0.02349592
0.13039742
0.016264321
-0.024123138
0.015856379
0.13803357
-0.023492528
0.1019529
0.046280485
0.099316376
0.046980625
0.097383534
0.046767439
0.095210929
0.046722461
0.093643864
0.046077545
0.092206581
0.044734494
0.090966282
0.043505
0.09110277
0.041039135
0.090925637
0.038563237
0.091258529
0.036020613
0.093273969
0.032254873
0.095621726
0.028366395
0.098148611
0.024395677
0.10199563
0.020460194
0.10867608
0.015111018
0.11789896
0.010250368
0.12917027
0.0064228347
0.13993314
0.0055014529
0.0080426241
0.14774689
0.10132375
0.049649391
0.098238817
0.050065554
0.095207837
0.049798418
0.092383648
0.04954665
0.090038749
0.048422444
0.087245834
0.047527409
0.085829721
0.044921112
0.084159569
0.042709288
0.083129208
0.039593597
0.084001549
0.035148272
0.08477328
0.031483141
0.086564603
0.026575072
0.091386135
0.019574144
0.098643514
0.013202815
0.10604012
0.0077144087
0.11154487
0.0047456236
0.11431586
0.0036518465
0.11406699
0.0057503233
0.010487239
0.11162237
0.099134571
0.054080278
0.095242636
0.05395749
0.091031504
0.05400955
0.087570137
0.053008017
0.083561856
0.052430724
0.080611732
0.050477533
0.077223162
0.048309681
0.074663334
0.045269116
0.073669515
0.040587416
0.071810446
0.037007341
0.072178982
0.031114606
0.076646398
0.022107657
0.08004743
0.016173112
0.079851384
0.013398861
0.075341839
0.012223954
0.066573803
0.01351366
0.054553229
0.01567242
0.040972159
0.019331393
0.025660672
0.025798725
0.09555122
0.059211985
0.090324043
0.059184666
0.08535369
0.058979902
0.080213053
0.058148654
0.075099549
0.057544229
0.070321538
0.055255543
0.065263157
0.053368062
0.061786057
0.048746217
0.056366814
0.046006658
0.052574501
0.040799655
0.052806769
0.030882337
0.051214691
0.023699735
0.043765126
0.023622677
0.031431039
0.025732948
0.01624246
0.027412533
-0.00088572554
0.030641846
-0.019705452
0.034492146
-0.039458282
0.039084224
0.045432115
-0.059229725
0.090538699
0.065406361
0.083979772
0.065743593
0.077688522
0.065271152
0.070748102
0.065089075
0.064012788
0.064279541
0.056461126
0.062807206
0.049466472
0.060362716
0.040904012
0.057308677
0.032109239
0.054801431
0.026887002
0.046021891
0.018962605
0.038806734
0.0074363799
0.035225961
-0.0065735796
0.037632636
-0.022952334
0.042111703
-0.041068579
0.045528777
-0.059913867
0.049487134
-0.079051528
0.053629807
-0.098595263
0.058627959
0.064408963
-0.11757211
0.08529053
0.072756093
0.077683227
0.073350897
0.069653191
0.073301187
0.061045314
0.073696952
0.052194537
0.073130318
0.042074574
0.072927169
0.031240205
0.071197084
0.018616213
0.069932668
0.010056483
0.063361161
0.0011555188
0.054922855
-0.014665022
0.054627273
-0.032474716
0.053035656
-0.050522643
0.055680563
-0.068043776
0.059632836
-0.085829709
0.06331471
-0.10342462
0.06708205
-0.12025088
0.070456066
-0.13591618
0.074293252
0.078325967
-0.14983318
0.080924198
0.081076262
0.072415393
0.081859702
0.063280263
0.082436316
0.053827982
0.083149234
0.043604399
0.083353901
0.032423806
0.084107762
0.019639209
0.083981681
0.0068737604
0.082698118
-0.0016652795
0.0719002
-0.014627447
0.067885023
-0.032626435
0.072626261
-0.053663413
0.074072634
-0.075343108
0.077360257
-0.095120478
0.079410206
-0.11317037
0.081364603
-0.12906505
0.082976731
-0.14357719
0.084968206
-0.15637246
0.087088524
0.088656159
-0.16670266
0.078874421
0.090256361
0.069664177
0.091069946
0.060003141
0.092097352
0.050379535
0.09277284
0.040368089
0.093365347
0.03073249
0.09374336
0.019627021
0.095087149
0.0085519064
0.093773233
-0.0035736542
0.084025761
-0.022823844
0.087135213
-0.043176863
0.092979279
-0.06537545
0.096271222