/*--------------------------------*- C++ -*----------------------------------*\
  =========                 |
  \\      /  F ield         | OpenFOAM: The Open Source CFD Toolbox
   \\    /   O peration     | Website:  https://openfoam.org
    \\  /    A nd           | Version:  11
     \\/     M anipulation  |
\*---------------------------------------------------------------------------*/
FoamFile
{
    format      ascii;
    class       surfaceScalarField;
    location    "19.6";
    object      phi;
}
// * * * * * * * * * * * * * * * * * * * * * * * * * * * * * * * * * * * * * //

dimensions      [0 3 -1 0 0 0 0];

internalField   nonuniform List<scalar> 
8667
(
1.5882981
0.19465083
-0.0051711384
1.3975289
0.21280176
-0.022032539
1.2054182
0.2235357
-0.031425003
1.0127731
0.24238037
-0.049735302
0.81943354
0.25238353
-0.059043968
0.62509816
0.27526494
-0.080929558
0.43127292
0.2892412
-0.095415964
0.23121843
0.36600391
-0.16594942
0.34425019
-0.16704663
0.054014873
1.5883023
0.38412632
1.3975126
0.40359147
1.2058823
0.41516601
1.0129775
0.43528518
0.81955888
0.44580216
0.6247134
0.47011041
0.42956087
0.48439373
0.23076623
0.56479854
0.52208263
0.052933793
1.5884059
0.57349824
1.3975358
0.59446155
1.2064518
0.60624997
1.0133314
0.62840557
0.81964983
0.63948378
0.62444655
0.66531369
0.42885689
0.6799834
0.22910353
0.7645519
0.69907917
0.052106995
1.5885454
0.76273067
1.398129
0.78487795
1.2072011
0.79717781
1.0140289
0.82157776
0.81989975
0.83361297
0.6244865
0.86072693
0.42778988
0.87668003
0.22650443
0.96583734
0.87431413
0.051269469
1.5886638
0.95184446
1.3989037
0.97463803
1.2078547
0.98822679
1.015176
1.0142565
0.82043321
1.0283558
0.62473602
1.0564241
0.42810895
1.0733071
0.2251384
1.1688079
1.0487433
0.050709195
1.58888
1.1407423
1.3996266
1.1638914
1.2085754
1.179278
1.0161119
1.20672
0.82153619
1.2229314
0.62477107
1.2531892
0.42715724
1.2709209
0.22225409
1.373711
1.2222553
0.048742147
1.5890671
1.329453
1.4001336
1.3528249
1.209662
1.3697496
1.0172066
1.3991753
0.82263212
1.4175059
0.62577261
1.4500488
0.42793831
1.4687552
0.22069573
1.5809536
1.3949663
0.047984715
1.5891019
1.5181289
1.4006011
1.5413258
1.2107083
1.5596424
1.018615
1.5912686
0.82361468
1.6125062
0.62587553
1.6477879
0.42759176
1.667039
0.218163
1.7903824
1.5690568
0.044072529
1.5893885
1.7065182
1.4010515
1.7296629
1.2114672
1.7492267
1.0199119
1.7828239
0.82549524
1.8069229
0.62716173
1.8461214
0.42866123
1.8655395
0.21754964
2.001494
1.7454591
0.041147294
1.8886464
1.5956496
2.0705495
1.5958747
2.2520083
1.5963196
2.4334124
1.5963739
2.6144809
1.5967075
2.7953461
1.5969128
2.9757724
1.5973517
3.1544835
1.5990669
1.5996243
3.3326372
1.9118292
1.4134833
2.0936411
1.4140628
2.275022
1.4149387
2.4556128
1.4157831
2.6362737
1.4160466
2.816466
1.4167205
2.9975057
1.416312
3.1795669
1.4170056
1.415965
3.3632262
1.933636
1.2290739
2.1174538
1.230245
2.3012891
1.2311034
2.4844729
1.2325992
2.6670232
1.2334963
2.8482105
1.2355332
3.0277401
1.2367824
3.2054237
1.2393221
1.2400646
3.3813241
1.9698684
1.0420294
2.1562805
1.0438329
2.3425203
1.0448636
2.5285942
1.0465254
2.7152005
1.0468899
2.9023822
1.0483516
3.0903676
1.048797
3.2784515
1.0512381
1.0512709
3.4672453
1.998323
0.85062934
2.1894217
0.85273413
2.3804789
0.85380647
2.5706536
0.85635066
2.7596269
0.8579166
2.9471042
0.86087428
3.1333175
0.86258369
3.3187662
0.86578947
0.86747962
3.5025574
2.0421586
0.65459219
2.2389182
0.65597446
2.4357895
0.65693522
2.6334408
0.65869939
2.831264
0.6600934
3.0300334
0.6621049
3.228962
0.66365504
3.4282924
0.66645912
0.6677099
3.6280621
2.0668262
0.45330552
2.2703191
0.45248154
2.4740736
0.45318069
2.6782383
0.45453466
2.8817419
0.45658979
3.084913
0.4589338
3.2872488
0.4613193
3.4897754
0.46393251
0.46724861
3.6902367
2.2146555
0.24014399
2.425219
0.24191808
2.6326094
0.24579023
2.8368121
0.25033194
3.0395379
0.25386399
3.2411641
0.25730766
3.4430229
0.25946052
3.6450619
0.26189344
0.26374624
3.8485643
1.9417211
0.043881981
2.1800226
0.0036166489
2.4244706
0.0013421702
2.6751706
-0.00036804225
2.929261
-0.00022641031
3.1869329
-0.00036426899
3.4466072
-0.00021379263
3.7086788
-0.0001780772
3.9725478
-0.00012278484
3.3227445
0.0098926691
3.3139
0.0088445615
3.3052768
0.008623174
3.2977027
0.0075741332
3.2902393
0.0074633345
3.2840318
0.0062075512
3.277807
0.0062247457
3.2730696
0.0047374163
0.0048549422
3.2682147
3.3565418
0.016576996
3.3507235
0.014662906
3.3449794
0.014367279
3.3405071
0.012046403
3.336012
0.011958505
3.3328252
0.0093942981
3.3295512
0.009498775
3.3276213
0.0066672999
0.0070290506
3.3254472
3.3785879
0.019313261
3.3764615
0.016789259
3.3746088
0.016219944
3.3732936
0.013361625
3.3722733
0.01297879
3.3717651
0.0099024882
3.3715635
0.0097003816
3.3718206
0.0064102923
0.0064685972
3.372381
3.4652744
0.021284144
3.4635622
0.0185015
3.4618321
0.01795006
3.4602553
0.014938415
3.4586995
0.014534593
3.4571753
0.011426669
3.455684
0.011191698
3.4541356
0.0079586828
0.0079852271
3.4526189
3.5024719
0.021369679
3.5026047
0.018368686
3.5027767
0.017778039
3.5030391
0.014675995
3.5033942
0.014179547
3.5036907
0.011130125
3.5042144
0.010667992
3.5045515
0.0076216338
0.0072338312
3.5053029
3.6271266
0.022305113
3.625927
0.019568308
3.6250163
0.018688792
3.6233331
0.016359121
3.6217098
0.015802869
3.6191319
0.013708038
3.6167334
0.013066529
3.6132722
0.011082776
0.010545274
3.6099608
3.692681
0.019860787
3.6933702
0.018879095
3.6940148
0.018044221
3.6933543
0.017019607
3.6926572
0.016499988
3.6905323
0.015832919
3.6877139
0.015884899
3.6829627
0.015834031
0.016097182
3.6774108
3.8392191
0.029205957
3.8302445
0.027853731
3.8216316
0.026657101
3.8125463
0.026104927
3.80431
0.024736253
3.7960615
0.024081508
3.7869881
0.024958231
3.7756626
0.027159571
0.029094447
3.7626653
3.9989593
0.0027944449
4.0197445
0.0070685547
4.0387994
0.0076022083
4.0545718
0.010332483
4.0647163
0.014591791
4.0589937
0.029804112
4.0419762
0.041975676
4.0195623
0.049573494
3.988033
0.060623768
3.9694933
0.076831544
-0.058291914
3.9390916
0.074388383
-0.043986641
3.9032525
0.07266629
-0.036827213
3.8655901
0.071671175
-0.034008802
3.8191997
0.071202241
-0.024811751
3.7642577
0.070295199
-0.015353257
3.7093869
0.066893327
-0.012022526
3.6576664
0.063723499
-0.012002991
0.059871807
3.6081795
-0.010384887
3.7647876
0.074709268
3.764088
0.075087936
3.7612107
0.07554361
3.7571825
0.075699417
3.7520034
0.076381305
3.7451639
0.077134727
3.7343566
0.077700587
3.7197428
0.078337336
0.078707949
3.7009066
3.6820087
0.070111321
3.6856667
0.071429981
3.6880599
0.073150351
3.6894317
0.074327613
3.6898612
0.075951818
3.6898652
0.077130711
3.6888965
0.078669351
3.6874214
0.079812434
0.081388585
3.6847407
3.6203173
0.059754847
3.6308658
0.060881473
3.6399364
0.064079705
3.6490873
0.065176758
3.6566497
0.068389386
3.6643071
0.069473355
3.6702975
0.072678924
3.6763441
0.073765772
0.077005325
3.6807274
3.5178539
0.047203821
3.5310749
0.047660451
3.543695
0.051459656
3.556981
0.051890697
3.5694955
0.055874922
3.5826386
0.05633022
3.5948178
0.060499798
3.6075357
0.061047858
0.065390211
3.6191508
3.4649088
0.034913952
3.4775254
0.035043833
3.4902119
0.038773159
3.5033362
0.038766474
3.5165098
0.042701262
3.5302353
0.042604725
3.5439475
0.046787564
3.5583498
0.046645643
0.051128919
3.5726111
3.385667
0.021627929
3.3994054
0.021305458
3.4132967
0.024881865
3.4277069
0.024356228
3.4422325
0.0281757
3.457403
0.027434277
3.4726891
0.031501415
3.4887603
0.030574457
0.034968082
3.5049211
3.33764
0.0094350759
3.3498119
0.0091336421
3.363181
0.011512697
3.3764893
0.01104798
3.3911882
0.013476736
3.405787
0.012835554
3.4219074
0.015380985
3.4378385
0.014643388
0.017371184
3.4554354
3.2776498
3.2867834
3.2982961
3.3093441
3.3228208
3.3356564
3.3510374
3.3656807
3.3830519
3.3996207
-0.016568717
3.4191258
-0.019505147
3.4377713
-0.018645497
3.4595281
-0.021756785
3.4805892
-0.021061166
3.5046667
-0.024077415
3.5284548
-0.023788139
3.5552129
-0.026758128
-0.026863192
3.5820761
3.4727616
-0.033894955
3.4919424
-0.038685981
3.5108027
-0.037505742
3.5317301
-0.042684164
3.5523848
-0.041715912
3.5751011
-0.046793751
3.5979046
-0.046591654
3.6227525
-0.051605933
-0.051999723
3.647889
3.5220125
-0.050986331
3.5391613
-0.05583481
3.5573978
-0.05574219
3.5757185
-0.061004892
3.5951034
-0.061100788
3.6149418
-0.066632194
3.6356388
-0.067288667
3.657164
-0.073131083
-0.074183925
3.6793482
3.5876736
-0.066048853
3.6024665
-0.07062773
3.6181751
-0.071450806
3.6335384
-0.076368198
3.6499378
-0.077500152
3.666219
-0.082913422
3.6833107
-0.084380317
3.7005901
-0.090410566
-0.092237345
3.7186436
3.6312603
-0.078158394
3.6421681
-0.081535443
3.6536725
-0.082955278
3.6639661
-0.086661735
3.6750674
-0.088601527
3.684943
-0.092788945
3.6958744
-0.095311784
3.7056903
-0.10022641
-0.10341241
3.7168653
3.6851794
-0.082610365
3.6880436
-0.084399653
3.6912011
-0.086112819
3.6928079
-0.088268461
3.694938
-0.090731689
3.6956469
-0.093497858
3.6972521
-0.096916996
3.6977105
-0.10068475
-0.10504507
3.6993431
3.6812072
-0.079076862
3.6760121
-0.079204561
3.6698146
-0.079915225
3.6620854
-0.080539277
3.6535418
-0.082188136
3.6439189
-0.083874903
3.6337934
-0.086791551
3.6232315
-0.090122826
-0.094441283
3.6126277
3.6784241
-0.056594311
3.6517355
-0.052515981
3.6226028
-0.050782557
3.5919935
-0.049929898
3.5616056
-0.05180029
3.531369
-0.053638294
3.502396
-0.057818527
3.4743734
-0.062100209
-0.068030785
3.4479629
3.5584806
-0.0068954247
3.5118685
-0.005903834
3.4677907
-0.0067048504
3.4263908
-0.0085299227
3.385057
-0.010466564
3.3457088
-0.014290003
3.3099923
-0.022102038
3.2710562
-0.023164167
3.2309286
-0.027903179
0.073215378
3.1839888
-0.026275562
0.099644514
3.4215337
0.11020826
3.602064
0.10933468
3.7002167
0.099061474
3.7271385
0.08059414
3.7371109
0.057078384
3.7028639
0.029816276
3.6751511
3.6118924
0.079281767
3.1371754
-0.032468362
0.10493677
3.3958787
0.11537788
3.5916228
0.113227
3.7023676
0.10130082
3.7390647
0.082027369
3.7563843
0.058023442
3.7268679
0.030357844
3.7028167
3.6422502
0.084700855
3.0818989
-0.029424348
0.11177678
3.3688028
0.12215114
3.5812485
0.12041658
3.7041022
0.10916326
3.750318
0.089237619
3.77631
0.063503131
3.7526024
0.033411425
3.7329084
3.6756617
0.091345006
3.0289771
-0.038423178
0.11789776
3.3422501
0.12803203
3.5711142
0.12495569
3.7071785
0.11184393
3.7634298
0.090966359
3.7971876
0.064841562
3.7787272
0.034284415
3.7634655
3.7099461
0.098088578
2.9677098
-0.036821334
0.12657085
3.3137678
0.13652207
3.561163
0.13357621
3.7101244
0.12099246
3.7760136
0.099098855
3.8190812
0.070843247
3.8069828
0.037623454
3.7966853
3.7475695
0.10650205
2.9122335
-0.051025712
0.13359195
3.2866779
0.14299078
3.5517642
0.1385269
3.7145882
0.12400167
3.7905388
0.10112515
3.8419577
0.072604017
3.8355039
0.038808133
3.8304812
3.7863777
0.11587254
2.8494823
-0.053121312
0.14451411
3.2580363
0.15357869
3.5426996
0.14890752
3.7192594
0.13459179
3.8048545
0.11019362
3.8663559
0.079073941
3.8666236
0.042405735
3.8671494
3.8287834
0.12691974
2.7976655
-0.07510296
0.15244412
3.2325119
0.16048529
3.5346584
0.15407937
3.7256653
0.13771316
3.8212207
0.11240552
3.8916635
0.08125018
3.8977789
0.043929664
3.9044699
3.8727131
0.14036275
2.7400719
-0.082769201
0.16648244
3.2063922
0.17404595
3.5270949
0.16711471
3.7325966
0.15070263
3.8376328
0.12282896
3.9195372
0.088114395
3.9324935
0.047673219
3.9449111
3.9203863
-0.009555674
3.929942
-0.0098067673
3.9451622
-0.0061023637
3.9287891
0.0050756957
3.9083591
0.01762692
3.8250816
0.037504921
3.7127186
0.05796326
3.5066366
0.08077984
3.1835756
2.7515538
0.069297998
-0.011850063
3.941792
-0.014461963
3.9477741
-0.014353344
3.9286805
-0.0065028313
3.9005086
0.0051045414
3.8134742
0.023695101
3.694128
0.041211386
3.4891203
0.059562969
3.1652241
2.7489886
0.062128153
-0.012495138
3.9542872
-0.015463627
3.9507426
-0.01376154
3.9269784
-0.0046071241
3.8913542
0.0053834066
3.8034837
0.022706153
3.6768053
0.039623741
3.4722027
0.058178514
3.1466693
2.7467458
0.060421297
-0.01455264
3.9688398
-0.020016426
3.9562064
-0.022462129
3.9294241
-0.017075648
3.8859677
-0.007544425
3.7939524
0.0087923537
3.6604685
0.0241982
3.4567968
0.039354969
3.1315125
2.7462522
0.039848616
-0.01509582
3.9839356
-0.020502727
3.9616133
-0.020909719
3.9298311
-0.013703649
3.8787616
-0.0055459992
3.7857948
0.0096526669
3.6452698
0.024559287
3.4418902
0.039449545
3.1166223
2.7416722
0.044029538
-0.017266496
4.0012021
-0.024886893
3.9692337
-0.029539865
3.934484
-0.026269805
3.8754916
-0.018507898
3.7780329
-0.0042613999
3.6310233
0.0096378113
3.427991
0.023609994
3.1026501
2.7349353
0.030346882
-0.017777652
4.0189798
-0.024925052
3.9763811
-0.027063043
3.936622
-0.021526432
3.8699549
-0.014917376
3.7714238
-0.0017328385
3.6178388
0.011790816
3.4144674
0.026281921
3.088159
2.7247572
0.036459977
-0.0199227
4.0389025
-0.028782576
3.985241
-0.035242738
3.9430822
-0.033775592
3.8684878
-0.027744892
3.7653931
-0.015524154
3.6056181
-0.0022685019
3.4012117
0.012439948
3.0734505
2.7121192
0.025078024
-0.020030087
4.0589326
-0.027997182
3.9932081
-0.031803438
3.9468885
-0.027655372
3.8643397
-0.022439855
3.7601776
-0.0111829
3.5943611
0.0017202477
3.3883086
0.016735721
3.058435
2.6964861
0.03236875
-0.004285753
2.6783671
0.022404731
0.011165127
3.0429842
0.024094342
3.3753793
0.034630101
3.5838253
0.03915896
3.7556488
0.039207338
3.8642914
0.031213115
3.9548827
0.021604314
4.0028169
4.0805369
-0.00992408
2.6579858
0.030305447
0.0053939543
3.0276661
0.017773961
3.3629993
0.027459081
3.5741402
0.031492821
3.751615
0.034791693
3.8609925
0.029810793
3.9598636
0.021187242
4.0114404
4.1017241
0.0013985712
2.6354915
0.021095748
0.017392633
3.0116721
0.029598278
3.3507937
0.038570745
3.5651678
0.04172307
3.7484627
0.041163907
3.8615516
0.032181097
3.9688464
0.022292183
4.0213293
4.1240163
-0.0055801393
2.6118576
0.029214019
0.0097443706
2.9963476
0.021246837
3.3392912
0.029444247
3.5569703
0.032220139
3.7456868
0.035204401
3.8585674
0.029754657
3.9742961
0.021250941
4.029833
4.1452672
0.0049332034
2.5866205
0.020303848
0.020698379
2.9805824
0.031665135
3.3283245
0.039024056
3.5496114
0.040993104
3.7437178
0.040102534
3.859458
0.031096953
3.9833017
0.021767354
4.0391626
4.1670346
-0.003765103
2.5616609
0.028724696
0.011035747
2.9657815
0.021153861
3.3182064
0.027899411
3.5428659
0.029950262
3.7416669
0.032550317
3.8568579
0.027523723
3.9883283
0.020009365
4.046677
4.187044
0.0057586555
2.5358703
0.020031996
0.020568921
2.9509713
0.029750844
3.3090244
0.035466194
3.5371505
0.036801996
3.7403311
0.035845915
3.857814
0.02776015
3.9964141
0.019805872
4.0546313
4.2068498
-0.004687987
2.5119914
0.02856691
0.0088146052
2.9374687
0.0169366
3.3009024
0.022388009
3.5316991
0.024082754
3.7386364
0.026532509
3.8553642
0.023029767
3.9999168
0.017294361
4.0603667
4.2241442
0.0032786847
2.4888107
0.01990202
0.016390912
2.9243565
0.023380525
3.2939128
0.027630463
3.5274492
0.028897513
3.7373693
0.028216435
3.8560453
0.022119181
4.0060141
0.016415862
4.06607
4.24056
0.0017796565
4.2387804
0.010115862
4.0577338
0.019744014
3.9963859
0.030431871
3.8453574
0.036718424
3.7310828
0.041094783
3.5230728
0.042011356
3.2929963
0.04139604
2.9249718
2.4829122
0.047294471
0.0044300156
4.2343504
0.013751382
4.0484124
0.021353511
3.9887838
0.029841346
3.8368696
0.036650612
3.7242735
0.039833738
3.5198897
0.038692643
3.2941373
0.035502824
2.9281616
2.4819673
0.036447737
0.0092984035
4.225052
0.022227699
4.0354831
0.035568274
3.9754432
0.049316026
3.8231219
0.058068026
3.7155215
0.062903012
3.5150547
0.062418228
3.2946221
0.058345158
2.9322347
2.4894365
0.050875988
0.012781998
4.21227
0.026878367
4.0213868
0.038878493
3.9634431
0.051219729
3.8107806
0.061330771
3.7054104
0.066048051
3.5103374
0.064492533
3.2961777
0.058114252
2.9386129
2.5050745
0.042476274
0.017944229
4.1943257
0.036065437
4.0032656
0.054394803
3.9451137
0.072257808
3.7929176
0.084914994
3.6927533
0.091863931
3.5033885
0.091447237
3.2965943
0.085418344
2.9446418
2.5371225
0.053370267
0.021596659
4.1727291
0.041294679
3.9835675
0.058866001
3.9275424
0.075919563
3.7758641
0.090714207
3.6779586
0.098610279
3.4954924
0.098258471
3.2969462
0.095484319
2.947416
2.5926687
0.039938111
0.026996613
4.1457325
0.050821278
3.9597429
0.074999924
3.9033638
0.097828807
3.7530352
0.11578914
3.6599983
0.12666755
3.484614
0.12738325
3.2962305
0.12998126
2.944818
2.6650043
0.057645727
0.031293377
4.1144391
0.056248398
3.9347879
0.079876837
3.8797353
0.10227371
3.7306383
0.12306595
3.639206
0.13664437
3.4710356
0.13502701
3.2978478
0.1476582
2.9321868
2.7528265
0.059836003
0.036907286
4.0775318
0.065685165
3.90601
0.095811608
3.8496089
0.1259572
3.7004927
0.15292192
3.6122413
0.17310357
3.4508539
0.1725127
3.2984387
0.19222026
2.9124792
2.7925693
0.15247742
-0.16432652
4.2418583
-0.32216455
4.063848
-0.47815478
4.0055991
-0.62290031
3.8452382
-0.75468432
3.7440253
-0.87186512
3.5680347
-0.96590004
3.3924736
-1.0033291
2.9499083
2.7694201
-0.9801799
-0.16335978
4.4052181
-0.32500449
4.2254927
-0.48123792
4.1618325
-0.62678803
3.9907883
-0.76231691
3.8795542
-0.88360882
3.6893266
-0.97872884
3.4875936
-0.98322753
2.954407
2.5251097
-0.73891711
-0.16479738
4.5700155
-0.32422173
4.3849171
-0.4830455
4.3206563
-0.63424899
4.1419918
-0.77321277
4.018518
-0.89574178
3.8118556
-0.98030332
3.5721552
-0.92654359
2.9006473
1.8135081
-0.21494201
-0.1626925
4.732708
-0.32604753
4.5482721
-0.48566522
4.480274
-0.63774257
4.2940692
-0.77846658
4.159242
-0.90417393
3.937563
-0.97601578
3.643997
-0.86584052
2.790472
1.0078761
-0.060208543
-0.16299272
4.8957007
-0.32486159
4.710141
-0.48573849
4.6411509
-0.64388978
4.4522205
-0.78761496
4.3029672
-0.91451968
4.0644677
-0.96574325
3.6952206
-0.75444708
2.5791759
0.26457168
-0.01114265
-0.16005244
5.0557532
-0.32556973
4.8756582
-0.4859157
4.8014969
-0.64665189
4.6129567
-0.79122766
4.447543
-0.91537633
4.1886164
-0.92703598
3.7068802
-0.49536571
2.1475056
-0.2986513
0.067857268
-0.15886127
5.2146144
-0.3246993
5.0414963
-0.48422835
4.9610259
-0.6511006
4.7798289
-0.7967007
4.593143
-0.91110175
4.3030174
-0.85125425
3.6470327
-0.36688551
1.6631368
-0.72736122
0.061824417
-0.15557707
5.3701915
-0.32560435
5.2115235
-0.4845852
5.1200068
-0.65281202
4.9480557
-0.79479837
4.7351294
-0.90013899
4.408358
-0.77687945
3.5237732
-0.30782299
1.1940804
-1.0942111
0.05902687
-0.15251478
5.5227063
-0.32428975
5.3832985
-0.48207959
5.2777966
-0.6553009
5.1212771
-0.79461661
4.8744451
-0.87952997
4.4932714
-0.67624666
3.3204899
-0.21228804
0.73012177
-1.3854029
0.078903747
0.087667123
-1.5175238
0.044453831
0.34636598
0.47142291
0.51684143
3.1500144
0.47538487
4.534728
0.39714169
4.9526883
0.28892214
5.2294966
0.19268609
5.3740327
0.083340558
5.492644
5.6060468
0.056259013
-1.6245115
0.050728638
0.3012783
0.22640362
0.50546432
2.9458284
0.47061574
4.5695765
0.3930297
5.0302743
0.28283454
5.3396918
0.18859612
5.4682711
0.079280512
5.6019597
5.6853274
0.029970274
-1.7072503
0.05276851
0.25910666
-0.0027327622
0.48708294
2.7178521
0.46598325
4.5906762
0.39129872
5.1049589
0.28118889
5.4498016
0.18496612
5.5644938
0.074076368
5.7128494
5.7594037
0.016992774
-1.7777322
0.053489146
0.2326906
-0.21843059
0.4687735
2.4817692
0.45946372
4.599986
0.3864791
5.1779435
0.27482161
5.5614591
0.18018503
5.6591304
0.070182814
5.8228516
5.8295865
0.022782621
-1.8554847
0.054969902
0.22703253
-0.4226805
0.44588689
2.2629149
0.45320844
4.5926645
0.38405689
5.247095
0.27275412
5.6727619
0.17571373
5.7561708
0.064438566
5.9341268
5.8940251
0.032775493
-1.9415408
0.053280626
0.23007267
-0.61997768
0.42877975
2.0642078
0.4454406
4.5760036
0.3784595
5.3140761
0.26621681
5.7850045
0.17040093
5.8519867
0.060382017
6.0441457
5.9544071
0.038210811
-2.0248189
0.045067244
0.22118694
-0.80295381
0.40543171
1.879963
0.43830598
4.5431294
0.37551812
5.376864
0.26384479
5.8966779
0.16508358
5.9507479
0.054377342
6.1548519
6.0087845
0.041379096
-2.1173262
0.051128235
0.21523402
-0.97680873
0.38864778
1.7065493
0.42928967
4.5024875
0.36809466
5.438059
0.25689741
6.0078751
0.15925265
6.0483927
0.050401143
6.2637035
6.0591856
0.045832223
-2.1673801
0.0042216645
0.20063064
-1.1316072
0.36227878
1.5449011
0.42045704
4.4443092
0.36503335
5.4934827
0.25498915
6.1179193
0.15353652
6.1498453
0.044868886
6.3723711
6.1040545
0.35241866
-2.4663591
-0.053439677
0.33823443
-1.1174229
0.28113967
1.6019959
0.26151766
4.4639312
0.1826362
5.5723642
0.071410867
6.2291446
-0.0077565879
6.2290127
-0.077835519
6.44245
6.026219
0.37055686
-2.841115
0.0041990438
0.28519861
-1.0320647
0.20756482
1.6796297
0.2190631
4.4524329
0.14778342
5.6436438
0.032830693
6.3440974
-0.066038176
6.3278816
-0.12154596
6.4979578
5.904673
0.37575911
-3.1519134
-0.064960675
0.25965961
-0.91596518
0.16680878
1.7724805
0.18145782
4.4377839
0.10200782
5.7230938
-0.014787285
6.4608925
-0.10049827
6.4135926
-0.13506613
6.5325257
5.7696069
0.37282669
-3.3645033
-0.16023684
0.21695072
-0.76008921
0.12339404
1.8660372
0.15993143
4.4012465
0.069816127
5.8132092
-0.060757839
6.5914664
-0.16576717
6.5186019
-0.17354881
6.5403073
5.5960581
0.36438971
-3.4259927
-0.30290024
0.18402182
-0.57972132
0.084947288
1.9651117
0.133568
4.3526258
0.022155294
5.9246219
-0.1222643
6.735886
-0.20687707
6.6032147
-0.17653904
6.5099693
5.419519
0.34356732
-3.3741099
-0.39545019
0.14816149
-0.38431548
0.062855852
2.0504174
0.1167737
4.2987079
-0.01342862
6.0548242
-0.17118045
6.8936379
-0.26510736
6.6971416
-0.20001824
6.4448802
5.2195008
0.30835259
-3.249846
-0.43261641
0.10080616
-0.17676906
0.027259776
2.1239637
0.091508928
4.2344588
-0.073913921
6.220247
-0.24797873
7.0677027
-0.30164317
6.750806
-0.18262338
6.3258604
5.0368774
0.27115482
-3.0852978
-0.43570307
0.05848618
0.035899584
0.016098316
2.1663516
0.083670143
4.166887
-0.11253449
6.4164517
-0.29116044
7.2463286
-0.3408533
6.8004989
-0.18685218
6.1718592
4.8500252
0.22803366
-0.39221493
-2.9211165
0.027963245
0.23596999
0.018726036
2.1755888
0.061076296
4.1245367
-0.22713094
6.7046589
-0.41211964
7.4313173
-0.37653342
6.7649127
-0.14768497
5.9430108
4.7023403
-0.24190368
1.8612767
0.047656032
-1.667029
-0.53623873
-0.2221673
0.51650235
-0.98337158
-1.9745346
2.4216675
-1.5273729
-1.9562339
2.5002353
-1.7969123
0.13539825
0.13414109
-1.6455915
0.55542583
-0.70674661
-1.2330957
-1.2434704
0.83097455
-0.54070277
-0.10971005
-0.58268285
0.57278317
-1.1182182
-0.23268116
2.0469773
0.04698059
-0.49815342
0.043304951
-0.91451497
-1.5581731
-1.4667301
-1.4040187
-1.7741817
0.44284977
-1.6593459
0.44059011
-1.3089019
-1.5939144
-0.5078767
-0.91073526
-0.15864173
-0.22913393
2.2298472
0.046263967
-0.46605427
0.28022529
-0.82204916
-1.2021782
-1.3292929
-0.89677503
-1.5773135
0.69087042
-1.3987044
0.26198103
-1.1309953
-1.8616235
-0.26368431
-1.7780463
-1.1111652
-0.21724961
2.4016516
0.045445227
-0.41994122
0.48291691
-0.72592572
-0.89619367
-1.1703081
-0.45239263
-1.3321303
0.85269265
-0.99811614
-0.072033173
-0.6240599
-2.2356798
0.043571896
-2.4456781
-1.8270626
-0.20613898
2.5604039
0.047386658
-0.37356292
0.65034085
-0.61761449
-0.6521421
-0.98759882
-0.082408298
-1.0621596
0.92725346
-0.64968122
-0.48451159
-0.18677393
-2.6985871
0.42367391
-3.0561259
-2.3814301
-0.19069994
2.7030798
0.048024084
-0.32287958
0.78252049
-0.51554559
-0.45947609
-0.81003915
0.21208526
-0.71212585
0.82934016
-0.16162844
-1.035009
0.27986443
-3.14008
0.79952461
-3.5757861
-2.8307762
-0.17725257
2.82961
0.050722392
-0.27008825
0.87535616
-0.38622316
-0.34334118
-0.59344914
0.41931124
-0.38495823
0.62084925
0.2348723
-1.6548395
0.68962441
-3.5948321
1.1643857
-4.0505474
-3.2057106
-0.15946628
2.9390135
0.050062696
-0.20776052
0.9236504
-0.26146666
-0.28963504
-0.40983509
0.56767967
-0.091237914
0.30225207
0.63312199
-2.3791994
1.1005444
-4.0622545
1.4939045
-4.4439074
-3.4992666
-0.14351715
0.051392188
3.0311385
-0.15638712
0.93652036
-0.16089228
-0.28512987
-0.2401597
0.64694709
0.16937167
-0.1072793
0.95092417
-3.1607519
1.4161114
-4.5274417
1.7565199
-4.7843159
-3.7533258
0.19545273
0.97026036
-0.034996529
-1.1307166
0.61955915
2.7013242
-3.1254307
0.70947707
2.6642627
-2.7541806
0.12435064
-2.2127566
2.7978831
-0.51091437
-7.5854026
8.2206676
-0.53933231
-8.2113482
8.2397662
-0.45313813
-7.5361571
7.4499629
-0.20571688
-6.7842414
6.5368202
-5.1487183
4.9430015
0.16806943
0.84932499
-0.047134057
0.59101961
2.2783741
0.76691367
2.4883686
0.3398045
-1.7856475
-0.25397313
-6.991625
-0.41371198
-8.0516094
-0.43021861
-7.5196505
-0.24549634
-6.9689637
-5.3942147
0.14728875
0.78133135
-0.079295117
0.55967418
1.8659886
0.81769606
2.2303467
0.45508828
-1.4230397
-0.15996449
-6.3765722
-0.37307033
-7.8385035
-0.3902073
-7.5025135
-0.24008768
-7.1190833
-5.6343024
0.13397542
0.72382861
-0.076472673
0.52853598
1.4714281
0.84455771
1.914325
0.60051557
-1.1789976
0.044522248
-5.8205789
-0.24321655
-7.5507647
-0.34472574
-7.4010043
-0.25907877
-7.2047303
-5.8933811
0.10953408
0.72675813
-0.11246359
0.46918693
1.1117752
0.84136576
1.5421462
0.6887949
-1.0264267
0.15908975
-5.2908737
-0.164789
-7.226886
-0.27428502
-7.2915083
-0.23238383
-7.2466315
-6.125765
0.10547841
0.76501292
-0.1437332
0.41603991
0.8012137
0.80089989
1.1572862
0.75147473
-0.97700155
0.32754438
-4.8669434
-0.01298342
-6.8863582
-0.20244561
-7.1020461
-0.22547094
-7.2236062
-6.3512359
0.086338306
0.78558628
-0.10691166
0.34526039
0.54229162
0.75141434
0.75113223
0.79693965
-1.0225269
0.43809138
-4.5080951
0.083492953
-6.5317598
-0.10251496
-6.9160382
-0.17370211
-7.152419
-6.524938
0.066153748
0.73644224
-0.017009705
0.27868668
0.32975869
0.66410835
0.36571056
0.79493355
-1.1533521
0.56828839
-4.2814499
0.22901342
-6.1924848
-0.016329687
-6.6706951
-0.14180701
-7.0269417
-6.666745
0.020069472
0.72808041
-0.011707645
0.17561815
0.17421002
0.59253497
-0.051206269
0.83005402
-1.3908711
0.65130613
-4.1027021
0.31221921
-5.8533979
0.094059018
-6.4525349
-0.069031684
-6.863851
-6.7357767
-0.12623742
5.9969637
-5.8707263
-0.2762397
5.6043042
-5.4543019
-0.40616762
5.2959929
-5.166065
-0.5165515
4.719373
-4.6089891
-0.54219584
3.9640373
-3.938393
-0.45538413
3.018643
-3.1054548
-0.24367967
2.2404469
-2.4521513
-0.026825794
0.79762187
-1.0144757
-0.74380594
0.6668558
0.050124345
-0.12298657
6.1199503
-0.27113921
5.7524568
-0.39967847
5.4245321
-0.52251226
4.8422068
-0.55074947
3.9922745
-0.44228272
2.9101763
-0.19650172
1.9946659
0.00032826096
0.60079189
-0.79666741
0.053189729
-0.11229619
6.2322465
-0.27068429
5.9108449
-0.40692377
5.5607716
-0.53089743
4.9661804
-0.55348399
4.0148611
-0.42574876
2.7824411
-0.15203781
1.7209549
0.030247245
0.41850683
-0.82498766
0.058567499
-0.10726362
6.3395101
-0.26230024
6.0658815
-0.39794487
5.6964163
-0.5334718
5.1017074
-0.5592703
4.0406596
-0.39699501
2.6201658
-0.092886915
1.4168468
0.059276098
0.26634382
-0.82390952
0.058197955
-0.096535817
6.4360459
-0.25827667
6.2276224
-0.40277335
5.8409129
-0.54020619
5.2391402
-0.55992138
4.0603748
-0.37678683
2.4370312
-0.064917735
1.1049777
0.071373353
0.13005273
-0.80981857
0.057282406
-0.089159683
6.5252056
-0.24782809
6.3862908
-0.39188771
5.9849726
-0.53880967
5.3860622
-0.56317372
4.0847388
-0.33366277
2.2075203
-0.039781457
0.81109639
0.06213077
0.028140508
-0.80068438
0.052996585
-0.078696209
6.6039018
-0.24075799
6.5483526
-0.39410232
6.1383169
-0.54327189
5.5352317
-0.55949096
4.1009579
-0.28479178
1.9328211
-0.016085193
0.5423898
0.052758423
-0.040703104
-0.79325672
0.045330765
-0.070955461
6.6748573
-0.22863173
6.7060288
-0.38073339
6.2904185
-0.54018019
5.6946785
-0.55072714
4.1115048
-0.26865655
1.6507505
-0.015238189
0.28897144
0.045575547
-0.10151684
-0.79146718
0.043786002
-0.060919454
-0.21874161
-0.38085796
-0.53957729
-0.53077452
-0.27089513
-0.033129961
0.039563218
-0.023823547
0.11587413
0.46806436
0.082917313
0.51132586
-1.4099275
0.75082663
-2.6916521
0.8162217
-3.1708498
0.75186779
-3.8740391
0.58913332
-4.4462546
0.40482372
-4.9817554
0.20167693
-5.2511551
-5.6690494
0.19330438
0.19281316
0.081946815
0.6174465
-1.8340696
0.78224035
-2.8564459
0.80991477
-3.1985242
0.73804024
-3.8021645
0.58849469
-4.2967091
0.40635899
-4.7996197
0.20101451
-5.0458106
-5.4680348
0.27870339
-0.17488788
0.088997651
0.71018187
-2.2655481
0.79797124
-2.9442353
0.80003534
-3.2005883
0.7219616
-3.7240908
0.57357076
-4.1483182
0.39790257
-4.6239515
0.20532775
-4.8532358
-5.2627071
0.53721004
-0.72473524
0.012637316
0.77996453
-2.5083026
0.80716287
-2.9714336
0.78928889
-3.1827144
0.70710486
-3.6419068
0.57291791
-4.0141313
0.39897203
-4.4500056
0.20362947
-4.6578932
-5.0590776
0.68152961
-1.3896
-0.016664847
0.81060372
-2.6373767
0.80720128
-2.9680312
0.77777401
-3.1532871
0.69267578
-3.5568085
0.55701603
-3.8784715
0.38771447
-4.280704
0.20490392
-4.4750827
-4.8541737
0.76683482
-2.1290526
-0.027382227
0.82688782
-2.6974297
0.80646204
-2.9476054
0.76591574
-3.1127408
0.67813195
-3.4690247
0.55269557
-3.7530352
0.38800365
-4.1160121
0.20289416
-4.2899732
-4.6512795
0.83128406
-2.6743304
-0.2860063
0.84281005
-2.7089557
0.80201518
-2.9068106
0.75347926
-3.0642049
0.66464452
-3.38019
0.53637446
-3.6247651
0.37437909
-3.9540167
0.20017649
-4.1157706
-4.451103
0.88380736
-2.7868295
-0.77130823
0.84555365
-2.670702
0.7952025
-2.8564594
0.7425584
-3.0115608
0.65056952
-3.2882011
0.53069248
-3.504888
0.37433138
-3.7976556
0.19774307
-3.9391823
-4.25336
0.89935442
-2.7221518
-0.96403213
0.84192985
-2.6132774
0.78800241
-2.802532
0.72858897
-2.9521473
0.63776768
-3.1973798
0.51573536
-3.3828557
0.35964252
-3.6415628
0.19243005
-3.7719698
-4.0609299
-0.013077299
4.0228881
-4.0098108
-0.01113834
3.8044276
-3.8063665
-0.003553055
3.7160886
-3.7236738
0.013329246
3.5157563
-3.5326386
0.028223909
3.3930828
-3.4079775
0.045081903
3.2006649
-3.2175229
0.056117213
3.0226601
-3.0336954
0.052585612
2.7584624
-2.7549308
2.3234507
-2.3163137
0.04544862
-0.011932426
4.0348206
-0.0077380302
3.8002332
-0.0025538878
3.7109044
0.0097123015
3.5034901
0.030619236
3.3721759
0.051364935
3.1799192
0.059766441
3.0142586
0.052969773
2.7652591
2.3428964
0.033524116
-0.011322311
4.0461429
-0.0085509533
3.7974618
0.00065884668
3.7016946
0.019332607
3.4848164
0.038528717
3.3529797
0.061102446