/*--------------------------------*- C++ -*----------------------------------*\
  =========                 |
  \\      /  F ield         | OpenFOAM: The Open Source CFD Toolbox
   \\    /   O peration     | Website:  https://openfoam.org
    \\  /    A nd           | Version:  11
     \\/     M anipulation  |
\*---------------------------------------------------------------------------*/
FoamFile
{
    format      ascii;
    class       volScalarField;
    location    "0.3005";
    object      Ma;
}
// * * * * * * * * * * * * * * * * * * * * * * * * * * * * * * * * * * * * * //

dimensions      [0 0 0 0 0 0 0];

internalField   nonuniform List<scalar> 
880
(
1.443353270571932
1.443353270528706
1.443353250162656
1.443326565175431
1.443353270571931
1.443353270671959
1.443353163287208
1.443267246608718
1.44335327057193
1.443353270358914
1.443352922658267
1.443081217925301
1.443353270571903
1.443353273876334
1.443349215120808
1.439283696125587
1.443353270578628
1.443353270524049
1.443353268095836
1.443353609265748
1.443353297050094
1.443353247283591
1.443353008593077
1.443335429505771
1.443372248027514
1.443322236789462
1.442391553588684
1.444650221023932
1.41429830553836
1.358763060182479
1.324530049844004
1.312092763194515
1.443355368838687
1.443348958980841
1.443339496183961
1.443334629635296
1.44346468490686
1.443336752148888
1.443186636684364
1.443105213801181
1.439461651961718
1.435280715992921
1.43037163132604
1.425662009846479
1.299860127707929
1.291579721551123
1.278496753405367
1.271664188981576
1.297827410962005
1.33961218824398
1.37711924779414
1.405394618049084
1.412883616250334
1.399171949081151
1.397376200259567
1.402069385581409
1.442533214771754
1.440906736970136
1.438481127133822
1.435853116888998
1.443293771234112
1.443139666328489
1.442783968559156
1.442230071580283
1.441621454489151
1.441061680084811
1.440482124486717
1.440234126002045
1.433789755214474
1.434043590732708
1.436224725406249
1.439707279022166
1.410558595959942
1.419541722670775
1.429069704868726
1.437713415998996
1.423325575775666
1.434740586006772
1.44331950648609
1.448337424967125
1.455629508741927
1.444744060948069
1.442869330027237
1.440206584013098
1.459082804637137
1.451353318733812
1.444953898313411
1.440424315340257
1.463519982317243
1.454483687934021
1.446416909400073
1.440812959690359
1.385355508791897
1.456494291716979
1.448198051857881
1.441480483853944
1.441922391431296
1.447697966061686
1.442080001771139
1.074960396710831
1.442559025736282
1.445712677311419
1.396534882863536
0.8516730764638195
1.442785383425031
1.442731574347924
1.331824466004534
0.8207840196405995
1.44270297959682
1.437974199081733
1.259767796194336
0.8284508210656623
0.8409465809670996
1.190982515433
1.430010864869537
1.441992972721785
0.860757778025786
1.135539203857807
1.413270115250521
1.440384561289964
0.8859982037524347
1.086883966272693
1.389568914217213
1.436795992994263
0.9172181335696393
1.067411232241912
1.347866961583031
1.430405641237265
1.418850469802145
1.314891577116141
1.086688316153887
0.9666101297681328
1.403636263379862
1.29355239378448
1.149029700313845
1.048721379217578
1.400940086397556
1.34575190650021
1.24887510765522
1.151537460527801
1.399385020274074
1.387601454983558
1.351057799915594
1.289983222364899
1.394351726721395
1.425353264080264
1.448398295128897
1.483351698782904
1.413071114464961
1.475563904206768
1.542115278906732
1.678974199895326
1.429679954368393
1.500702400019334
1.610239654597553
1.812553549868403
1.441453124820144
1.499046092964452
1.642915664310787
2.081055434818999
1.87211770290953
1.600793317236666
1.485331250339038
1.446607275856352
1.647770293123586
1.560606879965268
1.474689286726745
1.448372271901517
1.367430826007656
1.525707184704461
1.467204339387155
1.447655686717371
1.196766374252761
1.479353285696451
1.457358155733121
1.445600278686088
1.030004320909761
1.409271200222769
1.442505972951361
1.4440819247562
1.002378476474613
1.374963450661695
1.436742304315403
1.443418131377428
1.021593066142479
1.361194162094512
1.43636755215298
1.443271985475891
1.116939306410228
1.38648882690145
1.440274427755687
1.443284155435799
1.10683682157385
1.353504527474081
1.432432350283327
1.442888433731698
1.103730340257337
1.34817377168944
1.431562516560753
1.442868422049538
1.070772596663416
1.341586559111445
1.430532176217761
1.44284190000672
1.058813414795826
1.343402712115839
1.43049716260056
1.442848431132494
1.116939306409717
1.386488826900356
1.440274427747178
1.443284155439131
1.021593066143113
1.361194162093938
1.436367552164004
1.443271985484663
1.002378476479442
1.374963450664196
1.43674230432177
1.443418131377314
1.030004320911787
1.409271200211078
1.442505972957559
1.444081924763904
1.446607275824945
1.4853312503202
1.600793317246016
1.872117702929327
1.448372271883834
1.474689286715936
1.560606879961532
1.647770293137813
1.447655686727965
1.467204339376558
1.52570718470794
1.367430826004433
1.445600278682123
1.457358155738898
1.47935328568772
1.196766374264356
2.081055434812487
1.642915664319829
1.499046092964097
1.441453124829939
1.812553549857697
1.61023965460462
1.500702400009318
1.429679954400124
1.67897419988716
1.542115278917441
1.475563904203945
1.413071114570072
1.4833516987816
1.448398295139447
1.425353264101009
1.394351726638678
1.418850469799389
1.314891577104265
1.086688316151007
0.9666101297679722
1.403636263394624
1.293552393791278
1.149029700313657
1.048721379212758
1.400940086446631
1.345751906472116
1.248875107659747
1.151537460527193
1.39938502012268
1.387601454988317
1.351057799922185
1.289983222364754
0.9172181335700982
1.06741123223805
1.347866961551896
1.430405641234546
0.8859982037481228
1.086883966257631
1.389568914195903
1.436795993000815
0.8607577780168519
1.13553920384952
1.413270115233943
1.440384561303791
0.8409465809593362
1.190982515446608
1.430010864890573
1.441992972739169
1.441922391398901
1.447697966080187
1.442080001779613
1.074960396726394
1.442559025726497
1.445712677288333
1.396534882857728
0.8516730764497724
1.442785383417647
1.442731574387851
1.331824466022542
0.8207840196356769
1.442702979606476
1.437974199066957
1.259767796174421
0.828450821077056
1.441480483864286
1.440812959689234
1.440424315345978
1.440206584023143
1.448198051851177
1.446416909399414
1.444953898314137
1.442869330027273
1.456494291721627
1.454483687932047
1.451353318733893
1.444744060951789
1.385355508794111
1.463519982316472
1.459082804631804
1.455629508734143
1.44023412600646
1.439707279029673
1.437713415996807
1.448337424961945
1.440482124477877
1.436224725412589
1.429069704869221
1.443319506485208
1.441061680072134
1.434043590738959
1.419541722672183
1.434740586006947
1.441621454501037
1.433789755212548
1.410558595949142
1.423325575779416
1.443293771264487
1.442533214812076
1.412883616252887
1.297827410948508
1.443139666257642
1.440906737000812
1.39917194908875
1.339612188243426
1.442783968516971
1.438481127136565
1.397376200256296
1.377119247798212
1.442230071594089
1.435853116880991
1.402069385569602
1.405394618053781
1.271664188972293
1.425662009837669
1.443105213848737
1.443334629866461
1.27849675339631
1.430371631307197
1.443186636714107
1.443339496031075
1.291579721561364
1.435280716002351
1.443336752083326
1.443348958991045
1.299860127699818
1.439461651987422
1.443464684883152
1.443355368836112
1.31209276319844
1.444650221029833
1.44333542949911
1.44335360926069
1.3245300498355
1.442391553605381
1.443353008594211
1.443353268096433
1.358763060182168
1.443322236791682
1.443353247282873
1.44335327052511
1.414298305557528
1.44337224803077
1.443353297050013
1.443353270579432
1.443353270571932
1.443353270527093
1.443353250159415
1.443326565175005
1.443353270571931
1.443353270673786
1.443353163285899
1.443267246612077
1.443353270571932
1.443353270358927
1.443352922660846
1.443081217916098
1.443353270572305
1.443353273878053
1.443349215130608
1.439283696170631
1.443289496191341
1.443123491838042
1.442277653472168
1.434674486195591
1.443123491837146
1.442852211025714
1.441268696464951
1.421366335545941
1.44227765348472
1.441268696476907
1.431638549397791
1.342605630939531
1.434674486155417
1.421366335524789
1.342605630907184
1.133973033466277
0.9762187975949338
1.063331683680029
1.218290893407446
1.323740901984069
1.050329058477133
1.062342010488806
1.111594487941134
1.185399791973091
1.019899590020814
1.097261664076864
1.137098520463235
1.171788474797278
1.027993617641364
1.123786294410267
1.151023200565631
1.16564816802396
1.17710911675341
1.187977145224155
1.196707491849315
1.197207859464367
1.167651274349159
1.183274670641604
1.19811622859275
1.224218908184244
1.150717307733993
1.172111915970713
1.190336722838306
1.28932127362641
1.055657296316832
1.086850521002998
1.107357259044585
1.387076658003321
1.345146896983635
1.470967773615343
1.483942470086796
1.482895262189703
1.430069986418666
1.57654818595744
1.569493028955781
1.551399331589722
1.594299085481635
1.671017052951291
1.61366280962596
1.586849067656881
1.253426718038479
1.290816823483288
1.306793198581192
1.339694518681334
1.48315680739476
1.482452213985034
1.479333689635177
1.473658458970379
1.534246827078518
1.518872920389979
1.502249507410734
1.485052714438262
1.564089266061659
1.53865398315416
1.513363950174891
1.488342172653635
1.357217082407789
1.355285937510532
1.34505220060956
1.335229247155053
1.472946976652123
1.473251875585004
1.388660650952359
0.986925861621081
1.474652671748292
1.474911963768981
1.276887737754726
0.6894872360318304
1.468338560486909
1.465406256898512
1.037198072202067
0.3746454032413712
1.310199524607008
1.298273100490931
0.6648065388030264
0.0902276898541188
0.6891664495956228
0.6634951655647575
0.6969765295006808
0.7505562658813627
0.5667290075340794
0.6272332769586081
0.6850528613288843
0.7460085142398771
0.3595996448925346
0.5127237465533903
0.6346590827996912
0.7202482740548142
0.1346691764964268
0.273199998491636
0.4324891073104362
0.5755783686385569
0.7904825017653304
0.7973246970678151
0.8027664354836493
0.8496622679222684
0.7880833487844368
0.8020609923938844
0.8159950799083564
0.8613724630172725
0.7686988860341034
0.7937324331101662
0.8199201020057593
0.8709553004249682
0.6648762153716429
0.7263915661957554
0.7914342751720033
0.8675970036071627
0.9266928944750987
1.033321170428873
1.136047538897361
1.25813599097188
0.9255764656619002
1.019612528627298
1.124398462111354
1.278701801310228
0.9276592330832406
1.006116697882473
1.138819565082239
1.624528740523336
0.9245755795076797
0.9971343276461083
1.161326953269068
2.258326607525707
1.536465014931391
1.786049677361082
0.624816861775313
1.485893513027659
1.582184270084131
1.573937237879245
0.7916775580569561
1.670017325580334
1.588591349276529
1.288328147633781
0.9526737563862798
1.627056714850423
1.192037279462553
0.6470975071979854
1.187666978088098
1.583374844944841
1.503211796871315
1.384771190962802
1.010429036143041
0.6628725307928919
1.462057828464922
1.186145388535503
0.8469439172263509
0.4559725379879945
1.351065353609781
1.031802906974556
0.6872737549059899
0.2902091659601697
1.329634824098718
0.9848164198809704
0.6079510882683603
0.1734625401577815
0.3100635514615716
0.1410371072109039
0.490004197769502
0.8058154127624089
0.3129934463412684
0.07921294920217377
0.3290680678713093
0.7133133624879614
0.2462156461004668
0.1790121625183886
0.1696490557008555
0.5612530020552178
0.1548712726455547
0.1952010428890195
0.1199887133357548
0.4868829923134735
0.9044053364389959
1.001953736698115
0.8829169263006595
0.7426577351490735
0.9258087139526012
1.232639105353697
1.040093365450062
0.7645499170205333
0.891247361052923
1.204866011748382
0.8150147408033305
0.4460029432650245
0.8454482111643838
0.9000734608063071
0.4740804523575446
0.1714823938769991
0.1178029658833087
0.1279955891207599
0.1147929111100591
0.09572889310695622
0.1753617635348833
0.04547089726255709
0.07326675895435335
0.1045420210558173
0.5334918612355477
0.3288719067776393
0.1531797987387697
0.05822582211315369
0.6446996695425234
0.5596154537530276
0.4115735873179248
0.2614135542298363
0.09572889310367987
0.1045420210564569
0.0582258221225137
0.2614135542212522
0.1147929111035683
0.07326675895403392
0.1531797987450033
0.4115735873113723
0.1279955891136506
0.0454708972720744
0.3288719067817386
0.5596154537514491
0.117802965877785
0.175361763541354
0.5334918612366563
0.6446996695406091
0.7426577351399909
0.8829169262740245
1.001953736675201
0.9044053364318415
0.7645499170138865
1.04009336542885
1.232639105333398
0.9258087139465115
0.4460029432654039
0.8150147407898775
1.204866011727318
0.8912473610451785
0.1714823938795931
0.4740804523639162
0.9000734607927832
0.8454482111513421
0.4868829922981481
0.1199887133270342
0.1952010428977454
0.1548712726458755
0.5612530020474702
0.1696490556938266
0.1790121625276016
0.2462156461047913
0.7133133624831901
0.3290680678690684
0.07921294920873025
0.312993446353503
0.8058154127575895
0.4900041977704868
0.1410371072117726
0.3100635514750085
0.6628725308266578
1.010429036145674
1.384771190971761
1.503211796824087
0.4559725380006797
0.8469439172226242
1.186145388529214
1.462057828451992
0.2902091659605421
0.6872737548972294
1.031802906961126
1.351065353600647
0.1734625401522775
0.6079510882567883
0.984816419866249
1.329634824087641
1.485893513035131
0.6248168617606233
1.786049677352234
1.536465014918694
1.670017325583102
0.7916775580489642
1.573937237873299
1.582184270078096
1.627056714846039
0.9526737564005807
1.288328147630916
1.588591349274037
1.58337484494898
1.187666978107198
0.6470975071916576
1.192037279455781
1.258135990966536
1.136047538891995
1.033321170422852
0.9266928944690545
1.278701801303973
1.124398462106419
1.019612528624177
0.9255764656577818
1.62452874051813
1.138819565080253
1.006116697882337
0.9276592330804735
2.258326607518593
1.161326953269681
0.99713432764715
0.9245755795054627
0.8496622679220707
0.8027664354810331
0.7973246970661952
0.7904825017528695
0.8613724630149725
0.8159950799046519
0.8020609923935305
0.7880833487772878
0.8709553004177566
0.819920102002024
0.7937324331119
0.7686988860299078
0.8675970035948664
0.7914342751573364
0.726391566197206
0.664876215372182
0.7505562658748643
0.6969765294952492
0.6634951655548884
0.68916644960852
0.7460085142342312
0.685052861323777
0.6272332769551874
0.5667290075443765
0.7202482740496993
0.6346590827939755
0.512723746554671
0.3595996449000352
0.5755783686316569
0.4324891073023339
0.2731999984909323
0.1346691764987581
0.9869258616206773
1.388660650959239
1.473251875577419
1.472946976643394
0.6894872360361085
1.276887737765977
1.474911963760187
1.474652671737352
0.3746454032466739
1.037198072212409
1.465406256887242
1.468338560475574
0.09022768985354515
0.6648065388007848
1.298273100471411
1.310199524593562
1.473658458965056
1.479333689634119
1.482452213986905
1.483156807397462
1.485052714435014
1.502249507410301
1.51887292039366
1.534246827077921
1.488342172645558
1.513363950174913
1.538653983155937
1.564089266062386
1.335229247154584
1.345052200610505
1.355285937519554
1.357217082418475
1.482895262192351
1.48394247008588
1.470967773607608
1.345146896961669
1.551399331591746
1.569493028948372
1.576548185939896
1.430069986399039
1.586849067659003
1.613662809616512
1.671017052921511
1.594299085452381
1.339694518697423
1.306793198591207
1.290816823481192
1.253426718022593
1.197207859452901
1.196707491844795
1.187977145238901
1.177109116782176
1.224218908176053
1.198116228601396
1.183274670669665
1.167651274410879
1.289321273604793
1.190336722854432
1.172111916012308
1.150717307825217
1.387076657958204
1.107357258967199
1.086850520892705
1.055657296123476
1.165648168049156
1.171788474804478
1.185399791976193
1.323740902023563
1.151023200648987
1.137098520536786
1.111594487959585
1.218290893445017
1.123786294542466
1.097261664210015
1.062342010524491
1.063331683702956
1.027993617372979
1.019899589897817
1.050329058529899
0.9762187976335394
1.089173289740356
1.371119841803702
1.436941419010705
1.443223722852518
1.088435680642602
1.357384732026413
1.434049098774138
1.443069482489647
1.090640431694992
1.355936743098023
1.432554512478349
1.442951924138036
1.06589611274283
1.349455383317852
1.431352560107838
1.442887850788473
1.442888433710991
1.432432350297999
1.353504527479578
1.10683682156408
1.442868422062235
1.431562516559123
1.348173771695722
1.103730340244457
1.442841900017868
1.430532176204206
1.341586559122156
1.070772596670642
1.442848431145113
1.430497162591555
1.343402712125744
1.05881341480712
1.442887850810846
1.442951924163882
1.443069482514543
1.443223722866918
1.431352560106299
1.432554512483254
1.434049098792772
1.436941419024715
1.349455383321344
1.355936743105891
1.357384732036101
1.371119841804991
1.065896112750257
1.090640431695322
1.088435680641857
1.089173289740591
)
;

boundaryField
{
    back
    {
        type            empty;
    }
    inlet
    {
        type            calculated;
        value           nonuniform List<scalar> 
16
(
1.443353270571932
1.443353270571932
1.443353270571932
1.443353270571962
1.443353270571973
1.443353270569246
1.443353270937903
1.443353224501777
1.443353224500142
1.44335327093813
1.443353270569679
1.443353270572274
1.443353270571932
1.443353270571932
1.443353270571932
1.443353270572197
)
;
    }
    front
    {
        type            empty;
    }
    top
    {
        type            calculated;
        value           uniform 0;
    }
    outlet
    {
        type            calculated;
        value           nonuniform List<scalar> 
16
(
1.442614024342755
1.442608499391211
1.442604236492207
1.442630630722538
1.443158024003332
1.442953641902327
1.442786724727885
1.442691757711538
1.442614024315633
1.442608499396478
1.442604236495475
1.442630630723015
1.442691757715027
1.442786724734685
1.44295364191229
1.443158024008809
)
;
    }
    bottom
    {
        type            calculated;
        value           uniform 0;
    }
    wall
    {
        type            calculated;
        value           uniform 0;
    }
}


// ************************************************************************* //
