/*--------------------------------*- C++ -*----------------------------------*\
  =========                 |
  \\      /  F ield         | OpenFOAM: The Open Source CFD Toolbox
   \\    /   O peration     | Website:  https://openfoam.org
    \\  /    A nd           | Version:  11
     \\/     M anipulation  |
\*---------------------------------------------------------------------------*/
FoamFile
{
    format      ascii;
    class       volScalarField;
    location    "0.3005";
    object      p;
}
// * * * * * * * * * * * * * * * * * * * * * * * * * * * * * * * * * * * * * //

dimensions      [0 2 -2 0 0 0 0];

internalField   nonuniform List<scalar> 
880
(
80
80.000000003152
80.00000282792934
80.00349384819363
80.00000000000006
79.99999999152476
80.00001185422103
80.00978216317567
80.00000000000017
79.99999999966072
79.99999218053809
80.05972251399714
80.00000000000327
79.99999965385882
80.00022919570644
80.52055309657331
79.9999999998326
80.00000000044973
79.99999980662373
80.00001783097251
80.00000066817584
80.0000006397533
80.00001043764212
80.00053305168917
79.99927010569471
80.00145801782844
80.05839886363796
79.90536645115151
83.55425955176115
88.32173815438377
91.39542663460075
92.87897228889662
79.99957808468369
80.00005678471771
80.0026700375042
80.00204554562417
79.99392472404865
80.00510231812785
80.01326563182033
80.02053270624405
80.40300146230514
80.74346727401256
81.16150042813352
81.59168869975994
94.64444118041166
96.97824453412063
98.76567611068252
101.9097951604062
99.53110180650275
95.35924684617567
91.51797776851282
88.72219950973594
83.0030297751034
84.84299181358865
85.70368836492447
86.06303155182903
80.07134804190245
80.22623529752138
80.46473400129251
80.74873398694479
80.00663213960254
80.02225575139006
80.05903794221862
80.12248264587643
80.21119504324281
80.29871475174247
80.34581738143631
80.35367716413239
81.0263682146288
81.2096298474539
81.34607753272377
81.46939258471572
86.11553268916393
86.00428576958313
85.82550009043636
85.62562035459426
86.80198672750804
85.72278170745459
85.37295816119864
84.90772818585809
84.62225782433866
85.23559107802349
81.50626955156707
80.32445699880573
83.99368717021385
84.78041276164836
81.41680618250382
80.26773395108495
84.96045803492245
84.20253774456259
81.22345194596744
80.19745045610455
94.21615104405271
84.16180892883473
80.9450338635819
80.128880373397
80.03515721771728
80.65456898139453
84.93656608989951
135.146883635664
80.00275517792676
80.45932249130722
88.5264701306087
177.5310571596489
80.00718607407153
80.42737449724423
94.50503590785361
191.5424895824708
80.04093211430526
80.73435894802282
102.7928280470509
200.0299439697875
204.5591844466622
112.9648700269705
81.57020215599947
80.12353071257587
205.586980123915
125.8671516499376
83.33322849034253
80.31412007380999
204.7436058734985
140.2324641985808
86.68460569805525
80.69817513494694
200.2010891077245
154.6537830741351
92.30714065670912
81.4766398853649
82.80937105935774
100.3139657297886
162.3456548664382
190.8036695896623
84.86976889721083
105.6959032904502
153.3621063789013
171.4047367911533
86.132824874424
103.7916559473386
136.5540945978576
148.9896502041363
86.04594402161045
98.74435937598875
119.0557067394694
122.2810530819292
86.49288793941757
95.74390023788258
102.3767765771784
91.65095432595413
85.53201603406031
89.32645509743321
87.57891395590684
58.30355113672965
83.81956274984346
84.19636536558986
77.57938042272328
36.09888518730242
82.31956425285445
82.18355982404648
69.50905590388966
20.30428244156605
18.15958654252954
68.78453905676582
81.15985253893109
81.31801882419222
21.32617657404567
68.69743162765232
80.38556218886895
80.64390416158474
26.15244400420985
68.50280606341062
80.03342667759669
80.2375667082148
26.581992279654
67.30242379734182
79.28495368726588
80.10725962610798
32.87458618057334
70.11377954049767
79.03408730109243
79.98600628754755
38.06759394559394
71.12061314441551
78.76977265146151
79.93326113622722
42.09416382121942
71.93105383548746
78.98449123429275
79.95914236695107
45.62598635195843
72.84944175499122
79.39869338526404
79.98369323170847
37.21048671166315
68.70999201792272
78.49368571171208
79.91301183890624
39.78685575776138
68.43263013647119
78.38107346166493
79.91311162164239
43.93513851246302
68.13775601212689
78.24290620039409
79.91312168606513
47.99893899264221
67.89281869686056
78.14610575184636
79.91573387724114
45.62598635152391
72.84944175488751
79.39869338550713
79.98369322948014
42.09416382110066
71.9310538354073
78.98449123193846
79.95914236704139
38.06759394535343
71.12061314408321
78.76977264944009
79.93326113642463
32.8745861805512
70.11377954144268
79.03408730192791
79.98600628665065
81.31801882752605
81.15985253958866
68.78453905583162
18.15958654207665
80.64390416304504
80.38556219072601
68.69743162768371
21.32617657357548
80.23756670771888
80.033426679888
68.50280606277958
26.15244400406415
80.1072596268194
79.28495368854509
67.30242379909785
26.58199227970607
20.30428244148801
69.50905590295837
82.18355982219644
82.31956425245745
36.09888518752425
77.57938042178266
84.19636536557968
83.8195627480174
58.30355113671706
87.57891395455705
89.32645509878607
85.5320160306653
91.65095432525234
102.3767765766659
95.74390023679017
86.49288793080802
82.80937106063804
100.3139657306345
162.3456548672364
190.8036695901603
84.8697688978463
105.6959032918521
153.3621063767729
171.404736790717
86.13282488262968
103.7916559484112
136.5540945959658
148.9896502031474
86.04594402260521
98.74435937522173
119.0557067391221
122.2810530811106
200.2010891091536
154.653783074971
92.30714065840498
81.47663988720986
204.7436058748575
140.232464203026
86.68460570038711
80.69817513569339
205.5869801224437
125.8671516514907
83.33322849234483
80.31412007336975
204.5591844463016
112.9648700242467
81.57020215452599
80.12353071118301
80.0351572173163
80.65456898103683
84.93656608954929
135.1468836360276
80.00275517693646
80.45932249124905
88.52647012909057
177.531057158518
80.00718607281325
80.42737449535974
94.50503590928039
191.5424895833278
80.04093211240274
80.73435895193138
102.7928280498255
200.0299439733293
80.12888037664902
80.19745045622533
80.26773395087012
80.32445699752495
80.9450338630584
81.22345194716364
81.41680618199035
81.5062695511307
84.16180892782155
84.20253774463853
84.780412761836
85.23559107886098
94.21615104366892
84.96045803517436
83.993687170622
84.62225782484271
80.35367716334585
81.46939258563769
85.62562035507617
84.9077281859557
80.34581738143952
81.34607753519353
85.82550009078669
85.37295816026565
80.29871475180269
81.20962985031566
86.00428576872709
85.72278170587794
80.21119504183581
81.02636821623376
86.11553268821663
86.80198672554243
80.00663214737759
80.07134804214687
83.00302977520803
99.53110180708373
80.02225575363758
80.22623529377289
84.84299181278591
95.35924684491424
80.05903793992724
80.46473399649501
85.70368836431375
91.51797776652504
80.12248264278703
80.74873398576219
86.06303155074974
88.72219950730745
101.9097951630971
81.59168870113631
80.02053270854618
80.00204554843891
98.7656761134601
81.16150042900917
80.01326562704075
80.00267001332378
96.97824453653942
80.74346727520869
80.00510232042079
80.0000568016106
94.64444117962769
80.40300145911878
79.99392472227186
79.99957808529187
92.87897229015952
79.90536645076357
80.00053305319975
80.00001783154748
91.39542663477415
80.0583988621467
80.00001043757493
79.99999980657242
88.3217381540781
80.00145801751388
80.0000006398206
80.00000000037271
83.55425955246285
79.99927010572118
80.00000066819888
79.99999999979389
80.00000000000004
80.00000000326951
80.00000282811723
80.00349384819059
79.99999999999999
79.99999999138431
80.00001185420464
80.0097821627528
80
79.99999999965607
79.99999218027573
80.05972251593258
79.99999999997689
79.99999965372598
80.00022919501596
80.52055309228811
80.00875663523603
80.03634303488417
80.19919588184106
81.25977805164487
80.03634303469268
80.08652052381063
80.30893444686001
82.87229526938737
80.19919588035754
80.30893444615548
81.23759315490378
90.69299088203779
81.25977805708675
82.87229527771383
90.69299089131599
111.6008819533836
140.6691668658909
120.4252098723646
108.5797163489157
95.76156886813519
136.8266559182998
131.872976102847
130.2430804919011
120.9362917426676
136.1991532687644
134.6600270430777
134.0856014267565
130.5260450593434
136.3069997167657
135.8191936604765
135.5223932517213
133.779242897977
131.8350315184124
130.412363707447
128.7233062561301
129.3034766405361
133.0292868897106
131.0275910190747
129.031372348173
129.4284598995742
133.3863594910887
131.3157519417114
129.2531150164876
129.7076933038596
133.5126714936069
131.3177245488608
129.2065931713653
125.0607512750691
104.9935340690955
82.03861804775717
74.64696918447925
72.79693498806212
95.80266899109223
75.89836922018468
72.74777242426153
72.00895161108333
86.83933528217239
74.11158902097836
73.63170061071642
72.84554393639506
70.60503973220503
70.16155764169271
72.55231288620269
72.12104742515561
72.43069794275212
72.73776456272159
73.71346406685933
74.94421938999952
71.78329695409755
72.13757460806896
73.24053267325499
74.54875314699281
72.34047369617799
72.50822722298227
73.44079013009879
74.48917236756795
71.60969291338643
71.93374268071537
72.99765167640754
74.47117509800191
76.08376778789118
77.24475376996828
95.17872581532643
145.5168629843089
75.80923285387877
77.20434650354439
104.540433081127
156.5077740853112
75.79302102534054
77.26205412260778
112.3232337412211
159.468322220406
75.89114269019571
77.27254877009274
119.1190862015595
162.4287345820196
249.2684973327492
264.9776407916369
258.6316797483229
249.9194543112882
253.3813214635442
265.0186362837593
261.2632129453533
252.036959682108
248.3163144962696
264.9921771447961
262.8153265944831
253.7844576489748
240.3561010189395
265.325839377476
264.270482141663
255.6640465449482
248.5970580402095
249.6195473008818
240.4003967336909
223.0840455928677
249.6114153377807
250.2451016928308
243.5512955087751
225.6298869579973
248.7634907822778
250.5840281224122
245.1276791499404
228.4633952249717
249.9682517232642
251.8962709943003
246.6787140370098
232.5419511105414
206.5020246611561
183.2041366417121
161.8247300315374
136.5760082650879
208.7319763732788
186.1128023823055
162.6737713514453
145.8210749520559
211.3555579100437
189.6406809943862
166.1193120598519
150.5969702536244
215.3847215269187
194.9275748666193
171.5710691185274
168.478020818011
76.09344211668225
15.23884595607509
2.207331522793476
1.414550217000357
60.15369699952168
9.174504087498878
2.073956908827462
1.53726466385343
42.1811756687351
4.784339712988518
1.801656586362059
1.651319424833966
22.96102821004964
1.777803279535746
1.881342487734003
1.875064343012177
2.085958158241887
3.099386372404664
5.635880587738337
9.368235047084445
2.529087497322621
4.07901253305802
6.652894940412885
10.24941009610148
2.711261522110477
4.392464278724272
7.358118555964035
10.52915471692886
3.0212156503341
4.978489997802879
8.324121503453542
10.91567532731758
9.746511636744696
15.81390874472243
21.06247955463134
26.79766619421128
9.807229358006079
14.8851391776203
19.84031176513477
26.59838135410468
9.712774397717155
14.06298158807561
18.17742686160489
25.82562418898119
9.331246293353914
12.59917694451952
15.76014541866534
27.16801600291982
22.87267607867825
18.31052332437883
21.2473590795051
24.05192695044542
19.21369702316746
12.21681080219548
15.0887935759051
17.91064802801997
16.32905408260282
10.45065270121638
14.798800800151
17.05338513756576
12.66693961200566
9.888269886210626
13.24406163066368
15.08492892945935
16.53976547794591
17.52612838357997
17.92355053805096
18.06099991433038
17.78898481345733
18.30563770913149
18.31004497137145
18.67704887115064
18.53051561517015
18.72305644168527
19.23362928978991
19.83020363927404
24.10351702314697
22.88384458303669
22.49925186127572
22.74763795174092
18.06099991433858
18.67704887113219
19.8302036392521
22.74763795167239
17.92355053805551
18.31004497133443
19.2336292897743
22.49925186118039
17.52612838358476
18.30563770907221
18.72305644165241
22.88384458281548
16.53976547793315
17.78898481343116
18.53051561515903
24.10351702291152
24.05192695041552
21.24735907990281
18.31052332463328
22.87267607857289
17.91064802806863
15.08879357613225
12.21681080235107
19.21369702307276
17.05338513763276
14.79880080033795
10.45065270138131
16.32905408254583
15.08492892945313
13.24406163062693
9.888269886284432
12.66693961204265
27.16801600297675
15.76014541859728
12.59917694426419
9.33124629309363
25.82562418895978
18.17742686159164
14.06298158785668
9.712774397386296
26.59838135395238
19.84031176511254
14.88513917744867
9.807229357619965
26.79766619404276
21.06247955460137
15.81390874457202
9.746511636341552
9.368235046882715
5.635880587781715
3.099386372385405
2.085958158294848
10.24941009582736
6.652894940397474
4.079012533059485
2.529087497327608
10.52915471664211
7.358118555913988
4.39246427873015
2.71126152209734
10.91567532701615
8.32412150335508
4.978489997791939
3.021215650331479
1.414550216983329
2.207331522749762
15.2388459559426
76.09344211698907
1.537264663835029
2.073956908818537
9.174504087449233
60.15369699927944
1.651319424840016
1.801656586354768
4.784339712994647
42.1811756684388
1.875064342966671
1.881342487684465
1.777803279531282
22.96102820993573
136.5760082648572
161.8247300292495
183.2041366405118
206.5020246609296
145.8210749516917
162.6737713494845
186.1128023809927
208.7319763724538
150.5969702524865
166.1193120583719
189.6406809931779
211.3555579089135
168.4780208168721
171.5710691169061
194.9275748650116
215.3847215261054
223.0840455922541
240.4003967332722
249.6195473013395
248.5970580463891
225.6298869564913
243.5512955087545
250.2451016936233
249.6114153436223
228.4633952240074
245.1276791503665
250.5840281241257
248.7634907873335
232.5419511122283
246.6787140371674
251.896270996665
249.968251728448
249.9194543119523
258.6316797495193
264.9776407918304
249.2684973349095
252.0369596824791
261.2632129468713
265.0186362839186
253.3813214660092
253.7844576494403
262.8153265961623
264.9921771451498
248.3163144985884
255.6640465453298
264.270482143183
265.3258393780544
240.3561010214962
145.5168629844037
95.17872581487076
77.24475377062704
76.08376778847979
156.507774085904
104.5404330804068
77.20434650432732
75.80923285438861
159.4683222212138
112.3232337408531
77.26205412351072
75.79302102610039
162.428734582813
119.1190862010634
77.27254877101818
75.89114269096441
74.94421938994334
73.71346406608806
72.73776456135786
72.43069794108912
74.548753145822
73.24053267246572
72.13757460669247
71.78329695240595
74.48917236887111
73.44079012918907
72.50822722148249
72.34047369433947
74.47117509805216
72.99765167563088
71.93374267937169
71.60969291156484
72.79693498616457
74.64696918342315
82.03861804771621
104.9935340716929
72.00895160938617
72.74777242350511
75.89836922075786
95.80266899342874
72.84554393467258
73.63170061003636
74.11158902208015
86.83933528460095
72.12104742354555
72.55231288556996
70.16155764292206
70.60503973500418
129.303476643516
128.723306259304
130.4123637097826
131.835031519385
129.4284599023671
129.0313723510931
131.0275910214183
133.0292868896393
129.7076933065745
129.2531150189113
131.3157519431038
133.3863594899724
125.0607512775794
129.2065931726278
131.317724549593
133.5126714931381
133.7792429014163
130.5260450622157
120.9362917446375
95.76156887070185
135.5223932517822
134.085601428275
130.2430804937185
108.5797163529219
135.8191936626475
134.6600270388413
131.8729761054896
120.4252098768455
136.3069997151137
136.1991532606734
136.8266559128925
140.6691668686004
49.22527125630417
72.25043123999757
79.15561263154585
79.97419520630332
48.12952269415327
70.82889318668524
78.80232432987997
79.95415430826296
49.67541951913536
69.77727491162301
78.48541202391627
79.93468336012133
49.86362688390383
68.76583913387556
78.25409189819113
79.92249528997282
79.91301183576641
78.49368571139699
68.70999201970649
37.21048671184109
79.91311161801795
78.38107346171618
68.43263013829915
39.78685575811062
79.91312168406384
78.24290620173575
68.13775601339694
43.93513851240587
79.91573387444889
78.14610575349094
67.89281869663645
47.99893899262685
79.92249528566042
79.93468335738423
79.95415430650348
79.97419520287625
78.25409190014386
78.48541202507415
78.80232433007026
79.15561263235797
68.76583913329637
69.77727491012364
70.82889318503791
72.25043123922899
49.86362688421016
49.67541951952816
48.12952269413572
49.2252712557765
)
;

boundaryField
{
    back
    {
        type            empty;
    }
    inlet
    {
        type            zeroGradient;
    }
    front
    {
        type            empty;
    }
    top
    {
        type            zeroGradient;
    }
    outlet
    {
        type            fixedValue;
        value           uniform 80;
    }
    bottom
    {
        type            zeroGradient;
    }
    wall
    {
        type            zeroGradient;
    }
}


// ************************************************************************* //
