/*--------------------------------*- C++ -*----------------------------------*\
  =========                 |
  \\      /  F ield         | OpenFOAM: The Open Source CFD Toolbox
   \\    /   O peration     | Website:  https://openfoam.org
    \\  /    A nd           | Version:  11
     \\/     M anipulation  |
\*---------------------------------------------------------------------------*/
FoamFile
{
    format      ascii;
    class       volScalarField;
    location    "0.0525";
    object      Ma;
}
// * * * * * * * * * * * * * * * * * * * * * * * * * * * * * * * * * * * * * //

dimensions      [0 0 0 0 0 0 0];

internalField   nonuniform List<scalar> 
880
(
1.11801663592382
1.11801663592382
1.118016635855964
1.118016587714622
1.11801663592382
1.11801663592382
1.118016633490567
1.118017132244428
1.11801663592382
1.11801663592382
1.11801661819606
1.11800301212214
1.118016635923821
1.118016635923824
1.118016253902143
1.117295835024715
1.11801663592382
1.11801663592382
1.118016635923815
1.118016635866154
1.11801663592429
1.118016635915976
1.11801663601955
1.118016633232294
1.118011887846962
1.118003797033904
1.118005074765734
1.11798721936702
1.111974193572346
1.102804376022115
1.09870074794875
1.098763620661179
1.118016632566324
1.118016629324182
1.118016628608236
1.118016631717653
1.11801653578018
1.118016529343761
1.118016529228327
1.118016478074781
1.117928110266594
1.117919492672513
1.117917595330646
1.117883000522094
1.098449773571997
1.098872717954932
1.09882761467119
1.097022142994008
1.112086254565445
1.122189556258323
1.123996893242385
1.121595107672838
1.117892137183105
1.117940632891509
1.118029942639115
1.118048251256643
1.118016415762098
1.118016496366466
1.118016640334044
1.118016679376427
1.118016616793199
1.118016616348268
1.118016622266017
1.118016631098133
1.118016635301372
1.118016635903893
1.118016635923814
1.11801663592382
1.118016646853954
1.118016636463401
1.118016635928257
1.118016635923988
1.118025061851342
1.118017143461415
1.118016640996859
1.118016635930045
1.11902015720783
1.118108850725414
1.118018439905502
1.118016640103779
1.118016635267993
1.118016635916057
1.118016635923817
1.11801663592382
1.118016643723565
1.118016636672973
1.118016635967449
1.118016635923831
1.117993276626604
1.118016535278006
1.118016635893083
1.118016635858455
1.111270661883329
1.118025515972312
1.118017761162086
1.118016640661915
1.118016629198232
1.118016180594245
1.117677448079985
1.028915065689483
1.118016615544345
1.118015636807251
1.117233225811676
1.000127159657679
1.118016592837471
1.118015281903027
1.116967281470475
0.9925748047501918
1.118016577685373
1.118014929374332
1.116785825164137
0.9920089818009591
0.9868731542811863
1.116566123555385
1.118014441203961
1.118016561248809
0.9828137940462079
1.116321643390463
1.11801387215113
1.118016533443551
0.9751374463212066
1.115947420768833
1.118012844357344
1.11801650910271
0.9695742330400587
1.115587032167154
1.118011928648214
1.118016435035929
1.118016437854544
1.118011479760884
1.115148361473828
0.9589315691019888
1.118016373641695
1.118009914297794
1.114721496508116
0.9608408925274149
1.118016313798398
1.118009405921316
1.114932313729916
0.9862339240714952
1.118016441591968
1.11801248998747
1.116820839500592
1.056099551230791
1.118016353222577
1.118010391398688
1.119331642162485
1.145005453439683
1.118016664639299
1.118015459344387
1.117559460133952
1.104463895115242
1.118016619324081
1.118001505192648
1.114842490730025
1.023040649887822
1.118016606742769
1.117982153557584
1.110717380740496
0.94306017592528
0.9374251289653299
1.112816949558909
1.11800148205968
1.118016623292795
0.9566832060989771
1.113323786432582
1.118001326311881
1.11801662101137
0.9783722273987986
1.115006074123512
1.118009617574757
1.118016631076608
0.9630449348538478
1.114254124037545
1.118006791916741
1.118016626599943
1.03405806144998
1.116524968627367
1.118013460826268
1.118016633526762
1.091136419652958
1.117744283820419
1.118016253521826
1.118016635648183
1.115963800870707
1.118015858187667
1.118016660724092
1.118016635979269
1.120085446130953
1.118042573218715
1.11801673041651
1.118016636041028
1.096728388612055
1.117646436124099
1.118014668103049
1.118016630725037
1.096971671503959
1.117648616416987
1.118014671529594
1.118016630730772
1.097297436704264
1.117653205459699
1.118014683342795
1.118016630748887
1.096576790070701
1.11765654468262
1.118014709714165
1.118016630837339
1.120085446130853
1.118042573219553
1.118016730417496
1.118016636041944
1.115963800870618
1.11801585818899
1.118016660725397
1.118016635979472
1.091136419653624
1.117744283821376
1.118016253521894
1.118016635648465
1.034058061449007
1.116524968628261
1.118013460825872
1.118016633526683
1.118016623291889
1.118001482059504
1.112816949559261
0.9374251289645323
1.118016621011613
1.118001326311538
1.113323786430065
0.9566832060972126
1.118016631076362
1.118009617575062
1.115006074124407
0.9783722273990721
1.118016626599791
1.118006791915898
1.11425412403762
0.9630449348534958
0.9430601759230334
1.110717380740351
1.117982153558076
1.118016606742713
1.023040649886588
1.11484249072987
1.118001505192186
1.118016619324316
1.104463895114737
1.117559460133676
1.118015459344763
1.118016664638509
1.145005453439619
1.119331642163265
1.118010391399584
1.118016353221919
1.118016437854748
1.11801147975976
1.115148361472687
0.9589315691022829
1.11801637364135
1.118009914298568
1.114721496507525
0.9608408925263713
1.118016313799058
1.11800940592094
1.114932313729813
0.9862339240716907
1.118016441591838
1.118012489987728
1.11682083950063
1.056099551230897
0.9695742330397435
1.115587032168248
1.118011928647816
1.118016435034531
0.9751374463208351
1.115947420768224
1.118012844357285
1.118016509102742
0.9828137940461699
1.116321643391002
1.118013872151141
1.118016533443468
0.9868731542808417
1.116566123553495
1.118014441203486
1.11801656124854
1.118016629198007
1.118016180594047
1.117677448080167
1.028915065689664
1.118016615543425
1.118015636806458
1.117233225812766
1.000127159657936
1.118016592836376
1.118015281902156
1.116967281469432
0.9925748047497591
1.118016577685496
1.118014929374764
1.116785825165366
0.9920089818023846
1.11801664066178
1.118016635858571
1.118016635923831
1.11801663592382
1.118017761163326
1.118016635893563
1.118016635967802
1.118016635923824
1.118025515973073
1.118016535277676
1.118016636673334
1.118016635916245
1.111270661883737
1.117993276626527
1.118016643723275
1.118016635267992
1.11801663592382
1.118016635923959
1.118016635929834
1.11801664010357
1.118016635923778
1.118016635928003
1.118016640996719
1.118018439905252
1.118016635903915
1.118016636463187
1.118017143462111
1.118108850726358
1.118016635301713
1.118016646854077
1.118025061850884
1.119020157207893
1.118016616792806
1.118016415763024
1.117892137183027
1.112086254564894
1.118016616348924
1.11801649636606
1.117940632891134
1.12218955625802
1.118016622265731
1.118016640334581
1.118029942639507
1.123996893242805
1.118016631098272
1.118016679376664
1.118048251256389
1.121595107673788
1.097022142994421
1.11788300052234
1.118016478075317
1.118016631717362
1.098827614671664
1.117917595329803
1.118016529229397
1.118016628608214
1.098872717954472
1.117919492671408
1.118016529345078
1.118016629324737
1.098449773572808
1.117928110267979
1.118016535780604
1.118016632565348
1.098763620661544
1.117987219365935
1.118016633232237
1.118016635865816
1.098700747949058
1.118005074766319
1.118016636020315
1.11801663592382
1.102804376022585
1.118003797034152
1.118016635916088
1.11801663592382
1.111974193572945
1.118011887847431
1.118016635924299
1.11801663592382
1.118016635923821
1.11801663592382
1.118016635855597
1.118016587714656
1.11801663592382
1.11801663592382
1.118016633490587
1.118017132244304
1.11801663592382
1.11801663592382
1.11801661819604
1.118003012121968
1.11801663592382
1.118016635923836
1.118016253902442
1.117295835025244
1.118016591359296
1.118015522866422
1.117836030508143
1.113291202294098
1.118015522866803
1.117962910230849
1.116092698539761
1.093224140941462
1.117836030508091
1.116092698539813
1.099035998069475
1.022427063629117
1.113291202293504
1.093224140940927
1.022427063628465
0.8966853091979731
0.8484253939731501
0.8982755354429898
0.9866592124537377
1.051095384783461
0.9103974018186375
0.9199220307435664
0.9529431319955481
0.9953204737408722
0.9461038186462261
0.9707559747951128
0.9888060157471048
1.008766590850534
0.9657562823803342
1.009347001498401
1.016239111094409
1.021716337065515
1.027724825080015
1.03088279910222
1.031242745020318
1.027775702607374
1.030408102924157
1.035517843127431
1.036639032793392
1.041423506945538
1.027549960572575
1.033354883722807
1.034630563296973
1.084471048384239
0.9747120521201176
0.9792933156460789
0.9826477696467228
1.149945916335283
1.155611567650523
1.182310318453603
1.153120064903895
1.132843070683275
1.24520286189828
1.229936236263729
1.176227234497188
1.145380240797958
1.373208472913505
1.265808170607604
1.194143796840776
1.156273373095505
1.117991714921452
1.044927267984043
1.069702833963844
1.097673567996738
1.12238979152283
1.118609771265286
1.118040269659743
1.118016807036909
1.126665405515842
1.119227595420392
1.118064535212825
1.118016962861739
1.131167183416902
1.119975950730604
1.118096537700346
1.118017186978183
1.111660982728934
1.117241286902698
1.117992073811949
1.118016459496462
1.118016632317168
1.118016636040075
1.117599978397326
0.9919971481510624
1.118016628157722
1.118016640561993
1.117056023008838
0.8965229190260725
1.118016628431673
1.118016636257121
1.114421497622787
0.8080225929885744
1.118016624049517
1.118016635388595
1.104402513716922
0.6354397368696789
0.7149943970300797
0.7780381186447811
0.800403601594684
0.814856768898427
0.6193771050216439
0.7403959139975403
0.7963317298596913
0.8186355242018603
0.5300758002946703
0.690719430856045
0.7806451273565064
0.8136783405117648
0.420521010519403
0.5829137805024344
0.6785305306463653
0.7285923186454049
0.8182931265809111
0.8186653081316365
0.8175011983097065
0.8174134578765787
0.825180920378622
0.8265379846678521
0.8264149092766022
0.8269240536975319
0.8213363712317155
0.822623306701824
0.8229184974702174
0.8236552624791756
0.7494971934377682
0.7532962725214294
0.7536001590172358
0.7515774099548475
0.815360515650303
0.8238506584469414
0.861498984766412
0.9471193289184897
0.8257420009529373
0.8358857882377877
0.88214682357876
0.975565762273911
0.8230956480810031
0.83330661965096
0.9001489102072342
1.208044783114405
0.7583442355653893
0.7761614284116686
0.9032161411234252
1.62899851375649
1.130015176634205
0.9230223198233923
0.3708916774456985
0.1132184599241207
1.10029316269362
0.8049496875598452
0.328553533279067
0.08938609124733499
1.250388365994792
0.6319408030013582
0.2621151128839841
0.06273851170387408
0.9650426420413742
0.2568984220619882
0.1492309204996591
0.05788126063214038
0.09855365071284744
0.1367412278353485
0.1769965252450674
0.1748132411672858
0.0646991230582819
0.09547990017922725
0.1566289376351052
0.2250864879111265
0.03100915066746075
0.1117770988675377
0.2049003033961922
0.2863712564461329
0.01181496481547374
0.09537337821348138
0.2043752236039273
0.3283113441668351
0.8990847958204985
1.058473116394028
1.139465910425459
1.17062547964325
0.591152680115639
0.8884160590161349
1.080856094419126
1.193288977602427
0.2180526266863067
0.5459198156513301
0.8976560613152558
1.25609540550422
0.1069097824483457
0.3397458156888534
0.7485054338856337
1.490058283550228
1.198977448323099
1.254460225733364
1.049130247077737
0.8353593230693006
1.434234156076903
2.043919041807797
1.383178483197681
0.944613799150218
1.667284965888276
2.363993208752869
1.369088038019577
0.6729875922716886
1.324883738464167
1.657145578868818
0.5893846029384853
0.2949396003563207
0.3239105452178491
0.3636877750655586
0.2895785031453755
0.1572239082335517
0.662847792975238
0.6672575897695429
0.5503922533133738
0.2317855065095075
0.7896852201289088
0.721322511645661
0.5952360043823337
0.2596973171537293
0.6644760864415047
0.5641020667428183
0.4628638056276578
0.3584083303891846
0.157223908233555
0.2317855065096195
0.2596973171538593
0.3584083303889663
0.2895785031457235
0.5503922533136081
0.5952360043822362
0.4628638056275597
0.3636877750657165
0.6672575897694021
0.7213225116455007
0.5641020667429206
0.323910545217731
0.6628477929752202
0.7896852201289588
0.664476086441589
0.835359323069093
1.049130247076922
1.25446022573263
1.198977448322931
0.9446137991499431
1.383178483197256
2.043919041807736
1.434234156076977
0.6729875922713737
1.369088038019173
2.363993208751733
1.667284965888103
0.2949396003561641
0.5893846029380235
1.657145578867986
1.324883738463954
1.490058283550039
0.7485054338855696
0.3397458156888553
0.1069097824480466
1.25609540550411
0.8976560613151372
0.545919815651309
0.2180526266864946
1.193288977602383
1.080856094418976
0.8884160590162069
0.5911526801157868
1.170625479643226
1.139465910425405
1.058473116394498
0.8990847958199402
0.1748132411676842
0.1769965252449147
0.1367412278354002
0.09855365071157876
0.2250864879106454
0.1566289376351781
0.09547990017903277
0.06469912305824004
0.2863712564459231
0.2049003033962632
0.1117770988677593
0.03100915066743849
0.3283113441667541
0.2043752236040707
0.09537337821369649
0.01181496481560755
0.1132184599212523
0.3708916774416535
0.9230223198198105
1.130015176633659
0.08938609124868777
0.3285535332768003
0.804949687556768
1.100293162693378
0.0627385117032902
0.2621151128822437
0.6319408029997953
1.250388365994469
0.05788126063198067
0.1492309204990507
0.2568984220621199
0.9650426420417666
0.947119328918744
0.8614989847666255
0.8238506584468092
0.8153605156510798
0.9755657622740322
0.8821468235789109
0.8358857882377874
0.8257420009532483
1.208044783114408
0.9001489102073517
0.8333066196510015
0.8230956480809803
1.628998513756211
0.903216141123507
0.7761614284116333
0.7583442355648345
0.8174134578765293
0.817501198309507
0.8186653081318089
0.8182931265809302
0.8269240536974591
0.8264149092763201
0.8265379846678108
0.8251809203786443
0.8236552624791148
0.8229184974700445
0.8226233067018635
0.8213363712318329
0.7515774099548745
0.7536001590171093
0.7532962725218375
0.7494971934381263
0.8148567688994593
0.8004036015945357
0.7780381186450508
0.7149943970300835
0.8186355242025262
0.7963317298595219
0.7403959139977858
0.6193771050216758
0.8136783405120448
0.7806451273565205
0.6907194308562522
0.5300758002947411
0.7285923186450948
0.6785305306465796
0.5829137805024908
0.4205210105193139
0.9919971481509908
1.117599978396572
1.118016636038726
1.11801663231755
0.8965229190258603
1.117056023008659
1.118016640562811
1.118016628158326
0.8080225929885363
1.114421497623089
1.118016636258301
1.11801662843161
0.6354397368694609
1.104402513717466
1.118016635389169
1.118016624049833
1.118016807036663
1.118040269659548
1.118609771265816
1.122389791522977
1.118016962861499
1.118064535212965
1.119227595420659
1.126665405515823
1.118017186978133
1.118096537700639
1.119975950730817
1.13116718341674
1.11801645949568
1.117992073812761
1.11724128690092
1.111660982729663
1.132843070684328
1.153120064904116
1.182310318453303
1.155611567649842
1.145380240798513
1.17622723449751
1.229936236263509
1.245202861897768
1.156273373095959
1.194143796841161
1.265808170607383
1.373208472913173
1.097673567996375
1.069702833964374
1.044927267984078
1.117991714921603
1.027775702607624
1.031242745020563
1.030882799101928
1.027724825080498
1.041423506945808
1.036639032793278
1.035517843127104
1.03040810292448
1.084471048384414
1.034630563296719
1.033354883722511
1.027549960572695
1.149945916335165
0.9826477696458815
0.9792933156453804
0.9747120521202327
1.021716337065484
1.008766590850829
0.995320473741313
1.05109538478387
1.016239111094196
0.9888060157473685
0.9529431319960758
0.9866592124544563
1.009347001498436
0.9707559747953022
0.9199220307439994
0.8982755354440064
0.9657562823812506
0.9461038186472681
0.9103974018191665
0.8484253939740023
1.112813966765876
1.117963742796706
1.118016399555368
1.11801663540007
1.110917387220225
1.117907291226973
1.11801609994016
1.118016634554009
1.10085144550934
1.117789162705234
1.118015529205993
1.118016633078091
1.090584389631901
1.117632334940553
1.118014764102192
1.118016631235462
1.118016630724209
1.118014668102974
1.117646436124088
1.096728388611458
1.11801663073119
1.118014671529143
1.117648616416765
1.096971671503753
1.118016630748862
1.118014683343474
1.117653205459579
1.097297436705271
1.118016630837034
1.118014709714526
1.117656544682088
1.096576790071679
1.118016631236323
1.118016633077627
1.118016634553681
1.118016635400761
1.118014764103038
1.118015529206118
1.118016099939824
1.118016399554927
1.117632334940863
1.11778916270524
1.117907291226292
1.117963742797124
1.090584389632345
1.100851445509385
1.110917387219585
1.11281396676557
)
;

boundaryField
{
    back
    {
        type            empty;
    }
    inlet
    {
        type            calculated;
        value           nonuniform List<scalar> 
16
(
1.11801663592382
1.11801663592382
1.11801663592382
1.11801663592382
1.11801663592382
1.11801663592382
1.118016635923814
1.11801663590727
1.118016635907217
1.11801663592382
1.11801663592382
1.11801663592382
1.11801663592382
1.11801663592382
1.11801663592382
1.11801663592382
)
;
    }
    front
    {
        type            empty;
    }
    top
    {
        type            calculated;
        value           uniform 0;
    }
    outlet
    {
        type            calculated;
        value           nonuniform List<scalar> 
16
(
1.118016629297441
1.118016629305043
1.118016629327492
1.118016629439983
1.118016635243095
1.118016634167963
1.118016632294591
1.11801662994733
1.118016629296699
1.118016629305415
1.118016629327473
1.118016629439713
1.118016629948118
1.118016632294156
1.118016634167665
1.11801663524373
)
;
    }
    bottom
    {
        type            calculated;
        value           uniform 0;
    }
    wall
    {
        type            calculated;
        value           uniform 0;
    }
}


// ************************************************************************* //
