/*--------------------------------*- C++ -*----------------------------------*\
  =========                 |
  \\      /  F ield         | OpenFOAM: The Open Source CFD Toolbox
   \\    /   O peration     | Website:  https://openfoam.org
    \\  /    A nd           | Version:  11
     \\/     M anipulation  |
\*---------------------------------------------------------------------------*/
FoamFile
{
    format      ascii;
    class       volScalarField;
    location    "1";
    object      p;
}
// * * * * * * * * * * * * * * * * * * * * * * * * * * * * * * * * * * * * * //

dimensions      [0 2 -2 0 0 0 0];

internalField   nonuniform List<scalar> 
4455
(
143.25792
143.35414
143.54613
143.8399
144.22693
144.79505
145.45091
146.69278
147.00997
143.20512
143.31623
143.52576
143.8265
144.25177
144.84748
145.63202
146.86432
147.70884
143.10374
143.23919
143.4658
143.78813
144.22996
144.86396
145.68608
147.00758
147.94432
142.95966
143.12283
143.37422
143.71527
144.17725
144.8515
145.71704
147.14674
148.30749
142.77781
142.97449
143.2528
143.6087
144.0983
144.80215
145.72745
147.2854
148.74192
142.5678
142.79879
143.10006
143.47239
143.98929
144.7251
145.71617
147.41738
149.1682
142.33658
142.59922
142.92365
143.31198
143.85014
144.61983
145.67679
147.54182
149.62243
142.09427
142.38464
142.72785
143.13146
143.68631
144.48541
145.59627
147.64072
150.07652
141.84868
142.15962
142.51761
142.93429
143.50168
144.33126
145.49439
147.71255
150.54347
141.60733
141.37962
141.17
140.98132
140.81746
140.68258
140.58471
140.54324
140.57292
141.93126
141.70134
141.47741
141.26574
141.07152
140.88609
140.69716
140.50389
140.29788
142.29299
142.05599
141.81567
141.57871
141.34786
141.13735
140.96326
140.82064
140.70089
142.71671
142.47802
142.23049
141.97951
141.7181
141.44318
141.15734
140.86888
140.5712
143.29362
143.05438
142.80548
142.54741
142.28383
142.02254
141.76916
141.52891
141.29119
144.14773
143.92521
143.68269
143.41486
143.11718
142.80057
142.46548
142.12272
141.76037
145.37228
145.21928
145.04037
144.81703
144.53178
144.20231
143.84498
143.48704
143.12178
147.78645
147.75689
147.60352
147.34586
146.98489
146.55025
146.05986
145.52746
144.95643
151.14881
151.59641
151.46337
150.87813
150.0204
149.03388
148.01789
146.96801
145.90638
140.63637
140.58668
140.4921
140.39709
140.30649
140.21164
140.1088
140.00259
139.87802
140.16049
140.06556
139.98548
139.90988
139.81402
139.70134
139.56237
139.38327
139.19179
140.65068
140.59548
140.51361
140.38763
140.23617
140.08604
139.93553
139.76706
139.58593
140.35007
140.19369
140.05001
139.91779
139.77128
139.59215
139.39379
139.17792
138.93455
141.09744
140.97693
140.86855
140.75371
140.62606
140.47597
140.29541
140.10406
139.8952
141.45709
141.27516
141.12207
140.95456
140.76635
140.55483
140.3052
140.02008
139.72786
142.81147
142.61782
142.46415
142.29432
142.0781
141.82252
141.55317
141.26236
140.95033
144.4237
143.94155
143.45513
142.94914
142.42279
141.87214
141.29782
140.73294
140.20124
144.97834
144.1467
143.32874
142.53096
141.74416
140.96806
140.2152
139.52097
138.87865
138.43743
138.02586
137.87917
138.0933
138.60149
139.30372
140.10742
140.96768
141.85359
139.74183
139.3484
139.02697
138.76781
138.57468
138.47954
138.45605
138.49697
138.62247
140.66835
140.41984
140.17156
139.93957
139.73843
139.55878
139.40405
139.27629
139.17632
139.42556
139.1215
138.83186
138.54931
138.24235
137.91691
137.60758
137.30031
136.99569
139.67172
139.45317
139.22012
138.96105
138.6926
138.42416
138.14264
137.85174
137.56403
138.68307
138.42737
138.14164
137.82155
137.48821
137.13192
136.74389
136.32748
135.88915
139.39513
139.17837
138.93765
138.6963
138.45329
138.19811
137.93862
137.66793
137.38998
138.98435
138.73127
138.44549
138.11648
137.73101
137.31185
136.88589
136.3985
135.91373
139.73877
139.60579
139.45154
139.26911
139.05556
138.84317
138.60983
138.3834
138.12083
137.79701
137.3907
136.91104
136.37168
135.77849
135.13646
134.45185
133.72556
132.95542
135.42322
134.92428
134.42088
133.90405
133.35836
132.77987
132.17584
131.53407
130.84489
137.08073
136.74482
136.36658
135.93393
135.45629
134.9233
134.3439
133.71725
133.03069
135.42975
134.95188
134.46293
133.95948
133.44707
132.92456
132.38358
131.82264
131.24018
137.27216
136.96517
136.64598
136.3121
135.9556
135.57543
135.18204
134.74492
134.26842
136.69544
136.39749
136.11817
135.84508
135.57392
135.32059
135.07123
134.81768
134.55231
139.10932
139.08112
139.07807
139.09207
139.12432
139.1709
139.21738
139.2687
139.30478
138.83185
139.109
139.42739
139.78478
140.17589
140.61339
141.08532
141.59269
142.11889
142.74958
143.67341
144.58814
145.54683
146.58258
147.64055
148.72277
149.82894
150.98069
152.14122
142.6403
139.33437
134.28054
133.757
130.6132
132.29997
130.11621
132.13977
153.37737
143.14983
139.33187
133.97285
133.18793
129.95666
131.51189
129.35019
131.26803
154.6482
143.63074
139.29661
133.63568
132.57651
129.2582
130.66391
128.52212
130.33849
155.88225
144.11966
139.2138
133.2353
131.92363
128.50657
129.76247
127.6309
129.34817
157.09732
144.52941
139.05818
132.78769
131.20041
127.69479
128.79127
126.68453
128.2865
158.26166
144.86436
138.85157
132.26044
130.40856
126.81479
127.75726
125.68966
127.1505
159.28884
145.07727
138.51467
131.62934
129.56535
125.85947
126.65821
124.62905
125.93915
160.22914
145.16816
138.06335
130.89391
128.62844
124.81928
125.47774
123.50065
124.65065
160.72549
144.99559
137.46249
130.01921
127.62849
123.68934
124.21413
122.31287
123.29062
121.90622
121.05555
122.86376
122.46297
126.45764
128.89265
136.60707
144.5795
160.61751
120.55564
119.70489
121.38532
121.12194
125.07469
127.5436
135.26747
143.20035
157.22275
119.07933
118.26362
119.82235
119.63618
123.5019
125.85392
133.46482
141.26908
154.46409
117.35996
116.69916
118.17197
118.02386
121.73728
124.01831
131.48603
139.25338
152.07858
115.47619
115.03276
116.42293
116.2958
119.84372
122.04103
129.30136
137.03568
149.53541
113.50847
113.28417
114.57226
114.45651
117.82453
119.93026
126.95906
134.67127
146.8143
111.52535
111.46618
112.65246
112.52186
115.66706
117.7063
124.50426
132.16589
144.0479
109.50129
109.57127
110.64557
110.51191
113.3826
115.31592
121.8407
129.48706
141.09809
107.43859
107.61475
108.54977
108.38682
110.99617
112.74024
118.91612
126.5601
138.14218
135.14803
123.43829
115.842
110.0527
108.48601
106.19203
106.41962
105.61935
105.31687
132.0995
120.13193
112.59619
107.22755
105.86482
103.92917
104.23446
103.5822
103.15469
128.88173
116.62658
109.1508
104.25849
103.18962
101.61724
102.02905
101.52488
100.97569
125.60208
112.84462
105.51056
101.19875
100.43549
99.258757
99.807904
99.461451
98.835202
122.10498
108.82434
101.73921
98.040948
97.658265
96.903424
97.609966
97.431901
96.734115
118.48624
104.57378
97.810525
94.815177
94.872037
94.551561
95.46051
95.440846
94.720773
114.60561
100.02297
93.760239
91.584293
92.111256
92.266159
93.388095
93.518265
92.800325
110.55385
95.173874
89.54747
88.341241
89.416974
90.049435
91.382805
91.678798
91.018292
106.08392
90.055663
85.361876
85.158379
86.832825
87.923053
89.505408
89.959819
89.381498
87.929419
88.375105
87.756272
85.894892
84.312772
81.985624
80.986929
84.255131
100.90587
86.657566
86.937947
86.161446
84.023689
81.950427
78.90873
76.52394
77.633059
94.359715
85.59492
85.685113
84.779506
82.372245
79.858128
76.099132
72.362889
70.698617
87.052566
84.771221
84.647469
83.61852
80.961916
78.051672
73.670327
68.680287
63.889714
78.698925
84.113024
83.838305
82.67862
79.824912
76.577275
71.655052
65.579648
57.300524
69.32238
83.773308
83.244894
81.959693
78.956752
75.439077
70.117645
63.230321
51.480019
58.434332
83.587482
82.848404
81.456105
78.352581
74.579851
69.047892
61.783988
46.867833
45.666495
83.595104
82.638227
81.139776
78.034532
74.002103
68.389392
61.368155
44.228339
30.89246
83.7653
82.590597
80.964572
77.967501
73.647348
67.945161
61.823309
44.082212
17.547534
83.99323
82.703768
80.884654
78.032943
73.29828
67.259771
61.917559
43.60877
4.6909647
84.313274
82.882309
80.803425
77.891861
72.548364
65.64508
58.351973
35.263341
-6.5428905
84.820645
83.085356
80.729355
77.541375
71.449485
63.391544
53.199125
24.545643
-12.026534
85.417428
83.349975
80.707895
77.210798
70.337412
61.129276
48.893337
13.928592
1.8250271
86.107943
83.722499
80.825684
77.06134
69.38102
59.066366
44.864123
2.9776542
10.971769
86.830476
84.189903
81.106509
77.098373
68.61627
57.158305
40.10545
-8.1073409
-4.6465342
87.600351
84.762418
81.500809
77.249532
67.978986
55.326621
34.829549
-16.771446
-11.366399
88.385421
85.381739
81.995213
77.533856
67.533418
53.641043
29.811924
-15.843645
-11.835236
89.18766
86.064489
82.570104
77.925339
67.267022
52.196996
25.371853
-18.220756
-13.425381
-14.489093
-21.146398
22.574922
51.215041
67.252994
78.422332
83.212346
86.762998
89.964023
-15.290453
-22.537354
21.051506
50.862374
67.628819
79.06836
83.90001
87.496048
90.74481
-15.922449
-23.467925
20.063565
50.88352
68.334027
79.8453
84.670859
88.26522
91.50392
-17.166307
-24.036368
19.424756
51.06888
69.214717
80.662975
85.489476
89.039469
92.234371
-18.691463
-24.852233
18.990366
51.377996
70.225218
81.50007
86.327189
89.804181
92.917439
-19.102547
-24.991277
18.825217
51.795828
71.295597
82.30954
87.15644
90.553485
93.563496
-18.570464
-25.524043
18.985307
52.394701
72.405324
83.126371
87.977315
91.278498
94.175053
-17.004274
-25.354471
19.448793
53.134265
73.566327
83.955826
88.83189
91.981645
94.728298
-14.401563
-25.723683
20.021637
54.110448
74.829036
84.814195
89.694524
92.63783
95.376021
-13.634882
-23.448804
24.677645
56.770108
77.269974
86.377663
91.134644
93.721759
96.394983
-13.089735
-19.039577
30.534172
61.364551
80.947417
88.792062
92.840171
95.14687
97.350414
-12.513858
-13.66513
36.786502
66.805802
84.722195
91.122535
94.409976
96.382738
98.126233
-10.007653
-7.6216039
43.309998
72.33498
88.142558
93.086273
95.870869
97.154899
98.723747
-8.5653527
-1.0428746
49.645112
77.627351
91.067341
94.607109
97.168505
97.598704
99.419422
-8.3552382
5.7924022
55.478123
82.732335
93.429436
95.786236
98.24955
97.759138
100.18595
-6.3676497
13.123796
60.843756
87.461561
95.185297
96.750446
99.241603
97.79564
101.08958
-7.9839033
20.818221
66.233283
91.632371
96.368892
97.576185
99.969515
97.729101
102.27345
-3.8166464
30.229566
71.816646
95.152729
96.937609
98.297518
100.50129
97.851455
103.67005
4.8892313
53.350297
92.622317
107.44178
104.01271
102.98481
102.07678
100.76258
100.74836
4.8354312
53.203164
92.441583
107.3693
103.95587
102.93602
102.04602
100.75557
100.75475
4.731395
52.909251
92.080845
107.22523
103.84289
102.83927
101.98518
100.74284
100.76832
4.5706375
52.464651
91.537467
107.01117
103.67527
102.6958
101.89607
100.72693
100.7904
4.3578263
51.856296
90.797099
106.72636
103.45654
102.50662
101.78061
100.71259
100.82298
4.0805322
51.087781
89.820109
106.3628
103.18766
102.27686
101.63831
100.70222
100.87336
3.7437005
50.119989
88.602757
105.92637
102.86799
102.00842
101.47303
100.67861
100.95346
3.3310512
48.951931
87.175377
105.42695
102.51287
101.69758
101.30107
100.61886
101.06666
2.8424951
47.738056
85.562796
104.86318
102.12025
101.3592
101.14009
100.52577
101.18017
-3.8215827
30.233676
71.817473
95.153915
96.937633
98.29794
100.50154
97.851377
103.67051
-7.9888757
20.822699
66.234061
91.633713
96.368871
97.576561
99.969837
97.728991
102.27383
-6.3747725
13.128759
60.844039
87.462997
95.185317
96.750806
99.241985
97.795545
101.08991
-8.3632207
5.797898
55.478072
82.733916
93.429518
95.786592
98.249956
97.759064
100.18623
-8.5739333
-1.0370623
49.644947
77.629055
91.067498
94.607404
97.16894
97.598648
99.419657
-10.017144
-7.6152529
43.309781
72.336614
88.142878
93.086516
95.871333
97.154855
98.72395
-12.523771
-13.658021
36.786358
66.807287
84.722675
91.122708
94.410444
96.382706
98.126399
-13.102221
-19.031562
30.534261
61.366023
80.947952
88.792177
92.840627
95.146873
97.350538
-13.652301
-23.440463
24.677799
56.771506
77.270684
86.377812
91.135061
93.72182
96.395078
89.964134
86.763321
83.212609
78.422774
67.254089
51.216063
22.573036
-21.129186
-14.516214
90.744914
87.496374
83.900233
79.068744
67.629807
50.863504
21.049749
-22.521302
-15.318217
91.504015
88.265534
84.671099
79.845647
68.334973
50.884704
20.062091
-23.452902
-15.949681
92.234449
89.039755
85.489747
80.663263
69.215659
51.070073
19.423381
-24.021886
-17.192821
92.917506
89.804424
86.327471
81.500265
70.226068
51.379246
18.989178
-24.838634
-18.714968
93.563573
90.5537
87.156755
82.309703
71.296409
51.797171
18.824016
-24.978896
-19.126861
94.175125
91.278678
87.977646
83.126512
72.406158
52.39611
18.984228
-25.51301
-18.593764
94.728359
91.981797
88.832235
83.955931
73.567116
53.135731
19.448233
-25.344466
-17.027129
95.376091
92.637956
89.694904
84.814312
74.829776
54.111907
20.021512
-25.714701
-14.420797
-13.452647
-18.204386
25.369879
52.19808
67.268121
77.925806
82.570372
86.064804
89.187785
-11.86016
-15.829592
29.809708
53.641893
67.53458
77.534338
81.995473
85.382068
88.385553
-11.389788
-16.758236
34.827435
55.327376
67.980183
77.250116
81.501073
84.76273
87.600488
-4.6626279
-8.0975892
40.103886
57.159102
68.617343
77.098989
81.10681
84.19019
86.830631
10.952184
2.985316
44.862192
59.067161
69.38198
77.061962
80.826037
83.722772
86.108113
1.8128208
13.935063
48.891946
61.13019
70.338283
77.21148
80.708248
83.350251
85.417563
-12.035972
24.550483
53.198537
63.392479
71.450186
77.542051
80.729708
83.085629
84.820769
-6.5524157
35.267398
58.35113
65.646297
72.549008
77.892511
80.80376
82.882614
84.313368
4.6823826
43.613736
61.916738
67.260932
73.298841
78.0336
80.884926
82.704116
83.993371
87.929158
88.374917
87.755864
85.894353
84.312317
81.984881
80.986468
84.253014
100.90636
86.657371
86.937905
86.161319
84.023523
81.950149
78.90838
76.52354
77.630361
94.358792
85.594785
85.685151
84.779595
82.372411
79.858132
76.09904
72.362775
70.696334
87.050679
84.771169
84.647509
83.618603
80.96214
78.051732
73.6705
68.680352
63.888119
78.695816
84.113051
83.838341
82.678605
79.825213
76.577467
71.655427
65.5799
57.299553
69.31814
83.77336
83.244988
81.959704
78.957114
75.439399
70.118063
63.230833
51.4801
58.428348
83.587576
82.848572
81.456223
78.353083
74.580229
69.048458
61.784567
46.869167
45.659614
83.595254
82.638431
81.139917
78.035167
74.002623
68.39013
61.368891
44.230723
30.885583
83.765469
82.590881
80.964749
77.968157
73.647858
67.946026
61.823665
44.085969
17.54028
106.08542
90.053243
85.361545
85.157217
86.832109
87.922487
89.504798
89.959516
89.381148
110.55546
95.171072
89.546648
88.339977
89.415956
90.049191
91.382211
91.678448
91.017865
114.60757
100.0203
93.758565
91.583164
92.110063
92.266112
93.387603
93.517891
92.799822
118.48871
104.57067
97.808808
94.813962
94.870823
94.551119
95.459824
95.440423
94.720178
122.10747
108.82114
101.73745
98.039565
97.657022
96.902656
97.608981
97.431324
96.733432
125.60394
112.84109
105.50834
101.19719
100.43409
99.25794
99.806893
99.460742
98.834424
128.8826
116.62309
109.14821
104.25664
103.18798
101.61623
102.02808
101.5241
100.97482
132.0998
120.12929
112.59348
107.22548
105.86289
103.92792
104.23334
103.58135
103.15374
135.14802
123.43588
115.83928
110.05055
108.48391
106.1906
106.4182
105.61844
105.31588
121.90519
121.05487
122.86241
122.46226
126.45556
128.89161
136.60478
144.5785
160.61442
120.55461
119.70412
121.38383
121.12115
125.07232
127.5425
135.2652
143.199
157.22145
119.07824
118.26277
119.82073
119.63522
123.49975
125.85251
133.46269
141.26721
154.46418
117.35885
116.69822
118.17037
118.02275
121.73506
124.0167
131.4837
139.25104
152.07909
115.47506
115.03172
116.42114
116.2947
119.84146
122.03927
129.29877
137.03289
149.53547
113.50729
113.2831
114.57023
114.45517
117.82235
119.92832
126.95643
134.66833
146.81368
111.52419
111.46511
112.65057
112.52046
115.66457
117.70409
124.50141
132.16221
144.04685
109.50019
109.57023
110.6438
110.5106
113.38018
115.31358
121.83782
129.48292
141.09697
107.43754
107.61378
108.54809
108.38543
110.99402
112.73803
118.91337
126.5567
138.14155
123.28962
124.64972
125.93826
127.14962
128.28564
129.34732
130.33765
131.26723
132.13899
122.31228
123.50004
124.62848
125.68914
126.68393
127.63031
128.52166
129.34976
130.1157
124.21274
125.47634
126.65693
127.75591
128.78993
129.76124
130.66261
131.51063
132.29878
123.6888
124.81879
125.85897
126.81435
127.6944
128.5062
129.25789
129.95638
130.61293
127.62664
128.6266
129.56357
130.40685
131.19883
131.92209
132.57493
133.18638
133.75546
130.01826
130.8931
131.62856
132.25987
132.78714
133.23467
133.63513
133.97239
134.28008
137.46043
138.06128
138.51243
138.84953
139.05636
139.21204
139.29508
139.33047
139.33285
144.99501
145.16763
145.07681
144.86415
144.52935
144.11946
143.6308
143.14976
142.64026
160.72091
160.2248
159.28503
158.25778
157.0936
155.87903
154.64443
153.37383
152.13865
132.95466
130.8444
133.02944
131.23996
134.26689
134.55185
139.30337
142.11923
150.97844
133.72483
131.53367
133.71605
131.82247
134.74351
134.81721
139.26739
141.59259
149.82694
134.45114
132.17546
134.34271
132.38341
135.18062
135.0708
139.21605
141.08516
148.72056
135.13577
132.77951
134.92206
132.92442
135.57404
135.32021
139.16962
140.61334
147.63835
135.77782
133.35804
135.45509
133.44696
135.95426
135.57348
139.12305
140.17573
146.5812
136.371
133.90375
135.93271
133.95935
136.31078
135.84463
139.09079
139.78467
145.54533
136.91037
134.42061
136.3654
134.46285
136.64472
136.11778
139.07679
139.42724
144.58669
137.39004
134.92404
136.74366
134.95181
136.96399
136.39709
139.07977
139.10911
143.67182
137.79637
135.42302
137.07958
135.42963
137.27106
136.695
139.10801
138.83134
142.74822
139.73818
138.98408
139.39441
138.68283
139.67097
139.42531
140.66785
139.74173
138.43708
139.60518
138.73103
139.1776
138.4271
139.45241
139.12125
140.41952
139.34781
138.02503
139.45091
138.44528
138.93685
138.14134
139.21936
138.8315
140.17096
139.02652
137.87819
139.26847
138.11626
138.69546
137.82125
138.96016
138.54908
139.93873
138.76782
138.0928
139.05492
137.73078
138.45238
137.48805
138.69162
138.24221
139.73787
138.57434
138.6002
138.8425
137.31162
138.19717
137.13186
138.4232
137.9167
139.55828
138.4788
139.30316
138.60914
136.88567
137.93767
136.7438
138.1417
137.6074
139.40321
138.45572
140.10645
138.3827
136.39827
137.66696
136.3273
137.85068
137.30007
139.27517
138.49688
140.96613
138.12012
135.91354
137.38898
135.88898
137.56293
136.9953
139.17511
138.62159
141.85293
138.87778
140.20094
140.94972
139.7275
139.89459
138.93431
139.58525
139.19152
139.87746
139.52093
140.73237
141.26191
140.01972
140.10351
139.17763
139.76641
139.38302
140.00204
140.21481
141.29763
141.5528
140.30479
140.29487
139.39344
139.93494
139.56211
140.10827
140.96753
141.87206
141.82203
140.55434
140.47551
139.59174
140.08548
139.70106
140.21112
141.74435
142.4224
142.07761
140.76586
140.62566
139.77083
140.23563
139.8137
140.30599
142.53104
142.94883
142.29397
140.95408
140.75334
139.91729
140.38716
139.90948
140.39661
143.32838
143.45488
142.46379
141.12155
140.86823
140.04943
140.51327
139.98505
140.49165
144.14624
143.94098
142.61752
141.27463
140.97668
140.19306
140.59519
140.06513
140.58625
144.97822
144.42332
142.81128
141.45657
141.09726
140.34946
140.65033
140.16008
140.63596
145.90622
144.95636
143.12155
141.75982
141.29111
140.57067
140.70045
140.29747
140.57252
146.96773
145.52709
143.48675
142.12218
141.52883
140.86838
140.82022
140.50348
140.54284
148.0177
146.0595
143.84461
142.46498
141.76897
141.15688
140.96288
140.69675
140.58431
149.03372
146.55011
144.20196
142.80012
142.02226
141.44279
141.13699
140.8857
140.6822
150.02023
146.98476
144.53143
143.11678
142.2835
141.71777
141.34752
141.07117
140.8171
150.87807
147.34567
144.81667
143.4145
142.54713
141.97922
141.5784
141.26541
140.98098
151.46328
147.60334
145.04004
143.68237
142.80527
142.23022
141.81538
141.47711
141.16968
151.59629
147.75681
145.21897
143.92494
143.05417
142.47776
142.05573
141.70107
141.37932
151.14884
147.78632
145.37201
144.14749
143.29341
142.71647
142.29275
141.93102
141.60705
143.25791
143.35412
143.54612
143.83988
144.22692
144.79504
145.4509
146.69277
147.00997
143.20508
143.31618
143.52572
143.82646
144.25174
144.84743
145.63198
146.8643
147.70884
143.10365
143.23912
143.46573
143.78806
144.22991
144.86389
145.686
147.00754
147.94432
142.95955
143.12274
143.37413
143.71518
144.17717
144.8514
145.71694
147.14669
148.30749
142.77767
142.97437
143.25268
143.60858
144.0982
144.80202
145.72733
147.28533
148.74193
142.56763
142.79864
143.09992
143.47225
143.98916
144.72495
145.71602
147.41729
149.16821
142.33638
142.59905
142.92348
143.31182
143.84999
144.61966
145.6766
147.54172
149.62246
142.09405
142.38444
142.72766
143.13127
143.68614
144.48521
145.59606
147.6406
150.07653
141.84842
142.1594
142.51739
142.93408
143.50149
144.33104
145.49416
147.71242
150.54347
149.87223
150.57934
151.29133
152.12845
153.08968
154.11854
155.21351
156.34141
157.4179
150.57934
151.23577
151.97759
152.84488
153.82057
154.85275
155.93056
157.03806
158.08972
151.29131
151.97758
152.7565
153.64311
154.61643
155.63677
156.69617
157.78635
158.84904
152.12845
152.84489
153.64311
154.52222
155.47649
156.47666
157.51855
158.61015
159.71864
153.08967
153.82058
154.61644
155.4765
156.39599
157.37575
158.40456
159.51193
160.69743
154.11856
154.85276
155.6368
156.4767
157.37576
158.34474
159.38348
160.53108
161.78413
155.21357
155.93062
156.69628
157.51867
158.40458
159.38347
160.44356
161.66185
163.03265
156.34146
157.03814
157.78641
158.61017
159.51194
160.53107
161.66182
162.90906
164.28651
157.418
158.08981
158.84912
159.7187
160.69746
161.78411
163.03257
164.28645
166.04812
170.3117
166.99796
165.80808
163.98141
162.64155
161.36825
160.29715
159.36275
158.59961
160.4012
161.43231
161.39343
161.33052
160.99426
160.49257
159.92556
159.26505
158.57761
156.76627
157.31052
157.43631
157.66652
157.69087
157.63617
157.5151
157.28334
156.92107
154.37979
154.69604
154.67253
154.85481
154.86662
154.89593
154.86865
154.83406
154.67558
152.5697
152.75777
152.74198
152.82468
152.80549
152.80534
152.77545
152.7689
152.69769
150.9667
151.09168
151.03644
151.12124
151.05867
151.08144
151.01138
150.99483
150.92586
149.4983
149.53944
149.50173
149.52473
149.48084
149.46704
149.42167
149.39241
149.34056
148.10962
148.10728
148.03785
148.0583
147.97938
147.97955
147.90626
147.8794
147.81208
146.78361
146.70989
146.63856
146.5804
146.50451
146.43984
146.37959
146.32354
146.26163
144.83504
143.4558
141.93678
140.17198
138.17202
135.54597
132.41518
128.59002
125.78342
144.92126
143.52838
141.98501
140.18986
138.1024
135.47694
132.20252
128.51163
125.00806
144.9416
143.54828
141.96439
140.14597
137.96806
135.32263
131.931
128.15834
124.09631
145.02638
143.59496
142.02958
140.13447
137.96141
135.1836
131.73739
127.62451
123.10125
145.04997
143.65115
142.03208
140.1703
137.90835
135.12658
131.52465
127.15209
122.13504
145.15251
143.71675
142.10925
140.20452
137.92811
135.08655
131.42581
126.6542
121.25445
145.18986
143.79396
142.1626
140.30535
137.96834
135.17424
131.38355
126.45944
120.41505
145.27453
143.85156
142.23106
140.33166
138.03784
135.15542
131.40726
126.22119
121.6841
145.39376
143.98955
142.37871
140.53506
138.22188
135.48837
131.5981
126.5467
119.22172
126.45357
129.08077
132.24137
134.46006
135.99305
137.43978
138.79991
140.04279
141.24007
125.2693
128.21315
131.8504
134.21954
135.81138
137.32725
138.75961
140.06806
141.30743
123.86353
127.44123
131.54022
133.97071
135.58548
137.14719
138.62282
139.97129
141.24398
122.00048
126.60594
131.29661
133.81463
135.52005
137.14677
138.66799
140.04492
141.33824
119.6764
125.52083
130.77095
133.34564
135.14487
136.87819
138.48199
139.91649
141.23704
116.9301
125.41151
130.98855
133.43499
135.27954
137.01557
138.60788
140.02621
141.35256
111.31249
123.64098
130.31267
132.80383
134.84158
136.73359
138.42627
139.89658
141.24418
107.3951
124.15992
130.80804
133.02749
135.03509
136.89292
138.55074
139.99378
141.33732
96.445541
122.59362
130.38644
132.66516
134.80412
136.76371
138.46847
139.92645
141.284
142.4644
143.73279
145.08466
146.42351
147.75866
149.15317
150.57119
152.05143
153.67419
142.53913
143.80164
145.13608
146.48302
147.81565
149.21735
150.645
152.16497
153.83089
142.50683
143.79308
145.12726
146.47722
147.83341
149.26227
150.72
152.2781
153.95998
142.59592
143.88003
145.20867
146.56023
147.9086
149.33464
150.80044
152.39508
154.10079
142.52987
143.83299
145.16482
146.51854
147.89227
149.3439
150.83984
152.458
154.20487
142.62622
143.92025
145.24224
146.59936
147.96566
149.42409
150.916
152.54989
154.30708
142.54609
143.86046
145.18836
146.54851
147.93641
149.40613
150.9213
152.57691
154.35918
142.62181
143.92965
145.25001
146.60868
147.99234
149.4661
150.97956
152.64319
154.4169
142.57788
143.89462
145.21833
146.58321
147.9713
149.44498
150.97433
152.63443
154.41241
155.57607
157.66103
159.60633
161.81436
164.06119
166.35219
168.55625
170.74607
171.19025
155.73314
157.82335
159.85133
162.07623
164.35424
166.69599
168.98325
171.30483
172.075
155.88279
157.97904
160.06099
162.30271
164.63714
167.03859
169.41112
171.86609
173.04393
156.03586
158.13496
160.24099
162.48576
164.87043
167.33079
169.82153
172.40187
174.0282
156.13644
158.22691
160.37411
162.637
165.06642
167.57987
170.1904
172.88867
174.98693
156.24209
158.3147
160.47997
162.75552
165.21919
167.7833
170.51615
173.32849
175.93108
156.2905
158.36749
160.55152
162.84271
165.34591
167.93861
170.7939
173.73269
176.84573
156.35317
158.41586
160.61416
162.90763
165.44169
168.0457
171.01429
174.02109
177.76353
156.34937
158.4162
160.62064
162.93007
165.46833
168.10214
171.11035
174.20956
177.95454
175.23874
168.11622
165.01286
161.64615
158.16228
154.79275
151.42546
148.12637
144.83532
176.25001
168.93604
165.766
162.29895
158.74784
155.31837
151.89793
148.57008
145.25866
176.82233
169.58271
166.42962
162.92303
159.34012
155.86363
152.40372
149.06182
145.72644
177.52532
170.14313
167.00472
163.45103
159.85641
156.33617
152.81892
149.48971
146.11092
178.31135
170.84738
167.64568
164.04036
160.43689
156.90193
153.38367
150.02798
146.64733
179.03448
171.30453
168.111
164.47003
160.88209
157.30045
153.72792
150.39252
146.93619
180.12557
172.18876
168.75844
165.11306
161.47856
157.89536
154.3229
150.96122
147.53674
180.65478
172.35702
169.01026
165.32018
161.70158
158.09287
154.48075
151.14474
147.66231
182.85805
173.74758
169.89348
166.15905
162.51487
158.8938
155.25987
151.90062
148.41698
141.48789
138.19438
134.72036
131.3488
127.74886
124.18687
120.35732
116.51868
112.40231
141.91339
138.59979
135.13708
131.7292
128.16207
124.55804
120.77581
116.88395
112.81111
142.38767
139.05819
135.60849
132.19373
128.63911
125.03758
121.27801
117.40332
113.35736
142.80669
139.42831
136.01985
132.53668
129.05205
125.38899
121.71435
117.77026
113.80069
143.33275
139.96602
136.53915
133.08425
129.57493
125.94837
122.242
118.37267
114.35121
143.67056
140.21968
136.8698
133.30162
129.89839
126.18005
122.59801
118.61352
114.72674
144.2421
140.8486
137.47103
133.97493
130.52225
126.87168
123.23757
119.36183
115.38588
144.42702
140.9552
137.62998
134.05198
130.67893
126.95805
123.4149
119.45261
115.59513
145.16371
141.71548
138.39108
134.832
131.45501
127.76711
124.22507
120.32386
116.42781
107.72743
102.17073
96.2168
89.83371
82.803264
75.680218
68.232637
60.130583
46.035783
108.12346
102.78286
96.885192
90.748286
83.799495
77.196267
69.816238
62.78608
50.268723
108.74851
103.56972
97.853293
91.897971
85.187207
78.690042
71.551351
63.988559
54.588331
109.21819
104.26683
98.641669
92.963208
86.367567
80.01304
73.520031
66.877193
59.555273
109.88743
105.00463
99.639053
94.015243
87.752086
81.29338
75.550828
68.102698
68.103788
110.24352
105.65738
100.3314
95.00802
88.764188
82.466594
76.104266
72.827735
71.472349
111.08658
106.47388
101.59666
96.266322
90.539598
84.114233
78.461348
69.152548
98.425689
111.25522
106.89669
101.97318
96.933157
91.137187
84.857798
77.539411
72.057894
84.11258
112.27125
108.04043
103.57723
98.730769
93.633397
87.639837
83.496841
59.25082
134.7162
14.80851
-5.962605
-13.339815
-11.667339
-13.328255
-17.842225
-9.0733357
-0.6877388
6.1439646
16.049479
-6.8739938
-12.389058
-10.194563
-12.067581
-14.169755
-7.7884719
0.19270953
6.585347
16.377731
-8.613091
-10.695655
-9.9727469
-12.759117
-15.063584
-6.573566
1.1040208
7.421356
14.459944
-11.418803
-9.6853372
-10.092932
-12.043123
-12.248907
-5.4174312
2.0684261
8.5609509
9.4680584
-14.149754
-6.0235956
-9.9083579
-12.428921
-11.883497
-4.3020626
3.0860292
9.7161102
5.5156422
-10.957126
-4.4824394
-10.819477
-11.682963
-9.9936086
-2.931245
4.0733447
10.807862
10.556829
0.042243221
-6.6771219
-10.384236
-11.412161
-8.9616949
-1.5674665
4.9775363
11.827826
12.793832
-13.284032
-6.0288114
-11.504604
-11.170962
-7.865799
-0.55545469
5.6714577
12.501724
-92.375801
12.284851
-11.136923
-10.891812
-10.089555
-6.2352084
0.85507708
6.4844246
13.064217
11.643937
13.295273
12.137965
7.7147877
-2.9007525
-7.535155
-9.3872212
-14.844933
-2.570881
12.619963
14.625375
13.363963
8.3649253
-4.1771669
-9.2035251
-10.127214
-14.638115
-1.4938652
13.440855
15.571901
13.898202
7.1252232
-7.2680138
-12.606231
-12.333171
-13.662964
0.2068303
14.463015
16.634598
14.483871
6.4690257
-7.9027014
-13.351597
-11.773911
-11.178876
2.1933481
15.628871
17.740293
15.28629
6.3016668
-8.3518828
-14.18238
-11.170211
-7.8385894
3.9953836
16.691867
18.855196
16.101863
6.3893419
-8.2268687
-13.720043
-9.4365952
-4.0783809
5.4571579
17.590476
19.769866
16.673243
6.6359745
-7.6244241
-12.896087
-6.9036561
-0.35678885
7.147721
18.200467
20.335511
16.932836
7.0489738
-7.53937
-11.66243
-4.9878935
1.5191107
7.5977888
18.56666
20.564659
16.53332
5.8798511
-9.0166238
-10.250332
-2.1975237
4.6963924
9.2189298
-5.1913572
-2.2118163
-2.2399982
-7.3004121
-4.4498252
-1.3883607
0.69381655
3.0123295
4.6011443
-4.2171814
-2.6347257
-2.7879325
-7.1993139
-4.7344434
-1.7922426
0.88036512
4.0744259
7.8808937
-2.7044992
-2.4782157
-1.1933093
-6.3297765
-5.4561925
-2.5652582
0.44904807
4.0904315
10.208969
-0.77563494
-2.7731208
-1.5761978