/*--------------------------------*- C++ -*----------------------------------*\
  =========                 |
  \\      /  F ield         | OpenFOAM: The Open Source CFD Toolbox
   \\    /   O peration     | Website:  https://openfoam.org
    \\  /    A nd           | Version:  11
     \\/     M anipulation  |
\*---------------------------------------------------------------------------*/
FoamFile
{
    format      ascii;
    class       volVectorField;
    location    "1";
    object      U;
}
// * * * * * * * * * * * * * * * * * * * * * * * * * * * * * * * * * * * * * //

dimensions      [0 1 -1 0 0 0 0];

internalField   nonuniform List<vector> 
4455
(
(99.983132 0.031932063 0)
(99.8835 0.031644842 -1.047105e-18)
(99.695605 0.12242358 3.6074403e-18)
(99.403991 0.070497534 2.6089021e-20)
(98.927872 0.2320334 3.4390171e-18)
(98.402258 0.15133317 -1.3036368e-17)
(97.556278 0.44909415 5.8110494e-18)
(96.58103 0.24390921 0)
(95.008106 0.9263469 -3.6305501e-17)
(100.00391 0.080014086 -6.8004653e-18)
(99.893162 0.12344945 6.6446438e-18)
(99.692995 0.270473 -8.2084437e-18)
(99.391805 0.23593464 1.3757976e-17)
(98.883716 0.39963939 -2.654513e-17)
(98.345527 0.28993158 2.9179852e-17)
(97.394991 0.43334344 -2.8304352e-18)
(96.432717 0.18265095 4.1307415e-18)
(94.535119 0.0013071791 1.5820013e-16)
(100.01697 0.10590681 -7.089812e-18)
(99.92737 0.23091561 8.996752e-18)
(99.688886 0.39727139 8.0359506e-18)
(99.402487 0.44983929 -8.0241749e-18)
(98.852409 0.59014252 3.5407278e-17)
(98.317316 0.58464248 -2.0155648e-17)
(97.339993 0.70440159 2.5739129e-18)
(96.276888 0.25890573 -5.8869501e-17)
(94.40553 0.56266994 -1.1214958e-16)
(100.01949 0.13278801 6.0268344e-20)
(99.953058 0.31853781 -1.0401921e-18)
(99.70059 0.54164772 1.9003094e-17)
(99.410032 0.61972444 2.6255263e-18)
(98.880958 0.85107925 3.9124314e-21)
(98.272076 0.79287136 -3.8498031e-18)
(97.278021 1.1852795 4.3375868e-17)
(96.05053 0.51706203 1.1781566e-16)
(94.013919 1.3052807 9.4050866e-17)
(100.04114 0.17479082 1.3703151e-17)
(99.966921 0.37425392 -1.5387193e-17)
(99.72846 0.68662503 1.9591559e-17)
(99.417567 0.77234461 2.9412464e-20)
(98.916649 1.106057 -2.4209814e-17)
(98.268312 1.0230566 -7.5030083e-18)
(97.214253 1.4414575 -3.4197983e-17)
(95.901461 0.72933809 -5.5467525e-17)
(93.673486 1.5920411 -2.7853115e-16)
(100.04729 0.19476721 0)
(99.99601 0.44003079 0)
(99.760364 0.80477171 -3.4209929e-17)
(99.445507 0.92867593 -3.9495816e-17)
(98.973927 1.3338271 0)
(98.303386 1.3395244 -5.4102398e-17)
(97.155481 1.8647518 -4.6212796e-18)
(95.64675 1.0855494 -3.3666485e-18)
(93.110617 2.1881859 3.4529023e-16)
(100.07851 0.21992498 0)
(99.993321 0.4701943 -9.2096456e-19)
(99.813005 0.92393501 1.0366203e-18)
(99.480398 1.0594479 3.8603205e-17)
(99.024829 1.518489 -2.8795874e-18)
(98.346094 1.5385043 1.1515581e-16)
(97.191934 2.139041 0)
(95.514898 1.3450053 0)
(92.720027 2.7263383 1.6061557e-16)
(100.09448 0.2340117 2.5513158e-17)
(100.02025 0.503318 0)
(99.836394 0.9990424 0)
(99.559552 1.2256993 0)
(99.112202 1.749936 0)
(98.398166 1.8582838 -5.7471376e-17)
(97.147277 2.561156 -6.2346055e-17)
(95.329353 1.7541903 9.2244583e-17)
(92.113902 3.438489 2.7235447e-18)
(100.11711 0.2386983 -2.5123139e-17)
(100.03728 0.52238987 -8.7982755e-19)
(99.878572 1.0469101 -1.0080508e-18)
(99.592752 1.2913418 2.2678064e-18)
(99.221201 1.8839742 8.8379947e-17)
(98.507752 2.0275365 1.0082779e-16)
(97.255882 2.8634118 1.9836107e-16)
(95.171939 2.1060338 -9.0518603e-17)
(91.691835 4.064888 -2.7656104e-16)
(100.12442 0.23855347 0)
(100.13512 0.22885065 4.6069948e-17)
(100.13329 0.21423983 -4.5704469e-17)
(100.13054 0.1917643 4.3491038e-17)
(100.12596 0.16702934 -4.2513631e-17)
(100.11212 0.13725082 8.4442822e-17)
(100.09618 0.10563139 -8.1977053e-17)
(100.07944 0.072199818 0)
(100.03691 0.029282756 0)
(100.07067 0.54100154 0)
(100.0863 0.54135303 8.0228034e-19)
(100.1163 0.53510335 0)
(100.12739 0.51425377 2.2726311e-18)
(100.1455 0.48410491 4.6087711e-17)
(100.16464 0.44657131 -1.3737399e-16)
(100.1604 0.39429777 8.8842553e-17)
(100.18747 0.34634606 -1.3502466e-18)
(100.14687 0.23500506 8.5109529e-17)
(99.928413 1.1187327 5.8905381e-17)
(99.985181 1.1578694 -1.1584852e-16)
(100.03914 1.1747561 1.1015477e-16)
(100.1093 1.1713893 -3.6653494e-18)
(100.14447 1.1414313 -5.1657621e-17)
(100.22817 1.1103841 -1.5660864e-18)
(100.24599 1.0348394 0)
(100.34265 0.98486438 2.9264384e-18)
(100.34036 0.81497425 -1.4157068e-18)
(99.680709 1.4250727 6.1905316e-17)
(99.765131 1.5269667 -1.2557559e-16)
(99.84945 1.5943414 1.1894195e-16)
(99.972768 1.6516048 -5.7528929e-17)
(100.04405 1.655004 -3.5923493e-18)
(100.18454 1.6771533 1.7118117e-18)
(100.24684 1.6227761 0)
(100.40741 1.6081893 -1.5961567e-18)
(100.42664 1.442468 9.5774258e-17)
(99.292505 2.0887295 -7.0988393e-17)
(99.473692 2.2964825 0)
(99.550802 2.4392486 -6.4844941e-17)
(99.7601 2.5931427 6.6853439e-17)
(99.850852 2.6625996 -5.9802785e-17)
(100.07028 2.7708285 6.1789035e-17)
(100.17517 2.7698507 0)
(100.41244 2.8462065 0)
(100.49866 2.701986 3.4118983e-18)
(98.571853 2.3104325 -8.7946499e-17)
(98.749861 2.637555 -8.3501667e-17)
(98.849947 2.8632442 8.0270259e-17)
(99.056065 3.1619178 7.6258234e-17)
(99.202251 3.3057481 -7.3519408e-17)
(99.434178 3.5761314 0)
(99.619048 3.6224055 1.339174e-16)
(99.872397 3.8667409 -1.0720537e-18)
(100.03432 3.7605016 -2.4773523e-16)
(97.239429 3.2384295 -1.0504283e-16)
(97.440013 3.8347211 0)
(97.53811 4.1096103 0)
(97.817688 4.632402 2.9086363e-18)
(98.022326 4.8231273 0)
(98.364575 5.3464478 0)
(98.660302 5.466647 0)
(99.051449 5.9819249 0)
(99.345453 5.9660232 0)
(95.066813 2.5834575 4.2818449e-18)
(94.883731 3.5410749 0)
(94.997215 4.1551856 3.8472397e-18)
(94.973978 5.1889092 -7.0052152e-18)
(95.375996 5.6774623 -1.0467199e-16)
(95.56262 6.5865006 -9.7988698e-17)
(96.105282 6.8984269 1.894132e-16)
(96.419304 7.6579576 1.8040174e-16)
(97.016668 7.8121524 -1.7071573e-16)
(90.818256 4.9348733 5.2639133e-16)
(90.36193 6.9479039 -3.2563692e-16)
(90.125928 8.2953002 3.0184014e-16)
(90.736553 10.321158 -2.8711959e-16)
(91.282813 11.391019 -3.9891861e-16)
(92.396807 12.952065 7.4026152e-16)
(93.129685 13.653331 -4.6538455e-16)
(94.360872 14.837339 -2.1470395e-16)
(95.094715 15.248219 2.0198995e-16)
(100.0549 0.046161505 -1.1176576e-19)
(100.08393 0.064930094 1.1458419e-16)
(100.12917 0.090165156 -1.4074019e-19)
(100.1889 0.11845776 -1.1532626e-16)
(100.26194 0.14808005 1.1246581e-19)
(100.35017 0.17854926 1.1552744e-16)
(100.45423 0.21033277 -1.1608993e-16)
(100.57597 0.2428048 -1.1260287e-19)
(100.72742 0.28524017 -5.7955658e-17)
(100.21152 0.26415607 -1.2215546e-16)
(100.25442 0.35751612 1.2268261e-16)
(100.36483 0.36705805 -1.2273809e-16)
(100.4397 0.49063551 0)
(100.59141 0.48716019 1.2300237e-16)
(100.69946 0.63699256 -2.6337631e-19)
(100.88862 0.61699535 -2.0679652e-19)
(101.0322 0.78988387 -1.2298014e-16)
(101.2647 0.74926833 6.1378612e-17)
(100.47514 0.88854653 1.3011953e-16)
(100.51627 1.0628692 -1.3064806e-16)
(100.68481 1.1112515 -1.3096128e-16)
(100.73908 1.2967686 1.3125998e-16)
(100.93085 1.3427755 -1.3165376e-16)
(101.00455 1.5542463 1.3120185e-16)
(101.2335 1.5991189 -1.3163883e-16)
(101.33227 1.8471494 4.2434665e-19)
(101.60601 1.8849347 1.313501e-16)
(100.61339 1.5627743 -1.4004906e-16)
(100.64249 1.8044285 -5.4820187e-19)
(100.84749 1.8999181 5.5312485e-19)
(100.8744 2.1423217 0)
(101.09789 2.23571 -4.0132833e-21)
(101.14639 2.5094256 -1.4037517e-16)
(101.41128 2.6021792 1.4269726e-16)
(101.48959 2.9206145 5.5405972e-19)
(101.80637 3.0026266 5.5341105e-19)
(100.74148 2.8854236 -5.9279689e-19)
(100.76009 3.2050279 -1.5265611e-16)
(100.99208 3.3546003 -8.4233758e-20)
(100.98595 3.6485625 1.5365612e-16)
(101.2316 3.7905956 1.538581e-16)
(101.25266 4.1186283 -1.5462836e-16)
(101.54591 4.2585119 -5.9767992e-19)
(101.60105 4.6359754 -5.9741072e-19)
(101.95393 4.7625323 -5.9695919e-19)
(100.33411 4.0102679 1.6888002e-16)
(100.32681 4.4139173 0)
(100.60333 4.6198425 0)
(100.56892 4.9931374 1.6832899e-16)
(100.86576 5.1855721 -1.7058024e-16)
(100.86764 5.5961111 -1.698598e-16)
(101.21665 5.7805162 3.39243e-16)
(101.25827 6.2368366 -1.0977966e-18)
(101.66587 6.3995799 -3.3869878e-16)
(99.717248 6.4092165 -7.567835e-19)
(99.770516 6.887909 0)
(100.03626 7.1838769 7.5375289e-19)
(100.06162 7.5706193 1.9006982e-16)
(100.35706 7.8304703 -1.9124122e-16)
(100.44179 8.1981853 1.9009295e-16)
(100.79277 8.4421529 -1.9050956e-16)
(100.93063 8.7872675 -7.4145935e-19)
(101.31551 9.0040076 1.8863305e-16)
(97.395142 8.3813732 -2.1589811e-16)
(97.868912 8.9933809 2.1874096e-16)
(98.234008 9.4001654 -2.161262e-16)
(98.738355 9.9090191 2.1503279e-16)
(99.138978 10.220827 -2.1039651e-16)
(99.680056 10.640311 1.9179455e-18)
(100.10269 10.860875 2.113242e-16)
(100.64293 11.179945 1.6184077e-18)
(101.03416 11.290489 1.0280263e-16)
(96.199199 16.003498 0)
(96.717873 16.629889 -2.3966247e-16)
(97.718912 17.085116 4.8738272e-18)
(98.254996 17.449172 5.7011803e-18)
(99.272205 17.589651 4.6382073e-16)
(99.839014 17.573659 -2.3035472e-16)
(100.90934 17.205683 -2.2394941e-16)
(101.53249 16.573059 2.2491852e-16)
(102.64439 15.420248 1.107371e-16)
(103.06613 14.210745 -1.291927e-16)
(103.40912 12.837097 0)
(103.56673 12.081848 1.2721019e-16)
(103.39512 11.169126 -1.2723672e-16)
(103.0283 10.691724 0)
(102.34875 9.8473535 0)
(101.63628 9.4336191 0)
(100.74447 8.7242762 -1.3932994e-16)
(99.908222 8.5027644 1.3933094e-16)
(101.47679 11.482599 -1.1710002e-16)
(101.74712 11.603295 0)
(102.079 11.668974 0)
(102.26089 11.692827 0)
(102.4256 11.674014 0)
(102.4562 11.691042 0)
(102.41483 11.698192 0)
(102.32705 11.760798 1.1340079e-16)
(102.09721 11.805152 -2.2814601e-16)
(101.46593 9.2981669 -1.4840974e-18)
(101.81865 9.5771331 -2.0594703e-16)
(101.94376 9.8185102 0)
(102.27462 10.069308 -1.0093637e-16)
(102.35501 10.294276 1.0093627e-16)
(102.64129 10.513473 0)
(102.65642 10.724589 0)
(102.88749 10.945429 0)
(102.82116 11.170086 0)
(101.70127 6.858051 1.8168154e-16)
(102.12775 7.0912393 0)
(102.16749 7.5367704 8.8969187e-17)
(102.59708 7.7612329 -1.7730671e-16)
(102.63627 8.2039161 8.8332747e-17)
(103.06674 8.4301533 0)
(103.09409 8.8782264 0)
(103.52676 9.1219861 0)
(103.52939 9.5848211 8.5217883e-17)
(102.01757 5.1771202 0)
(102.40845 5.3305219 1.5957021e-16)
(102.48401 5.7682709 -2.3878027e-16)
(102.90509 5.9208232 7.9205266e-17)
(102.99119 6.3764737 7.7961729e-17)
(103.43881 6.5343359 -6.5435985e-19)
(103.5293 7.0101936 -1.5393831e-16)
(104.00403 7.1815839 1.5256962e-16)
(104.09214 7.6828404 -7.5935499e-17)
(101.90195 3.3622015 0)
(102.26437 3.4598551 7.2187405e-17)
(102.38347 3.8529565 -7.2189642e-17)
(102.78871 3.9445471 0)
(102.93261 4.3683153 -1.4086004e-16)
(103.38068 4.45599 1.4086144e-16)
(103.54774 4.9127049 6.9064597e-17)
(104.04172 5.000168 -1.3738798e-16)
(104.22923 5.4940738 6.8321897e-17)
(101.72324 2.1707218 0)
(102.04055 2.215962 0)
(102.18233 2.5385933 0)
(102.54517 2.5792213 -6.5258675e-17)
(102.71434 2.9388586 1.2996177e-16)
(103.12489 2.9744032 -1.2881087e-16)
(103.32366 3.37363 6.4106893e-17)
(103.78725 3.4043692 -6.2783343e-17)
(104.01749 3.847902 1.2483331e-16)
(101.43644 0.94850609 -1.2411326e-16)
(101.71698 0.90186321 4.297666e-19)
(101.92407 1.1386912 6.1433429e-17)
(102.2491 1.0772803 -6.0464447e-17)
(102.49458 1.3453117 6.0464404e-17)
(102.86563 1.2648704 0)
(103.15166 1.5636085 5.870621e-17)
(103.57648 1.4635985 -1.1673425e-16)
(103.90719 1.8000655 5.802788e-17)
(100.82029 0.34137213 3.0124237e-19)
(101.05252 0.34890889 5.8400387e-17)
(101.20057 0.47441598 5.7739798e-17)
(101.5066 0.48259427 -5.7739804e-17)
(101.67745 0.60138569 0)
(102.02545 0.60824627 0)
(102.24095 0.72737701 -5.5961294e-17)
(102.64493 0.73786567 1.1136448e-16)
(102.91704 0.86720225 -5.540317e-17)
(103.38601 0.8883676 0)
(103.72798 1.0160769 -5.3388305e-17)
(104.26608 1.0479984 7.9552731e-19)
(104.6782 1.186884 8.6365618e-19)
(105.29232 1.2285729 9.3667164e-19)
(105.78629 1.3752953 5.0792446e-17)
(106.48823 1.4265481 4.8678984e-17)
(107.0729 1.5748141 -4.8678986e-17)
(107.87126 1.6463903 0)
(104.39368 1.6805759 0)
(104.77191 2.0615151 0)
(105.32745 1.9232764 -5.4770474e-17)
(105.75778 2.356254 9.6661812e-19)
(106.38954 2.1992165 1.0336368e-18)
(106.87377 2.6898065 5.2770202e-17)
(107.59037 2.5150615 5.0480645e-17)
(108.13546 3.0740048 -5.0480224e-17)
(108.95071 2.881275 0)
(104.54025 3.8751017 -6.2050652e-17)
(104.80335 4.3687121 0)
(105.39202 4.3944869 0)
(105.68942 4.9456838 -5.858641e-17)
(106.35089 4.9725404 1.1615739e-16)
(106.68532 5.5898096 -1.0830159e-18)
(107.42906 5.6193532 -1.1569108e-18)
(107.80551 6.3136144 -5.5329747e-17)
(108.6429 6.3468907 0)
(104.77266 5.5866398 -6.6713714e-17)
(104.97737 6.1237611 6.6712831e-17)
(105.57466 6.2279678 0)
(105.79398 6.8169681 0)
(106.45145 6.9396556 6.2955886e-17)
(106.68489 7.5923592 -6.2954876e-17)
(107.41203 7.7393943 6.0755151e-17)
(107.66252 8.4711556 -3.0976903e-17)
(108.4729 8.6463751 -2.9776528e-17)
(104.59588 7.8776784 -7.4488668e-17)
(104.67514 8.4130276 7.4486374e-17)
(105.21221 8.6423509 0)
(105.27748 9.2253051 0)
(105.85585 9.5000154 0)
(105.90447 10.149146 0)
(106.53688 10.478417 0)
(106.5698 11.215764 0)
(107.27371 11.605869 0)
(103.96529 9.8645567 -8.5217847e-17)
(103.93012 10.352191 8.4047008e-17)
(104.37074 10.689037 -8.4040748e-17)
(104.28747 11.21738 8.2929117e-17)
(104.73909 11.62623 -8.2919574e-17)
(104.6018 12.220427 0)
(105.08199 12.710713 0)
(104.89096 13.401359 0)
(105.42695 13.980894 0)
(102.99686 11.437477 0)
(102.84981 11.68125 -9.8792317e-17)
(102.9842 12.035508 9.8759672e-17)
(102.72987 12.335969 0)
(102.85634 12.799349 9.907226e-17)
(102.48627 13.190789 -9.9080829e-17)
(102.63746 13.787067 0)
(102.15053 14.304235 4.9878129e-17)
(102.35618 15.041206 -9.9869779e-17)
(101.92023 11.9616 1.1454864e-16)
(101.4784 12.130476 1.1648474e-16)
(101.23509 12.378254 -1.1650644e-16)
(100.61912 12.685711 1.190786e-16)
(100.32203 13.038945 -2.3966246e-16)
(99.545897 13.510299 2.4273548e-16)
(99.21079 13.986742 -2.4601275e-16)
(98.288375 14.651855 1.2384386e-16)
(97.93575 15.272871 0)
(98.916763 7.9935067 -1.460908e-16)
(98.004719 7.9687403 1.4609162e-16)
(96.935893 7.6376379 0)
(95.955813 7.7904946 0)
(94.806704 7.6269197 0)
(93.743588 7.964926 0)
(92.496621 7.9878867 0)
(91.332726 8.5461329 -8.6131307e-17)
(89.971474 8.7940341 8.6129935e-17)
(88.694668 9.6303382 9.0277812e-17)
(96.882651 16.168351 0)
(101.76561 15.737663 5.0003182e-17)
(105.18915 14.799675 0)
(107.29619 12.454714 0)
(108.74761 9.4752897 0)
(109.06897 7.1308531 2.5674734e-17)
(109.56385 3.5198093 2.3198304e-17)
(108.56257 1.8052425 2.240075e-17)
(87.211679 10.169434 -9.0275851e-17)
(96.540432 16.957613 0)
(102.04111 16.594829 0)
(105.81207 15.47243 3.9301986e-17)
(108.09254 12.908187 0)
(109.65852 9.6791402 -2.771934e-17)
(110.0128 7.1656378 -5.0587457e-17)
(110.48982 3.308078 -4.5614644e-17)
(109.47102 1.8916008 -4.404438e-17)
(85.819036 11.380018 0)
(95.379317 18.128852 0)
(101.38712 17.555602 5.0157035e-17)
(105.5419 16.451719 -3.9303132e-17)
(108.11488 13.891596 0)
(109.96936 10.624431 2.7719112e-17)
(110.49987 8.0513665 2.491296e-17)
(111.18037 4.0387544 2.241645e-17)
(110.28393 2.0612403 2.1643624e-17)
(84.217036 12.313843 9.6642535e-17)
(95.087568 19.110168 0)
(101.73813 18.522426 -1.0026395e-16)
(106.286 17.215387 0)
(109.02676 14.406169 0)
(111.00149 10.853434 -2.6073045e-17)
(111.56523 8.0828098 -2.3214203e-17)
(112.23448 3.805884 0)
(111.32437 2.1630985 -1.9933872e-17)
(82.730927 14.048615 -9.664251e-17)
(93.85594 20.611381 -6.7688074e-17)
(101.05795 19.779592 5.0105332e-17)
(106.00839 18.389282 0)
(109.06547 15.5465 0)
(111.36512 11.933894 2.6072987e-17)
(112.12727 9.0821696 2.3214244e-17)
(113.01558 4.6435759 0)
(112.2714 2.3384328 1.9933869e-17)
(81.049373 15.526818 0)
(93.675532 21.806148 6.768661e-17)
(101.51948 20.858634 -4.9726086e-17)
(106.89229 19.213452 0)
(110.11597 16.112201 0)
(112.54041 12.179934 -2.413891e-17)
(113.32761 9.101821 -2.1245106e-17)
(114.21878 4.3845297 0)
(113.45208 2.4631529 -1.7932616e-17)
(79.576086 18.012451 0)
(92.433843 23.702138 0)
(100.86602 22.451374 4.9726029e-17)
(106.68516 20.641981 -1.8146867e-17)
(110.19777 17.43251 -1.4370022e-17)
(112.97657 13.410146 3.5661202e-17)
(113.98308 10.224892 3.1317422e-17)
(115.07578 5.3188731 0)
(114.55093 2.6430371 2.634022e-17)
(78.007614 20.238807 0)
(92.465223 25.111202 -3.4296972e-17)
(101.48974 23.62703 0)
(107.70407 21.495731 1.8140001e-17)
(111.39812 18.020105 1.4363394e-17)
(114.31419 13.660409 -5.9455197e-19)
(115.32978 10.218776 -1.9544092e-17)
(116.48771 5.0770192 0)
(115.8729 2.7853709 -8.4076068e-18)
(76.864928 23.819339 -5.1725954e-17)
(91.311498 27.532222 3.4288697e-17)
(100.92967 25.697383 0)
(107.63618 23.291476 0)
(111.60904 19.661022 0)
(114.87384 15.129798 -2.1201385e-17)
(116.14447 11.531401 6.4749965e-19)
(117.3881 6.052792 0)
(117.11396 2.9527572 0)
(118.78445 3.1099236 0)
(119.01379 5.8777434 0)
(117.62329 11.365164 1.6993622e-19)
(116.30974 15.199576 1.0750924e-17)
(112.9627 20.025217 0)
(108.8539 23.972219 -2.3199202e-18)
(101.91268 26.744602 -6.7505746e-19)
(91.896253 29.018969 -2.8275776e-17)
(75.921284 26.875449 9.5880199e-17)
(120.37113 3.2245567 -2.9284715e-18)
(120.02119 6.6956644 -4.3060235e-19)
(118.61145 12.600556 4.4334439e-18)
(117.12587 16.621094 -8.5077131e-20)
(113.56003 21.649788 -5.1389375e-18)
(109.15506 25.811294 7.7103837e-18)
(101.9004 29.030861 -3.2024016e-18)
(91.581582 32.003848 3.6118324e-17)
(76.491369 31.693645 -4.8528218e-17)
(121.9976 3.3200788 5.5058231e-18)
(121.86525 6.503636 0)
(120.42629 12.460115 7.0136333e-18)
(118.75672 16.612337 -4.0108545e-18)
(115.23722 21.895435 5.1282011e-18)
(110.8035 26.357926 -1.4306353e-17)
(103.6984 29.900383 -1.3721593e-17)
(93.686811 33.196645 8.0142712e-18)
(79.238535 33.411639 1.5803676e-18)
(123.7406 3.4140578 -2.5772309e-18)
(122.98981 7.2971589 -3.3729064e-19)
(121.5415 13.679359 -2.9651109e-18)
(119.793 18.171387 4.6080394e-18)
(116.12316 23.68989 1.9028663e-18)
(111.4481 28.368293 7.4595176e-18)
(104.17639 32.326443 1.0800242e-17)
(94.064027 36.069342 4.3829427e-18)
(80.349766 37.475829 -5.018983e-18)
(125.61058 3.5121867 4.0470312e-19)
(125.11365 7.1112884 -4.5601033e-19)
(123.63805 13.544823 -3.5924459e-19)
(121.63345 18.031261 1.1637973e-18)
(118.07185 23.775954 -1.8524886e-18)
(113.41654 28.744676 -2.3453267e-18)
(106.36731 32.996306 -2.8828882e-18)
(96.542111 37.040277 3.2555857e-18)
(82.639352 38.710643 -6.3457134e-18)
(127.59309 3.6122089 -4.0947387e-19)
(126.35822 7.9203564 4.6150565e-19)
(124.87853 14.713642 -2.9738965e-19)
(122.89347 19.690032 -4.0236688e-20)
(119.18985 25.660963 -4.6173901e-19)
(114.30194 30.836617 1.6223688e-18)
(107.09014 35.454267 -2.7432808e-18)
(97.127025 39.865534 3.1053697e-18)
(83.766146 42.298068 0)
(129.67229 3.703606 -1.2518365e-19)
(128.75872 7.760629 -1.5603163e-19)
(127.23448 14.573928 -1.4009839e-19)
(124.91536 19.403108 -3.5170869e-19)
(121.30718 25.591659 -4.3524407e-19)
(116.43817 31.047752 1.6768805e-18)
(109.39909 35.93582 -4.4634458e-18)
(99.642274 40.614181 6.8811822e-18)
(86.056019 43.167712 -4.5610525e-18)
(131.84903 3.7835923 6.1007741e-20)
(130.11486 8.5476923 7.7964769e-20)
(128.60155 15.668258 4.5387717e-19)
(126.39486 21.131062 8.2620838e-19)
(122.65073 27.526754 1.2961025e-18)
(117.57097 33.187958 -5.12251e-19)
(110.38646 38.401415 -2.4123764e-18)
(100.51345 43.402169 -1.0223904e-18)
(87.458102 46.387998 -5.3314766e-18)
(134.12356 3.8421778 8.8573839e-19)
(132.76592 8.4011907 -7.8936862e-20)
(131.20323 15.50234 -2.6085933e-19)
(128.57036 20.686611 -5.8839794e-19)
(124.90033 27.285473 1.4610497e-18)
(119.85517 33.208075 1.7395716e-18)
(112.81522 38.664419 -1.0424688e-17)
(103.15921 43.912204 2.5293291e-18)
(89.824499 46.965851 9.9629286e-18)
(91.44485 49.939406 -9.2088619e-18)
(104.31842 46.657242 3.3526087e-18)
(114.09994 41.11534 1.390502e-17)
(121.2629 35.370237 -1.4266336e-18)
(126.4947 29.244011 -4.7615825e-19)
(130.26916 22.457176 -2.5025467e-19)
(132.70396 16.495902 -1.2918204e-19)
(134.22684 9.1537588 6.6438473e-20)
(136.49997 3.8845136 -2.4567497e-18)
(93.816782 50.325447 3.3415148e-17)
(107.1001 46.941079 2.0176454e-18)
(116.6576 41.133544 -1.7180416e-17)
(123.70101 35.169257 -1.8906562e-19)
(128.86571 28.797838 -8.5173666e-19)
(132.59036 21.840913 4.9229199e-20)
(135.54977 16.283658 3.5274082e-18)
(137.06806 9.0086771 0)
(138.97135 3.9033054 1.5850991e-18)
(95.575932 53.127332 -4.2552999e-17)
(108.51674 49.645138 2.0602076e-17)
(118.24141 43.543447 8.2261767e-18)
(125.34873 37.293189 -5.9159838e-20)
(130.73401 30.746357 -1.6071346e-18)
(134.42598 23.580745 1.2610082e-19)
(137.18663 17.141833 1.235341e-18)
(138.6821 9.7118418 -5.3108876e-18)
(141.53362 3.9058901 -6.48097e-18)
(97.923116 53.353218 -7.5688602e-18)
(111.40115 49.713136 8.7365382e-19)
(120.89798 43.302188 -1.2010447e-18)
(127.97069 36.912456 0)
(133.20991 30.064855 1.8145181e-18)
(136.98076 22.887654 0)
(140.21917 16.858198 -4.8729643e-18)
(141.66505 9.5528868 1.2613993e-17)
(144.17426 3.8801848 -1.7755648e-18)
(99.879437 56.029694 -2.6854608e-18)
(113.0911 52.380913 -1.246572e-17)
(122.78157 45.639686 8.8197317e-19)
(129.78172 38.895881 0)
(135.35084 31.962619 6.6469179e-18)
(138.91327 24.500201 -7.7816905e-18)
(142.03433 17.550551 -4.5180282e-19)
(143.42389 10.193814 -1.664222e-17)
(146.8868 3.8341178 8.4368694e-18)
(102.25888 56.070168 -2.742826e-17)
(116.04209 52.211531 -6.4994053e-18)
(125.5005 45.120638 -8.0762521e-19)
(132.61529 38.401083 2.4077253e-19)
(137.8962 31.032977 2.9345613e-18)
(141.66567 23.735741 1.8380752e-17)
(145.19191 17.172456 -5.8189389e-19)
(146.5104 9.9975089 9.3315314e-18)
(149.65644 3.7566582 0)
(104.52542 58.647917 1.8922255e-17)
(118.04743 54.751395 9.0223228e-18)
(127.67078 47.33281 -8.2192588e-19)
(134.5606 40.177122 5.8551071e-19)
(140.28906 32.838242 -8.1935744e-18)
(143.72517 25.170431 -1.0998563e-17)
(147.13449 17.680369 -8.1549515e-19)
(148.38985 10.561651 7.4724419e-19)
(152.47282 3.6558116 0)
(106.97762 58.478714 0)
(121.12935 54.444696 3.0679939e-19)
(130.47616 46.52178 -2.6152381e-19)
(137.55157 39.549868 2.3021555e-17)
(142.8941 31.648273 6.9019609e-19)
(146.60758 24.320103 -2.9463635e-17)
(150.35775 17.185678 3.1643126e-17)
(151.57003 10.320912 -3.1088479e-17)
(155.30948 3.5191922 -3.3795597e-17)
(109.63453 60.956919 2.4190843e-17)
(123.41228 56.736413 -9.8549818e-18)
(132.77778 48.526802 7.1091561e-19)
(139.64157 41.090618 -2.4302686e-17)
(145.42927 33.329633 1.0781802e-18)
(148.80574 25.542793 2.9964668e-17)
(152.38169 17.499271 -3.4133731e-17)
(153.5375 10.786536 3.2553221e-17)
(158.14524 3.3709586 -4.2556078e-18)
(161.17078 3.1792295 3.8155997e-17)
(156.79842 10.474246 -3.9701053e-17)
(155.6557 16.873557 0)
(151.83324 24.560659 2.213351e-18)
(148.20014 31.872922 -4.1807087e-17)
(142.83692 40.294943 -3.541392e-17)
(135.88482 47.445613 0)
(126.84808 56.206424 -9.387169e-18)
(112.41971 60.51558 -2.3342917e-17)
(164.00857 2.9038279 0)
(158.87434 10.715325 4.108844e-17)
(157.73581 16.893782 0)
(154.26759 25.419888 2.605076e-18)
(151.00635 33.255866 8.3943239e-17)
(145.31943 41.485363 3.8515723e-17)
(138.68156 49.107526 -3.908925e-17)
(129.9016 58.33111 1.8713542e-17)
(116.47698 63.233419 -2.0270176e-18)
(166.64676 2.5461901 0)
(162.20308 10.214955 0)
(160.99462 16.123447 5.412721e-17)
(157.43008 24.215842 0)
(153.97629 31.546279 -4.7628396e-17)
(148.73769 40.449647 5.1738872e-17)
(142.09054 47.619528 3.5560847e-17)
(133.82562 57.318434 2.5979171e-18)
(119.90485 62.219195 -1.4418813e-17)
(169.24561 2.1203734 0)
(164.29492 10.283866 0)
(163.04968 15.947805 -5.52508e-17)
(159.94296 24.764763 -5.7514844e-17)
(156.83727 32.626138 -6.2592881e-17)
(151.37108 41.300468 -5.703353e-17)
(144.96237 48.839519 0)
(137.10808 58.837923 -5.289717e-17)
(124.83292 64.485158 1.5520231e-17)
(171.73962 1.6691153 -9.1540725e-19)
(167.56702 9.6767979 1.0071546e-18)
(166.24335 15.018109 0)
(163.08498 23.331083 -6.1627352e-18)
(159.8483 30.699525 1.3849533e-16)
(154.80471 40.071217 -4.4354998e-18)
(148.37514 47.043569 -6.6273153e-17)
(140.86263 57.366818 5.78756e-17)
(128.78484 63.099181 -5.494681e-17)
(174.07347 1.2011297 1.0035718e-18)
(169.57682 9.6261091 -1.1060972e-18)
(168.23534 14.63471 0)
(165.57744 23.573543 7.4630378e-17)
(162.72379 31.449212 -8.2083181e-17)
(157.5096 40.616844 5.0802411e-18)
(151.14935 47.949887 6.854624e-17)
(144.00065 58.272032 0)
(134.4484 64.572103 5.4784533e-17)
(176.22323 0.72515854 -1.0926963e-18)
(172.69617 8.9034364 -7.5097518e-17)
(171.29749 13.555035 2.3764716e-18)
(168.601 21.907879 -8.2365728e-17)
(165.68724 29.30472 -9.4937929e-17)
(160.91997 39.224619 0)
(154.39202 46.027328 0)
(147.21018 56.328795 9.103353e-17)
(139.18774 62.568722 0)
(178.32266 0.14687949 0)
(174.50163 8.7145016 7.7878297e-17)
(173.14128 13.002418 0)
(170.96916 21.862192 9.2288692e-17)
(168.50706 29.69802 8.5733183e-17)
(163.67497 39.484383 -1.0427702e-16)
(156.95645 46.879859 0)
(149.74745 56.623683 -1.0108356e-16)
(145.70845 62.911493 1.4348483e-16)
(179.38808 -0.3920473 0)
(177.35357 7.8571569 0)
(175.97973 11.810671 2.8408704e-18)
(173.76909 19.978507 2.879799e-18)
(171.49731 27.164759 -6.7683066e-18)
(167.05014 37.922381 1.0764423e-16)
(160.43388 44.878432 0)
(152.08554 54.036082 0)
(150.28498 60.311462 -1.4306132e-16)
(181.43924 -0.57835265 2.6915053e-18)
(178.80441 7.6892143 -1.3770475e-19)
(177.6245 11.116394 -9.9996464e-17)
(175.93259 19.725341 0)
(173.84302 27.521545 0)
(169.86875 37.915531 6.363172e-18)
(162.34866 46.946037 1.0497082e-16)
(152.72702 55.009435 -3.3280965e-18)
(155.41186 60.546976 0)
(183.09446 -1.1753209 2.7192386e-18)
(181.28339 7.4956245 -1.2252472e-19)
(180.24403 11.141629 9.0480988e-17)
(178.41726 20.073655 0)
(176.48765 27.941125 0)
(172.60493 39.750604 -6.5471721e-18)
(163.40961 48.611393 -3.2198011e-16)
(152.10716 56.808519 3.2685749e-18)
(149.12012 59.315394 -2.7337638e-16)
(184.40791 -1.0983015 0)
(182.43751 7.2538876 -1.8538863e-16)
(181.65101 10.34744 0)
(180.34718 19.68529 -6.3134726e-18)
(178.55004 28.434413 6.8928964e-18)
(174.42728 40.15189 6.6481144e-18)
(165.40329 50.994207 4.3100989e-16)
(148.37684 58.310746 -3.2241569e-18)
(132.24067 58.088108 2.5873931e-16)
(185.37885 -1.4841861 -1.7732144e-16)
(184.58712 6.7540109 1.7665849e-16)
(184.01433 10.213947 -1.9870411e-16)
(182.68598 19.980195 -2.1123435e-16)
(180.88203 28.80624 2.33196e-16)
(176.72283 42.510328 -2.3977899e-16)
(165.55785 52.803162 -2.2335211e-16)
(144.55604 58.174237 -1.7133741e-16)
(111.72508 69.19564 0)
(186.21715 -1.4017921 3.5257535e-16)
(185.51639 6.3073335 -1.8571075e-16)
(185.14449 9.4033589 1.9222084e-16)
(184.50723 19.390022 -9.3829587e-18)
(182.89087 29.431766 -2.2465655e-16)
(178.28662 42.921774 -6.3294213e-18)
(165.41978 54.978649 0)
(138.25927 62.388646 1.6518361e-16)
(77.943097 77.108685 0)
(186.75073 -1.7874032 -3.4470783e-16)
(187.36866 5.5031886 1.7736042e-16)
(187.23087 9.1306426 -2.0492299e-16)
(186.89765 19.469341 2.1252303e-16)
(185.22667 29.508059 6.9801273e-18)
(180.85074 45.04702 2.2557884e-16)
(163.3043 57.931528 -2.1803967e-16)
(126.79009 58.174131 -1.7947933e-16)
(19.4572 19.666953 1.8852066e-16)
(187.19205 -1.7728615 1.7262462e-16)
(188.09748 4.8604061 -5.6951818e-18)
(188.06601 8.2993551 1.9576161e-16)
(188.75727 18.454913 -6.6418105e-18)
(187.3058 30.052785 7.1649399e-18)
(182.11341 45.341548 2.5312054e-16)
(159.18437 57.862171 4.3164118e-16)
(100.99573 50.375115 1.6842138e-16)
(-4.2589382 16.605837 -1.7872366e-16)
(187.28278 -2.153632 2.615421e-18)
(189.72944 3.7383547 -2.8012014e-18)
(189.83598 7.8664593 -1.9661604e-16)
(191.25808 18.176826 -2.1966054e-16)
(189.48905 29.832721 2.3728896e-16)
(183.89432 46.752775 -4.9937784e-16)
(152.64165 59.595068 -4.2934809e-16)
(77.139023 45.971256 -1.7130835e-16)
(-4.5219421 24.564473 1.7721201e-16)
(187.11035 -2.3589477 -1.5940285e-16)
(190.17358 2.9282196 2.8242551e-18)
(190.35702 7.0040002 -6.8149304e-18)
(193.10241 16.681853 2.1302135e-16)
(191.4017 30.235833 -2.2225124e-16)
(183.43912 47.568928 2.4468865e-16)
(141.21859 59.06844 2.0491157e-16)
(44.176202 24.382104 1.6097633e-16)
(-10.516566 28.163952 -1.687997e-16)
(-12.443288 27.898619 -2.8496035e-16)
(24.094038 15.002595 -1.8739944e-18)
(130.04008 57.604889 5.2650521e-18)
(183.1932 47.559213 -4.3922355e-18)
(192.98785 29.931656 0)
(195.40299 16.120427 3.7658232e-18)
(191.75068 6.4037815 4.0998168e-16)
(191.54065 1.5741338 1.9335296e-16)
(186.72974 -2.5990858 3.1467359e-16)
(-13.65361 28.357682 2.7640908e-16)
(14.987285 13.326191 0)
(117.8032 56.216007 0)
(182.57063 47.274361 6.7928027e-16)
(194.7364 28.851537 0)
(196.88326 13.697007 -5.1000719e-16)
(191.97671 5.0905943 -6.3143261e-16)
(191.59583 0.56816893 -1.8334696e-16)
(186.11936 -2.8089788 1.5180523e-16)
(-14.412508 28.167038 2.2135445e-18)
(16.378534 22.026967 -1.7829039e-18)
(107.36182 51.893634 0)
(181.61052 46.57691 -6.6828001e-16)
(195.96732 28.334737 0)
(198.77653 12.935348 5.0496776e-16)
(193.03398 4.3325233 4.0857311e-16)
(192.55494 -0.86973957 4.3120857e-18)
(185.29302 -2.9788817 -3.0447121e-16)
(-15.44584 29.240512 5.2327802e-16)
(21.783717 34.964158 -4.9405377e-16)
(98.151943 51.383912 3.8825883e-18)
(180.06172 46.212899 0)
(197.39332 26.86025 -6.0593078e-16)
(199.86723 10.393174 0)
(192.96606 2.988724 -3.1911853e-18)
(192.17892 -1.8885896 4.2632582e-18)
(184.2571 -3.1154796 -1.2230184e-18)
(-16.267493 30.039574 -5.0276591e-16)
(24.751519 42.765979 -2.012062e-17)
(91.537905 48.764798 6.2582097e-16)
(178.24877 45.241357 -4.81184e-18)
(198.29229 26.137065 -1.9530317e-17)
(201.41402 9.4310241 0)
(193.70857 2.0954557 -4.0773274e-16)
(192.6824 -3.3194231 0)
(183.03989 -3.2242223 0)
(-16.957439 31.548713 2.1121047e-18)
(23.38086 46.872689 4.7383748e-16)
(82.041476 48.507838 -1.2291055e-15)
(175.82634 44.768229 7.3822134e-16)
(199.30873 24.33522 6.0301418e-16)
(202.09339 6.7935062 5.3013359e-16)
(193.35054 0.7097867 3.9517088e-16)
(191.88794 -4.3026523 4.1254819e-18)
(181.65078 -3.3067946 -2.6738584e-16)
(-17.086249 32.576522 2.0850957e-18)
(20.557595 48.737722 -4.9416313e-16)
(75.593813 44.477235 6.168876e-16)
(172.63433 43.576803 -7.2333958e-16)
(199.81022 23.446502 4.6834071e-18)