/*--------------------------------*- C++ -*----------------------------------*\
  =========                 |
  \\      /  F ield         | OpenFOAM: The Open Source CFD Toolbox
   \\    /   O peration     | Website:  https://openfoam.org
    \\  /    A nd           | Version:  11
     \\/     M anipulation  |
\*---------------------------------------------------------------------------*/
FoamFile
{
    format      ascii;
    class       volVectorField;
    location    "0.305";
    object      U;
}
// * * * * * * * * * * * * * * * * * * * * * * * * * * * * * * * * * * * * * //

dimensions      [0 1 -1 0 0 0 0];

internalField   nonuniform List<vector> 
880
(
(25 -5.003185096270251e-14 0)
(24.99999999465521 6.883507195526031e-09 0)
(24.999317264468 -0.0003832577296597326 0)
(24.82174322945239 0.00246353640715545 0)
(25.00000000000668 -2.207882816994823e-12 0)
(24.99999998875697 -1.306505396823601e-08 0)
(24.99881877159778 -0.000953884807509333 0)
(24.757135662908 -0.1482002618038442 0)
(24.99999999991483 -4.851102794450884e-11 0)
(24.99999997197022 -7.28092633387294e-08 0)
(24.99735537101902 -0.002169697239130673 0)
(24.66713020899494 -0.2548121765940903 0)
(24.99999999952318 3.639629829085545e-10 0)
(24.99999989284975 -4.207883209452991e-07 0)
(24.99330270972548 -0.004509406820421603 0)
(24.32802734857132 -0.4079037899407938 0)
(25.00000000398223 -5.094798613866037e-09 0)
(24.99999999185324 1.614187160975804e-08 0)
(24.99999957280993 -5.991957478139381e-08 0)
(24.999995372347 5.824313371798782e-06 0)
(24.99999913630434 -1.754130455850971e-06 0)
(24.99997698530226 -1.096468345950928e-05 0)
(24.99989698147595 7.446112208862512e-05 0)
(25.00014088341193 -0.0007457640482872186 0)
(24.9810251644268 -0.007328170465966712 0)
(24.96591761015899 -0.002941526281404887 0)
(24.94664100137453 0.01366332600237683 0)
(24.94588124132949 -0.05089043879926256 0)
(23.63105627548485 -0.1153741772222628 0)
(22.953883150966 0.5871959506167607 0)
(22.58605377647849 1.249166823299754 0)
(22.52668241141345 1.665301752414188 0)
(24.99994389033298 -3.556446685295281e-05 0)
(24.99984686065164 -0.0002579297303730497 0)
(24.99974115838244 -0.0006061590429093678 0)
(24.99873965951675 -0.002660166560235423 0)
(24.99871271726834 -0.0002496950230913044 0)
(24.9937997449054 0.0005600241986325032 0)
(24.98615708122796 0.004502718480526959 0)
(24.97335741015111 0.007816114713923751 0)
(24.81520544845101 -0.003844320608102666 0)
(24.71458896478562 0.08536774227296089 0)
(24.58195304454757 0.2438680751834959 0)
(24.47217173281874 0.3475229376500065 0)
(22.30883959284671 2.228606907142534 0)
(22.3016011480038 2.624329504568057 0)
(22.18728569145197 3.176199137394724 0)
(22.59614294787978 3.556085664776685 0)
(23.60208866098692 4.120525075958455 0)
(24.26378883446015 3.945284759869847 0)
(24.59461255047381 3.538943832477348 0)
(24.85353898898939 3.123285641139626 0)
(24.24953109379527 0.6703133878672672 0)
(24.26446255799805 1.027508933081088 0)
(24.38346158388221 1.238958031084801 0)
(24.54103200157652 1.380267619600007 0)
(24.91991622638323 0.02793402414365677 0)
(24.85344669728828 0.0910448540371811 0)
(24.79020698838656 0.1915097554493224 0)
(24.75680093101407 0.3153042797629664 0)
(24.99337938594346 -0.006290905246474956 0)
(24.98447877765978 -0.01605764517140844 0)
(24.97186318794565 -0.0324121281173002 0)
(24.95806430770922 -0.05317127084995494 0)
(24.94665829987325 -0.07521868318000426 0)
(24.94007083825092 -0.08753406457558036 0)
(24.9347324299135 -0.08433148780278989 0)
(24.92991293168986 -0.07770403317808536 0)
(24.76444158061284 0.4461028566131898 0)
(24.81467989233719 0.5533973287581693 0)
(24.89794061710656 0.6229734618904916 0)
(24.99242356092059 0.6402038069854363 0)
(24.7207396308962 1.464049089696803 0)
(24.91201280561093 1.470634044540668 0)
(25.06573766011866 1.407823423025197 0)
(25.21625892304367 1.314594712094912 0)
(25.06860269198641 2.712689164680654 0)
(25.26582133777631 2.324482729321333 0)
(25.33280038959003 1.927127761622779 0)
(25.48988866533642 1.618007950936958 0)
(25.51107506548788 1.248178461085611 0)
(25.35566628875215 1.169956369631454 0)
(25.09617424232711 0.6307170347568188 0)
(24.92716580575961 -0.06530546758231122 0)
(25.38349261815281 1.151229808863189 0)
(25.43251196421429 1.026596724681972 0)
(25.19064822976801 0.5653947972554459 0)
(24.92813684859244 -0.04938803046928518 0)
(22.62851945682442 1.535271379443298 0)
(25.40424507281671 0.9611990334130712 0)
(25.24022135681304 0.4922753143223479 0)
(24.93578284743772 -0.04256956393441411 0)
(16.61991728632888 1.747194379807399 0)
(24.57133901207789 1.153234236362788 0)
(25.27435673846569 0.4321898212218558 0)
(24.96158839474649 -0.03679114074417405 0)
(24.92904493506132 -0.02616353515481061 0)
(25.2027984567409 0.3396691803646543 0)
(23.28433547083494 1.567622982998192 0)
(13.87991200621628 3.370311813147249 0)
(24.93281298097957 -0.03091680362275573 0)
(25.04641114997645 0.337367220279607 0)
(22.18592239864369 2.309009441449532 0)
(13.97091743892186 5.237171758423327 0)
(24.92932283360287 -0.04455433061389786 0)
(24.7621291447116 0.482292940687903 0)
(20.71786198020489 3.416326472472851 0)
(13.73447314623209 6.857274940669297 0)
(24.90265520309064 -0.07563632150242747 0)
(24.32711943797939 0.8502193888977603 0)
(19.39185459995117 4.814891292800827 0)
(13.76390944267463 8.221797810689461 0)
(14.14120788736765 9.206181302465 0)
(18.30958858565348 6.253069417558125 0)
(23.63553394515743 1.573757028923532 0)
(24.83600389468473 -0.1258875949972426 0)
(14.83407623914919 9.849237278811435 0)
(17.8760078403595 7.476619630287098 0)
(22.81324682831783 2.680665543738635 0)
(24.69082096382244 -0.1696172022070505 0)
(15.81401328149289 10.16666127027471 0)
(18.0699381397152 8.522582322356298 0)
(22.07060584334088 4.027261566192773 0)
(24.46732132343282 -0.1463582836292924 0)
(16.98428079104187 10.2438879064456 0)
(19.07031160206964 8.96986300773702 0)
(21.66525368536603 5.425157693229679 0)
(24.15930304600638 -0.002502637275279803 0)
(23.83164256659958 0.1302275262675898 0)
(22.47903214659357 6.20718035651299 0)
(20.78934339310926 8.848862885412043 0)
(18.54495078843886 10.24150573827823 0)
(23.99747447185143 -0.01764399994310041 0)
(23.64099431322215 5.845663314192771 0)
(22.86639620192286 8.385967224845974 0)
(20.63979596065876 9.967134309095776 0)
(24.35935325779763 -0.1282641773152437 0)
(24.93465678379487 5.200563545939467 0)
(25.04632294622586 7.50658592147562 0)
(23.21211121809542 9.221855386282302 0)
(24.52105419612216 -0.5203273233668473 0)
(25.73505062539194 4.119859079503409 0)
(26.92850271632346 6.079400648179949 0)
(26.14538006744321 7.480888519212233 0)
(24.73061480123172 -0.3676305056257848 0)
(26.47672372951714 3.288201620378725 0)
(28.44864551127198 4.57651984334508 0)
(30.29434112366335 4.504644287626595 0)
(25.01697540021221 -0.3839504317269045 0)
(26.92547554741528 2.291123393908236 0)
(29.27774748580116 2.94523745278927 0)
(33.544020042703 0.5577934853792722 0)
(25.21401541655493 -0.3242215568162748 0)
(26.86865722852965 1.36579550677021 0)
(29.59466918901276 1.047777461718137 0)
(36.71133421551593 -4.347195833100602 0)
(25.2990788786486 -0.2726921732049307 0)
(26.57914132625125 0.7785371403307704 0)
(28.95457358062854 -0.1550608879895815 0)
(33.30457660085516 -6.248883523042129 0)
(27.27450520677444 -2.888662783639176 0)
(28.3067711031105 -1.164044819156603 0)
(26.3397947207122 0.2132025378001553 0)
(25.31700074145668 -0.2450711647588796 0)
(24.1190956302374 -1.865419087902652 0)
(27.67624383199553 -1.866037579735156 0)
(26.04133784351508 -0.1312689802232924 0)
(25.26710265434157 -0.1836839002280913 0)
(21.9637282394694 -3.796130269578541 0)
(27.03734903714369 -2.664563569821324 0)
(25.80423960318386 -0.5200533914197237 0)
(25.17813543271078 -0.1036150584694176 0)
(18.36965572225941 -4.096779763775491 0)
(26.05356314046732 -3.450844024428421 0)
(25.48570863991511 -0.8374426935480733 0)
(25.0991820648856 -0.07658996814332585 0)
(15.69980494706574 -6.078745822948709 0)
(24.53466420726185 -4.21241041992728 0)
(25.04417286575644 -0.8992041843407238 0)
(25.02256733980422 -0.06369138025700657 0)
(14.33098267432551 -8.05816525677186 0)
(23.50109079629052 -3.985393180216357 0)
(24.75630987277055 -0.6473977221740679 0)
(24.98510853967554 -0.03530971817074254 0)
(14.43234184226089 -7.62504089474626 0)
(22.82250081093628 -3.162411916866183 0)
(24.69585741698415 -0.3697444116942996 0)
(24.98351550894212 -0.01619396754246871 0)
(15.54920224628082 -6.154212631080172 0)
(23.1661193688461 -2.450661357374761 0)
(24.78721313229775 -0.3007315183927382 0)
(24.99142661613507 -0.01066687307589009 0)
(15.74437362959227 -0.7368611296531765 0)
(21.70677292720756 0.06653783716615698 0)
(24.4009578507815 0.01450312148685962 0)
(24.96157111931306 0.0002481134786234666 0)
(15.87664422389621 -2.158890672919213 0)
(21.68781943194727 0.09445887643345696 0)
(24.37909784881001 0.03946002029087976 0)
(24.95944201329705 0.001233916155282044 0)
(16.03214309931489 -2.885212059320339 0)
(21.64054632196651 -0.02663413233561869 0)
(24.35530388181867 0.02708069564487688 0)
(24.95665991006595 0.0008669871567798882 0)
(16.10808552272038 -2.863105302576683 0)
(21.73084784686346 -0.3240574089842144 0)
(24.36259013621052 -0.02151425186645125 0)
(24.95559647014634 -0.001024290775735039 0)
(15.54920224630377 6.154212631072945 0)
(23.1661193689062 2.450661357370866 0)
(24.78721313239954 0.3007315183273593 0)
(24.99142661624724 0.01066687304966455 0)
(14.43234184228109 7.625040894733953 0)
(22.82250081098261 3.162411916905708 0)
(24.69585741700578 0.3697444116908286 0)
(24.98351550898932 0.01619396759685405 0)
(14.33098267434976 8.058165256791868 0)
(23.50109079632697 3.985393180258543 0)
(24.75630987277807 0.6473977222294345 0)
(24.98510853971266 0.03530971821287893 0)
(15.6998049470525 6.078745822948133 0)
(24.53466420730977 4.212410419972575 0)
(25.04417286576799 0.899204184369378 0)
(25.02256733981877 0.06369138030151057 0)
(25.31700074142868 0.2450711646985411 0)
(26.33979472068743 -0.21320253780264 0)
(28.3067711031029 1.164044819147297 0)
(27.27450520681619 2.888662783726601 0)
(25.26710265431843 0.183683900198001 0)
(26.04133784349009 0.1312689802335681 0)
(27.67624383199785 1.866037579732977 0)
(24.11909563023845 1.865419087983965 0)
(25.17813543266881 0.1036150584533782 0)
(25.8042396031583 0.520053391434008 0)
(27.03734903721627 2.664563569931973 0)
(21.9637282394389 3.796130269640484 0)
(25.09918206486202 0.07658996815586558 0)
(25.48570863987089 0.8374426935117686 0)
(26.05356314051313 3.450844024479994 0)
(18.36965572222694 4.096779763813182 0)
(33.30457660088986 6.248883523127983 0)
(28.95457358062325 0.1550608879766332 0)
(26.5791413262799 -0.7785371403115607 0)
(25.29907887865792 0.2726921731051239 0)
(36.71133421554478 4.3471958331509 0)
(29.59466918903576 -1.047777461712256 0)
(26.86865722852956 -1.365795506800063 0)
(25.21401541658293 0.3242215567221535 0)
(33.54402004272576 -0.5577934853426137 0)
(29.27774748581618 -2.94523745280111 0)
(26.92547554744707 -2.291123393890311 0)
(25.01697540016522 0.3839504316950294 0)
(30.29434112366983 -4.504644287595395 0)
(28.4486455113187 -4.57651984331151 0)
(26.47672372956282 -3.288201620320867 0)
(24.73061480110779 0.3676305057068179 0)
(23.83164256654051 -0.1302275262458036 0)
(22.47903214653554 -6.207180356533997 0)
(20.78934339303591 -8.848862885423703 0)
(18.54495078843641 -10.24150573827128 0)
(23.99747447183688 0.0176439999736606 0)
(23.64099431326348 -5.845663314201024 0)
(22.86639620189271 -8.385967224823549 0)
(20.63979596064381 -9.96713430908885 0)
(24.35935325787191 0.128264177383304 0)
(24.93465678380535 -5.200563545925272 0)
(25.04632294622131 -7.506585921421732 0)
(23.21211121810133 -9.221855386265362 0)
(24.52105419601314 0.5203273235373442 0)
(25.73505062541759 -4.119859079429125 0)
(26.92850271633465 -6.079400648121622 0)
(26.14538006744409 -7.480888519185891 0)
(16.98428079104725 -10.24388790644296 0)
(19.07031160205327 -8.969863007755917 0)
(21.66525368531986 -5.425157693238928 0)
(24.15930304584595 0.002502637254047863 0)
(15.81401328150042 -10.16666127028409 0)
(18.06993813971309 -8.522582322377584 0)
(22.07060584334974 -4.027261566221006 0)
(24.46732132341289 0.1463582836300581 0)
(14.83407623915534 -9.849237278824065 0)
(17.87600784038034 -7.476619630282652 0)
(22.81324682837144 -2.680665543736529 0)
(24.69082096377284 0.1696172022110375 0)
(14.14120788738295 -9.206181302473542 0)
(18.30958858563898 -6.253069417536619 0)
(23.63553394507767 -1.573757028915045 0)
(24.83600389465228 0.125887595004213 0)
(24.92904493506228 0.02616353515640163 0)
(25.20279845675604 -0.3396691803306073 0)
(23.28433547085454 -1.567622983020467 0)
(13.87991200623845 -3.370311813158602 0)
(24.93281298087429 0.03091680361772627 0)
(25.04641114994433 -0.3373672202245184 0)
(22.18592239867478 -2.309009441444681 0)
(13.97091743892002 -5.237171758434302 0)
(24.92932283346661 0.04455433061667968 0)
(24.76212914458594 -0.4822929406431075 0)
(20.71786198022409 -3.416326472447281 0)
(13.73447314627683 -6.857274940677812 0)
(24.9026552030331 0.07563632151113181 0)
(24.32711943801257 -0.850219388851419 0)
(19.39185459997312 -4.814891292806158 0)
(13.76390944268365 -8.22179781070154 0)
(24.96158839475131 0.03679114074974246 0)
(24.93578284745113 0.04256956394913063 0)
(24.9281368485421 0.04938803050549296 0)
(24.92716580575091 0.06530546758105485 0)
(25.27435673857093 -0.4321898212147209 0)
(25.24022135683186 -0.4922753143361559 0)
(25.19064822979749 -0.5653947972441369 0)
(25.09617424234362 -0.6307170347760491 0)
(24.57133901215092 -1.153234236388293 0)
(25.40424507283556 -0.9611990334179288 0)
(25.43251196428482 -1.026596724698622 0)
(25.35566628879591 -1.169956369634164 0)
(16.6199172863869 -1.747194379809886 0)
(22.62851945685511 -1.535271379437388 0)
(25.38349261813902 -1.151229808853026 0)
(25.51107506549321 -1.24817846106773 0)
(24.92991293164947 0.07770403318456444 0)
(24.99242356087582 -0.6402038069747409 0)
(25.21625892301923 -1.314594712069862 0)
(25.48988866531139 -1.618007950896091 0)
(24.93473242993891 0.08433148779425213 0)
(24.89794061705775 -0.6229734618955015 0)
(25.06573766009277 -1.407823422999969 0)
(25.33280038958491 -1.927127761594059 0)
(24.94007083825424 0.08753406457511537 0)
(24.81467989231603 -0.5533973287154405 0)
(24.912012805655 -1.470634044549181 0)
(25.26582133784811 -2.324482729332374 0)
(24.94665829991723 0.07521868314128706 0)
(24.76444158061615 -0.4461028566017309 0)
(24.72073963089673 -1.464049089696375 0)
(25.06860269201047 -2.712689164670047 0)
(24.99337938594716 0.00629090517859804 0)
(24.9199162264762 -0.0279340240487937 0)
(24.24953109375796 -0.6703133878802565 0)
(23.60208866096692 -4.120525075942602 0)
(24.98447877772391 0.01605764506733974 0)
(24.85344669733705 -0.09104485395802307 0)
(24.26446255798925 -1.027508933040497 0)
(24.26378883445348 -3.945284759873457 0)
(24.97186318789984 0.03241212809543297 0)
(24.79020698841844 -0.1915097553745509 0)
(24.38346158393083 -1.238958031104165 0)
(24.59461255053941 -3.538943832530248 0)
(24.95806430773775 0.05317127079530744 0)
(24.75680093103733 -0.3153042797046964 0)
(24.54103200157448 -1.380267619583601 0)
(24.85353898904894 -3.123285641156632 0)
(22.5961429479024 -3.556085664772695 0)
(24.47217173281838 -0.3475229376592667 0)
(24.97335741025975 -0.007816114620177098 0)
(24.99873965946697 0.002660166552068714 0)
(22.18728569147941 -3.176199137382747 0)
(24.58195304452931 -0.2438680751976731 0)
(24.98615708130626 -0.004502718453042309 0)
(24.99974115839137 0.0006061590122454018 0)
(22.30160114799956 -2.624329504546023 0)
(24.71458896479017 -0.08536774228216723 0)
(24.99379974502677 -0.0005600242130589336 0)
(24.99984686068609 0.0002579296398937956 0)
(22.30883959287661 -2.228606907110745 0)
(24.81520544849267 0.003844320607677458 0)
(24.99871271733522 0.0002496950217664707 0)
(24.99994389027043 3.55644681666472e-05 0)
(22.52668241144042 -1.665301752402106 0)
(24.94588124133963 0.0508904388177126 0)
(25.0001408834224 0.0007457640665224107 0)
(24.99999537232104 -5.824272835731907e-06 0)
(22.58605377650197 -1.249166823309561 0)
(24.94664100139287 -0.01366332599835498 0)
(24.99989698154079 -7.446111724294095e-05 0)
(24.99999957280442 5.99312497667856e-08 0)
(22.9538831509703 -0.5871959506812057 0)
(24.96591761018296 0.002941526274129858 0)
(24.9999769853357 1.096467056386105e-05 0)
(24.99999999187639 -1.615233226164615e-08 0)
(23.63105627538539 0.115374177066117 0)
(24.98102516446431 0.007328170461943172 0)
(24.99999913636022 1.754149018384849e-06 0)
(25.00000000392048 5.078742144733095e-09 0)
(25.00000000000001 -4.56156424516518e-13 0)
(24.9999999946337 -6.910366174272201e-09 0)
(24.99931726446303 0.0003832577148837125 0)
(24.82174322905338 -0.002463536348958358 0)
(24.99999999999998 9.618690274125966e-12 0)
(24.99999998882748 1.304117021670727e-08 0)
(24.99881877159917 0.0009538847867986752 0)
(24.75713566184787 0.1482002625252213 0)
(24.99999999990962 5.788879264858188e-11 0)
(24.99999997201769 7.281855297690273e-08 0)
(24.99735537102693 0.002169697224840937 0)
(24.66713020825447 0.2548121765144313 0)
(24.99999999949115 -3.485150942954171e-10 0)
(24.99999989290124 4.207987411778737e-07 0)
(24.99330270974463 0.004509406808760012 0)
(24.32802734825666 0.407903789846946 0)
(24.6979148739249 -6.150310389857932e-10 0)
(24.57129072385553 0.1472196114978071 0)
(24.26214882982119 0.184623155264641 0)
(23.40052640944191 0.05258996882624829 0)
(24.57129072573391 -0.1472196128516642 0)
(24.35163530158256 -5.798393766158965e-10 0)
(23.75396131405582 -0.04211688024309495 0)
(22.37481351089334 -0.454396690788793 0)
(24.26214883200792 -0.1846231559018266 0)
(23.75396131548002 0.04211687954286506 0)
(22.52209409790541 1.428627343873515e-11 0)
(20.45125967552768 -0.5757634044318265 0)
(23.40052641006093 -0.0525899693471726 0)
(22.37481351164609 0.4543966903050069 0)
(20.45125967590114 0.5757634042253705 0)
(18.1690608251752 -2.446559452021792e-10 0)
(17.58255579546579 2.556305075513848 0)
(18.2475786780809 2.970823803202327 0)
(19.93640620921094 2.677240156427374 0)
(21.4780401435079 1.851116680348817 0)
(18.5696421921944 4.300801266825549 0)
(18.64044502489685 4.267484768901395 0)
(19.38848833621947 4.181801386358084 0)
(20.44759958271993 3.981443380264341 0)
(18.07193391422462 5.304772032152867 0)
(19.17131993123004 4.536957769570416 0)
(19.87997189053732 4.741943483290583 0)
(20.44323161897594 4.598682623532527 0)
(18.70903518730456 5.8251684369064 0)
(19.99978066113942 4.773045534177926 0)
(20.50421813376439 4.939670677728407 0)
(20.80249871391102 4.852382807208182 0)
(21.09579856733025 5.00703993963187 0)
(21.29358537133083 5.082462011097172 0)
(21.63013775779829 5.17369805265422 0)
(22.30030478709496 5.311446212269683 0)
(20.99099210891605 5.077166599483714 0)
(21.27525650077135 5.150616384486198 0)
(21.71824451765401 5.183688346366211 0)
(22.78657947740251 5.542590611594563 0)
(20.70777483878974 4.98469283426817 0)
(21.15613398254579 5.148355842489146 0)
(21.70921858407234 5.217881366229165 0)
(24.22408792636768 5.967538219473398 0)
(19.35604270592037 5.961588950259409 0)
(19.86929243363569 6.055529662734568 0)
(20.6527758815961 5.899390770188969 0)
(25.91038729539314 7.184905096479686 0)
(25.97578760622756 3.192286305757502 0)
(26.52679337696032 0.7926227234424402 0)
(25.78108120346351 0.4370998314061025 0)
(25.61202957560117 0.4154073061054395 0)
(28.49730030541195 2.197710556316714 0)
(28.70923681238261 0.3321959417501382 0)
(27.53507230126328 0.2592092454795122 0)
(26.84416167485827 0.3501258373397889 0)
(31.69166925610456 1.895956116179091 0)
(30.07812550833405 0.04380186837466527 0)
(28.65253962976686 0.03288296502582264 0)
(27.68130186966442 0.1202283972556901 0)
(25.16358789085058 1.933967722428994 0)
(24.14040361392538 0.5996822449760496 0)
(24.01865899343112 0.1333073273593444 0)
(24.05379912883203 -0.2429259219749824 0)
(25.53098765653799 0.3568000085332504 0)
(25.55481610257151 0.2956131951916102 0)
(25.55404050134101 0.257203432254327 0)
(25.54338117853806 0.2129892255111444 0)
(26.37405234484353 0.3338321321991167 0)
(26.03473663468468 0.2823867376852581 0)
(25.75677746212913 0.2285305106801056 0)
(25.50635320960143 0.1980299588508322 0)
(26.94601046474251 0.1389072695985892 0)
(26.35149436461209 0.1288867171748917 0)
(25.873819361289 0.1196959612010592 0)
(25.43704215190022 0.1068655348098543 0)
(23.84750971010909 -0.4328094332469698 0)
(23.62080541768482 -0.6090301246234263 0)
(23.40242600476041 -0.6057309129448337 0)
(23.06975479992746 -0.5398609762089399 0)
(25.56107584329473 0.1780425275857151 0)
(23.18803221368222 2.847120623593874 0)
(16.83610029136903 5.092428835517186 0)
(11.35157937522917 1.938724216918975 0)
(25.42780000240847 0.2800469238899972 0)
(20.9531894194046 3.354983471614478 0)
(12.38727766605821 4.19927413173694 0)
(6.397759953536761 0.548998871523505 0)
(25.04425141337029 0.3746492177070623 0)
(17.83266083599082 2.776116359651642 0)
(7.221971067876223 3.031961780077324 0)
(0.9126590289382898 0.6429139280690005 0)
(22.12089370271492 -0.5360261742262733 0)
(12.64529318453641 -1.113121202372251 0)
(3.354690323549772 -0.2321767008392108 0)
(-1.176838484843528 0.5305498107521976 0)
(9.805459411387435 3.249083714042822 0)
(11.24766517223039 4.857098979828569 0)
(11.70730252260653 6.132081349651309 0)
(12.63358546554848 7.420256860697588 0)
(7.767210983705803 2.735292736867398 0)
(10.71173630499706 5.043235704260644 0)
(11.66834638540256 6.413715530695913 0)
(12.55857276624227 7.580794954486518 0)
(4.566427412544018 0.8853248494185806 0)
(9.046221450221873 4.336479241494257 0)
(10.9975598201323 6.550486303545448 0)
(12.14988195544957 7.678043638300379 0)
(0.9295167606877555 0.7132427566923513 0)
(4.741834633528065 3.143160577858857 0)
(8.27135108383316 4.601704400857873 0)
(10.22073550773739 5.779274565500165 0)
(13.49893335354609 8.566941053815087 0)
(14.3768760093027 9.492805950100601 0)
(15.57588922655544 10.45980578324006 0)
(16.70774562205699 11.1345568971098 0)
(13.55596784502537 8.610155779315779 0)
(14.45259730878361 9.53393679351772 0)
(15.52317883033532 10.43059447409743 0)
(16.69365075338412 11.12707445752383 0)
(13.42077432646349 8.589844289229658 0)
(14.4247077656915 9.489132644775085 0)
(15.42627427490218 10.35924668467729 0)
(16.64045377076986 11.12501729161985 0)
(12.37006331128199 6.954528337585498 0)
(14.59214897459041 8.060922387752615 0)
(15.47590489630621 10.01469179822408 0)
(16.72631295173082 10.96336948831162 0)
(17.85798382336777 11.54410197777225 0)
(19.57317213071928 11.82326211460269 0)
(21.88741339314314 11.48953360763144 0)
(24.74807927499724 10.0754606328089 0)
(17.75381847561848 11.55104119217091 0)
(19.18188635919483 11.82600731355512 0)
(21.33320382436695 11.64468482923201 0)
(24.90104961785019 12.17159631853883 0)
(17.65980522765215 11.61099609026253 0)
(18.81808828484308 11.86880425347037 0)
(21.39011479130987 12.54836191732593 0)
(31.11289796141298 18.07603542713808 0)
(17.65523410116712 11.53584626560365 0)
(18.73856131519675 11.83820832291973 0)
(22.07671430104844 13.18092783715734 0)
(42.67357512019549 25.10237773388094 0)
(30.27325887203386 4.950868653134664 0)
(31.7938979839475 -3.821015914864634 0)
(12.04585951051849 7.859661142753553 0)
(9.504986338461951 25.10574650083122 0)
(31.99057073056577 4.632327816303532 0)
(25.85553274772689 -1.71164460695513 0)
(9.180924949107705 15.84178972996919 0)
(8.345202160474704 25.60601537266635 0)
(31.7319633525777 3.136175655631479 0)
(16.30404548353209 -3.707136554672337 0)
(4.072473501569391 18.5344301128914 0)
(4.265610055170218 25.69154713701781 0)
(20.16506288931578 -8.363650881005036 0)
(6.46965743826697 0.06824926965709389 0)
(2.331205317512559 20.74718412090657 0)
(2.264663527211193 25.33576841746332 0)
(5.316706495504749 16.59281259615962 0)
(1.581849515506994 13.24851931442662 0)
(-0.8340389965050824 11.71035298630079 0)
(-2.122412452557916 8.546724392290486 0)
(3.874520582960326 20.5343764095363 0)
(1.03866196442814 16.53506665988666 0)
(-0.8613952673563526 12.87880573064757 0)
(-1.181601749416406 6.702183470801514 0)
(2.620155349072899 20.71881068562334 0)
(1.281451196919719 16.71620827592625 0)
(-0.4296468001227982 11.36727912798045 0)
(-0.733040439204181 4.576496639491351 0)
(0.5876079465840427 20.21012951657446 0)
(-0.2739279429513944 16.3226476849073 0)
(-1.564699469380047 10.44104714443729 0)
(-1.401292900369715 3.483061633276781 0)
(-3.641809445233331 2.865330570731406 0)
(1.633736381303233 -1.157510553075027 0)
(5.279150300313494 -4.808176907117769 0)
(7.302094922622596 -8.648715471192943 0)
(-4.667319027977159 2.51157448802539 0)
(-2.188026142107666 -0.144286872015574 0)
(2.914778540725338 -2.426665777657118 0)
(6.544934125228883 -7.555618712618283 0)
(-4.309651737312381 1.714270422872541 0)
(-4.465190602167782 0.2330576816061062 0)
(-0.05532854070353441 -1.184455260367261 0)
(5.425857259150558 -5.466553017698105 0)
(-3.201743682257577 1.981568141085598 0)
(-4.683049818189389 1.354020424200588 0)
(-0.5334662145659332 1.788653811080944 0)
(5.968366622642742 -2.799054707421026 0)
(6.065172511848107 -8.172618412163255 0)
(5.834089817924158 -8.11555798981405 0)
(6.063297986109066 -7.960721959252982 0)
(6.103073208019014 -7.663299490827616 0)
(5.740898220437002 -8.957204890479183 0)
(5.307619115743004 -8.820500743453508 0)
(5.423688104602738 -8.824634246503019 0)
(5.08068849496387 -8.635063421305677 0)
(5.360275566021062 -8.594531144714841 0)
(4.76051557368767 -7.090084974225433 0)
(4.372324320317643 -5.912674745450299 0)
(2.994571114649347 -5.068642933081754 0)
(8.303560863318774 -7.390531177289541 0)
(7.186938086011935 -3.788891134165769 0)
(5.116602907112402 -0.9425252250250375 0)
(2.152557332208855 0.2271671698526053 0)
(0.2025333198984808 1.199145390077607 0)
(-0.899973596921402 1.356909294923838 0)
(-1.550014336666871 1.023482932484722 0)
(-1.810067997602188 0.3140022786738039 0)
(1.676620130099585 -2.8134738679846 0)
(-0.2333845532428943 -1.671572694036798 0)
(-1.426828852684626 -0.6432029767634961 0)
(-2.016537115159643 -0.2719536081473514 0)
(4.177283691322439 -7.335720169382802 0)
(2.905808598295989 -5.630087942372836 0)
(1.507037527738885 -3.529952595238568 0)
(0.5262278768056929 -1.278037177857509 0)
(6.425792703499162 -6.821134087085925 0)
(6.386836856141866 -5.301775349345541 0)
(5.768864669478965 -3.366239837553453 0)
(5.15933411255318 -1.231600170227498 0)
(-1.810067997607454 -0.3140022786805531 0)
(-2.016537115159251 0.2719536081166525 0)
(0.5262278768053192 1.278037177801974 0)
(5.159334112554339 1.231600170175905 0)
(-1.550014336672738 -1.023482932495486 0)
(-1.426828852688237 0.6432029767341773 0)
(1.507037527739681 3.529952595189217 0)
(5.768864669502642 3.366239837501418 0)
(-0.8999735969258393 -1.356909294935669 0)
(-0.2333845532524087 1.671572694005344 0)
(2.905808598301553 5.630087942331842 0)
(6.386836856172792 5.301775349306502 0)
(0.202533319894645 -1.199145390091187 0)
(1.676620130093136 2.813473867955916 0)
(4.177283691322131 7.335720169357473 0)
(6.42579270351079 6.821134087065486 0)
(6.103073208015001 7.663299490820236 0)
(6.063297986096645 7.960721959246033 0)
(5.834089817906439 8.115557989799019 0)
(6.065172511833141 8.172618412158601 0)
(5.080688494963622 8.635063421286658 0)
(5.423688104602308 8.824634246487102 0)
(5.307619115740544 8.820500743436298 0)
(5.740898220429061 8.957204890471759 0)
(2.994571114655184 5.068642933054536 0)
(4.37232432032524 5.912674745429612 0)
(4.760515573692251 7.090084974209537 0)
(5.360275566023273 8.594531144702545 0)
(2.152557332200442 -0.2271671698627989 0)
(5.116602907106394 0.9425252250135985 0)
(7.18693808600886 3.788891134159451 0)
(8.303560863317585 7.39053117729082 0)
(5.968366622643425 2.799054707425402 0)
(-0.5334662145525864 -1.788653811054185 0)
(-4.683049818158193 -1.35402042418583 0)
(-3.201743682234326 -1.981568141072772 0)
(5.425857259149198 5.466553017690373 0)
(-0.05532854069226894 1.184455260386238 0)
(-4.465190602134439 -0.2330576815926452 0)
(-4.309651737280019 -1.714270422849744 0)
(6.544934125217771 7.555618712614808 0)
(2.914778540723084 2.426665777669616 0)
(-2.188026142072048 0.1442868720217651 0)
(-4.667319027945936 -2.511574487979909 0)
(7.302094922607575 8.648715471190719 0)
(5.279150300296984 4.808176907138297 0)
(1.633736381338964 1.157510553088835 0)
(-3.641809445208158 -2.865330570681476 0)
(-2.122412452601859 -8.546724392191907 0)
(-0.83403899658471 -11.71035298630072 0)
(1.581849515492679 -13.24851931458041 0)
(5.31670649555888 -16.5928125964056 0)
(-1.181601749434332 -6.702183470746617 0)
(-0.8613952673974654 -12.87880573062608 0)
(1.038661964450432 -16.53506665994699 0)
(3.874520583037237 -20.53437640963198 0)
(-0.7330404392177767 -4.576496639463396 0)
(-0.4296468001469143 -11.36727912795951 0)
(1.28145119692361 -16.71620827593096 0)
(2.620155349091235 -20.71881068566136 0)
(-1.401292900365829 -3.483061633260609 0)
(-1.564699469396007 -10.44104714441587 0)
(-0.2739279429618017 -16.32264768489316 0)
(0.5876079465884767 -20.21012951659938 0)
(9.504986338476943 -25.10574650103744 0)
(12.04585951035424 -7.859661143078127 0)
(31.79389798385942 3.821015914911376 0)
(30.27325887202546 -4.95086865310047 0)
(8.345202160508149 -25.60601537275521 0)
(9.180924949116985 -15.84178973011704 0)
(25.85553274767426 1.711644606931763 0)
(31.99057073055447 -4.63232781627532 0)
(4.265610055179315 -25.691547137083 0)
(4.072473501558916 -18.53443011300291 0)
(16.30404548351324 3.707136554618055 0)
(31.73196335256774 -3.136175655620507 0)
(2.264663527219242 -25.33576841753974 0)
(2.331205317513107 -20.74718412101674 0)
(6.469657438291168 -0.06824926972149589 0)
(20.16506288933973 8.363650880994697 0)
(24.74807927501347 -10.07546063278767 0)
(21.88741339316524 -11.48953360763232 0)
(19.5731721307382 -11.82326211460571 0)
(17.8579838233902 -11.54410197780331 0)
(24.90104961785784 -12.17159631852509 0)
(21.33320382438314 -11.64468482923157 0)
(19.1818863592083 -11.82600731356031 0)
(17.75381847561555 -11.55104119218914 0)
(31.11289796139992 -18.0760354271186 0)