/*--------------------------------*- C++ -*----------------------------------*\
  =========                 |
  \\      /  F ield         | OpenFOAM: The Open Source CFD Toolbox
   \\    /   O peration     | Website:  https://openfoam.org
    \\  /    A nd           | Version:  11
     \\/     M anipulation  |
\*---------------------------------------------------------------------------*/
FoamFile
{
    format      ascii;
    class       volVectorField;
    location    "0.1075";
    object      U;
}
// * * * * * * * * * * * * * * * * * * * * * * * * * * * * * * * * * * * * * //

dimensions      [0 1 -1 0 0 0 0];

internalField   nonuniform List<vector> 
880
(
(25 -2.147234503288583e-15 0)
(24.99999999999997 -3.005312861906573e-12 0)
(24.99999928281009 -1.442074104660925e-06 0)
(24.99991241890076 -1.90541956758223e-05 0)
(25 5.686837440347664e-17 0)
(24.99999999999355 -3.122374850253778e-11 0)
(24.99999709671433 -6.045146859581068e-06 0)
(24.99884850403302 -0.004428098392917896 0)
(25 1.733201268010058e-14 0)
(25.00000000049173 5.550131126555036e-10 0)
(24.99999287481622 -6.118835947734373e-06 0)
(24.99295768551425 -0.02466422188553254 0)
(25.00000000000002 -2.502856778661597e-13 0)
(24.9999999939486 -4.532252004244421e-10 0)
(24.99978200636574 -0.0001356555021141568 0)
(24.91028355348575 -0.07827069166240397 0)
(25.00000000000001 -1.170350349304728e-13 0)
(24.99999999996911 1.882134118524072e-11 0)
(24.99999999989044 -3.600752443768907e-10 0)
(24.9999999772602 -1.062399070650097e-07 0)
(25.00000001728581 4.475948495307758e-10 0)
(24.99999998046961 1.193894474833268e-09 0)
(25.00000019178988 2.5826837501676e-08 0)
(24.99999631647623 -7.227472418295203e-07 0)
(24.99876190370415 0.0001028710294309506 0)
(24.9973272496007 0.0008847326717877383 0)
(24.99731322687107 0.009184187509922738 0)
(24.99846790253426 -0.01366191182431934 0)
(24.56586730369192 0.0982691237887517 0)
(24.21256573823032 0.5283973466812564 0)
(24.10824396113834 0.9476893066449629 0)
(24.09389170531916 1.187818613877357 0)
(24.99999935933004 -1.188895615576632e-06 0)
(24.99999665230096 -5.11590142267769e-06 0)
(24.99998153823717 -2.684287159164933e-05 0)
(24.99998582817787 -1.536276270834102e-05 0)
(24.9999428202381 1.491461398212835e-05 0)
(24.99985190827904 0.0001453815206670915 0)
(24.99988057837206 0.0004469784427921688 0)
(24.99988215807077 0.0003384921181138707 0)
(24.9760719400939 0.01344601916394824 0)
(24.96764362179663 0.03854873892624359 0)
(24.97238550499263 0.06605873322296237 0)
(24.97179857864709 0.06894607087584678 0)
(24.09576818059076 1.468283807121618 0)
(24.05601948907383 1.777403889319201 0)
(24.15273188198712 1.940567326083558 0)
(24.20283364420371 2.26722575661052 0)
(24.94798817187959 2.401883234444467 0)
(25.33057377115448 2.092047925080939 0)
(25.5533720333375 1.550188445057341 0)
(25.6596467555414 1.043696916665245 0)
(24.94039155123284 0.1288562855648118 0)
(24.95121393548836 0.2438565438703579 0)
(25.02478710931371 0.2600462931347712 0)
(25.0589434349737 0.2323615379357454 0)
(24.99948281058291 0.00102665134868436 0)
(24.99865536046987 0.003045651632713676 0)
(24.99950816026273 0.004856707390662505 0)
(25.00050363570703 0.004804630507688889 0)
(24.99996256102363 -4.549368301291352e-05 0)
(24.99991117379317 -0.0001233381643396689 0)
(24.99983252041866 -0.0001731654859272203 0)
(24.99981784309531 -0.0001624560462456196 0)
(24.99984553924023 -0.0001148857924071992 0)
(24.99991070602544 -5.395356248180525e-05 0)
(24.99996917265248 -1.607014973400288e-05 0)
(24.99999436451267 -2.661727444749801e-06 0)
(25.00102818327418 0.003901423143933043 0)
(25.00098130813816 0.002156085303571822 0)
(25.00046897284043 0.0007258318934139244 0)
(25.00010866895037 0.0001373385196131084 0)
(25.07476203562191 0.1748844954264472 0)
(25.06510700530508 0.1088762810781595 0)
(25.03905385629003 0.05040603378482224 0)
(25.01555363939302 0.01598176943930176 0)
(25.6282324553984 0.6961781971429835 0)
(25.5302233544027 0.471443585376595 0)
(25.39993645415069 0.3095389079397007 0)
(25.25141441233278 0.1694240918302875 0)
(25.11354170604871 0.06530340644188885 0)
(25.0034739326412 0.003137961986245792 0)
(25.00001123876982 1.318736791405302e-05 0)
(24.99999954570299 -2.025760943847906e-07 0)
(25.01989017888116 0.01051979381986717 0)
(25.00028965481327 0.0002002189387391437 0)
(25.00000041684666 4.028008820256597e-07 0)
(24.99999998632603 -4.281219620094446e-09 0)
(24.98211012941246 0.03134196524346037 0)
(24.99993813830167 0.0001437839163943082 0)
(24.99999987487241 2.694024203382675e-07 0)
(24.99999999460251 -5.498424945249152e-09 0)
(24.06433064961398 0.5167169491651296 0)
(24.98926511821409 0.01019896398533471 0)
(24.99998981700103 4.173435861117272e-05 0)
(25.00000142640436 -2.512451843997564e-06 0)
(24.99999667446887 -5.587196458253569e-06 0)
(24.99975706553364 0.0001191701993511077 0)
(24.91295290430305 0.03243470577485994 0)
(20.58096147364063 1.465087739060626 0)
(24.99998386232154 -2.798654814105871e-05 0)
(24.9992889924459 0.0005726080774955015 0)
(24.83521034902077 0.09906651275167477 0)
(20.22633787919944 2.972788841383763 0)
(24.9999605991935 -9.174645473610516e-05 0)
(24.99822384817734 0.001822225685480313 0)
(24.72821750761735 0.2283894023392377 0)
(19.62707673352198 4.5360088085872 0)
(24.99984347277554 -0.0002019156380712329 0)
(24.99781965858703 0.004054062267305929 0)
(24.65240680650607 0.3878136000177584 0)
(19.47961937681425 5.822873264476899 0)
(19.35646873553785 6.9531777799788 0)
(24.5551653705677 0.6028289279759388 0)
(24.9960686216086 0.00692969564490628 0)
(24.99980990470511 -0.0002825826743330408 0)
(19.5071126869779 7.590183514739818 0)
(24.51372728943785 0.7861710185353676 0)
(24.99641288389347 0.01101454099015102 0)
(24.99955826090065 -0.0005568432017829973 0)
(19.42747135399982 8.181400128353062 0)
(24.39467113198033 1.004952900173428 0)
(24.99303625348426 0.01454362078131703 0)
(24.99956038068787 -0.0006949496707515692 0)
(19.2955908517347 8.635755038204572 0)
(24.29268926963543 1.236538802934996 0)
(24.99247267912401 0.02247791147336544 0)
(24.99912177986456 -0.001054647203350907 0)
(24.99899228525926 -0.001455093415100147 0)
(24.98621509042198 0.02939184750513993 0)
(24.06636825957795 1.564765005793622 0)
(19.26885241355568 9.102711746627584 0)
(24.99822080298991 -0.00231926841504276 0)
(24.98416413759611 0.04761336505332194 0)
(24.11881106325477 1.808136246833402 0)
(20.06273561814064 8.918753749644562 0)
(24.99882329988245 -0.003062153967725845 0)
(24.98931798787175 0.04549091181740491 0)
(24.48606930702134 1.507255515667038 0)
(22.09460252575179 7.881712641674596 0)
(24.9973442298034 -0.00139858772684979 0)
(24.99365759735574 0.02289370085215878 0)
(24.92933031822121 0.960718799704782 0)
(24.43111974746942 5.475973656424826 0)
(24.99759914933883 -0.001934566787815079 0)
(24.99904100206191 0.06847343899927488 0)
(25.44544820187282 0.7760178562006397 0)
(27.94362887551028 3.049928710629676 0)
(24.99778100959023 -0.00116229426230993 0)
(25.05139466523555 0.02727260970067921 0)
(25.56537615659314 0.2348825852782074 0)
(28.43551119580383 0.5867218505952653 0)
(25.00000397310957 -0.0003456930474079098 0)
(25.02111997595224 -0.003288658906575747 0)
(25.31664460032737 -0.2971760323468023 0)
(25.79462821955194 -2.7808229367321 0)
(24.99988567848917 -0.0003889912058563099 0)
(24.99236871542522 -0.0254366117479358 0)
(24.77119464541839 -0.6617599446048872 0)
(21.21093496407584 -4.510746660658982 0)
(18.82136727363167 -4.701039461976535 0)
(24.45064878971749 -0.684187665943468 0)
(24.98480280779286 -0.02539551159693534 0)
(24.9999068120799 -0.0001857576385036177 0)
(17.55272187082757 -4.170537355880725 0)
(24.25686463898618 -0.6370398406309929 0)
(24.97906529394525 -0.02199891724405096 0)
(24.99987226304976 -0.0001633510230385033 0)
(17.18240605029362 -2.773303652450184 0)
(24.20320059480223 -0.4536886111898221 0)
(24.98473427433772 -0.01297072641051343 0)
(24.99996350401754 -6.140015220432285e-05 0)
(16.00100280492669 -1.59115202461678 0)
(24.08288300051916 -0.3632525806117593 0)
(24.98310748327112 -0.01153741941048811 0)
(24.99994486549065 -6.352559068320067e-05 0)
(17.85937704066644 -0.1870351430073368 0)
(24.39626199599742 -0.209735067779788 0)
(24.99188598640789 -0.005586331931644457 0)
(24.99997815094556 -2.702410879746091e-05 0)
(20.29817415645931 0.6738796876402273 0)
(24.68827524382246 -0.1052383996045049 0)
(24.99722200878169 -0.00186348720058916 0)
(24.9999929754136 -7.418865900915476e-06 0)
(22.21506430213236 0.6498137770359945 0)
(24.86071330165029 -0.06645336457868815 0)
(24.99914790609061 -0.0008066934088630804 0)
(24.99999829269714 -3.033083748084794e-06 0)
(23.48850234305895 0.4817355756849145 0)
(24.95785700915729 -0.05826400345853933 0)
(24.99992459764252 -0.0005298646861223724 0)
(24.99999972908789 -1.730298005659642e-06 0)
(23.07197440854788 -0.1702430438676811 0)
(24.86975199128723 -0.00449339675741981 0)
(24.99706373524188 -4.025960028477918e-05 0)
(24.9999766820369 -1.358039597449815e-07 0)
(23.19476209963483 -0.5190550455263333 0)
(24.87695258500671 -0.01223108962993821 0)
(24.99714739725575 -0.0001062314848844817 0)
(24.99997710407874 -3.700477923519874e-07 0)
(23.15216094526615 -0.8693108631437046 0)
(24.8786459383336 -0.02525490875597452 0)
(24.99722501420258 -0.0002272414797971633 0)
(24.9999776717021 -7.89511612450759e-07 0)
(23.16515919385159 -0.8902603187171977 0)
(24.8883756231685 -0.03551565368558836 0)
(24.99752551529705 -0.0004279512639992465 0)
(24.99998013128366 -2.027413599097193e-06 0)
(23.4885023430602 -0.4817355757033197 0)
(24.95785700919846 0.0582640034398049 0)
(24.99992459770177 0.0005298646502735248 0)
(24.9999997291386 1.730297106148137e-06 0)
(22.21506430213976 -0.6498137770718693 0)
(24.86071330170101 0.06645336457641052 0)
(24.99914790613481 0.0008066934230315475 0)
(24.9999982927159 3.033094595492417e-06 0)
(20.29817415646484 -0.673879687625647 0)
(24.68827524385711 0.1052383996225735 0)
(24.9972220087828 0.001863487231603618 0)
(24.99999297542569 7.418868797300139e-06 0)
(17.85937704064306 0.1870351429927307 0)
(24.39626199601968 0.2097350678031072 0)
(24.99188598638984 0.005586331930984294 0)
(24.99997815094089 2.702411258642529e-05 0)
(24.99990681202443 0.0001857577078389058 0)
(24.98480280778606 0.02539551158138994 0)
(24.45064878968471 0.6841876659337559 0)
(18.8213672735759 4.701039462055811 0)
(24.99987226303933 0.0001633510360616311 0)
(24.97906529394728 0.0219989172554448 0)
(24.25686463897156 0.6370398406275171 0)
(17.55272187077479 4.170537355928627 0)
(24.99996350400802 6.140015117719972e-05 0)
(24.98473427434874 0.01297072639852366 0)
(24.2032005948299 0.4536886112194929 0)
(17.18240605025541 2.773303652451025 0)
(24.99994486548452 6.352559048234043e-05 0)
(24.98310748323404 0.0115374193948541 0)
(24.0828830005167 0.363252580629785 0)
(16.00100280490447 1.591152024595774 0)
(21.2109349640271 4.510746660682604 0)
(24.77119464539768 0.6617599446267793 0)
(24.99236871543775 0.02543661177490108 0)
(24.99988567852302 0.000388991121254111 0)
(25.79462821951911 2.780822936744447 0)
(25.31664460033205 0.2971760323490812 0)
(25.02111997594436 0.003288658892077012 0)
(25.00000397311375 0.0003456930497923649 0)
(28.43551119579875 -0.5867218505764412 0)
(25.56537615659489 -0.2348825852959862 0)
(25.0513946652359 -0.02727260970335719 0)
(24.9977810095652 0.001162294276604955 0)
(27.94362887550945 -3.049928710619812 0)
(25.44544820189911 -0.7760178561947946 0)
(24.999041002084 -0.06847343896916526 0)
(24.99759914931438 0.001934566779912917 0)
(24.99899228528205 0.001455093423891188 0)
(24.98621509023049 -0.02939184751882353 0)
(24.06636825951215 -1.564765005832303 0)
(19.26885241355035 -9.102711746656592 0)
(24.99822080297752 0.002319268414245484 0)
(24.98416413758129 -0.04761336501939089 0)
(24.11881106321881 -1.808136246854001 0)
(20.06273561812283 -8.918753749664203 0)
(24.99882329986444 0.003062154020969291 0)
(24.98931798788976 -0.04549091183567715 0)
(24.48606930702195 -1.507255515660167 0)
(22.09460252576468 -7.881712641668686 0)
(24.99734422984291 0.001398587661706161 0)
(24.99365759737882 -0.02289370083951231 0)
(24.92933031822982 -0.9607187997053119 0)
(24.43111974746961 -5.475973656414086 0)
(19.29559085173402 -8.63575503823307 0)
(24.29268926966133 -1.236538802904892 0)
(24.99247267932416 -0.02247791142067453 0)
(24.99912177977922 0.001054647200982676 0)
(19.42747135398067 -8.181400128366725 0)
(24.39467113194762 -1.004952900187115 0)
(24.99303625335904 -0.01454362083774962 0)
(24.99956038069774 0.0006949496745126387 0)
(19.50711268697444 -7.590183514756167 0)
(24.51372728940677 -0.7861710185264623 0)
(24.99641288394238 -0.01101454097423602 0)
(24.99955826089024 0.0005568432098387266 0)
(19.35646873556067 -6.953177779960159 0)
(24.5551653705275 -0.6028289280043397 0)
(24.99606862156294 -0.00692969565879288 0)
(24.99980990469834 0.0002825826627917164 0)
(24.99999667446297 5.587198055838729e-06 0)
(24.99975706550088 -0.0001191701943188619 0)
(24.91295290426489 -0.03243470580183037 0)
(20.58096147360878 -1.465087739082204 0)
(24.99998386227703 2.79865493850701e-05 0)
(24.9992889924802 -0.0005726080642445397 0)
(24.83521034915602 -0.09906651267553432 0)
(20.22633787925816 -2.972788841357241 0)
(24.99996059914581 9.174645659428247e-05 0)
(24.99822384810937 -0.001822225707055027 0)
(24.728217507514 -0.22838940247614 0)
(19.62707673350913 -4.536008808634802 0)
(24.99984347277069 0.0002019156379817748 0)
(24.99781965862935 -0.004054062246661464 0)
(24.65240680661802 -0.3878135999141284 0)
(19.47961937684812 -5.822873264442108 0)
(25.00000142640182 2.512453467717258e-06 0)
(24.99999999460715 5.49740762548195e-09 0)
(24.999999986311 4.283381831225744e-09 0)
(24.99999954570491 2.025772000038717e-07 0)
(24.99998981704845 -4.173435426804074e-05 0)
(24.99999987489225 -2.693999508819271e-07 0)
(25.0000004168635 -4.027966192199459e-07 0)
(25.00001123877847 -1.318737101566251e-05 0)
(24.98926511823768 -0.01019896399460949 0)
(24.9999381382956 -0.0001437839150726125 0)
(25.00028965482849 -0.0002002189407224918 0)
(25.00347393265205 -0.003137961990075703 0)
(24.06433064963371 -0.5167169491764522 0)
(24.98211012940624 -0.03134196524554526 0)
(25.01989017887157 -0.01051979382464556 0)
(25.1135417060473 -0.06530340644515764 0)
(24.99999436450064 2.661726475247008e-06 0)
(25.00010866893172 -0.0001373385297924774 0)
(25.01555363937791 -0.01598176944241567 0)
(25.25141441233326 -0.1694240918175563 0)
(24.99996917266366 1.607015229785998e-05 0)
(25.00046897281598 -0.000725831897572682 0)
(25.0390538562913 -0.05040603376091497 0)
(25.39993645414554 -0.3095389079188979 0)
(24.99991070602503 5.395356642605302e-05 0)
(25.00098130813099 -0.002156085294716984 0)
(25.06510700532601 -0.1088762810886456 0)
(25.53022335443274 -0.471443585388285 0)
(24.99984553925776 0.000114885794421891 0)
(25.00102818328359 -0.003901423144151759 0)
(25.07476203560905 -0.1748844954345084 0)
(25.6282324554076 -0.6961781971307982 0)
(24.99996256101873 4.549367699386846e-05 0)
(24.99948281061602 -0.001026651333878367 0)
(24.94039155122812 -0.1288562855704371 0)
(24.94798817186589 -2.40188323442215 0)
(24.99991117382509 0.0001233381507528351 0)
(24.99865536046089 -0.003045651606935893 0)
(24.95121393547211 -0.2438565438732073 0)
(25.33057377115152 -2.092047925071399 0)
(24.99983252039515 0.0001731654871525853 0)
(24.99950816028536 -0.004856707393459321 0)
(25.02478710933283 -0.2600462931540283 0)
(25.55337203334965 -1.550188445074305 0)
(24.99981784310522 0.0001624560438102485 0)
(25.00050363571884 -0.004804630501946798 0)
(25.0589434349752 -0.2323615379291165 0)
(25.65964675556601 -1.043696916662518 0)
(24.20283364421415 -2.267225756614401 0)
(24.97179857864096 -0.06894607089968337 0)
(24.99988215810634 -0.0003384920973412127 0)
(24.99998582816284 1.536277226947801e-05 0)
(24.15273188200007 -1.940567326092326 0)
(24.97238550496263 -0.06605873323760089 0)
(24.99988057842004 -0.0004469784323486793 0)
(24.99998153824838 2.684287593797467e-05 0)
(24.056019489078 -1.777403889291967 0)
(24.96764362179423 -0.03854873890256567 0)
(24.99985190832774 -0.0001453815351562598 0)
(24.99999665229709 5.11590476271391e-06 0)
(24.09576818060704 -1.468283807121178 0)
(24.97607194012702 -0.01344601917279339 0)
(24.99994282025406 -1.491460788395117e-05 0)
(24.99999935929419 1.188873154975789e-06 0)
(24.0938917053281 -1.187818613887605 0)
(24.99846790247577 0.01366191180491152 0)
(24.99999631647814 7.227667671141303e-07 0)
(24.99999997724434 1.062475768711608e-07 0)
(24.10824396115281 -0.9476893066441017 0)
(24.99731322690295 -0.009184187485315295 0)
(25.00000019179525 -2.586018581565575e-08 0)
(24.99999999989042 3.599921818455236e-10 0)
(24.21256573824554 -0.5283973466822649 0)
(24.99732724962006 -0.0008847326655815762 0)
(24.99999998052031 -1.182692021921045e-09 0)
(24.99999999996918 -1.872648416358804e-11 0)
(24.56586730371067 -0.0982691237849458 0)
(24.99876190371901 -0.0001028710313849623 0)
(25.00000001726855 -4.440365543497139e-10 0)
(25 2.373188151923291e-13 0)
(25.00000000000001 2.113383692497783e-15 0)
(25 2.145566467551964e-12 0)
(24.99999928279716 1.442077441822081e-06 0)
(24.99991241889601 1.90542095845663e-05 0)
(25 -2.326525817100321e-15 0)
(25.00000000000179 2.91995547759858e-11 0)
(24.99999709671082 6.045143096018982e-06 0)
(24.99884850404913 0.004428098356203862 0)
(25 -6.071135425099555e-15 0)
(25.00000000050229 -5.59701381346202e-10 0)
(24.99999287481504 6.118831700453837e-06 0)
(24.99295768550768 0.02466422189606135 0)
(25 1.580850183141354e-13 0)
(24.99999999397586 4.533782995836197e-10 0)
(24.99978200637844 0.0001356554959549568 0)
(24.91028355349347 0.07827069163644719 0)
(24.9997479242389 -1.666872002928832e-12 0)
(24.99673239635187 0.01045270192154595 0)
(24.96222180021062 0.03599584502987867 0)
(24.66267476296559 -0.003332386701716666 0)
(24.99673239638179 -0.01045270190176995 0)
(24.9732406733015 1.593628914706685e-11 0)
(24.79732741427483 -0.01500756371607194 0)
(23.92951705311322 -0.309041015135034 0)
(24.96222180025256 -0.03599584498187293 0)
(24.79732741436136 0.01500756376718779 0)
(24.03808474863082 -9.314007167790324e-11 0)
(22.10147838724822 -0.4899300592095322 0)
(24.66267476298676 0.003332386730831664 0)
(23.92951705317344 0.3090410151427104 0)
(22.10147838735806 0.4899300590833406 0)
(19.62174066093594 1.543153496487462e-11 0)
(18.81202219337204 2.675806343664068 0)
(19.54644928049306 3.148968180618249 0)
(21.45458899327278 2.702240581165074 0)
(23.0420468361115 1.701641680199596 0)
(19.81716272576698 4.544547725010122 0)
(20.0412142286722 4.510829586131944 0)
(20.93429941055626 4.443876425030309 0)
(22.15704624319712 4.031041212399001 0)
(20.51063640533808 5.356226916445885 0)
(20.87031428334646 4.811985153919462 0)
(21.61474306334244 4.913964089706499 0)
(22.46260177695218 4.778173195116596 0)
(21.11784645434484 5.932131676487734 0)
(21.51160944727418 5.100719207632467 0)
(22.07041926802053 5.163101929689692 0)
(22.59204730238221 5.06381075812993 0)
(22.91432604763682 5.261655104780553 0)
(23.04223458781365 5.444298018951319 0)
(23.17116414688442 5.509858221015789 0)
(23.40952084120979 5.68726737781398 0)
(22.65800374172352 5.445235297605416 0)
(22.99559897058836 5.549239978088528 0)
(23.14647624590457 5.565500881544281 0)
(23.89513325330974 5.895805237336196 0)
(22.22183023760508 5.393331219375199 0)
(22.8475941055887 5.59889942917205 0)
(23.07251876396659 5.619125620241116 0)
(25.28128738289431 6.278526355758373 0)
(21.14061224029854 6.191194184800385 0)
(21.39435217257326 5.92992171465388 0)
(21.78584975714171 5.617619124520172 0)
(26.89029378814331 7.374552122584523 0)
(27.1261667128312 3.389676034288623 0)
(27.25340407409443 0.9674160334773134 0)
(26.45687705702909 0.499215930219344 0)
(26.13704037228989 0.3497957547466672 0)
(28.87359191184782 2.391594899247385 0)
(28.72203728407772 0.3789429345355557 0)
(27.54335064698722 0.3960159610825348 0)
(26.84319594648278 0.3260677460881876 0)
(31.73117481064282 1.958486778036717 0)
(29.72682250445847 0.1547321924462867 0)
(28.12866618851893 0.1143862821056456 0)
(27.26156744865489 0.0543032714811519 0)
(25.09968722117489 2.193306303294417 0)
(23.43567113116552 0.4114487805682526 0)
(23.1026914580267 -0.1358995237335381 0)
(23.36439173268143 -0.528165345070691 0)
(25.91077173643203 0.2596115119992033 0)
(25.7222035164812 0.202970524672423 0)
(25.62559258567227 0.07714769310476657 0)
(25.47596166728233 0.06057682285722301 0)
(26.38804651434382 0.2431323252297063 0)
(26.06306271767133 0.1666295845577223 0)
(25.85144110809969 0.05287539624361091 0)
(25.62801054914224 0.02249977334729694 0)
(26.70166839182598 0.02750301186586173 0)
(26.31087857999094 0.005639577191931988 0)
(26.03220341569726 -0.02080039870368694 0)
(25.75252071409265 -0.03275637054726895 0)
(23.87675782373805 -0.7895637889977818 0)
(24.41930433820955 -0.7638151979795207 0)
(24.79739915072499 -0.5713590320342434 0)
(24.93798257726874 -0.3987450593670705 0)
(25.26326077820991 0.06428806538267064 0)
(25.06426869245411 0.02385290779101067 0)
(24.70688156990047 0.7288066922289097 0)
(19.65938371832284 4.247047031956008 0)
(25.35521747934209 0.02798502624731506 0)
(25.08815606750032 0.02077552323958459 0)
(24.24449656405199 1.228459388722519 0)
(16.22208336120974 4.047667756871444 0)
(25.43853542772751 -0.02183504564256479 0)
(25.11024722462253 0.002390126000025525 0)
(23.31962657767198 1.407410282335039 0)
(13.42239415816535 2.10652123714519 0)
(24.99167573890225 -0.2227030082309719 0)
(25.06424963475129 -0.0434591245338657 0)
(21.03847011564164 0.1914150398389039 0)
(7.679585481523822 1.059019653404576 0)
(14.28659499490088 6.90963253710586 0)
(15.43801475386459 7.995456209601246 0)
(15.76932004793336 9.165117685509903 0)
(16.16432449415511 10.07322737195793 0)
(12.71511188661584 7.110839022355251 0)
(14.83060787350237 8.060351962612382 0)
(15.55654975028889 9.347771420953192 0)
(16.04949279965345 10.11091922332226 0)
(10.254147332822 5.99823315595753 0)
(13.1537794700748 7.730169096096607 0)
(14.72963859622853 9.299595250214578 0)
(15.71269423008113 10.06818797100507 0)
(5.618999669473752 3.062698720027484 0)
(9.027414296818673 4.486840647948439 0)
(11.78102225635883 6.59858899052653 0)
(13.2893074462979 8.802542465232815 0)
(16.30897208507702 10.73344065254612 0)
(16.47652068088924 10.98748715630591 0)
(16.687143563246 11.18110647673576 0)
(16.91114365417427 11.28247434865642 0)
(16.21665116735462 10.61454970451723 0)
(16.38854020126736 10.84799988780509 0)
(16.63970001902116 11.04460094251226 0)
(16.89231023616941 11.16683526971872 0)
(16.09162854186667 10.53420262353193 0)
(16.28592624861086 10.78236758991424 0)
(16.55012669184861 10.99427360042678 0)
(16.80706221236171 11.14119066939374 0)
(14.50761206685608 10.04962143005244 0)
(15.04786782441524 10.70336524033445 0)
(15.51717259252916 10.80869148939669 0)
(15.81351707498797 10.77360366227772 0)
(17.20371916542138 11.39902504533077 0)
(18.13372437010163 11.33628506882584 0)
(20.1487196929071 10.8522068515529 0)
(23.18559737034722 9.051245883142183 0)
(17.18867585446877 11.29925934487374 0)
(18.07846744275216 11.28060243898788 0)
(20.09385552043051 11.05538094161069 0)
(23.84172477757627 11.34087613167232 0)
(17.08611592775417 11.27873663974626 0)
(17.80150464612995 11.301336565371 0)
(20.32408661888647 11.84704295006631 0)
(29.5355733537509 17.3262872959236 0)
(16.34952579755281 11.00869179795022 0)
(17.5005625350598 10.65511632765013 0)
(20.89790434368412 12.30803983953996 0)
(40.58471733275156 23.66588892884723 0)
(28.32848334530537 4.219463580249965 0)
(29.16708786092839 -4.699034779265294 0)
(8.26466006679175 -4.559606747067098 0)
(3.774424030857611 -2.322229519492764 0)
(30.052211535822 3.573013258130807 0)
(23.50559606229686 -2.815020086358118 0)
(2.877215157595477 -4.08477946211979 0)
(1.532665482033751 -0.4870078273879599 0)
(30.83917600144959 2.847155900032547 0)
(14.52911905528004 -4.91762204438639 0)
(1.222573403264047 -0.4368029170507828 0)
(1.006281499783179 0.267742757656643 0)
(20.63294738084436 -9.127480371501578 0)
(4.168253353447583 -4.660119011769238 0)
(-0.545455881923953 1.194160139633122 0)
(0.1803519432673517 0.1430805905933627 0)
(1.862512324909374 -1.756016220550056 0)
(0.5216621826972118 -1.485992451260319 0)
(-0.09770266223121145 -0.7736039425986504 0)
(-0.8320115050226017 0.5860544130156512 0)
(0.6654268767681486 -0.0224320536755087 0)
(-0.4342120935622406 0.2283510791843995 0)
(-0.8244962259441367 0.9112418551118049 0)
(-0.6255641950282215 2.196930225200803 0)
(0.3892178526600525 0.2050755160515993 0)
(-0.1806496087161112 0.9172678275801545 0)
(0.113093476834616 2.052046103230733 0)
(-0.2596395935491673 3.520289359193578 0)
(0.1672603169297014 0.1002053828415853 0)
(-0.03887111181528465 1.064965713481179 0)
(-0.1476253406907008 2.838619753002505 0)
(-0.8733172034277663 3.725902452000368 0)
(6.765252999167947 -3.487006636980081 0)
(14.73644339718359 -4.991162093693853 0)
(19.67525457347541 -4.921690065527168 0)
(22.97655971169091 -5.356880422951996 0)
(2.90751589127404 -0.7961977513849926 0)
(10.93228463314597 -2.968520035258414 0)
(17.06058791830472 -4.198386805210498 0)
(21.56246917831914 -5.861666113150608 0)
(-1.00119638208014 -0.7754462977091929 0)
(4.679733708954019 -2.698657317025158 0)
(12.31429068247526 -4.034129355420717 0)
(20.83838972076886 -4.30979077907009 0)
(-2.069169022107981 1.225233170639678 0)
(1.451499917291045 0.6440785665010781 0)
(9.737023683000416 1.563619611192922 0)
(23.027044383883 -2.431746719133395 0)
(24.56918100630393 -10.6670697488951 0)
(26.58153188732215 -17.88095665599987 0)
(26.60346790806818 -17.1215296682092 0)
(20.42110139032894 -9.115908045626153 0)
(23.16393581839809 -11.11264362766368 0)
(25.05414685675616 -16.07468994778791 0)
(23.19167768486634 -9.204625920474889 0)
(14.86030840211263 -3.138484188741166 0)
(22.51894979412112 -12.20659729300973 0)
(19.46833857379634 -10.27389319795177 0)
(14.08322877655842 -1.324078518485802 0)
(6.361826768319023 2.455792140711691 0)
(15.40785590878979 -11.72376633015565 0)
(8.21501033555035 -2.286279527408799 0)
(4.415166457373584 3.39674783493419 0)
(1.594937442825133 5.074741805912081 0)
(-0.9017230149732109 5.130376239579548 0)
(-2.323823464601843 4.181035906677012 0)
(-2.788169920087108 2.755235058941442 0)
(-2.716725213145712 0.9969034471284358 0)
(0.6864776827518617 4.306937748678446 0)
(-2.417604567211834 3.561695333667438 0)
(-3.719790005834089 2.161735542311542 0)
(-3.617348641744605 0.6755317806209128 0)
(4.336786501634373 -1.424776368058888 0)
(-1.434407604673805 -0.6839451797823436 0)
(-3.098887394961724 -0.254103426074858 0)
(-3.182190319281849 -0.2347633946873261 0)
(12.308299862958 -6.416754437132374 0)
(6.888063165530295 -5.234456050284936 0)
(4.681532808499504 -3.075666318178546 0)
(4.672544512140531 -0.9972759047067354 0)
(-2.716725213144913 -0.9969034471209152 0)
(-3.617348641743559 -0.6755317806135968 0)
(-3.182190319282872 0.2347633946903257 0)
(4.672544512126922 0.9972759047020954 0)
(-2.788169920086044 -2.755235058933216 0)
(-3.719790005830752 -2.161735542304216 0)
(-3.098887394961209 0.2541034260766192 0)
(4.681532808501808 3.075666318172745 0)
(-2.32382346459773 -4.18103590666908 0)
(-2.417604567207385 -3.561695333662476 0)
(-1.434407604671827 0.6839451797809757 0)
(6.888063165533042 5.234456050281913 0)
(-0.9017230149682799 -5.13037623957367 0)
(0.6864776827564871 -4.306937748676321 0)
(4.336786501634538 1.424776368059131 0)
(12.30829986295145 6.416754437140505 0)
(20.42110139030773 9.11590804562357 0)
(26.60346790804815 17.12152966819658 0)
(26.58153188732422 17.88095665600424 0)
(24.56918100628508 10.66706974889973 0)
(14.86030840211232 3.138484188739075 0)
(23.19167768486582 9.204625920477744 0)
(25.05414685675795 16.07468994779296 0)
(23.16393581838997 11.11264362766654 0)
(6.361826768320569 -2.455792140708366 0)
(14.08322877656216 1.324078518489188 0)
(19.46833857379989 10.27389319795694 0)
(22.51894979412368 12.20659729300725 0)
(1.594937442828833 -5.074741805907068 0)
(4.415166457373516 -3.39674783492769 0)
(8.215010335548495 2.28627952742169 0)
(15.40785590879418 11.72376633016719 0)
(23.02704438388215 2.431746719132258 0)
(9.737023683000627 -1.563619611193192 0)
(1.451499917293967 -0.6440785665013109 0)
(-2.069169022111474 -1.225233170641048 0)
(20.83838972076734 4.309790779066605 0)
(12.31429068247779 4.034129355411228 0)
(4.679733708958696 2.698657317024478 0)
(-1.001196382086754 0.7754462977069122 0)
(21.56246917830378 5.861666113153462 0)
(17.06058791829946 4.198386805208243 0)
(10.93228463314297 2.968520035260986 0)
(2.907515891256631 0.796197751385046 0)
(22.97655971166616 5.35688042294993 0)
(19.67525457346763 4.921690065514688 0)
(14.73644339717137 4.991162093704825 0)
(6.765252999137038 3.487006636984919 0)
(-0.8320115050498625 -0.5860544130311374 0)
(-0.09770266227524713 0.773603942583755 0)
(0.5216621826668262 1.485992451261858 0)
(1.8625123248902 1.756016220593286 0)
(-0.6255641950462356 -2.196930225202031 0)
(-0.8244962259743112 -0.9112418551295329 0)
(-0.43421209356232 -0.2283510791890882 0)
(0.6654268767846054 0.02243205369956651 0)
(-0.2596395935627522 -3.520289359197844 0)
(0.1130934768187883 -2.052046103251238 0)
(-0.180649608726757 -0.9172678275864284 0)
(0.3892178526653095 -0.2050755160295983 0)
(-0.8733172034340879 -3.725902452006106 0)
(-0.1476253407029477 -2.838619753028425 0)
(-0.03887111181953379 -1.064965713485476 0)
(0.1672603169315235 -0.1002053828193708 0)
(3.774424030827376 2.322229519514936 0)
(8.264660066711246 4.55960674703862 0)
(29.16708786078463 4.699034779298937 0)
(28.32848334529215 -4.219463580236881 0)
(1.532665482039338 0.4870078274064159 0)
(2.87721515759098 4.084779462086908 0)
(23.50559606223557 2.815020086338137 0)
(30.05221153582422 -3.573013258118428 0)
(1.00628149978857 -0.2677427576326675 0)
(1.222573403279527 0.4368029170363706 0)
(14.52911905523291 4.917622044392135 0)
(30.83917600144597 -2.847155900043474 0)
(0.1803519432723749 -0.1430805905692199 0)
(-0.545455881907566 -1.194160139643431 0)
(4.168253353439361 4.660119011723752 0)