/*--------------------------------*- C++ -*----------------------------------*\
  =========                 |
  \\      /  F ield         | OpenFOAM: The Open Source CFD Toolbox
   \\    /   O peration     | Website:  https://openfoam.org
    \\  /    A nd           | Version:  11
     \\/     M anipulation  |
\*---------------------------------------------------------------------------*/
FoamFile
{
    format      ascii;
    class       volVectorField;
    location    "8.125";
    object      U;
}
// * * * * * * * * * * * * * * * * * * * * * * * * * * * * * * * * * * * * * //

dimensions      [0 1 -1 0 0 0 0];

internalField   nonuniform List<vector> 
4455
(
(99.935855 -0.45908403 0)
(99.931099 -1.3983725 -1.6173973e-18)
(99.627002 -2.240663 5.5564951e-18)
(99.419232 -3.2668623 2.3879487e-20)
(98.837544 -4.1153187 5.2904688e-18)
(98.428277 -5.2760225 -1.9861436e-17)
(97.344279 -6.3081988 8.8218834e-18)
(96.449537 -7.6566375 0)
(94.25804 -8.9585503 -5.5096893e-17)
(99.939931 -0.42249124 -1.0711587e-17)
(99.86908 -1.3053988 1.0448583e-17)
(99.554336 -2.1098759 -1.2838197e-17)
(99.328812 -3.1580523 2.1372057e-17)
(98.697721 -4.0581863 -4.0955332e-17)
(98.14382 -5.315481 4.4780707e-17)
(97.072306 -6.446851 -4.2971733e-18)
(95.675756 -8.0593845 6.2731043e-18)
(93.441071 -10.517117 2.4067785e-16)
(99.912713 -0.39721775 -1.1424741e-17)
(99.838252 -1.1593627 1.439392e-17)
(99.520669 -1.9925378 1.2547938e-17)
(99.239137 -2.9574744 -1.2476075e-17)
(98.638631 -3.8668072 5.5084449e-17)
(97.848629 -5.0558847 -3.100587e-17)
(96.845088 -6.137432 3.9974012e-18)
(95.476354 -7.7777348 -8.969609e-17)
(93.284428 -9.3903381 -1.698319e-16)
(99.88788 -0.34157097 -1.6584503e-19)
(99.821633 -1.0654642 -1.3898394e-18)
(99.499916 -1.7771583 3.0266401e-17)
(99.207487 -2.8215164 4.1246805e-18)
(98.466261 -3.5675083 2.9707565e-19)
(97.745275 -4.8652703 -6.0096633e-18)
(96.559699 -5.8084768 6.7188288e-17)
(95.024583 -7.5973116 1.8007927e-16)
(92.861229 -9.4418382 1.4282821e-16)
(99.866722 -0.29960881 2.20807e-17)
(99.837706 -0.92417692 -2.466418e-17)
(99.459393 -1.6248686 3.1736028e-17)
(99.177401 -2.5775493 2.0086338e-20)
(98.401189 -3.336196 -3.8114975e-17)
(97.557871 -4.6004467 -1.1760853e-17)
(96.258931 -5.490113 -5.2947517e-17)
(94.685263 -7.5371979 -8.5004878e-17)
(92.424612 -9.3067972 -4.235842e-16)
(99.879254 -0.26317254 0)
(99.804928 -0.7888192 0)
(99.482039 -1.4259697 -5.500501e-17)
(99.127029 -2.397917 -6.3604865e-17)
(98.302436 -3.0361806 0)
(97.512455 -4.3520871 -8.5929203e-17)
(95.906458 -5.0894247 -7.2740106e-18)
(94.242373 -7.4004322 -5.1613072e-18)
(91.610176 -8.9225327 5.2560733e-16)
(99.881758 -0.21369239 0)
(99.813848 -0.67541384 -1.5077214e-18)
(99.452423 -1.2410413 1.6970107e-18)
(99.162203 -2.1667135 6.2167418e-17)
(98.225168 -2.7607927 -4.6060942e-18)
(97.441176 -4.04979 1.835588e-16)
(95.704758 -4.7086173 0)
(93.884644 -7.2307481 0)
(91.076632 -8.7151463 2.4536698e-16)
(99.891908 -0.17607765 4.2893491e-17)
(99.814931 -0.55244146 0)
(99.474764 -1.0733649 0)
(99.153889 -1.9561907 0)
(98.196024 -2.4655616 0)
(97.376682 -3.7659557 -9.196734e-17)
(95.399698 -4.2195929 -9.9558616e-17)
(93.501138 -7.044334 1.4502403e-16)
(89.967304 -8.1554026 5.3100093e-18)
(99.902947 -0.13740014 -4.2237781e-17)
(99.824705 -0.44852258 -1.4665138e-18)
(99.501558 -0.90537945 -1.6501705e-18)
(99.179672 -1.7256619 3.746054e-18)
(98.196101 -2.1997097 1.4481201e-16)
(97.32735 -3.4699765 1.6395106e-16)
(95.281135 -3.8036851 3.1810073e-16)
(93.228338 -6.8080717 -1.42321e-16)
(89.069081 -7.6730742 -4.2291778e-16)
(99.917068 -0.10412041 0)
(99.93117 -0.075248415 7.9443914e-17)
(99.947917 -0.054473541 -7.8797736e-17)
(99.960692 -0.03608197 7.5893663e-17)
(99.974762 -0.025325925 -7.418127e-17)
(99.982717 -0.015273752 1.4861344e-16)
(99.990255 -0.012320238 -1.4424298e-16)
(99.992671 -0.0083747838 0)
(99.998095 -0.0087268808 0)
(99.833412 -0.36338669 0)
(99.846855 -0.28882634 1.3719557e-18)
(99.858293 -0.2215935 0)
(99.873742 -0.16747181 3.9186814e-18)
(99.886658 -0.12020459 8.0316923e-17)
(99.903524 -0.084199311 -2.4012368e-16)
(99.919937 -0.048614207 1.5549113e-16)
(99.93385 -0.030806269 -2.3747671e-18)
(99.965145 -0.0093286463 1.5043729e-16)
(99.531978 -0.75191408 9.8950994e-17)
(99.565708 -0.62212973 -1.9536366e-16)
(99.607905 -0.50528066 1.8721999e-16)
(99.650642 -0.41453258 -5.6287295e-18)
(99.69673 -0.32462112 -8.8755119e-17)
(99.737245 -0.27782878 -2.7083699e-18)
(99.798608 -0.21262151 0)
(99.815682 -0.18998301 5.1399969e-18)
(99.865939 -0.15079951 -2.5035513e-18)
(99.190745 -1.5274219 1.0317098e-16)
(99.227546 -1.3141823 -2.0999916e-16)
(99.268456 -1.1126555 2.0054344e-16)
(99.298679 -0.94218305 -9.7343174e-17)
(99.360273 -0.76308574 -6.1295319e-18)
(99.390772 -0.60357329 2.9605599e-18)
(99.478601 -0.45902803 0)
(99.493799 -0.29920611 -2.8015942e-18)
(99.59576 -0.20516173 1.6930084e-16)
(98.22503 -1.8691141 -1.1628376e-16)
(98.252261 -1.5958565 0)
(98.334895 -1.3224171 -1.0898114e-16)
(98.397111 -1.0889122 1.1234642e-16)
(98.519718 -0.89511309 -1.0212115e-16)
(98.577228 -0.69381814 1.0550346e-16)
(98.733232 -0.57874218 0)
(98.798419 -0.45424144 0)
(98.962724 -0.38241126 5.9898494e-18)
(97.278426 -3.1405319 -1.4298367e-16)
(97.237447 -2.7071535 -1.3811316e-16)
(97.216875 -2.3974699 1.3275832e-16)
(97.244518 -1.9194516 1.282071e-16)
(97.315817 -1.617169 -1.2360036e-16)
(97.409137 -1.151952 0)
(97.549135 -0.89805766 2.3050718e-16)
(97.716664 -0.48319145 -2.3262792e-19)
(97.854859 -0.28986427 -4.3117432e-16)
(95.031446 -3.2765681 -1.6878206e-16)
(94.977321 -2.601126 0)
(94.808738 -2.1096827 0)
(94.899528 -1.4996241 4.8018257e-18)
(94.947168 -1.0707467 0)
(95.215377 -0.55716274 0)
(95.371917 -0.20503179 0)
(95.652234 0.29969578 0)
(95.850259 0.54795761 0)
(92.676633 -6.5145245 6.6980027e-18)
(92.048855 -5.5720374 0)
(91.488208 -4.663972 6.2229157e-18)
(91.100986 -3.226861 -1.153003e-17)
(90.974569 -2.3581906 -1.7501802e-16)
(91.073771 -0.98571692 -1.6704122e-16)
(91.321387 -0.26424161 3.1983841e-16)
(91.730154 0.90548639 3.1026976e-16)
(92.117738 1.4287472 -2.9350862e-16)
(86.913048 -6.5703885 8.194121e-16)
(84.507839 -3.6267504 -5.0098858e-16)
(82.942179 -1.9315692 4.9468193e-16)
(82.811837 1.3521432 -4.6183923e-16)
(83.249222 3.401043 -6.6484858e-16)
(84.128949 6.1414618 1.2531774e-15)
(84.894552 7.3572569 -7.9188347e-16)
(86.259021 9.3230336 -3.7622312e-16)
(87.10525 9.9012756 3.5404277e-16)
(99.99016 -0.011786727 -1.9927563e-19)
(99.989914 -0.027036734 2.0416925e-16)
(99.991762 -0.030187978 -1.546749e-20)
(99.990152 -0.035858773 -2.0596544e-16)
(99.990274 -0.047676319 2.0185365e-19)
(99.986185 -0.050760146 2.0825579e-16)
(99.982887 -0.068704819 -2.083102e-16)
(99.984827 -0.076095779 -2.0299322e-19)
(99.990241 -0.082635656 -1.0453568e-16)
(99.974367 -0.00080403667 -2.1510181e-16)
(99.972958 -0.001984003 2.1679015e-16)
(99.96808 -0.0034500625 -2.1756663e-16)
(99.956499 0.00067615377 0)
(99.956345 0.010934314 2.2004453e-16)
(99.942947 0.029023153 4.1579563e-19)
(99.953814 0.048903272 6.1183882e-19)
(99.943752 0.091743821 -2.2206278e-16)
(99.97664 0.12081887 1.120371e-16)
(99.855752 -0.13465355 2.3090169e-16)
(99.827857 -0.13378324 -2.3154512e-16)
(99.806282 -0.12531745 -2.338416e-16)
(99.752755 -0.11100974 2.3440641e-16)
(99.747581 -0.07421352 -2.3708783e-16)
(99.713942 -0.022495348 2.3628588e-16)
(99.700698 0.056282694 -2.3915986e-16)
(99.725535 0.11217179 -4.2158313e-19)
(99.687652 0.20706504 2.3955255e-16)
(99.601176 -0.091047394 -2.4735203e-16)
(99.606706 0.014175517 -9.7300498e-19)
(99.556489 0.058555721 9.8400149e-19)
(99.535146 0.14750092 0)
(99.456501 0.21758306 -7.0257206e-21)
(99.466201 0.34443322 -2.5367394e-16)
(99.408677 0.45744199 2.5790147e-16)
(99.472097 0.60619474 1.0105201e-18)
(99.438989 0.74249514 1.015095e-18)
(99.007159 -0.23006987 -1.0433601e-18)
(98.90415 -0.14795517 -2.706117e-16)
(98.883866 -0.013153726 -1.4042899e-18)
(98.711732 0.10978149 2.7390382e-16)
(98.733118 0.27549754 2.769979e-16)
(98.577247 0.47067929 -2.784083e-16)
(98.672785 0.67011138 -1.0836784e-18)
(98.542642 0.92381854 -1.0893572e-18)
(98.696368 1.1281211 -1.0950305e-18)
(98.041258 0.055656509 2.9500597e-16)
(97.90719 0.39841435 0)
(97.959635 0.6356908 0)
(97.762815 0.93982693 3.0031736e-16)
(97.893442 1.2038287 -3.0438125e-16)
(97.732929 1.5631395 -3.0661363e-16)
(97.953123 1.8399823 6.1424983e-16)
(97.831929 2.2513356 -2.3868454e-22)
(98.114029 2.5103194 -6.211289e-16)
(96.119548 1.0258746 -1.3201088e-18)
(95.970277 1.5253955 0)
(96.077058 1.8072443 1.3360284e-18)
(95.905335 2.2276753 3.3923104e-16)
(96.081818 2.4847821 -3.4138261e-16)
(96.02233 2.9350955 3.4351029e-16)
(96.26482 3.2271127 -3.4426802e-16)
(96.23383 3.7036762 -1.3656828e-18)
(96.569073 4.0098892 3.4762892e-16)
(92.554348 2.1902159 -3.7800571e-16)
(92.92488 3.0657636 3.8305224e-16)
(93.224262 3.6027247 -3.8567919e-16)
(93.603893 4.2901613 3.8368982e-16)
(94.080058 4.7409457 -3.8258294e-16)
(94.484751 5.4439784 -1.681641e-20)
(95.058941 5.864768 3.8768717e-16)
(95.569558 6.4567012 3.0246463e-18)
(96.173468 6.7993628 1.9327421e-16)
(88.291846 11.295859 0)
(88.723135 12.086619 -4.3638668e-16)
(89.95781 13.022638 3.8638486e-18)
(90.561259 13.529324 5.6550368e-18)
(91.814519 14.123716 8.686746e-16)
(92.424421 14.253282 -4.3384797e-16)
(93.649996 14.508708 -4.3122042e-16)
(94.28574 13.932743 4.3286645e-16)
(95.561007 13.296759 2.1656925e-16)
(96.039228 12.09129 -2.5305501e-16)
(96.579648 11.207962 0)
(96.754638 10.421559 2.51539e-16)
(96.821192 9.9232151 -2.5154164e-16)
(96.536335 9.3984979 0)
(96.11209 9.1118216 0)
(95.448102 8.6727433 0)
(94.908402 8.4548604 -2.6288413e-16)
(94.246687 8.0375952 2.6288508e-16)
(96.511369 7.2845367 -2.2015424e-16)
(97.014492 7.7424829 0)
(97.265287 7.9915013 0)
(97.636382 8.298439 0)
(97.663507 8.5767909 0)
(97.896037 8.8766491 0)
(97.913283 9.0630542 0)
(98.088472 9.3709499 2.1936829e-16)
(97.917765 9.5848359 -4.3923634e-16)
(96.554652 4.4287347 -3.5592553e-19)
(96.851894 4.8006673 -3.819264e-16)
(96.787977 5.2136182 0)
(97.074793 5.5523508 -1.9058124e-16)
(97.001163 5.9785401 1.9057047e-16)
(97.325021 6.3894128 0)
(97.236107 6.8459669 0)
(97.532946 7.2081253 0)
(97.415619 7.6113897 0)
(98.01177 2.9444565 3.3418484e-16)
(98.333409 3.2483047 0)
(98.229771 3.6908823 1.6689009e-16)
(98.567209 4.0031054 -3.3367928e-16)
(98.463395 4.4671339 1.6678082e-16)
(98.824659 4.794491 0)
(98.719176 5.2979276 0)
(99.127252 5.6679453 0)
(99.007075 6.2301061 1.6609859e-16)
(98.582032 1.420732 0)
(98.775336 1.6553684 2.9777288e-16)
(98.667506 1.9814273 -4.4656254e-16)
(98.897914 2.2237028 1.4880255e-16)
(98.808589 2.6066238 1.4858778e-16)
(99.094574 2.8599558 -1.6642148e-19)
(99.031919 3.3004639 -2.9665277e-16)
(99.380904 3.5573777 2.9625494e-16)
(99.34608 4.0355286 -1.4801817e-16)
(99.551367 0.89942326 0)
(99.506868 1.1145362 1.3432253e-16)
(99.677536 1.2593082 -1.3424686e-16)
(99.637911 1.5153015 0)
(99.858399 1.6945356 -2.6797078e-16)
(99.816258 1.9802285 2.6809366e-16)
(100.06223 2.2530448 1.3369695e-16)
(100.0949 2.4882836 -2.6705816e-16)
(100.31198 2.920701 1.3341551e-16)
(99.755647 0.28187049 0)
(99.734421 0.4095999 0)
(99.830903 0.48127011 0)
(99.828739 0.6366343 -1.2269727e-16)
(99.976576 0.72336952 2.4522086e-16)
(99.988939 0.93592603 -2.4494236e-16)
(100.18495 1.0296329 1.2239723e-16)
(100.22159 1.2877661 -1.2193218e-16)
(100.47871 1.3892924 2.4359523e-16)
(99.976922 0.18666955 -2.2715851e-16)
(100.03706 0.21755547 7.9340943e-20)
(100.05301 0.3088693 1.1348119e-16)
(100.14478 0.3408626 -1.1328347e-16)
(100.17926 0.45878988 1.1328102e-16)
(100.30756 0.4895483 0)
(100.38516 0.65298768 1.1278992e-16)
(100.50699 0.70001795 -2.2542852e-16)
(100.70314 0.84572915 1.1259106e-16)
(99.996769 -0.08383934 3.9774513e-20)
(100.01529 -0.091220325 1.0566904e-16)
(100.03728 -0.075923328 1.0563713e-16)
(100.07753 -0.086034952 -1.0565481e-16)
(100.11707 -0.04993051 0)
(100.18922 -0.0650835 0)
(100.24724 -0.0067090852 -1.0527881e-16)
(100.36272 -0.0096139567 2.1040327e-16)
(100.43648 0.032240729 -1.0508822e-16)
(100.59934 0.040731039 0)
(100.71049 0.10037631 -1.0436529e-16)
(100.95207 0.12963153 3.3496953e-19)
(101.11117 0.18531301 3.8604165e-19)
(101.43003 0.24458575 4.3580088e-19)
(101.66835 0.32195228 1.0322455e-16)
(102.04969 0.38695773 1.0220432e-16)
(102.376 0.47757277 -1.0220433e-16)
(102.83525 0.5567061 0)
(100.79876 0.99635647 0)
(101.084 1.0820601 0)
(101.23143 1.3106984 -1.1121733e-16)
(101.59302 1.3625146 4.4867317e-19)
(101.78541 1.6787303 4.9698663e-19)
(102.21816 1.6936141 1.1024956e-16)
(102.48488 2.0898597 1.0908193e-16)
(103.01849 2.0699009 -1.0908191e-16)
(103.32187 2.508216 0)
(100.54148 1.7057583 -1.2167067e-16)
(100.8601 1.8114748 0)
(100.95772 2.1892323 0)
(101.35311 2.298296 -1.2020342e-16)
(101.48785 2.7426425 2.399172e-16)
(101.96794 2.8551569 -5.3824327e-19)
(102.1418 3.3741994 -5.9295638e-19)
(102.72703 3.5101448 -1.1862959e-16)
(102.91735 4.0345111 0)
(100.45115 3.1509226 -1.3286286e-16)
(100.6575 3.6389224 1.3286283e-16)
(100.90925 3.8526008 0)
(101.10986 4.4105106 0)
(101.45554 4.6446789 1.3114557e-16)
(101.62311 5.2749033 -1.3114556e-16)
(102.15351 5.5311129 1.2998227e-16)
(102.25644 6.2281176 -6.5294753e-17)
(102.96134 6.502906 -6.4632596e-17)
(99.747044 4.3016672 -1.4749513e-16)
(99.725384 4.8144075 1.4746038e-16)
(100.18076 5.0985845 0)
(100.1651 5.6727081 0)
(100.68495 6.0019533 0)
(100.66714 6.6648042 0)
(101.26149 7.0315981 0)
(101.25251 7.7833431 0)
(101.9357 8.1958109 0)
(99.455171 6.6501368 -1.6611435e-16)
(99.309992 7.2584702 1.6573741e-16)
(99.78104 7.7167997 -1.6573421e-16)
(99.616337 8.3793653 1.6530402e-16)
(100.12535 8.8819984 -1.6529901e-16)
(99.945075 9.6216556 0)
(100.50969 10.165679 0)
(100.32996 10.995883 0)
(100.97658 11.582469 0)
(97.724412 7.9783887 0)
(97.556966 8.3986772 -1.9050078e-16)
(97.85314 8.8400792 1.9038415e-16)
(97.597857 9.3404791 0)
(97.919667 9.8619432 1.910462e-16)
(97.619019 10.47191 -1.9107153e-16)
(98.013503 11.076593 0)
(97.695382 11.804367 9.5828296e-17)
(98.189697 12.5053 -1.9168224e-16)
(97.978212 9.9910646 2.1994466e-16)
(97.642112 10.249697 2.2188788e-16)
(97.596481 10.855019 -2.2199622e-16)
(97.050842 11.460439 2.2434565e-16)
(96.987983 12.303981 -4.4985191e-16)
(96.463717 13.045247 4.5207606e-16)
(96.560756 14.110552 -4.541382e-16)
(96.075712 15.000884 2.2756599e-16)
(96.191172 15.949256 0)
(93.572899 7.9272344 -2.6920045e-16)
(92.641363 8.0852236 2.6919975e-16)
(91.756802 8.421239 0)
(90.73641 9.109361 0)
(89.953531 10.284152 0)
(88.938634 11.783505 0)
(87.72377 13.171646 0)
(87.492213 13.684509 -1.4320122e-16)
(87.800005 13.534218 1.4249695e-16)
(88.149606 12.607146 1.4465407e-16)
(95.943796 16.540205 0)
(97.839021 13.314331 9.5869823e-17)
(100.80613 12.50803 0)
(101.93424 9.0600296 0)
(103.10165 7.3134479 0)
(103.62688 4.3404193 5.8245071e-17)
(104.00412 2.5569453 5.3432975e-17)
(103.2793 0.66708696 5.0091885e-17)
(88.225091 11.439414 -1.4534311e-16)
(96.025011 17.224171 0)
(98.356679 14.082362 0)
(101.54259 13.137257 8.1196605e-17)
(102.67287 9.4826802 0)
(103.87024 7.5714343 -6.3400516e-17)
(103.88467 4.7653785 -1.1604846e-16)
(104.34948 2.952647 -1.0641624e-16)
(103.83846 0.76747029 -9.9770385e-17)
(87.359951 10.894142 0)
(95.402416 17.737951 0)
(97.973729 14.933177 9.5653406e-17)
(101.38164 14.157802 -8.1192323e-17)
(102.7428 10.459531 0)
(104.10197 8.4786015 6.3414213e-17)
(104.66566 5.2261006 5.7811436e-17)
(105.171 3.0738691 5.2987342e-17)
(104.39982 0.89825408 4.9678492e-17)
(86.710436 11.39794 1.4842066e-16)
(95.339974 18.486472 0)
(98.506854 15.713435 -1.9111412e-16)
(102.21369 14.833795 0)
(103.56326 10.926203 0)
(104.97039 8.7411186 -6.2352379e-17)
(105.04188 5.5987201 -5.6823268e-17)
(105.58903 3.4587728 0)
(105.08131 1.0084318 -4.8719115e-17)
(85.151068 11.569691 -1.4836993e-16)
(94.457049 19.418397 -1.154155e-16)
(98.085994 16.676357 9.5480836e-17)
(102.0566 15.973239 0)
(103.63195 11.996549 0)
(105.34003 9.7912816 6.2352352e-17)
(105.90808 6.2370795 5.6823241e-17)
(106.55995 3.6316538 0)
(105.7776 1.1575806 4.8719109e-17)
(84.458065 13.264082 0)
(94.29297 20.368442 1.1542879e-16)
(98.617943 17.538124 -9.498975e-17)
(102.9778 16.689864 0)
(104.62102 12.502034 0)
(106.18746 10.021484 -6.1058629e-17)
(106.39422 6.5721122 -5.5646991e-17)
(107.05471 4.0640686 0)
(106.57828 1.2749804 -4.7574588e-17)
(82.980911 13.750736 0)
(93.293578 22.052416 0)
(98.161289 18.843129 9.4989653e-17)
(102.8688 18.020599 -3.926743e-17)
(104.71253 13.706056 -3.4266291e-17)
(106.8392 11.130731 9.1217434e-17)
(107.38643 7.244657 8.3137915e-17)
(108.18993 4.2579725 0)
(107.42453 1.4450031 7.1040707e-17)
(81.979699 16.068201 0)
(93.343758 23.497279 -5.8005273e-17)
(98.812782 19.826488 0)
(103.87793 18.75034 3.9253892e-17)
(105.79958 14.185755 3.4246618e-17)
(107.69182 11.4016 -4.0531427e-19)
(107.95146 7.6096517 -5.4609709e-17)
(108.76161 4.6801364 0)
(108.34351 1.5723574 -2.3466121e-17)
(79.758968 15.810232 -7.7740699e-17)
(92.420096 25.454811 5.7991223e-17)
(98.4417 21.654439 0)
(103.9072 20.389712 0)
(106.04436 15.652725 0)
(108.45101 12.635906 -5.9041223e-17)
(109.12188 8.3724563 4.0174422e-19)
(110.05296 4.9563455 0)
(109.31893 1.7381043 0)
(110.63591 1.8828985 0)
(110.72418 5.3269399 0)
(109.81015 8.6435551 -1.2105402e-18)
(109.53869 12.748625 3.0741119e-17)
(107.24524 15.91137 0)
(105.07026 20.981302 -4.8564204e-18)
(99.379888 22.528231 -5.100287e-19)
(92.658668 26.9404 -4.8211853e-17)
(79.436692 18.027629 1.4632083e-16)
(111.84515 1.9751638 -1.1078188e-17)
(112.16485 5.5864182 -1.5101121e-18)
(111.12506 9.3866185 1.3444118e-17)
(110.28008 13.932445 -4.7614424e-20)
(107.80199 17.304237 -1.4100463e-17)
(105.39717 22.635447 1.8353161e-17)
(99.395941 24.546025 -5.9169858e-18)
(91.861748 29.535232 6.2529623e-17)
(77.867458 22.64732 -7.5171327e-17)
(113.09455 2.0525921 2.2135685e-17)
(112.95613 5.7736291 0)
(112.05485 9.4419076 2.6000041e-17)
(111.67892 13.91017 -1.404933e-17)
(109.22191 17.449442 1.4266491e-17)
(106.89943 23.096063 -3.4629005e-17)
(101.00261 25.279739 -2.8113421e-17)
(93.426329 30.995213 1.4267812e-17)
(80.007085 25.386763 2.027593e-18)
(114.45148 2.1358423 -1.1077075e-17)
(114.56966 6.1077744 -1.483486e-18)
(113.50584 10.344007 -1.1429553e-17)
(112.55899 15.204052 1.6036451e-17)
(110.05666 18.972198 5.9527415e-18)
(107.56602 24.902745 1.8544526e-17)
(101.52462 27.558761 2.261309e-17)
(93.508566 33.937275 7.5991425e-18)
(80.151446 30.570503 -8.7053642e-18)
(115.91544 2.2276876 2.6583004e-18)
(115.48948 6.2156478 -2.872657e-18)
(114.62531 10.251926 -1.5991975e-18)
(114.08002 15.045641 5.1713849e-18)
(111.71175 18.935098 -6.0174933e-18)
(109.34374 25.163632 -6.6918416e-18)
(103.53693 28.055939 -5.8368912e-18)
(95.635657 35.134144 6.5903258e-18)
(82.459213 33.043164 -1.0483818e-17)
(117.4597 2.3218892 -2.6898037e-18)
(117.32284 6.6103566 2.907192e-18)
(116.26742 11.180019 -1.5772224e-18)
(115.16358 16.382676 -1.8784343e-20)
(112.80199 20.524818 -1.9203938e-18)
(110.28246 27.00786 4.5408466e-18)
(104.50255 30.444085 -5.7689672e-18)
(96.248785 38.16577 6.5296973e-18)
(83.331976 37.799144 0)
(119.07521 2.4093033 -2.5603251e-18)
(118.34549 6.6858739 -1.4225714e-18)
(117.48348 10.991437 -1.5104789e-18)
(116.79611 16.091472 -1.7269828e-18)
(114.57626 20.31026 -1.8977596e-18)
(112.18404 27.048677 4.6088245e-18)
(106.6642 30.670669 -1.0838219e-17)
(98.758518 38.93496 1.385474e-17)
(85.34245 39.327422 -8.5624962e-18)
(120.75954 2.4850386 7.5981266e-18)
(120.37219 7.0767657 5.4647641e-18)
(119.26133 11.948743 7.5443517e-18)
(118.05471 17.439511 8.2140605e-18)
(115.89483 21.87719 5.7721213e-18)
(113.3864 28.849083 -2.1294299e-18)
(108.00492 32.9856 -5.5727918e-18)
(99.866656 41.796146 -9.5762564e-19)
(87.34235 42.705958 -9.5345053e-18)
(122.5202 2.546172 -1.4835381e-17)
(121.48513 7.1050597 -5.5334617e-18)
(120.65789 11.56387 -1.9276057e-17)
(119.77735 16.983272 -5.020498e-18)
(117.75838 21.462528 1.2666301e-17)
(115.35119 28.646779 6.4971638e-18)
(110.27961 32.888176 -3.054765e-17)
(102.6011 42.153438 6.2137758e-18)
(88.816487 43.748061 1.8485021e-17)
(91.746049 45.820289 -1.7931835e-17)
(104.04548 44.719734 7.0240935e-18)
(111.93037 35.035456 4.495381e-17)
(116.82985 30.353239 -6.3291784e-18)
(119.28905 22.97658 3.0290704e-18)
(121.21972 18.30987 9.3355334e-18)
(122.50982 12.601173 1.3341264e-17)
(123.61987 7.4910817 -6.6182397e-19)
(124.35539 2.5937627 1.9993578e-17)
(93.028592 47.044527 6.8869807e-17)
(106.93501 44.897223 5.8831376e-18)
(114.29655 34.640915 -6.290761e-17)
(118.81915 29.877948 -1.9849926e-18)
(121.14318 22.373431 -1.2651875e-17)
(123.00434 17.694392 -1.1186265e-17)
(123.98279 12.05984 -2.3748884e-17)
(124.90847 7.5028486 0)
(126.2657 2.6288846 -9.6129931e-18)
(96.155995 48.820022 -8.8138373e-17)
(108.60725 47.083293 5.8310473e-17)
(116.14798 36.388115 3.3688309e-17)
(120.55006 31.42167 -1.9278948e-18)
(122.85997 23.760394 2.686532e-17)
(124.59727 18.98093 1.9789782e-20)
(126.0545 12.99525 3.6935727e-18)
(127.07762 7.8032569 1.8585893e-17)
(128.23904 2.6552455 1.7796524e-17)
(97.715175 49.815712 -1.6863091e-17)
(111.7541 47.128546 8.5467867e-18)
(118.76038 35.950079 -4.7152134e-18)
(122.48075 30.672311 0)
(124.70012 22.95074 -2.7303867e-17)
(126.40537 18.211912 0)
(127.51747 12.404439 2.0681853e-17)
(128.47581 7.8378958 -3.815553e-17)
(130.2704 2.6645587 -8.6941859e-19)
(101.06471 52.049114 -7.3593227e-18)
(113.61778 48.919315 -4.3926325e-17)
(120.64972 37.200961 4.4765449e-18)
(124.41954 31.992912 0)
(126.57358 24.187301 -2.6725388e-17)
(128.11876 19.427085 2.2465379e-17)
(129.6595 13.216062 1.3076187e-18)
(130.77194 8.1223798 3.818948e-17)
(132.35347 2.6572505 -1.7351036e-17)
(102.95902 52.936692 -7.0351062e-17)
(117.11321 48.8018 -3.3628199e-17)
(123.36401 36.410045 -2.1014632e-19)
(126.24882 30.981788 -3.510882e-18)
(128.34907 23.192506 -2.0971643e-19)
(129.92754 18.523757 -4.4542745e-17)
(131.35433 12.578203 1.2648888e-18)
(132.20512 8.1011372 -1.8912113e-17)
(134.4874 2.6370535 0)
(106.76021 54.89669 4.8346742e-17)
(119.24696 50.175427 4.9740416e-17)
(125.36293 37.211776 -1.2099797e-19)
(128.25581 32.03165 -3.3283701e-18)
(130.29596 24.249435 2.317488e-17)
(131.7134 19.657186 2.343709e-17)
(133.2726 13.276589 1.2166918e-18)
(134.57838 8.3909906 -1.1148632e-18)
(136.66191 2.601981 0)
(108.88926 55.473177 0)
(123.01782 49.792956 -4.2528887e-18)
(128.09835 36.162445 3.6260811e-18)
(130.03182 30.818117 -4.7362583e-17)
(132.02291 23.103477 -1.422356e-18)
(133.50368 18.650983 3.9245483e-17)
(135.28157 12.551341 -3.5334963e-17)
(136.1003 8.3095573 3.3313496e-17)
(138.8659 2.5491776 2.8415083e-17)
(113.14433 56.997051 9.6555664e-17)
(125.39631 50.54618 6.5281857e-17)
(129.96222 36.36176 -3.3059877e-18)
(131.80781 31.554564 4.999597e-17)
(133.87125 24.018599 -1.3946023e-18)
(135.33819 19.725263 -3.9971795e-17)
(137.08601 13.28923 3.8194079e-17)
(138.49542 8.5867985 -3.4808039e-17)
(141.0793 2.499843 -1.8636383e-18)
(143.5062 2.4069727 -2.6681623e-17)
(140.11829 8.5038732 2.952744e-17)
(139.06237 12.232954 0)
(137.10822 18.588162 -2.3154562e-18)
(135.71996 22.800061 4.1933816e-17)
(133.74811 30.230022 4.1480114e-17)
(132.72188 34.950873 0)
(129.5572 49.533142 -9.5198738e-18)
(116.04552 57.13424 -9.4464742e-17)
(145.68089 2.2637914 0)
(142.56437 8.6841673 -3.0544837e-17)
(141.17874 13.194515 0)
(139.05366 19.588712 -2.2320349e-18)
(137.3807 23.410004 -7.5937551e-17)
(135.31118 30.522918 -4.5052678e-17)
(134.63876 34.29682 4.2964044e-17)
(132.51079 49.221826 -4.2927893e-17)
(122.26867 58.097208 5.4424266e-17)
(147.91318 2.0636742 0)
(144.29455 8.470136 0)
(142.98231 11.848233 -2.9878819e-17)
(140.88876 18.358441 0)
(139.37837 22.297566 3.8993315e-17)
(137.12088 29.175579 -3.8761365e-17)
(136.93428 32.593372 -3.9409586e-17)
(136.63498 46.823357 -2.351862e-18)
(126.53254 57.457686 -2.6175084e-17)
(150.14537 1.8312233 0)
(146.75175 8.6071661 0)
(145.17684 12.780962 3.0504713e-17)
(142.72637 19.294666 3.0101726e-17)
(140.8676 22.782722 3.567933e-17)
(138.42697 29.437975 4.234618e-17)
(138.30116 31.493499 0)
(139.07795 45.343559 2.0313512e-17)
(134.5657 57.226785 -4.7986346e-17)
(152.33433 1.5803748 3.3055812e-19)
(148.57204 8.370729 -3.6303935e-19)
(147.01551 11.432842 0)
(144.82817 18.162596 -2.1294764e-18)
(142.90536 21.836059 -7.3154728e-17)
(140.07774 28.296314 2.4314711e-18)
(139.75887 29.97242 3.7789858e-17)
(141.86696 41.541702 -2.1748287e-17)
(139.90924 55.497385 -8.8035154e-18)
(154.4622 1.3072186 -3.0401198e-19)
(151.01975 8.4562146 3.3446256e-19)
(149.21539 12.332845 0)
(146.52109 18.912812 -3.3440036e-17)
(144.34898 22.290918 3.9612859e-17)
(141.17697 28.789308 -2.3773912e-18)
(140.39686 29.064131 -3.907995e-17)
(142.83843 38.864971 0)
(149.56679 53.70354 1.1020249e-17)
(156.50933 1.014323 2.7641964e-19)
(152.90981 8.1058209 1.9833902e-17)
(151.13609 10.897613 -7.9590718e-19)
(148.7057 17.820778 2.6921881e-17)
(146.43695 21.397029 3.4170246e-17)
(142.89946 28.108951 0)
(141.07854 28.224907 0)
(143.40352 33.647771 -2.5377772e-17)
(154.06449 51.066552 0)
(158.63766 0.58799272 0)
(155.26894 8.1430176 -2.055412e-17)
(153.16089 11.65535 0)
(150.40513 18.436792 -3.0310252e-17)
(147.95101 21.842668 -3.1031783e-17)
(144.00684 28.801403 3.5008059e-17)
(141.375 28.174276 0)
(142.4478 31.142264 2.443784e-17)
(161.62775 46.869698 1.2240763e-16)
(159.73324 0.27979005 0)
(157.21635 7.6863548 0)
(155.44447 10.227472 -6.926968e-19)
(152.90799 17.217561 -8.9061622e-19)
(150.49914 20.833127 1.8619267e-18)
(146.42531 28.560361 -3.6139116e-17)
(142.53182 29.066505 0)
(140.30575 26.118185 0)
(159.92713 36.557498 -1.2651431e-16)
(162.0065 -0.166636 -3.5429532e-19)
(159.3989 7.7866643 -1.0680162e-19)
(156.94201 10.965308 1.7278878e-17)
(154.14896 17.868313 0)
(151.53641 21.299399 0)
(147.3673 28.956806 -1.9782099e-18)
(142.00827 29.687727 -3.6396355e-17)
(137.00778 28.831066 1.5397873e-18)
(168.35786 36.814646 0)
(164.02771 -0.025201267 -2.7599217e-19)
(161.05787 7.8856814 -1.0901972e-19)
(159.30761 10.546388 -1.5707055e-17)
(156.37457 18.208537 0)
(153.21054 22.801669 0)
(148.97646 30.307638 1.7580554e-18)
(142.40881 30.618654 1.0181939e-16)
(139.29118 28.551823 -1.379897e-18)
(166.57428 32.667805 -3.1915079e-16)
(165.62631 -0.38956568 0)
(163.17471 7.9910918 1.731413e-17)
(160.70857 11.19823 0)
(157.56168 18.718065 1.0841663e-18)
(154.50287 23.105095 -1.1829665e-18)
(149.61627 30.934948 -1.5909167e-18)
(142.24992 30.667565 -1.2601139e-16)
(139.00294 26.147999 1.1908036e-18)
(154.43628 28.22731 3.0206432e-16)
(166.81951 -0.60607768 3.450348e-18)
(164.64947 7.8906185 -1.661016e-17)
(162.77833 10.680222 1.8038133e-17)
(159.73759 19.189539 2.6464676e-17)
(155.9899 24.771367 -3.3631086e-17)
(150.84102 32.630234 3.7630552e-17)
(141.14112 30.822876 6.278505e-17)
(135.43816 24.508874 4.6222145e-17)
(137.41641 31.774109 0)
(168.35345 -0.51447477 -4.0232791e-18)
(166.69994 7.7306801 8.8907372e-18)
(164.378 11.404375 -1.7449574e-17)
(160.96742 19.612033 -3.6606222e-18)
(157.17775 25.10204 3.2265198e-17)
(150.97115 33.318074 -3.7565111e-18)
(138.78946 30.178033 0)
(131.07072 22.707803 -4.498974e-17)
(107.72628 44.032074 0)
(169.65698 -0.55178211 -1.7574385e-18)
(167.98284 7.465674 -8.5812947e-18)
(166.18592 10.56709 9.8984117e-18)
(163.25425 20.031914 -2.1623362e-17)
(158.72026 26.706043 -8.4219235e-19)
(151.71322 35.140575 -3.1362657e-17)
(136.44639 30.706684 5.6652139e-17)
(123.72303 18.530165 1.3305556e-18)
(82.552346 49.317603 2.2565696e-16)
(170.47176 -1.0556976 2.167842e-18)
(169.74495 7.0766856 7.5983213e-20)
(167.88089 11.263567 -9.2345065e-18)
(164.5897 20.357053 5.465936e-19)
(159.83288 27.077192 -5.896333e-19)
(151.50199 35.838033 -2.5817999e-17)
(131.85716 30.746727 -1.0990317e-16)
(112.8291 17.759591 -7.2170895e-19)
(50.89495 30.009116 -2.1393914e-16)
(171.29197 -1.3162503 4.4651747e-20)
(171.09882 6.5893693 -4.7417366e-20)
(169.70947 10.257909 1.6853515e-18)
(167.04558 20.508222 8.6313939e-18)
(161.43314 28.59294 -1.6114525e-17)
(151.72488 37.748115 4.7274379e-17)
(126.9675 30.719626 1.0590791e-16)
(96.208309 5.5367153 -2.2835597e-17)
(-15.689611 -29.716616 2.3456496e-16)
(172.23308 -1.2935941 -8.5016177e-18)
(172.38467 5.9500647 2.4553972e-20)
(171.20105 10.623683 -3.509872e-18)
(168.42492 20.687757 -8.3696722e-18)
(162.62329 29.074973 1.5074879e-17)
(150.29405 38.57481 -2.2156549e-17)
(116.87268 28.372279 -5.0093822e-17)
(68.296403 1.2088218 2.2158975e-17)
(-27.960535 -31.934704 -2.235163e-16)
(-28.730613 -24.737018 -3.6923378e-16)
(52.001473 -6.5609092 -1.3490731e-18)
(109.22576 29.029117 -7.642031e-19)
(149.3061 39.75695 6.5163221e-19)
(163.92351 30.316007 0)
(170.99547 20.579937 1.0661019e-20)
(173.0038 9.5827326 7.1428298e-18)
(173.60367 5.3279656 7.5408137e-18)
(172.55635 -1.8491404 1.8297101e-17)
(-28.18795 -21.720836 3.5628651e-16)
(33.851426 -16.059973 0)
(104.02782 30.311223 0)
(148.81025 40.911001 -3.8505408e-17)
(165.48344 30.047691 0)
(172.39838 19.988543 -7.842615e-18)
(174.15641 9.3573414 -2.2031284e-17)
(174.52323 4.3822324 -7.182318e-18)
(172.48712 -2.2925564 1.178405e-17)
(-28.997941 -20.633546 1.5531126e-18)
(8.8805457 -35.690294 -1.2517427e-18)
(93.725812 29.023847 0)
(147.97267 42.315773 3.7659024e-17)
(166.61937 31.081879 0)
(174.75452 19.536564 7.7785047e-18)
(175.71055 8.2346343 1.6222324e-17)
(175.50455 3.2747744 2.4600747e-19)
(172.31506 -2.6026483 -2.1118291e-17)
(-28.174101 -20.405686 6.1332283e-16)
(-14.771209 -50.829981 -9.7485715e-17)
(83.040475 28.073336 -1.7944485e-19)
(146.62834 43.140978 0)
(168.30068 30.829007 -2.5159224e-18)
(176.08935 18.75063 0)
(176.63797 7.7498971 -2.1008606e-19)
(176.16331 2.3929888 2.9313657e-19)
(171.95102 -2.9213909 -9.1875382e-20)
(-25.142914 -19.428009 -5.903516e-16)
(-22.288861 -51.343458 -1.3786516e-17)
(67.290494 25.252494 -1.1544487e-16)
(144.2185 43.989425 4.997796e-19)
(169.46308 31.475118 -8.8371384e-18)
(178.3583 17.943098 0)
(177.93911 6.4343468 -3.2599041e-17)
(176.66916 0.91429272 0)
(171.34895 -3.1946433 0)
(-22.23873 -17.266427 1.3598269e-18)
(-20.129201 -45.602455 1.0316135e-16)
(50.804109 18.177658 2.1316657e-16)
(141.3865 44.270519 -1.5988508e-17)
(170.92025 30.928361 1.1100243e-17)
(179.59212 16.861661 4.1982942e-17)