/*--------------------------------*- C++ -*----------------------------------*\
  =========                 |
  \\      /  F ield         | OpenFOAM: The Open Source CFD Toolbox
   \\    /   O peration     | Website:  https://openfoam.org
    \\  /    A nd           | Version:  11
     \\/     M anipulation  |
\*---------------------------------------------------------------------------*/
FoamFile
{
    format      ascii;
    class       volScalarField;
    location    "0.1";
    object      Ma;
}
// * * * * * * * * * * * * * * * * * * * * * * * * * * * * * * * * * * * * * //

dimensions      [0 0 0 0 0 0 0];

internalField   nonuniform List<scalar> 
880
(
1.443353270571932
1.443353270571932
1.443353270571932
1.443352808342486
1.443353270571932
1.443353270571932
1.443353270575034
1.443346971821857
1.443353270571932
1.443353270571933
1.443353270596404
1.443338593953348
1.443353270571932
1.443353270571932
1.443353271525977
1.443295486840052
1.443353270571932
1.443353270571932
1.443353270571933
1.443353270573094
1.443353270571932
1.443353270571932
1.443353270571935
1.443353270571932
1.443353352248703
1.443352828958651
1.443345844318247
1.443467319362341
1.435260189349472
1.412558369921302
1.398189874300944
1.394229922231181
1.443353242841197
1.443353179797316
1.443353070730976
1.443353163083002
1.44335235805433
1.443351652124337
1.443351484535046
1.443351766736681
1.442756537528551
1.442599463175671
1.442545002289435
1.442468403085835
1.39159264708161
1.387314956767685
1.391913046795509
1.381191474422085
1.403521541561736
1.429779414244411
1.450236186895347
1.457894741334823
1.441918454897138
1.440141574407621
1.441403800635142
1.442795183423212
1.443348395240866
1.443339256271966
1.443333588514653
1.44334237823199
1.443352909066345
1.443352460479124
1.443351780376888
1.443351772550911
1.443352249134428
1.443352913291436
1.443353216242458
1.443353267591074
1.443351924310034
1.443355226579907
1.443353857447636
1.44335331383151
1.443704160991949
1.443760526870608
1.443518294203135
1.443376664676811
1.457501640090091
1.453697333606683
1.448815606469652
1.445047073551564
1.443570754102615
1.44335428744459
1.443353271439937
1.443353270523927
1.443361333418337
1.443353328696229
1.443353270661997
1.443353270583359
1.443376336231932
1.443354009729706
1.443353254932001
1.443353267163513
1.428855023774686
1.443331906460739
1.443356202404806
1.443353438301625
1.443353331478183
1.443354017763774
1.442886955915611
1.298108387765262
1.44335324765321
1.443347881675401
1.440596193566713
1.201115061624705
1.443352853734056
1.443338616599
1.437719677482052
1.154333706543536
1.443351894841101
1.443332074886364
1.435359687948979
1.143580316167383
1.140912402832998
1.432894363719505
1.443320436158264
1.443351579475553
1.145527280842486
1.431270916612469
1.443314563398574
1.443350095784917
1.138252298833648
1.428226516904989
1.443296434765862
1.443350089805225
1.131668899823013
1.425024394313348
1.443277915597427
1.443347133919127
1.44334677416349
1.443264008750481
1.42066666108183
1.110324380832665
1.443344187695112
1.443211367710795
1.414724852401063
1.122732158452977
1.443339930857528
1.443188962529677
1.415177498472062
1.157014130616079
1.443350185656273
1.443179270186644
1.422699934612835
1.255802318376416
1.443321058729999
1.443303234805202
1.440877117216381
1.428018135154554
1.44330688273994
1.443984466357983
1.450390509219288
1.524416984843728
1.443355951559556
1.443589488884595
1.444584642833166
1.442905826761514
1.443355674058191
1.443212130025825
1.428882744832723
1.273400383488447
1.172078424933944
1.424083920254882
1.443208900771313
1.443353381632794
1.13042710920712
1.419074638770724
1.443036836986189
1.443352488992549
1.133168359430506
1.422154958740448
1.443178962788036
1.443353122653695
1.097732220159326
1.419195076160838
1.44314440157986
1.443352990085461
1.200050918764771
1.429810095322428
1.443266461620762
1.443353142105654
1.312992528944804
1.438017780326793
1.443332403251394
1.443353243192535
1.39027511502915
1.441740913787967
1.443349526349838
1.443353268164123
1.43622904745773
1.443417053981225
1.443355089081814
1.443353272388837
1.382590488570301
1.440585236074861
1.443314120343321
1.443353053027477
1.383599390874507
1.440635995093738
1.44331466093565
1.443353054367069
1.381005976692771
1.440595077157119
1.443314951719906
1.443353054883105
1.377803611440604
1.440614724078022
1.443317364975359
1.443353064978933
1.436229047464687
1.443417053986167
1.443355089089877
1.443353272377839
1.390275115033808
1.441740913794107
1.443349526366089
1.443353268162568
1.312992528942722
1.438017780321676
1.443332403249802
1.443353243191664
1.200050918757456
1.429810095307494
1.443266461618687
1.443353142110115
1.443353381621207
1.443208900748324
1.424083920252336
1.172078424932607
1.443352488979327
1.44303683697939
1.41907463876643
1.130427109202701
1.443353122662821
1.443178962778099
1.422154958739596
1.13316835942163
1.443352990085113
1.443144401575265
1.419195076147255
1.097732220161566
1.27340038349643
1.428882744843307
1.443212130048546
1.443355674070715
1.442905826772172
1.444584642843092
1.443589488898731
1.44335595157746
1.524416984843884
1.450390509230072
1.443984466357433
1.44330688274764
1.428018135152523
1.440877117220863
1.443303234811132
1.443321058706811
1.443346774170419
1.443264008738157
1.420666661077853
1.110324380825516
1.443344187694551
1.443211367699776
1.414724852395262
1.122732158451976
1.443339930845129
1.443188962528911
1.41517749848001
1.157014130616105
1.443350185638295
1.443179270186332
1.422699934618913
1.255802318377513
1.131668899812666
1.425024394315464
1.443277915577948
1.443347133918826
1.138252298821628
1.428226516871185
1.443296434765097
1.443350089801426
1.145527280840073
1.431270916615461
1.443314563375713
1.443350095790384
1.140912402830101
1.432894363742987
1.443320436173869
1.443351579479124
1.44335333146867
1.443354017754471
1.442886955919586
1.29810838777132
1.443353247659993
1.443347881687135
1.440596193554226
1.201115061635515
1.44335285374166
1.443338616604064
1.43771967748215
1.154333706530241
1.443351894850181
1.443332074871306
1.43535968794323
1.143580316172683
1.443353438302566
1.443353267158801
1.443353270582317
1.443353270525254
1.443356202414786
1.443353254932074
1.443353270651499
1.443353271444934
1.44333190645757
1.443354009727445
1.44335332870359
1.44335428744841
1.428855023774033
1.443376336232365
1.443361333416626
1.44357075410232
1.443353267597457
1.443353313831544
1.443376664668547
1.445047073547325
1.443353216246631
1.443353857451109
1.443518294181377
1.448815606470238
1.443352913283603
1.443355226579813
1.443760526882368
1.45369733360759
1.443352249131671
1.443351924311222
1.443704160981248
1.457501640096089
1.443352909080307
1.443348395251287
1.441918454891751
1.40352154156187
1.443352460492054
1.443339256273091
1.440141574409593
1.429779414251177
1.443351780382238
1.443333588502099
1.441403800638917
1.450236186899954
1.443351772555598
1.443342378221621
1.442795183425989
1.457894741340412
1.381191474419025
1.442468403060041
1.443351766744334
1.443353163089277
1.391913046793188
1.442545002263499
1.44335148453804
1.443353070727417
1.387314956757482
1.442599463186205
1.443351652121591
1.443353179801173
1.391592647083981
1.442756537585629
1.443352358057216
1.44335324283736
1.394229922227198
1.44346731933046
1.443353270571932
1.443353270571508
1.398189874302619
1.443345844344456
1.443353270571932
1.443353270571933
1.412558369915816
1.44335282896231
1.443353270571932
1.443353270571933
1.435260189346134
1.443353352250916
1.443353270571932
1.443353270571934
1.443353270571932
1.443353270571933
1.443353270571932
1.443352808398903
1.443353270571931
1.443353270571932
1.443353270575451
1.443346971876295
1.443353270571932
1.443353270571932
1.443353270595451
1.443338593950921
1.443353270571932
1.443353270571932
1.443353271531485
1.443295486846861
1.443352190799566
1.443347360107111
1.443314442965523
1.442060013491392
1.443347359983236
1.44334841588754
1.443328741962479
1.435402531311038
1.443314442940157
1.443328741845518
1.440235700049342
1.390309010837214
1.442060013419742
1.435402531342648
1.390309011080665
1.212904697377583
1.044143462116985
1.134791097087603
1.288937256223508
1.376751838227849
1.094408020083101
1.118520724171258
1.180475515837408
1.253804885968674
1.151622313065596
1.17148023880628
1.2116605773368
1.260551561098916
1.181365608770226
1.217361567012065
1.250864182551267
1.280331191541937
1.283964541472578
1.288017697422476
1.296633533352803
1.289549191855743
1.27576797575754
1.288122032768779
1.2956560938564
1.314595626005768
1.260029532454871
1.285372162729475
1.292710159484964
1.399788179585202
1.187097551211394
1.205635158968542
1.213468142729255
1.517298326287017
1.411864593932721
1.543376040137789
1.532960074964893
1.495172526512106
1.505580566653614
1.628526796233013
1.58078346080886
1.530349503841108
1.686742959711461
1.727720305830788
1.610459611939987
1.543514290757023
1.274947739180285
1.283238493605334
1.252616570906121
1.28725060547663
1.476036208764296
1.465970042628616
1.457963281224091
1.449552865627523
1.497947433769719
1.479633838722001
1.467528680921414
1.455050036829541
1.510689318667152
1.490365082302496
1.47521439172824
1.460194920449912
1.348601535529309
1.400047796473599
1.419657257703797
1.432430422219269
1.444761751782332
1.443486637319557
1.443354828341116
1.273319688604649
1.446430315134396
1.443688307291863
1.44337637388555
1.134556809380099
1.448367627026898
1.443978480698279
1.443393537009034
1.003358497737757
1.440277693364718
1.442939617635225
1.443346192284537
0.767013941514309
0.8663734796401042
0.8819760236078298
0.9143388068353435
0.9466460790839688
0.7443052161211717
0.836075714274953
0.90585926440203
0.9447704578411652
0.6182131013784703
0.7643985155316018
0.8743700809426914
0.9346554001594802
0.4415355641915306
0.6341804521192596
0.7378305149099181
0.8358093821550997
0.9673509244410713
0.9786356787825825
0.9837769235955023
0.9835232668836059
0.968407021470289
0.9820540829500212
0.9920678471560348
0.9940238045617014
0.9656725384954362
0.9819237346364902
0.9938058109101174
0.9975533566403011
0.8939032577021281
0.9198620735938197
0.9349572056474111
0.9341569385468944
0.9833884848071359
1.003851417099211
1.048766670317836
1.148819983978971
0.995377792960046
1.01301346026223
1.06576810340988
1.205929080896215
1.000568004651498
1.015474509408536
1.095992455005599
1.521065889121815
0.9477406017275108
0.9671120911049608
1.102657516894096
2.101743643206909
1.376325169913208
1.640479309838449
0.6399566575969696
0.3213514948637283
1.456851978495705
1.437607081994039
0.5075045263315339
0.1615186466244492
1.517016721605345
1.096075039300044
0.2998277459843391
0.1276388054362717
1.171915891142142
0.5161173621549269
0.141173816140479
0.102727856818453
0.1638172811403911
0.1024752238458644
0.08920992442885517
0.09567212388497445
0.04782296899365992
0.1140119439339057
0.1292819106799408
0.2308559762998624
0.05698415556667018
0.1329988464240957
0.2167244378284056
0.3673524381635571
0.02101564197108505
0.133201528127373
0.2734125831658191
0.3924316114120288
0.8011185934947136
1.202627287435394
1.41468683065432
1.478159787963975
0.4317936169126301
0.9290959546050609
1.266559712029563
1.396063975976232
0.07340545608081478
0.4544232407277481
0.9035785059780925
1.338480354725062
0.159047416540929
0.1839275045373365
0.6236101131087801
1.458918680629038
1.673716075259669
1.953643702780512
2.622870418533784
2.569272803080296
1.648793131203554
1.946270937924351
2.600285445694117
2.26428872765594
1.691664194745743
2.094131900585525
2.697761033983761
1.265247971401307
1.420058880506181
1.480905964516997
2.024908673441917
0.3359135219415238
0.4126572654067959
0.5561862573014932
0.4147226785108792
0.2441708329748851
0.3639913693598992
0.4382072377180509
0.3637667550892225
0.2477031913347987
0.8201216374650863
0.09951341192078235
0.09176626896645818
0.06796758023174115
1.379950655328257
0.6856108758667733
0.4109045141621428
0.3657475846385373
0.2441708329745489
0.2477031913349852
0.06796758023200027
0.3657475846364536
0.4147226785100273
0.3637667550903887
0.09176626896799842
0.4109045141601012
0.5561862573017028
0.4382072377191498
0.09951341192211348
0.6856108758653042
0.412657265407348
0.3639913693600682
0.8201216374660244
1.379950655332487
2.569272803084836
2.622870418541669
1.953643702790186
1.67371607526973
2.26428872765458
2.600285445696558
1.946270937924636
1.648793131210482
1.265247971399834
2.697761033989884
2.094131900592063
1.691664194748585
0.3359135219395585
2.024908673440645
1.480905964517354
1.420058880507817
1.458918680632153
0.6236101131083178
0.1839275045373186
0.1590474165451215
1.338480354728396
0.9035785059795112
0.45442324072385
0.07340545607647804
1.396063975980576
1.266559712031682
0.9290959546007325
0.4317936169056317
1.478159787969608
1.414686830655601
1.202627287433455
0.8011185934887376
0.09567212388155513
0.08920992442241558
0.1024752238429973
0.1638172811382175
0.2308559763016791
0.1292819106766177
0.1140119439364452
0.0478229690015425
0.3673524381639077
0.2167244378242652
0.1329988464256477
0.05698415557082977
0.3924316114125558
0.2734125831630212
0.1332015281297742
0.0210156419751672
0.3213514948674545
0.6399566575989705
1.640479309837746
1.376325169913432
0.161518646627746
0.507504526334917
1.437607081995766
1.456851978501232
0.1276388054361179
0.2998277459875281
1.09607503930071
1.517016721609972
0.1027278568129044
0.1411738161389713
0.5161173621615779
1.171915891148081
1.148819983979245
1.048766670316571
1.003851417097402
0.9833884848014428
1.205929080897583
1.065768103409104
1.013013460260974
0.9953777929555047
1.521065889126305
1.095992455006732
1.015474509407561
1.00056800464867
2.101743643214368
1.102657516899344
0.9671120911118362
0.9477406017338329
0.9835232668739764
0.9837769235904107
0.9786356787853213
0.9673509244375397
0.9940238045557684
0.9920678471516826
0.9820540829520766
0.9684070214730784
0.9975533566374707
0.9938058109069461
0.9819237346389387
0.9656725385004568
0.9341569385505372
0.934957205645924
0.9198620735972972
0.8939032577050103
0.9466460790747684
0.9143388068339474
0.8819760236143747
0.8663734796378897
0.9447704578355981
0.9058592643992501
0.8360757142785016
0.7443052161194385
0.9346554001538643
0.8743700809408687
0.7643985155323682
0.6182131013778299
0.8358093821438914
0.7378305149120099
0.6341804521206055
0.441535564188159
1.273319688604682
1.443354828324794
1.443486637324115
1.444761751775392
1.134556809381758
1.443376373896217
1.443688307297869
1.446430315124787
1.003358497738209
1.443393537022535
1.443978480701867
1.448367627017074
0.7670139415179852
1.443346192283793
1.442939617644289
1.440277693369078
1.449552865627483
1.457963281229312
1.46597004262956
1.476036208771339
1.455050036830349
1.467528680923764
1.479633838723742
1.49794743377496
1.460194920451303
1.475214391729151
1.490365082303638
1.510689318670819
1.432430422210159
1.419657257709336
1.400047796470718
1.348601535522124
1.495172526514831
1.532960074967132
1.543376040138464
1.41186459393287
1.530349503846425
1.580783460810118
1.628526796236078
1.505580566655217
1.543514290764295
1.610459611941835
1.727720305839083
1.686742959714452
1.287250605481542
1.252616570906903
1.283238493609981
1.274947739180284
1.289549191860776
1.296633533360943
1.288017697417158
1.283964541456493
1.314595626012536
1.295656093858191
1.288122032762868
1.275767975745908
1.399788179594745
1.292710159486797
1.285372162726306
1.26002953244792
1.517298326302615
1.213468142745999
1.20563515897562
1.187097551210517
1.280331191545032
1.260551561102797
1.25380488597098
1.376751838251185
1.250864182555323
1.211660577352809
1.180475515825184
1.288937256236628
1.217361567020445
1.171480238828195
1.118520724153828
1.134791096973347
1.18136560877416
1.15162231305654
1.09440802008477
1.044143462083655
1.433424078877796
1.442883885316768
1.443349218460816
1.443353256708957
1.434495680217166
1.442644281315387
1.443345488686347
1.443353233098082
1.407776092620918
1.441962130484483
1.443338266109833
1.443353192390897
1.375694956532155
1.440916081845978
1.443325811102655
1.443353117887561
1.443353053021354
1.443314120344756
1.440585236074694
1.382590488554806
1.44335305436143
1.443314660928439
1.440635995104149
1.383599390877039
1.44335305488956
1.44331495171074
1.440595077165671
1.381005976702474
1.443353064999286
1.443317364965014
1.440614724102834
1.377803611451276
1.443353117892137
1.443353192396773
1.443353233122744
1.443353256732883
1.443325811099662
1.443338266110597
1.443345488691432
1.44334921847272
1.440916081846747
1.441962130488663
1.442644281306661
1.442883885326016
1.375694956540525
1.407776092629521
1.434495680218522
1.433424078878099
)
;

boundaryField
{
    back
    {
        type            empty;
    }
    inlet
    {
        type            calculated;
        value           nonuniform List<scalar> 
16
(
1.443353270571932
1.443353270571932
1.443353270571932
1.443353270571932
1.443353270571932
1.443353270571932
1.443353270571932
1.443353270571228
1.443353270570617
1.443353270571932
1.443353270571932
1.443353270571933
1.443353270571932
1.443353270571932
1.443353270571932
1.443353270571932
)
;
    }
    front
    {
        type            empty;
    }
    top
    {
        type            calculated;
        value           uniform 0;
    }
    outlet
    {
        type            calculated;
        value           nonuniform List<scalar> 
16
(
1.443352971573649
1.443352972756657
1.44335297261853
1.443352981852312
1.443353249801855
1.443353217732988
1.443353161429826
1.443353054257433
1.443352971569806
1.443352972752688
1.44335297262233
1.443352981865007
1.443353054259956
1.443353161432609
1.443353217747759
1.443353249817053
)
;
    }
    bottom
    {
        type            calculated;
        value           uniform 0;
    }
    wall
    {
        type            calculated;
        value           uniform 0;
    }
}


// ************************************************************************* //
