/*--------------------------------*- C++ -*----------------------------------*\
  =========                 |
  \\      /  F ield         | OpenFOAM: The Open Source CFD Toolbox
   \\    /   O peration     | Website:  https://openfoam.org
    \\  /    A nd           | Version:  11
     \\/     M anipulation  |
\*---------------------------------------------------------------------------*/
FoamFile
{
    format      ascii;
    class       volScalarField;
    location    "0.269";
    object      T;
}
// * * * * * * * * * * * * * * * * * * * * * * * * * * * * * * * * * * * * * //

dimensions      [0 0 0 1 0 0 0];

internalField   nonuniform List<scalar> 
880
(
300
300.0000000011383
300.0000009459469
300.0038288230954
300.0000000000001
299.9999999962058
300.0000019990686
300.0085225637129
300.0000000000002
299.9999999932497
300.0000011221802
300.0404193051681
300.0000000000001
299.9999997346738
300.000131829822
300.375607621555
300.0000000001245
300.0000000001625
299.9999998565511
300.000011188
300.0000012639215
300.0000000811679
300.0000211391366
299.9999887027868
299.9994480411287
300.0015287238476
300.086072123878
299.8692011529594
303.3975334938161
308.8385968650346
312.8255081380298
314.8986302766626
299.99996529466
300.0007024929885
300.0015861513318
300.0014952368201
299.9992533900752
300.0045595845937
300.0121006062794
300.0178699226096
300.3796800745966
300.7710067441312
301.2348971300119
301.7092995246403
317.3117727373053
319.6911780711108
321.5743666560244
324.4628907943857
322.546552448035
318.8375152735008
315.4036461726852
312.8593113740203
303.1085978929636
305.2687453624691
306.3443203492917
306.9733693734579
300.0592662017362
300.1926847992948
300.4050368232126
300.6508549958106
300.0049455076912
300.0165375115739
300.0437324476978
300.092508375958
300.1528199572597
300.1892579850611
300.1990596541399
300.1831412317203
300.8460825259762
300.9806190766536
301.1040571251946
301.1355140518324
306.9989798596094
306.8886428808167
306.6942951790772
306.1646353292145
311.3322478822782
310.6436854307043
309.9123642614484
308.8132230408519
307.97663976081
305.5086428258372
301.0395971139013
300.149301079266
307.4897266961792
304.830961819846
300.9040293661488
300.1087361166334
307.57304594278
303.9570187218645
300.7311664976192
300.0691592589002
315.6493501333113
303.533784517391
300.5190079490951
300.0332351833898
300.0046906498692
300.3016373326471
303.6677400455749
351.0098464119741
299.9982292147876
300.1548778483761
306.5335628972331
380.5043475858116
300.0045611528862
300.1962433488084
311.9445946923711
391.0319976073874
300.0251275432529
300.4279558522082
319.064063048031
396.6984680503916
400.2436175691295
328.0595653186354
301.0457231802463
300.0714042231414
402.9809470492424
338.7863878303705
302.2656874282437
300.1776467326074
405.1453516464362
350.2197097288094
304.6270615300594
300.3798693269864
405.8548794409238
362.5719495574944
308.7869031306225
300.7851621159352
301.4529220991861
314.7399534392896
370.3400092670383
406.0429165356095
302.5900242177835
320.892593778526
370.2809745607108
396.9888799855895
303.5585909564314
320.1336370244417
360.0981076649544
382.8773613072358
303.0896188769908
315.5672323562142
345.5283456646256
361.0550715068319
303.2219807060099
315.3098305598513
332.2563052173734
337.631647371731
303.1897268446493
310.6228975363028
318.759104478308
313.2184242154995
302.2175207296775
306.0843404559254
308.5804993674283
292.8521740446351
301.3452528245334
304.3553741818794
307.9133514023429
279.2776381418728
292.2943561054117
310.6018510451521
303.4344076619021
300.6899490221591
317.2981163680032
310.8816954488707
302.5180509217299
300.260670218242
345.1914394892808
312.0325945731039
301.5229853937188
300.0715232696877
345.3695615435754
312.7167841151688
300.3492655312996
299.9708681884631
336.0845849320782
308.3317118666059
299.6268366069369
299.9087063589196
316.5696691738631
302.2175553471196
299.4627811684242
299.9263976884301
299.4740710487902
297.868993718361
299.4261645199833
299.9771048822279
287.0579472118984
296.71066659121
299.7030270923859
299.9945391387323
278.2968473783195
296.3458104692344
299.2003722565584
299.9369258182961
280.9972704542555
295.5252409518807
299.165948848518
299.9444396756525
280.6416861182641
294.4196257731631
299.1265668880615
299.9551962337772
278.396902237448
292.9506976030747
299.0837770631696
299.9628536618812
287.0579472116468
296.7106665914732
299.7030270918848
299.9945391399655
299.4740710479683
297.8689937189904
299.4261645179782
299.9771048798535
316.5696691726059
302.2175553468991
299.4627811674688
299.9263976899919
336.084584931347
308.3317118670593
299.6268366070184
299.9087063576862
300.6899490242649
303.43440766349
310.6018510432702
292.2943561034698
300.2606702177035
302.5180509232325
310.8816954499279
317.2981163682966
300.0715232678082
301.5229853961549
312.032594573306
345.1914394898945
299.9708681892073
300.3492655318879
312.7167841174611
345.3695615437881
279.2776381416745
307.9133514009256
304.3553741804469
301.3452528256499
292.8521740454786
308.5804993670721
306.0843404544045
302.2175207307941
313.2184242164954
318.7591044786125
310.6228975382266
303.1897268484058
337.6316473716184
332.2563052177944
315.309830560609
303.221980698385
301.4529220995798
314.7399534408271
370.340009267337
406.0429165350062
302.5900242180052
320.8925937798787
370.2809745594039
396.9888799854465
303.5585909658931
320.1336370249098
360.0981076637639
382.8773613073439
303.0896188713666
315.5672323552685
345.5283456653622
361.0550715065982
405.8548794410598
362.5719495577761
308.7869031312001
300.7851621171635
405.1453516494408
350.2197097313739
304.627061530649
300.379869327472
402.9809470503973
338.7863878329478
302.2656874321113
300.1776467322526
400.2436175676916
328.0595653173424
301.0457231771851
300.0714042223899
300.0046906495902
300.3016373320993
303.6677400455305
351.0098464122771
299.9982292140719
300.1548778479192
306.5335628963102
380.5043475842465
300.0045611519248
300.1962433513394
311.9445946961541
391.0319976105534
300.0251275421434
300.4279558546123
319.0640630468131
396.698468050426
300.0332351843659
300.0691592591451
300.108736116166
300.1493010782544
300.5190079477783
300.7311664990746
300.9040293660132
301.039597113263
303.5337845171478
303.9570187219737
304.8309618195209
305.5086428265952
315.6493501328974
307.5730459426006
307.4897266968522
307.9766397614295
300.1831412307342
301.1355140517848
306.1646353303042
308.8132230411077
300.1990596539546
301.1040571259403
306.6942951798337
309.9123642616202
300.1892579847785
300.9806190787205
306.8886428821649
310.643685430342
300.152819954834
300.8460825287953
306.9989798605932
311.3322478812603
300.0049455109753
300.0592661961466
303.108597891664
322.5465524470205
300.0165375084059
300.192684794682
305.2687453595657
318.8375152714437
300.0437324434889
300.4050368228042
306.3443203477108
315.4036461705574
300.0925083722936
300.6508549989087
306.9733693739331
312.8593113720755
324.4628907946712
301.7092995255572
300.017869920325
300.0014952405829
321.5743666564576
301.2348971323387
300.0121006077748
300.0015860703223
319.6911780718877
300.7710067445423
300.0045595849485
300.0007025752435
317.3117727363093
300.3796800717568
299.9992533901363
299.9999652956943
314.8986302788784
299.8692011515701
299.9999887037549
300.0000111887148
312.8255081388907
300.0860721218516
300.0000211387675
299.9999998564809
308.8385968648814
300.0015287233045
300.0000000812496
300.0000000001331
303.3975334940616
299.9994480409777
300.0000012639273
300.0000000000899
300
300.000000001264
300.000000946275
300.0038288230444
300.0000000000001
299.9999999960042
300.0000019990949
300.0085225629923
300
299.9999999931475
300.0000011219315
300.0404193076514
299.999999999996
299.9999997345162
300.0001318290169
300.3756076157739
300.008441835525
300.0271600241527
300.1379490054371
301.0459461050555
300.0271600241957
300.0587194092419
300.2141402263847
302.5641742501558
300.137949003361
300.2141402247336
301.034709603814
310.5033502412304
301.0459461116584
302.5641742608539
310.5033502540259
331.7750764045975
359.323031872874
341.5338792013961
328.5303037735151
315.5711392149674
357.4152238619559
352.0768318015254
347.4258247116201
338.9465253111809
356.272350483716
354.0434314922718
351.4582594590081
347.9197683454282
355.6865595058237
354.8821021617919
353.8962314982376
352.101764057111
351.5916807503872
350.9471709599503
350.1330644314414
350.7533415501802
352.6408930486996
351.3134788353265
350.0813882761244
350.5621399204947
353.3572678549993
351.6701636340845
350.2371823503164
350.6116900449715
353.6203790048887
351.7984452837413
350.3525723248471
345.5237210050692
331.568204260146
309.8761867845235
300.5956579664183
297.5257692114968
323.4717668382984
303.667669046188
299.1676223476867
297.8455946717138
314.3069429643955
300.0306235967747
300.0039345109993
299.3911604885015
292.6132050436366
294.3290338849876
299.0465633682284
298.7680726300743
297.610869638355
298.3677811902432
299.3184935893952
300.1528375208434
297.9326617798885
298.7583800420308
299.8048486887317
300.9937021889123
298.9834820743501
299.561067973451
300.6004488162978
301.932956720724
298.413041426129
299.0387265975773
300.3507336876409
302.3796048434536
300.9212220277892
301.5687937896424
312.5179838857989
367.0501901327883
301.9146271344434
302.9494669880359
320.8398528829642
384.6431415546194
302.9917271681945
304.1935961892971
335.0862863960579
395.625519726075
303.4717477882045
304.4212375287082
344.1319008667188
400.6695541565652
434.3925013656666
442.7839315484642
440.6231448321832
436.1339269301564
442.7393882051432
445.669394570388
443.2716124420141
438.2452119867692
444.452685446357
446.6991990072206
445.2951490809288
440.2756704897601
444.316583447285
448.1282154623266
446.7665366274841
441.8875774615795
432.9513329946407
433.6828506677868
433.1795519670419
429.9094720679726
434.7395335326673
435.0650245293766
434.9336177983217
431.8387547051673
435.8984293907645
434.7242732925178
435.4820698300404
433.0604260228509
437.3930555237886
436.0576347122572
436.6976076582035
433.3140676272454
425.1647317905187
412.6334140855137
397.277687858032
375.5384774684125
426.1749888515039
414.3207589662591
398.8199999161313
391.4518789222294
427.0536565214114
415.9194672966556
404.6030330001747
410.7687321062872
428.3922802690923
419.5957474208842
415.8688781377028
396.0165976790992
344.2952148726923
292.7747116847148
208.9375339085525
150.9546735173886
334.4416075290072
257.3479959590454
154.0819518123209
109.318921547402
308.9658162738231
203.0643322978177
121.127280068269
106.3179909159647
232.8830590512168
130.3898342579665
108.8035995291195
104.325470054516
176.8077119389045
237.4361960516816
291.054968416764
322.8305835826726
150.5733664304404
208.1598652008359
260.1191237484861
293.4731279987812
145.577421420876
192.4843833676603
238.7143890598518
269.4537070164121
148.5290569731143
195.9522882622786
241.1788630615591
264.2395684102957
303.115086300658
305.8998643602648
293.3228037940162
277.9343830601935
280.5852398459895
295.2677538721983
293.049341272289
286.4820759574296
262.7967488691069
281.4891159944204
288.8865164051656
299.5418894833929
249.6438185566882
270.0290461672784
282.7502897362649
316.9537830857588
254.1988845036873
235.2284162968727
239.8114852007408
254.9580206531478
259.702032048034
230.683245412933
244.1753799868007
242.6004627622905
264.4892117411263
228.5670282100629
247.5090591698577
243.2647594614326
253.4905471011701
224.5597043399951
237.0537289745223
224.1004255472323
206.6196921000565
198.609003657359
199.1722943119186
201.6108142183741
225.8201608652716
211.9643587511537
210.1977362704084
212.0705442284992
237.3117911846258
228.584547879931
225.9482758638714
227.2308171755881
260.7320425437475
254.8743851692665
247.0382403091363
243.4770683892884
201.6108142186805
212.0705442288194
227.2308171758918
243.477068389619
199.1722943125201
210.1977362711569
225.9482758645017
247.0382403094017
198.6090036579823
211.9643587519512
228.5845478805703
254.8743851691652
206.6196921006203
225.8201608661805
237.3117911850771
260.7320425443111
254.9580206531296
239.8114852000351
235.228416296497
254.1988845033319
242.6004627623805
244.1753799868177
230.6832454128931
259.702032047487
243.2647594620423
247.5090591702348
228.5670282103738
264.4892117406893
224.1004255477564
237.0537289748434
224.559704340864
253.4905471011792
316.953783085126
282.7502897341041
270.0290461646238
249.6438185547562
299.5418894827744
288.886516403541
281.4891159921673
262.7967488664797
286.4820759568192
293.0493412711579
295.2677538705565
280.5852398434174
277.9343830597003
293.3228037931828
305.8998643591861
303.1150862980455
322.830583586246
291.054968419841
237.4361960534941
176.8077119396497
293.4731280001514
260.11912375018
208.1598652018709
150.5733664305289
269.4537070157426
238.7143890603049
192.4843833677394
145.5774214205833
264.2395684086698
241.1788630611785
195.9522882620801
148.5290569728336
150.9546735179871
208.9375339083239
292.7747116854753
344.2952148737281
109.3189215466642
154.0819518123239
257.3479959592554
334.4416075299248
106.3179909148394
121.1272800674805
203.064332297869
308.9658162746779
104.3254700547305
108.8035995285421
130.3898342581567
232.8830590525371
375.5384774691391
397.2776878584392
412.6334140855504
425.1647317894987
391.4518789233157
398.8199999162144
414.3207589655636
426.1749888504235
410.7687321074906
404.6030330000846
415.9194672953681
427.0536565202269
396.0165976802841
415.8688781372213
419.5957474191416
428.392280267801
429.9094720676672
433.1795519683272
433.682850667685
432.9513329950188
431.8387547044295
434.9336177987991
435.0650245295502
434.7395335330987
433.0604260222303
435.4820698302142
434.7242732928038
435.8984293911468
433.3140676268526
436.697607658137
436.0576347121561
437.3930555242685
436.1339269315486
440.6231448334696
442.7839315485874
434.3925013659183
438.2452119881479
443.2716124432022
445.6693945705526
442.7393882051708
440.2756704912664
445.2951490818997
446.6991990073564
444.4526854461169
441.8875774630166
446.766536628283
448.1282154624497
444.316583447442
367.0501901320536
312.517983884992
301.5687937905026
300.9212220288032
384.6431415540653
320.8398528815767
302.9494669889888
301.914627135589
395.625519725775
335.0862863941256
304.1935961901858
302.9917271692106
400.6695541561833
344.1319008645035
304.4212375295399
303.4717477892166
300.152837521504
299.3184935894022
298.3677811897643
297.6108696371491
300.9937021895678
299.8048486887387
298.758380041379
297.932661778615
301.9329567209424
300.6004488161537
299.5610679726129
298.9834820730434
302.379604843585
300.3507336873407
299.0387265967852
298.4130414248485
297.5257692096883
300.5956579639338
309.8761867823048
331.5682042597346
297.845594669686
299.1676223454955
303.667669044339
323.4717668379076
299.3911604861916
300.0039345089211
300.0306235951224
314.3069429632412
298.7680726279329
299.0465633664504
294.3290338844537
292.6132050432011
350.7533415499906
350.1330644321105
350.9471709629743
351.5916807528356
350.5621399212145
350.081388278474
351.3134788423155
352.6408930539772
350.6116900463434
350.2371823542247
351.6701636430329
353.3572678636473
345.5237210062193
350.3525723296925
351.7984452932467
353.6203790149485
352.1017640656872
347.9197683487478
338.9465253106836
315.5711392145717
353.896231506627
351.4582594608788
347.4258247099017
328.5303037737067
354.8821021714128
354.0434314922389
352.076831799304
341.5338792015581
355.686559516212
356.2723504818779
357.4152238572973
359.3230318716716
282.6530228036506
295.6744285937534
299.5638079437644
299.9892611462743
274.403135943036
293.518493588071
299.3025564336863
299.9796348875846
273.0282579597582
292.4374511637628
299.1355236731318
299.9730547139809
274.9805298099614
292.280487060267
299.079703241273
299.9687850830861
299.936925814768
299.2003722555207
296.3458104705212
278.2968473787213
299.944439674213
299.1659488493848
295.5252409538455
280.9972704531312
299.9551962309299
299.12656689013
294.4196257729382
280.6416861178785
299.9628536572064
299.0837770659501
292.9506976008187
278.3969022379301
299.9687850760319
299.973054706562
299.9796348809282
299.989261142144
299.0797032446721
299.1355236759357
299.302556434127
299.5638079432715
292.2804870585226
292.4374511619126
293.5184935862827
295.6744285932414
274.9805298101891
273.0282579594039
274.403135942817
282.6530228033328
)
;

boundaryField
{
    back
    {
        type            empty;
    }
    inlet
    {
        type            zeroGradient;
    }
    front
    {
        type            empty;
    }
    top
    {
        type            zeroGradient;
    }
    outlet
    {
        type            fixedValue;
        value           uniform 300;
    }
    bottom
    {
        type            zeroGradient;
    }
    wall
    {
        type            zeroGradient;
    }
}


// ************************************************************************* //
