/*--------------------------------*- C++ -*----------------------------------*\
  =========                 |
  \\      /  F ield         | OpenFOAM: The Open Source CFD Toolbox
   \\    /   O peration     | Website:  https://openfoam.org
    \\  /    A nd           | Version:  11
     \\/     M anipulation  |
\*---------------------------------------------------------------------------*/
FoamFile
{
    format      ascii;
    class       volScalarField;
    location    "0.097";
    object      T;
}
// * * * * * * * * * * * * * * * * * * * * * * * * * * * * * * * * * * * * * //

dimensions      [0 0 0 1 0 0 0];

internalField   nonuniform List<scalar> 
880
(
300
300
300
300.0001397440502
300
300
300.0000000001514
300.000920223752
300
300
300.0000000010218
300.0042405104114
300.0000000000001
300
300.0000000692978
300.0020324759051
300
300
299.9999999999999
300.0000000002761
300
300
299.9999999999997
300
299.9999992201443
300.0000143706596
300.0234791341082
299.9472273646275
300.8643849730008
303.9026879673066
306.5840789512283
307.7738078913544
300.000003436989
300.0000100870976
300.0000118658687
300.000006237968
300.0000918549914
300.0002357628298
300.0004428779707
300.0002650695415
300.0703469743525
300.1255775516224
300.1785386843931
300.1672723588557
309.2851657422556
310.9109978706045
312.1589598130782
313.5929854630892
312.6056329560676
310.0695158910119
307.5455201133468
305.3925751567268
300.2995623963038
300.4661241282379
300.5958223703971
300.4912724430022
300.0009113606732
300.0019505495576
300.0033563998176
300.0032130468199
300.0000307079636
300.0000630109402
300.0000959788659
300.0000833486358
300.0000408444547
300.0000085752233
300.0000005734407
300.0000000081038
300.0020877146043
300.0007380654827
300.0001181566609
300.0000066485244
300.3170874687033
300.1312128397439
300.0326012549356
300.003555905647
303.5561295412186
302.0824066591624
300.9229941925913
300.2312449943954
300.0223539375116
300.0001102285908
300.0000001018747
300.0000000004572
300.0016672584865
300.0000160196918
299.9999999927107
299.9999999978734
299.9961799438116
299.9998148000111
300.0000013608508
300.0000004123762
301.9004366487346
300.0043460278604
299.9996725655033
299.9999804801166
299.9999745655656
299.9998447155963
300.0506325552004
318.2073988510907
299.9999955078563
300.0002771960042
300.2777905766175
332.9994009026122
300.0000447088871
300.0013568218847
300.6340804928398
342.6672224851686
300.0001046083598
300.0035795215291
301.1826120319436
351.8874154191518
359.162951537552
301.5776849810528
300.0045689111459
300.0001397528982
365.2364977896249
302.1484980852557
300.0077009257888
300.0002218066541
368.429965037499
302.4087031798513
300.0082176041757
300.0002447281858
371.7757018046307
303.0981295388177
300.0141349063205
300.0004370440116
300.0004539291311
300.0148092791969
303.6848038907808
376.1208302157768
300.0006580766598
300.0219076934393
304.7115698709364
377.6454017410288
300.0010761299495
300.0297889500356
305.0448060957881
372.0886970229658
299.9999387845896
300.0078797440862
302.7493916986521
352.5020620328391
300.0022326327237
300.0720003050713
304.0200079945939
332.7184650959433
300.0008787473203
300.1025154142316
303.1030502923907
315.6326572044752
299.9986616762872
300.0220733012516
301.917208376484
310.8244173830916
299.9985586744855
299.9223673641874
299.9924549158696
309.1458646578444
302.5552938659524
298.792937313902
299.9137426586689
299.9996635013355
294.9416168492054
298.5609865061979
299.9527102709419
299.9998214942422
286.863117538115
298.4752540839329
299.9762083648155
299.9999302610043
285.7092965656506
298.5519738604288
299.9772614666523
299.9999291631846
285.3939533220978
299.3461129121745
299.9937598121957
299.9999786478289
285.6205742134562
299.7205106895499
299.9984295971055
299.9999956014378
287.3807513388012
299.8409527205591
299.999389860012
299.9999987083589
291.7048616470661
299.9273503803752
299.9997588707204
299.999999164372
297.161665695292
299.7938813009604
299.9957799956816
299.9999726402715
297.5338936777893
299.7981746314675
299.9957599393165
299.9999726072439
297.9345168105068
299.7953849954791
299.995651767968
299.9999724506913
299.2871092609232
299.8136140776343
299.9953429213473
299.9999724331678
291.704861646443
299.9273503797511
299.9997588696806
299.9999991659091
287.3807513383171
299.8409527199043
299.9993898579399
299.999998708514
285.620574213408
299.7205106904292
299.998429597424
299.999995601542
285.3939533225495
299.346112914259
299.9937598123475
299.9999786471878
299.9996635013393
299.9137426601853
298.7929373141464
302.5552938657547
299.9998214961593
299.9527102714526
298.5609865065118
294.9416168493227
299.9999302599704
299.9762083662297
298.4752540830233
286.8631175388899
299.9999291632952
299.9772614672861
298.5519738623957
285.709296564975
309.1458646568244
299.99245491459
299.9223673622486
299.9985586732612
310.8244173816305
301.9172083752693
300.0220732996538
299.998661673467
315.6326572044856
303.1030502912813
300.1025154146226
300.0008787480296
332.7184650962974
304.0200079942346
300.072000304136
300.0022326356058
300.0004539281847
300.0148092812867
303.6848038917795
376.1208302165385
300.0006580766537
300.0219076948184
304.7115698716298
377.6454017411725
300.0010761312653
300.0297889500808
305.0448060947578
372.0886970230265
299.9999387873077
300.0078797442673
302.7493916976887
352.5020620326601
371.7757018059845
303.0981295383934
300.0141349086244
300.0004370440249
368.4299650387976
302.4087031850966
300.0082176028619
300.000244728622
365.2364977887674
302.1484980832074
300.0077009309922
300.0002218059767
359.1629515383014
301.5776849779895
300.0045689082126
300.0001397523534
299.9999745668416
299.9998447166424
300.0506325554043
318.2073988500572
299.9999955071846
300.0002771947029
300.2777905770736
332.999400902514
300.0000447080542
300.0013568207515
300.6340804924848
342.6672224850836
300.0001046072981
300.0035795236725
301.1826120340575
351.8874154199868
299.9999804798056
300.0000004129355
299.9999999979107
300.0000000002941
299.9996725643918
300.0000013609136
299.999999993909
300.0000001011513
300.0043460282085
299.9998148002532
300.000016018901
300.0001102282588
301.9004366489456
299.9961799442592
300.0016672584337
300.022353937582
300.0000000070469
300.0000066486589
300.0035559069466
300.2312449949579
300.0000005731318
300.0001181561617
300.0326012573851
300.9229941924722
300.000008576206
300.0007380657385
300.1312128380555
302.0824066589178
300.0000408447331
300.0020877146254
300.3170874701023
303.5561295405412
300.0000307063415
300.0009113593444
300.2995623966411
312.6056329559108
300.0000630093112
300.0019505494623
300.4661241285555
310.0695158900801
300.000095978065
300.0033564011493
300.5958223702477
307.5455201128572
300.0000833479414
300.0032130477927
300.4912724427788
305.3925751559518
313.592985463653
300.167272361548
300.0002650687777
300.0000062372185
312.1589598137657
300.1785386864148
300.0004428777812
300.0000118660859
310.9109978717688
300.1255775490528
300.0002357633756
300.0000100867883
309.2851657418931
300.0703469707756
300.0000918542602
300.0000034375221
307.7738078919961
299.9472273695689
300
300.0000000004849
306.5840789507054
300.0234791287664
300
300.0000000000001
303.9026879677278
300.0000143702969
300
300
300.8643849725948
299.9999992197295
300
299.9999999999999
300
299.9999999999999
300
300.0001397431689
300.0000000000002
300
300.0000000000636
300.0009202146194
300
300
300.0000000012031
300.0042405097205
300
300
300.0000000686221
300.002032475687
300.0002335855194
300.001002364809
300.0062640545003
300.1909280638695
300.001002381154
300.0010863713584
300.0026899727222
300.7725006656157
300.0062640525264
300.0026899572428
300.2838184042373
305.4329202009184
300.1909280548021
300.7725006695504
305.4329202825139
324.6568360457451
353.7210311405215
334.267374854055
321.1037142311565
309.5358521111564
349.6267499288441
344.8295987173056
340.2999819519582
331.3833530522386
346.0283895980392
344.3419815099695
342.5932668403202
338.411580312339
344.9666041116939
343.5251317046627
342.5602407983239
340.6472338996001
343.450185810441
344.8769560629125
345.8599129233418
348.337946728497
343.3780042115764
344.5014547071231
345.3878976900301
348.4006861836834
343.3342844672398
343.673756721434
344.5714413747999
346.5275573451653
343.4085820417954
343.1642939507623
344.0609240074432
342.2892803492292
331.6921057965485
314.8240833623852
306.5214804121276
303.3477256471234
322.9219548333249
306.4554490325917
304.2982117497533
304.0876788759898
312.5378611806682
300.1690045768303
304.8245596412092
305.3491891102205
287.6919613569227
292.2677267149014
303.2882018775142
304.6159499377226
302.9707577106294
302.8726678432234
301.8166952619904
300.6544324293072
303.5752856632812
303.0579074124697
301.7569733550818
300.6588923273993
304.4907221443673
303.5474597983757
301.9973686570869
300.8060095081213
303.7073277693249
303.0795010270785
301.6218722532719
300.4462351491609
300.1277801431773
300.0099386464446
299.9979954958361
326.4720877809616
300.1563225292726
300.0157756652119
299.9977296147718
342.3953011218884
300.2122398350884
300.0227516720859
300.000150301976
351.5113343127939
300.0574139810083
299.9988039525105
300.0001952840856
355.0893492556864
401.1011115112955
414.4168971373056
419.1301897837055
424.6503730950473
416.9128416749241
420.1001435849257
419.0768042982475
421.259206272701
422.1042660896434
417.1222322006317
416.6707921624374
416.5414027257636
432.1699499065777
421.9114046857395
415.3609140280142
414.2658836147186
429.9849017525561
435.1915223638714
436.6242889070376
437.2351915699419
424.082100398038
428.1758922162819
429.3642709077136
429.9992751956701
417.3205456103889
420.2704224101977
421.7659315144435
422.5070459542111
414.5300129872658
416.9502167065084
418.4531427272846
419.277294746946
436.3870853458812
432.1133289987841
421.3055343718051
401.1829742664345
429.3505738421181
425.6372786397232
416.3048726075706
415.2172181918221
422.1096499867444
419.0570010385024
413.9195886298625
425.6681120563608
418.800616153532
417.0984901078742
416.7580099344302
406.7615819885659
360.044287693372
297.467676204661
221.8749606007964
214.0228042200642
347.3111010984214
261.3988282563342
203.2732297829188
186.7605199009457
310.5997742346844
221.4809940556813
177.8569546758928
162.6162568173288
239.3838794401066
166.1295873180517
176.035082953371
154.235151399495
217.35551279343
217.7588050773728
216.7634566738434
213.0036150157367
187.2457747179961
185.5601378485385
186.7627138921878
193.8607172253719
158.6616320836146
156.7052157081433
164.027153318354
197.6059586603657
146.5007683694509
143.8818825372729
154.0827922240415
202.689779174156
259.4940918973897
257.481563373015
258.4245935746168
268.0380068618813
276.64430733677
270.0628721755535
261.4852433607998
271.8003566723912
269.4634121984341
284.6399769173715
278.112435515807
283.9074840554995
243.1525042440804
271.9451189717994
281.8462857161525
296.9267877463508
245.6481945228343
218.0414689568254
179.0421026437376
170.545670269205
247.4293211933462
214.4759870224563
181.3625287770449
139.4689999427751
240.0968461850065
191.7978843393436
130.3370359865103
126.2966493851983
212.9293486082377
132.0875825740461
84.11335118165246
116.4999669348093
143.5303907045376
161.0842815998033
181.9544220666444
189.6406935649956
156.54858028126
175.0432587570812
191.781416484237
197.7863508662637
176.5686474538197
206.5589842715868
216.5456797208396
220.4192141349317
237.045175480003
276.9119595079616
269.9589518037458
262.2870207406297
189.6406935650472
197.7863508662326
220.4192141348927
262.2870207404449
181.9544220669073
191.7814164841527
216.5456797207876
269.9589518033856
161.0842816000335
175.0432587571268
206.558984271363
276.9119595075614
143.5303907046634
156.5485802813424
176.5686474538947
237.0451754789128
170.5456702684489
179.0421026434787
218.0414689561372
245.6481945220357
139.4689999429144
181.362528777275
214.4759870227388
247.4293211928128
126.2966493853197
130.3370359859717
191.7978843387796
240.0968461848599
116.4999669347232
84.11335118152468
132.0875825739069
212.9293486079816
296.9267877460999
281.84628571594
271.9451189715023
243.1525042429656
283.9074840553537
278.1124355158373
284.6399769173785
269.4634121973278
271.8003566721646
261.4852433607809
270.0628721754294
276.6443073358729
268.0380068614633
258.424593574441
257.4815633726123
259.494091896572
213.0036150152751
216.7634566747055
217.7588050775136
217.3555127931143
193.8607172252149
186.7627138932469
185.560137848989
187.2457747176904
197.6059586604145
164.0271533190823
156.7052157086017
158.6616320834854
202.6897791739534
154.082792224483
143.8818825376635
146.5007683694461
214.0228042188761
221.8749605994608
297.467676204623
360.0442876935517
186.7605198995337
203.2732297816362
261.3988282559611
347.3111010977597
162.6162568163435
177.8569546745364
221.480994055755
310.5997742343489
154.2351513989191
176.0350829516813
166.1295873171283
239.3838794397865
401.1829742664895
421.305534371946
432.1133289988414
436.387085345951
415.2172181919723
416.3048726077932
425.6372786399343
429.3505738425149
425.6681120564971
413.9195886301108
419.0570010389924
422.1096499874598
406.7615819884551
416.7580099348168
417.0984901084221
418.8006161544592
437.2351915698457
436.6242889061739
435.1915223651517
429.984901752493
429.9992751959463
429.3642709071981
428.1758922167094
424.0821003981122
422.5070459548656
421.7659315142426
420.2704224100159
417.3205456110567
419.2772947478638
418.4531427270952
416.950216706
414.5300129882287
424.6503730958574
419.1301897829669
414.4168971370147
401.1011115106648
421.2592062740268
419.0768042970217
420.1001435854902
416.9128416742035
416.5414027274068
416.6707921603831
417.1222322012027
422.104266088805
414.2658836171506
415.3609140255759
421.911404686279
432.1699499054536
326.4720877795881
299.9979954899335
300.0099386482107
300.1277801431656
342.3953011205813
299.9977296112032
300.0157756667802
300.1563225292704
351.5113343112059
300.0001503005238
300.0227516733174
300.2122398350822
355.0893492540013
300.0001952827237
299.9988039542841
300.0574139808425
300.6544324292909
301.816695261467
302.8726678432149
302.9707577104451
300.6588923272662
301.7569733547551
303.0579074122527
303.5752856629933
300.8060095080137
301.9973686568873
303.5474597979024
304.4907221439033
300.4462351489923
301.6218722529344
303.0795010266932
303.7073277688039
303.347725646473
306.5214804115964
314.8240833616312
331.6921057961738
304.0876788753031
304.2982117492793
306.4554490319091
322.9219548330624
305.3491891095335
304.8245596408778
300.169004576209
312.5378611804651
304.6159499369165
303.2882018773353
292.2677267141892
287.6919613564344
348.3379467276218
345.8599129230655
344.8769560645228
343.4501858124555
348.4006861827995
345.3878976899992
344.5014547085617
343.3780042128753
346.5275573444573
344.5714413744732
343.6737567220851
343.3342844682629
342.2892803486899
344.0609240072048
343.1642939515522
343.4085820424073
340.6472338973787
338.4115803127758
331.3833530531323
309.5358521124085
342.5602407974635
342.5932668403498
340.2999819537272
321.1037142211189
343.525131704444
344.3419815105441
344.8295987179031
334.2673748413648
344.9666041112927
346.0283895973546
349.6267499276353
353.7210311443383
295.6278163116455
299.9222021635764
299.9994063852325
299.9999976937724
295.671541032572
299.9017346702536
299.9989609283706
299.9999947682094
297.8940809911359
299.887221551021
299.9981530492591
299.999989366902
299.5949225358668
299.8491280785287
299.9961171055531
299.999978788272
299.9999726411962
299.9957799956017
299.7938813004712
297.1616656949319
299.999972607907
299.9957599403265
299.7981746301245
297.5338936781403
299.9999724496487
299.9956517691815
299.7953849944839
297.9345168093042
299.999972430071
299.9953429227458
299.8136140745129
299.2871092601713
299.9999787874669
299.9999893657046
299.9999947642617
299.999997690255
299.9961171059458
299.9981530492289
299.9989609279142
299.9994063839141
299.849128078314
299.8872215500738
299.9017346712579
299.9222021627118
299.5949225352846
297.8940809897538
295.6715410321685
295.6278163117275
)
;

boundaryField
{
    back
    {
        type            empty;
    }
    inlet
    {
        type            zeroGradient;
    }
    front
    {
        type            empty;
    }
    top
    {
        type            zeroGradient;
    }
    outlet
    {
        type            fixedValue;
        value           uniform 300;
    }
    bottom
    {
        type            zeroGradient;
    }
    wall
    {
        type            zeroGradient;
    }
}


// ************************************************************************* //
