/*--------------------------------*- C++ -*----------------------------------*\
  =========                 |
  \\      /  F ield         | OpenFOAM: The Open Source CFD Toolbox
   \\    /   O peration     | Website:  https://openfoam.org
    \\  /    A nd           | Version:  11
     \\/     M anipulation  |
\*---------------------------------------------------------------------------*/
FoamFile
{
    format      ascii;
    class       volScalarField;
    location    "0.179";
    object      rho;
}
// * * * * * * * * * * * * * * * * * * * * * * * * * * * * * * * * * * * * * //

dimensions      [0 0 0 0 0 0 0];

internalField   nonuniform List<scalar> 
880
(
0.3733250556165154
0.3733250556165155
0.3733250556790085
0.3733300160485668
0.3733250556165155
0.3733250556165155
0.3733250558984407
0.3733409376112969
0.3733250556165155
0.3733250556166049
0.3733250576678903
0.3733896290094952
0.3733250556165154
0.3733250556091346
0.3733250857209283
0.3736012188043122
0.3733250556165155
0.3733250556165155
0.3733250556126634
0.3733250556713517
0.37332505618977
0.3733250509837223
0.3733251124177706
0.3733247983399662
0.3733248234764655
0.3733254173154599
0.3734404961434434
0.3731855363133443
0.3794520328942411
0.3910391231067063
0.3982179033127438
0.4007038548482815
0.3733250899024981
0.3733257277745296
0.3733259194604899
0.3733260266773049
0.3733267106029191
0.3733285465809564
0.3733353131992176
0.3733374708002166
0.3738162447970788
0.3741857209952265
0.3747251445662073
0.375286653406472
0.404437899923007
0.4095836996562943
0.4148823773801866
0.4213204713215737
0.4183947495023544
0.4085910805503085
0.3997630030595759
0.3953644973974509
0.3771291822676097
0.3805015352893326
0.3820445506798067
0.3828327852058836
0.3733647626376206
0.3734730471037779
0.3736444503695772
0.3738020814039705
0.3733280596527943
0.3733348500787572
0.3733515743659187
0.3733661866946399
0.3733687505224204
0.3733634147998852
0.3733531226272574
0.373340980356429
0.3738793486467611
0.3738488226264371
0.3737831369046592
0.3736882415308634
0.3827774986700733
0.3819547143214306
0.3809360373899879
0.379687492792058
0.3944790000588118
0.3946052918678548
0.3934387054008471
0.3912787578432373
0.3885953159287045
0.3782108885566689
0.3735656610537554
0.3733314011881535
0.385765170121166
0.3766475917313039
0.373443743614592
0.3733264884763889
0.38101102762608
0.3748903918323694
0.3733571516916401
0.3733249334909119
0.3924744044451954
0.3739047426798618
0.373329650311235
0.3733254344348998
0.3733248545846453
0.3733259059209974
0.3743125024243563
0.4588917683680018
0.3733255326635417
0.3733443666292897
0.3774728406809555
0.5156230892274252
0.3733276596390306
0.373382136261252
0.3821900502806419
0.5435617884850822
0.373334670450868
0.3734924488410933
0.3888162532058653
0.5685216786254463
0.5872653604907172
0.3974182305856482
0.3736673041471362
0.3733462173417509
0.6035432006052676
0.4074564193220042
0.3739747478341672
0.3733740909696854
0.6192321003390969
0.4207890505446397
0.3745374587870554
0.3734043249830418
0.6357013803714349
0.4360821691221436
0.3752601982023782
0.3734685530824628
0.3735373025190317
0.3764452850116753
0.4545929766579934
0.6459738643672209
0.3736769517381598
0.378201298776374
0.4702840493173437
0.6410855741761881
0.3742373674999044
0.378773897401233
0.4570734636581792
0.5923645272262543
0.3731422018488457
0.3769784341382753
0.4311802390608744
0.5238297725241998
0.3740931352803194
0.3806394872971294
0.4126280145590242
0.4161993700058568
0.3744314298887843
0.3789572478673711
0.379588483863104
0.296998503488992
0.3739750727237827
0.3759591292490272
0.36543903660362
0.2128191872974759
0.373479389196577
0.3740986985311138
0.3529880109829329
0.1684946601783044
0.1681805628092214
0.3479099156044735
0.3730132600017096
0.3733251429281088
0.1687283908165985
0.3443940697163967
0.3721333295006438
0.3733133221760924
0.1748926865562123
0.3424346263218015
0.3717340191420244
0.3733094988352695
0.1700813573250916
0.338274858042396
0.3715100631766965
0.3733060151170436
0.1996649682601761
0.3450647871449932
0.3722043671762573
0.3733147446957765
0.2260377300727813
0.3534912446763648
0.3728003351016804
0.3733216373329208
0.2445141022371437
0.3597940295518439
0.3730836698480302
0.3733238702186957
0.2665293463899072
0.3672507072012017
0.3732861515132145
0.3733246841251396
0.3197560182418351
0.3651284346855407
0.3728967187563959
0.3733178002751966
0.3148816692470245
0.3651802268880574
0.3729176509309197
0.3733180584917024
0.3070810031352944
0.3650500696879636
0.3729373723273479
0.3733185152870958
0.2999320601357091
0.365291807289803
0.373004513174771
0.3733199690458725
0.2665293463891643
0.3672507072003141
0.3732861515122207
0.3733246841233692
0.2445141022361778
0.3597940295501594
0.3730836698405863
0.3733238702167761
0.2260377300706495
0.3534912446752845
0.3728003350991302
0.373321637335942
0.1996649682601915
0.3450647871480154
0.3722043671757865
0.3733147446937673
0.3733251429349051
0.3730132600068203
0.3479099156053083
0.1681805628076631
0.3733133221772986
0.3721333295036438
0.3443940697183792
0.1687283908172219
0.3733094988312604
0.3717340191461821
0.3424346263222856
0.1748926865564596
0.3733060151173153
0.3715100631787484
0.3382748580496125
0.170081357324825
0.1684946601748381
0.3529880109791248
0.3740986985320529
0.3734793891953869
0.2128191872943603
0.3654390365997103
0.3759591292457759
0.3739750727159264
0.2969985034888178
0.3795884838594042
0.3789572478676326
0.3744314298836422
0.4161993700063369
0.4126280145576094
0.3806394872910016
0.3740931352968981
0.3735373025172344
0.3764452850197713
0.4545929766590535
0.6459738643718627
0.3736769517392994
0.3782012987783505
0.4702840493135254
0.6410855741754238
0.374237367467401
0.3787738973974576
0.4570734636521474
0.5923645272257189
0.3731422018850829
0.3769784341357462
0.4311802390601802
0.5238297725237742
0.6357013803811454
0.4360821691285331
0.3752601982079063
0.3734685530830157
0.6192321003502905
0.4207890505634247
0.3745374588033538
0.3734043249851353
0.6035432006023259
0.4074564193102765
0.3739747478270951
0.3733740909697167
0.5872653604904535
0.3974182305833031
0.3736673041538132
0.3733462173404138
0.3733248545901683
0.373325905922853
0.3743125024246421
0.4588917683641892
0.3733255326639161
0.3733443666232235
0.3774728406820053
0.5156230892231629
0.3733276596363127
0.3733821362645536
0.3821900502822981
0.5435617884891037
0.3733346704474256
0.3734924488348937
0.3888162532080688
0.5685216786302321
0.3733254344272755
0.3733249334940887
0.3733264884760243
0.3733314011876991
0.3733296503059854
0.3733571516938872
0.3734437436190616
0.3735656610513193
0.3739047426810782
0.3748903918333243
0.3766475917275482
0.3782108885553827
0.3924744044447728
0.3810110276261392
0.3857651701200755
0.388595315929847
0.3733409803513419
0.3736882415303732
0.3796874927955647
0.3912787578462762
0.3733531226256036
0.373783136903763
0.3809360373940485
0.3934387054027958
0.373363414803805
0.3738488226265566
0.3819547143194069
0.3946052918675699
0.3733687505241777
0.3738793486467291
0.3827774986712505
0.394479000058617
0.3733280596392755
0.3733647626337486
0.3771291822715255
0.4183947495017803
0.3733348500734287
0.3734730471034377
0.3805015352898888
0.4085910805463504
0.3733515743644361
0.3736444503748758
0.382044550679335
0.3997630030573501
0.3733661866937266
0.3738020814076607
0.382832785205071
0.3953644973945623
0.4213204713233359
0.3752866534187962
0.3733374707979387
0.3733260266466263
0.4148823773809609
0.3747251445775545
0.3733353131952108
0.3733259194706959
0.4095836996585046
0.3741857209944061
0.3733285465815253
0.3733257278008396
0.4044378999165863
0.3738162447729759
0.3733267106027973
0.3733250899038962
0.4007038548464495
0.3731855363121136
0.3733247983403749
0.3733250556731563
0.3982179033101184
0.3734404961434877
0.3733251124184373
0.3733250556126665
0.3910391231062579
0.373325417314269
0.3733250509840262
0.3733250556165152
0.3794520328979246
0.3733248234750996
0.3733250561899108
0.3733250556165152
0.3733250556165155
0.3733250556165154
0.3733250556802322
0.3733300160564686
0.3733250556165152
0.3733250556165155
0.373325055898923
0.3733409376154542
0.3733250556165154
0.373325055616596
0.3733250576677562
0.3733896290234637
0.3733250556165154
0.3733250556090988
0.3733250857180452
0.3736012187944276
0.373338101331701
0.3733681179667037
0.3734682957909303
0.374712233604
0.373368117980734
0.373398892568415
0.3735780688316239
0.3776970686794982
0.3734682958092638
0.3735780688312693
0.3752548525193803
0.395733892393116
0.3747122335627333
0.3776970685703687
0.3957338919860667
0.4520855850281332
0.5327699081873122
0.4771014043060365
0.4466827177320368
0.4115841358987931
0.5187871799916208
0.5072304791896676
0.5072022970387459
0.4829202942685296
0.5130344400543305
0.5105538343759766
0.5118200545985035
0.5019399965675148
0.5152505692277872
0.5132221524102145
0.5136645781684125
0.5069676959633936
0.5078243054616628
0.5058447386771399
0.505819632960906
0.5077203960356698
0.5129685708289529
0.5092326597750281
0.5091661560828942
0.5106864429530922
0.5134040781969104
0.5110233986176635
0.5112250032522766
0.5122118855601526
0.5141565431705379
0.5118464048007151
0.5117545415253842
0.5043713588746566
0.4434391962996919
0.3747471047580302
0.3543824531577478
0.3571923512544511
0.4149723596238175
0.352256908367794
0.3474430617532115
0.3541370056103033
0.3867035715366464
0.3467123627065489
0.3505365537268573
0.3561889881775849
0.3337726398336565
0.3331527610468623
0.3464234963724918
0.3534532626249005
0.3635936782363018
0.3700393179203358
0.3746189960191249
0.3769047782613864
0.3613943065232928
0.3672955406435253
0.3721522550946486
0.3752484536550919
0.3620080974414376
0.3664493780100851
0.3703651392236106
0.3743168751788524
0.3593374937499582
0.3643646108025165
0.3694397609407853
0.3737203928786635
0.3781913053821936
0.3788916491396248
0.382894209311068
0.4917466068838521
0.3769584818963758
0.3780858783235956
0.3857034433419965
0.5287539226010355
0.376636248832634
0.3780032757088078
0.3877726912153587
0.543645656932455
0.3764186633720326
0.3776919273775765
0.3923796664245395
0.5548648717779484
0.7312157800461061
0.7478854467913558
0.7370678713120578
0.7271081610104009
0.7642601447715792
0.7574907219195002
0.7414830780996541
0.7300583868440018
0.7494551063539804
0.7491384078978101
0.741497320496152
0.7327454362842599
0.7622000826330727
0.7547827209703347
0.7452180728491244
0.7348908218221829
0.7152151359152129
0.7020161023736566
0.6904007800978088
0.688148435505689
0.7180608912324238
0.705995830220941
0.6944092034988844
0.6913815003655192
0.7216670315780246
0.710921112621137
0.6994356911968523
0.6971305364578678
0.7266602539155684
0.7155137082525262
0.7025794057476276
0.6995000036892568
0.6895127475491207
0.6788012572718786
0.6378604904259642
0.5604433785495599
0.6904636871086736
0.6804310820384036
0.6406109375939126
0.5707385365197724
0.6944041092099487
0.6828787787707594
0.6414144424377134
0.5765204281873824
0.6968333296330468
0.6855376580290796
0.6389532587988596
0.6665693056603337
0.3569538015548678
0.08484528468974527
0.01732835142164625
0.0261458426438352
0.2895797950438925
0.0557416081434411
0.02460316686012148
0.03483221246699975
0.2187437479221184
0.03414039802254159
0.02490245834954703
0.04231961127423306
0.1575126268746992
0.01729749963907333
0.02892794578088329
0.04541762739345251
0.03879112855523928
0.04997533761491872
0.06046234741106458
0.06219650284503662
0.0503651068438895
0.06317804151347578
0.06937116291791715
0.0679661410815386
0.06260627202635755
0.07588083269099412
0.0763330928155925
0.07461259000647837
0.06722957951096938
0.0811345891536919
0.08130165936816119
0.08168792749541093
0.0976099414965874
0.122136291121212
0.1430156691849866
0.1683195358364471
0.098304920168897
0.1205346662848142
0.1368386273244068
0.1620957879108701
0.09636324304835266
0.1183160056354631
0.130172756613382
0.1472335214684403
0.09202329164276517
0.1148827670429285
0.1240127867242924
0.1442148917076423
0.1308074856115631
0.09961894129080631
0.08770558343179564
0.08568458093701213
0.1221274375643111
0.1015631098351663
0.0940592637621087
0.08414127803524361
0.101135601111231
0.09466752202565312
0.08974738672113156
0.09474587090297443
0.08022010109275385
0.08586677014819423
0.09292341377917439
0.1032545237323056
0.1076821792329274
0.1055724834733772
0.102506944765002
0.09937610222539142
0.09663691953381173
0.09179125505073465
0.08707876948074809
0.08514687068493711
0.08512801677263312
0.08402991116129409
0.07996051744400767
0.07682277533038467
0.09501197724789694
0.09406543597693749
0.09063673256505012
0.08908076742832791
0.09937610222532578
0.08514687068505647
0.07682277533042747
0.08908076742881395
0.1025069447647851
0.08707876948082995
0.07996051744424972
0.09063673256554143
0.1055724834732126
0.0917912550507867
0.0840299111615098
0.09406543597680544
0.1076821792328555
0.09663691953380653
0.08512801677267158
0.09501197724737061
0.08568458093664938
0.08770558343126925
0.09961894129021533
0.1308074856104336
0.08414127803518193
0.09405926376188727
0.1015631098349632
0.1221274375636096
0.09474587090295607
0.08974738672110753
0.09466752202554997
0.1011356011108934
0.1032545237322954
0.09292341377906639
0.08586677014808926
0.08022010109257023
0.1442148917070261
0.124012786723335
0.1148827670412431
0.09202329164199656
0.1472335214678929
0.1301727566128796
0.118316005633842
0.09636324304730565
0.1620957879101439
0.1368386273241768
0.1205346662833036
0.09830492016767479
0.1683195358354466
0.1430156691848253
0.1221362911198742
0.09760994149524005
0.06219650284376278
0.06046234741094805
0.04997533761470479
0.038791128554677
0.06796614108051209
0.06937116291744183
0.0631780415130556
0.05036510684343393
0.07461259000564095
0.07633309281499837
0.07588083269068785
0.06260627202587926
0.08168792749457415
0.08130165936756474
0.0811345891533911
0.06722957951062827
0.02614584264356029
0.01732835142134522
0.08484528468874859
0.3569538015544417
0.03483221246693369
0.02460316685973893
0.05574160814297396
0.2895797950436168
0.04231961127397721
0.02490245834912956
0.03414039802223491
0.2187437479222194
0.04541762739323447
0.02892794578049915
0.01729749963885785
0.1575126268750342
0.5604433785491757
0.6378604904274664
0.6788012572723903
0.689512747553168
0.570738536520264
0.6406109375964216
0.6804310820411893
0.6904636871132955
0.5765204281886884
0.6414144424405118
0.6828787787747795
0.694404109215282
0.6665693056627982
0.6389532588029841
0.6855376580338144
0.6968333296379657
0.6881484355117995
0.6904007800994573
0.7020161023728535
0.7152151359143588
0.6913815003715091
0.6944092034999056
0.7059958302200303
0.7180608912329525
0.6971305364628152
0.6994356911971247
0.7109211126202032
0.7216670315802129
0.6995000036941372
0.7025794057476472
0.7155137082519132
0.7266602539178468
0.727108161016334
0.7370678713165673
0.747885446790019
0.7312157800445573
0.7300583868504249
0.7414830781034145
0.7574907219189498
0.7642601447727663
0.7327454362905785
0.7414973204990073
0.7491384078964789
0.7494551063547744
0.7348908218281075
0.7452180728519598
0.754782720969035
0.7622000826322947
0.4917466068795522
0.3828942093094098
0.3788916491402102
0.3781913053854428
0.5287539225966997
0.3857034433396114
0.3780858783250686
0.3769584819000896
0.543645656926927
0.3877726912127231
0.3780032757115308
0.3766362488363516
0.5548648717760032
0.3923796664203536
0.3776919273804623
0.3764186633759059
0.3769047782637278
0.3746189960229743
0.3700393179192371
0.3635936782348032
0.3752484536575677
0.3721522551011037
0.3672955406421338
0.3613943065216071
0.3743168751800481
0.37036513921846
0.3664493780089321
0.3620080974395189
0.3737203928810555
0.3694397609430181
0.3643646108010086
0.3593374937481525
0.3571923512518291
0.3543824531557482
0.374747104755986
0.4434391963013707
0.3541370056075274
0.3474430617514216
0.3522569083660123
0.4149723596265548
0.3561889881751334
0.3505365537255167
0.3467123627051812
0.3867035715407966
0.3534532626221277
0.3464234963702433
0.3331527610446376
0.3337726398385774
0.5077203960350395
0.5058196329586049
0.5058447386805202
0.507824305458859
0.5106864429524974
0.5091661560818627
0.5092326597775299
0.5129685708227515
0.5122118855590968
0.5112250032510016
0.5110233986194896
0.5134040781902437
0.5043713588752606
0.5117545415231145
0.5118464048006245
0.5141565431639004
0.5069676959582181
0.5019399965409014
0.4829202942554958
0.4115841359433508
0.5136645781626665
0.51182005457348
0.507202297069473
0.4466827177223004
0.5132221524049273
0.5105538343520978
0.5072304790642201
0.4771014042577559
0.5152505692248937
0.5130344400376754
0.5187871799380546
0.5327699081342891
0.2751058418823294
0.3660867482336238
0.3731510647073281
0.3733237697517467
0.2723378310704355
0.3648719256142327
0.373110443475015
0.3733231807912267
0.2778460574785676
0.3650044136661557
0.3730956300936568
0.3733227256097701
0.2848861071852304
0.3651087281450804
0.3730601291975933
0.3733217148954701
0.3733178002743843
0.3728967187625258
0.3651284346836469
0.3197560182448468
0.3733180584917776
0.372917650934898
0.3651802268869431
0.3148816692478365
0.3733185152844459
0.3729373723277285
0.3650500696899994
0.3070810031332967
0.3733199690393385
0.3730045131769344
0.3652918072869342
0.2999320601336963
0.3733217148893706
0.3733227256066867
0.3733231807843153
0.3733237697433021
0.3730601292001969
0.373095630093625
0.3731104434742532
0.3731510647070485
0.3651087281438644
0.3650044136585994
0.364871925616396
0.36608674823376
0.2848861071836951
0.2778460574771784
0.2723378310699605
0.2751058418826665
)
;

boundaryField
{
    back
    {
        type            empty;
    }
    inlet
    {
        type            calculated;
        value           nonuniform List<scalar> 
16
(
0.3733250556165154
0.3733250556165155
0.3733250556165155
0.3733250556165154
0.3733250556165155
0.3733250556165155
0.3733250556126634
0.3733250556713517
0.3733250556731563
0.3733250556126665
0.3733250556165152
0.3733250556165152
0.3733250556165155
0.3733250556165152
0.3733250556165154
0.3733250556165154
)
;
    }
    front
    {
        type            empty;
    }
    top
    {
        type            calculated;
        value           nonuniform List<scalar> 
40
(
0.3733250899024981
0.3733257277745296
0.3733259194604899
0.3733260266773049
0.3733280596527943
0.3733348500787572
0.3733515743659187
0.3733661866946399
0.3733687505224204
0.3733634147998853
0.3733531226272574
0.373340980356429
0.3733314011881535
0.3733264884763889
0.3733249334909119
0.3733254344348998
0.3733248545846453
0.3733255326635417
0.3733276596390306
0.373334670450868
0.3733462173417509
0.3733740909696854
0.3734043249830417
0.3734685530824628
0.3735373025190317
0.3736769517381598
0.3742373674999044
0.3731422018488457
0.3740931352803194
0.3744314298887843
0.3739750727237827
0.373479389196577
0.3733251429281088
0.3733133221760924
0.3733094988352695
0.3733060151170436
0.3733147446957765
0.3733216373329208
0.3733238702186957
0.3733246841251396
)
;
    }
    outlet
    {
        type            calculated;
        value           uniform 0.3733250556165154;
    }
    bottom
    {
        type            calculated;
        value           nonuniform List<scalar> 
40
(
0.3733246841233692
0.3733238702167761
0.373321637335942
0.3733147446937673
0.3733251429349051
0.3733133221772986
0.3733094988312604
0.3733060151173153
0.3734793891953869
0.3739750727159264
0.3744314298836422
0.374093135296898
0.3735373025172344
0.3736769517392994
0.374237367467401
0.3731422018850829
0.3734685530830157
0.3734043249851353
0.3733740909697167
0.3733462173404138
0.3733248545901683
0.373325532663916
0.3733276596363127
0.3733346704474256
0.3733254344272755
0.3733249334940887
0.3733264884760243
0.3733314011876991
0.3733409803513419
0.3733531226256036
0.373363414803805
0.3733687505241777
0.3733280596392755
0.3733348500734287
0.3733515743644361
0.3733661866937266
0.3733260266466263
0.3733259194706959
0.3733257278008396
0.3733250899038962
)
;
    }
    wall
    {
        type            calculated;
        value           nonuniform List<scalar> 
104
(
0.5327699081873122
0.5187871799916208
0.5130344400543305
0.5152505692277872
0.5141565431705379
0.5118464048007151
0.5117545415253842
0.5043713588746566
0.3337726398336566
0.3331527610468623
0.3464234963724918
0.3534532626249005
0.3593374937499582
0.3643646108025165
0.3694397609407853
0.3737203928786635
0.3764186633720326
0.3776919273775765
0.3923796664245395
0.5548648717779484
0.7622000826330727
0.7547827209703347
0.7452180728491244
0.7348908218221829
0.7266602539155684
0.7155137082525262
0.7025794057476276
0.6995000036892568
0.6968333296330468
0.6855376580290796
0.6389532587988596
0.6665693056603337
0.1575126268746992
0.01729749963907333
0.02892794578088329
0.04541762739345251
0.06722957951096938
0.0811345891536919
0.08130165936816119
0.08168792749541093
0.09202329164276517
0.1148827670429285
0.1240127867242924
0.1442148917076423
0.08022010109275385
0.08586677014819423
0.09292341377917439
0.1032545237323056
0.1076821792329274
0.1055724834733772
0.102506944765002
0.09937610222539142
0.09937610222532578
0.1025069447647851
0.1055724834732126
0.1076821792328555
0.1032545237322954
0.09292341377906639
0.08586677014808926
0.08022010109257023
0.1442148917070261
0.124012786723335
0.1148827670412431
0.09202329164199656
0.08168792749457415
0.08130165936756474
0.0811345891533911
0.06722957951062827
0.04541762739323447
0.02892794578049915
0.01729749963885785
0.1575126268750342
0.6665693056627982
0.6389532588029841
0.6855376580338144
0.6968333296379657
0.6995000036941372
0.7025794057476472
0.7155137082519132
0.7266602539178468
0.7348908218281075
0.7452180728519598
0.754782720969035
0.7622000826322947
0.5548648717760032
0.3923796664203536
0.3776919273804623
0.3764186633759058
0.3737203928810555
0.3694397609430181
0.3643646108010086
0.3593374937481525
0.3534532626221277
0.3464234963702433
0.3331527610446376
0.3337726398385774
0.5043713588752606
0.5117545415231145
0.5118464048006245
0.5141565431639004
0.5152505692248937
0.5130344400376754
0.5187871799380546
0.532769908134289
)
;
    }
}


// ************************************************************************* //
