/*--------------------------------*- C++ -*----------------------------------*\
  =========                 |
  \\      /  F ield         | OpenFOAM: The Open Source CFD Toolbox
   \\    /   O peration     | Website:  https://openfoam.org
    \\  /    A nd           | Version:  11
     \\/     M anipulation  |
\*---------------------------------------------------------------------------*/
FoamFile
{
    format      ascii;
    class       volScalarField;
    location    "0.3592369";
    object      p;
}
// * * * * * * * * * * * * * * * * * * * * * * * * * * * * * * * * * * * * * //

dimensions      [0 2 -2 0 0 0 0];

internalField   nonuniform List<scalar> 
880
(
80.0000000000004
80.00000016385775
80.0134569191904
81.88035834035378
80.00000000017729
80.0000004813165
80.01669072259637
82.76391084784736
80.00000000090172
80.00000187777135
80.03089537962475
83.82260476440183
80.0000000120275
80.00000824576495
80.06381011555474
85.40757587687122
79.9999999446778
80.00000002780087
80.00000611610291
80.00009435563484
80.00003799747859
80.00014606846716
80.00091100592336
80.00134651192398
80.14459962940816
80.23457587897408
80.38549126799808
80.5377927168022
88.34439681456577
91.39563068954448
94.00069923559205
95.23501648684277
80.00023343448868
80.00190272900977
80.00718978399408
80.02228123858204
80.01262431946625
80.05407667606542
80.10847840437614
80.22875922416819
81.27050452828223
81.90767604819035
82.71483447757826
83.76514453465315
96.38511548817341
97.950919178212
98.27352208724409
97.50851511465625
90.98666713136195
87.50957420078208
85.83750706858403
84.74257536679019
85.69176912747851
86.37144053218412
86.77399449429795
86.80861657833627
80.63880525609946
81.12355077373358
81.63901712469907
82.02325096300693
80.0790893111305
80.19129004982899
80.36116254900092
80.59966389049704
80.87776366099014
81.15709748521071
81.43363771042965
81.64006630944989
82.31287598082014
82.48083273412827
82.56762702097343
82.57336673303836
86.44908503090326
85.94969514778653
85.29455419023398
84.61630653024817
83.58709367112206
82.89852697103953
82.50697998346887
82.07911504004112
82.08343775920063
84.14365624979121
82.52052117081838
81.7663944533785
87.7423988402483
83.86378338670723
82.36951189020131
81.74668842569517
120.5575508630173
85.26206716405282
82.18752339666528
81.49459191117721
158.3478911653418
93.05769717682041
82.67020859383521
81.40188759200188
81.37298889770659
83.39325712407602
102.7714876826734
175.0766428665262
80.87272554965898
84.75163912637257
113.7344199466974
174.2794735061128
81.08514352678668
87.90160666240912
128.3728434931189
176.1372381382957
81.89141969108285
93.5857429212754
142.2711527625346
173.4126898840376
167.7073070802031
149.9508896205293
102.240047908201
83.66787364254746
160.7382316795191
151.1909527059601
111.8301639350168
86.8403557245625
153.3429970815283
148.9208541129437
120.1258513933474
91.94293203150814
145.6346313229652
138.9087164567911
121.4589680788168
98.31266381292662
103.9491515686969
117.3639211480144
126.5675767673912
136.6078222412462
103.1378295700206
109.2149169936928
113.4275410984893
123.6649693304603
100.8368900767314
101.4843224481435
100.6812696383604
107.3274466977994
97.84670670456063
95.22412595584881
89.17506232913608
88.30750722856847
95.46847494938019
89.32758094012547
78.72366380478908
66.39561801772281
91.68578284823609
83.96084075043349
69.93155158499367
43.06374411196889
88.80553418057929
81.54220845654793
63.23940059258364
26.39393999382985
86.3565521675964
80.46176403285091
58.99080456353349
14.84818989236613
15.60535499787936
60.56889339362426
79.58678364168486
84.1725414948011
24.7629176475902
61.3647965421755
78.99416587928071
82.70514841944433
27.33957952626432
61.04504318413107
78.13596777532183
81.71387757296803
25.83939556692079
60.43838530088794
77.52976626885219
81.17539746680673
31.26903196407847
63.06640166324032
77.20206573250921
80.23977295907233
36.95808535205669
65.60877634034078
77.11655027812084
79.68640441906983
43.5963656042958
68.84963946096215
77.31446217339918
79.66584750598663
51.41999506729428
71.09834868346474
77.69925857348402
79.739139441963
53.2823331345883
58.94007477399533
73.28905798336673
79.26090745630279
51.9367347073292
60.14522164944252
73.51419122687639
79.25268643512156
49.49680584617896
61.86253058841547
74.01478212945926
79.25458738859379
47.17468239818132
63.82094148961603
74.73197953810676
79.3131047845247
51.41999506731893
71.09834868342561
77.69925857341306
79.73913944163232
43.59636560441177
68.84963946059489
77.31446217317348
79.66584750526069
36.95808535209289
65.60877634020044
77.11655027771894
79.68640441863617
31.26903196411905
63.06640166283431
77.20206573236877
80.23977295889968
84.17254149499617
79.58678364183287
60.5688933935421
15.60535499760556
82.70514841933277
78.99416587925818
61.36479654199412
24.76291764728374
81.71387757309846
78.13596777559704
61.0450431837007
27.33957952622551
81.17539746697112
77.52976626914544
60.43838530078731
25.83939556686924
14.84818989248276
58.990804563534
80.461764033004
86.35655216776286
26.39393999371011
63.23940059256486
81.54220845669131
88.80553418041534
43.06374411184563
69.93155158544901
83.96084075056352
91.68578284858314
66.39561801790335
78.72366380462394
89.32758093961465
95.46847494970795
103.9491515690681
117.3639211486491
126.5675767679322
136.6078222411424
103.1378295698897
109.2149169935272
113.4275410988223
123.6649693304015
100.8368900763799
101.4843224480378
100.6812696384317
107.3274466978532
97.84670670451241
95.22412595557522
89.17506232890307
88.30750722877315
145.6346313229128
138.9087164566955
121.4589680791694
98.31266381369663
153.34299708137
148.9208541128658
120.1258513935115
91.94293203157373
160.7382316795542
151.1909527056712
111.8301639347673
86.84035572491976
167.707307079943
149.9508896208165
102.2400479085666
83.66787364251749
81.37298889755766
83.39325712400377
102.7714876826694
175.0766428661123
80.87272555009095
84.75163912649248
113.7344199466749
174.2794735056705
81.08514352748098
87.90160666318161
128.372843492893
176.1372381380209
81.89141969119768
93.58574292137892
142.2711527625098
173.4126898839102
81.40188759202493
81.49459191102848
81.74668842608841
81.7663944534404
82.67020859343525
82.18752339640336
82.36951189050815
82.52052117072421
93.0576971763153
85.2620671640163
83.86378338640354
84.14365624966661
158.3478911646804
120.5575508626389
87.74239884048623
82.08343775920859
81.64006630974185
82.5733667332628
84.61630653042054
82.07911503995652
81.43363771011437
82.567627021036
85.29455419014593
82.5069799834211
81.15709748523119
82.48083273415794
85.9496951479648
82.89852697069561
80.87776366072185
82.31287598047633
86.44908503101834
83.58709367120723
80.07908931099885
80.6388052557994
85.69176912758347
90.98666713136789
80.1912900496944
81.1235507733853
86.37144053235613
87.50957420050797
80.36116254939365
81.63901712409553
86.77399449438111
85.8375070679074
80.59966389036862
82.02325096294136
86.80861657833607
84.7425753664954
97.50851511455366
83.76514453484387
80.22875922407022
80.02228123874227
98.27352208717475
82.71483447768364
80.1084784041839
80.00718978397327
97.95091917806451
81.90767604802956
80.05407667531655
80.00190272902958
96.38511548829111
81.27050452804404
80.01262431922432
80.0002334345635
95.23501648666628
80.53779271696858
80.00134651190335
80.00009435608324
94.00069923514441
80.38549126799101
80.00091100580792
80.00000611639059
91.39563068914774
80.23457587892659
80.00014606846615
80.0000000276608
88.34439681428987
80.1445996292337
80.00003799707206
79.99999994537085
80.00000000002807
80.00000016396199
80.01345691920547
81.88035834025094
80.00000000026193
80.00000048100623
80.01669072281238
82.76391084758492
80.00000000110963
80.00000187755403
80.03089537961553
83.82260476471902
80.00000001233936
80.00000824568156
80.06381011560622
85.40757587707741
83.52400889835704
85.09530241018946
87.6437179106798
92.78686967654919
85.09530241047463
87.15063254535227
90.9972106371048
98.69108132403011
87.64371791083892
90.99721063702241
97.3119841018466
106.8208490921028
92.78686967679833
98.69108132357604
106.8208490926273
117.1820059004109
127.9924383363845
119.0252154027759
115.1013766319736
106.8656131354449
126.2797253893178
123.6456694948197
123.6040915952563
119.5301432120885
126.3198535031747
125.4943557376963
125.0506966385732
123.6401599356843
123.7373771400209
123.3302941027738
123.2434924256351
122.392899202317
119.6768178535
117.855952585232
114.2518239960708
109.3400998193787
119.9429365058473
118.0398200129142
114.3868033734178
109.8050845231528
120.2786225026331
118.2215898053733
114.3689988729279
110.2398958808919
120.4534016035752
118.1133299606633
114.5207819199412
108.5601482838625
82.83049502283315
71.90502453068147
70.6048960591198
70.98545786266966
75.82086344297655
69.03042254226484
69.65704272677429
70.38170132414994
69.99730940982769
68.89582929234028
70.22941219197391
70.92985899563971
60.73660714268197
66.5979561260456
69.23778814973817
70.19840059212511
70.93003624448534
71.29231074190207
72.10769207008548
73.05111659964388
70.47271982523274
70.85090356196113
71.73549980248609
72.92899833312012
70.9044638271486
71.13418005399687
71.87247874379486
72.80672160490707
70.29687448290724
70.61804270449062
71.55365315879723
72.84652690002794
78.67372732236338
114.0353185951897
165.0709020966126
181.4274704246014
81.36358894857248
121.5219279626549
162.5394913464876
173.2946784451649
83.49467868858437
125.2966639324346
161.3142079558322
171.9959694055673
84.86389355453301
130.7126175747211
161.6594704907882
171.9731092177366
218.1625178160575
209.3373542795825
201.7903338693575
190.537297138584
219.3304516241401
212.1163864639748
203.9474753545836
192.3778570602317
218.3262770520369
213.6470411013533
205.0479803571466
193.4985942370721
213.2095359441049
215.571966651397
206.9709292986548
195.236662194895
178.1481008499171
167.8953657707274
158.2745172354679
153.3866711990256
180.1463717904977
169.2796053469962
158.9645974922835
153.7600119230799
181.2948869942034
169.4886456241024
159.512320957644
153.7252867912525
183.7012242760213
170.9140096441522
161.1737833055607
154.8234865057137
148.5698249692574
140.6582287637897
126.7741689583918
105.8850720289589
149.2636453774408
142.1819194346765
128.8939394839451
114.3599841220351
149.2079968541073
142.60981218834
130.6898131178065
119.6674612958355
150.3701455608454
144.95497430152
134.0437332855309
134.5834658032285
64.62301624619724
16.54897768977846
2.690607738935829
1.28362955448367
49.95161794035508
10.39445585344327
2.242185457892364
1.464410602390475
34.7386774019829
6.571939058128745
1.96341918160157
1.620801747845693
19.55113585571766
3.060989718830887
1.726188521938802
1.813255146801817
1.929266583818775
4.153457476216567
6.785719053308777
10.67155507226022
2.736345585656219
5.087848687616999
7.800679613382718
11.94480252792122
3.199542064701665
5.472950457554417
8.645984020202922
12.64694409564242
3.753848431200906
6.19944771098845
10.0929452243519
13.7930919827905
12.51725005649813
18.94024851359726
26.03301981553902
34.74102759273147
12.12980227578328
17.87727765161189
24.71999171019769
33.23096461460369
12.4405108865681
16.35105257345915
22.87549663253568
32.23954385644725
11.69545850839162
14.46073953109406
19.0606745471481
30.28205940641253
35.03378666599344
33.20767145805443
32.54786278004962
33.1774838451461
31.86520506894715
31.78645690585189
32.24760883541855
32.35379584235113
31.01256836554263
32.65716188164042
32.98669167084021
33.02247168778467
29.2369006345841
31.45585089689119
31.77608828711224
32.50248422215048
32.92039256575967
33.23128500270877
33.49126101226908
33.6177958214813
32.97860848502964
32.93618403756998
32.844681691393
32.95085824769602
32.92857874965382
33.3976679952987
33.83628857176803
34.09491633938232
34.75154086101463
35.80225325803946
36.54011884265781
36.54216359544363
33.61779582148312
32.95085824769601
34.09491633938188
36.54216359544819
33.49126101226608
32.84468169137445
33.83628857176673
36.54011884268088
33.23128500269782
32.93618403758729
33.39766799536569
35.80225325806504
32.92039256582489
32.97860848502546
32.92857874970696
34.75154086103901
33.17748384527485
32.54786278009434
33.20767145812089
35.03378666604983
32.35379584237162
32.24760883546681
31.78645690588207
31.86520506900004
33.02247168785327
32.98669167094661
32.65716188167034
31.01256836559944
32.50248422218121
31.77608828714118
31.45585089694685
29.23690063463483
30.28205940650075
19.06067454728018
14.46073953119521
11.69545850847738
32.2395438565251
22.87549663259462
16.35105257356599
12.44051088670584
33.23096461468172
24.71999171029947
17.87727765172543
12.12980227588851
34.7410275927941
26.03301981564977
18.94024851367317
12.51725005665902
10.67155507232257
6.785719053338497
4.153457476181071
1.929266583850946
11.94480252797916
7.800679613430852
5.087848687606511
2.73634558566319
12.64694409570676
8.645984020274957
5.472950457544458
3.199542064698736
13.7930919828544
10.09294522439179
6.1994477110071
3.753848431204402
1.283629554523571
2.690607738899766
16.54897768963366
64.62301624608239
1.464410602411848
2.242185457876745
10.39445585336112
49.95161794039284
1.62080174784791
1.963419181589946
6.571939058138801
34.73867740205872
1.813255146797381
1.726188521925971
3.060989718830899
19.55113585575347
105.8850720290171
126.774168958448
140.6582287634893
148.5698249694393
114.3599841218398
128.8939394835751
142.1819194345961
149.2636453770697
119.667461295996
130.6898131176827
142.6098121887691
149.2079968540629
134.5834658034216
134.0437332851024
144.9549743018132
150.370145560691
153.3866711989639
158.274517235223
167.895365770554
178.148100849204
153.7600119230174
158.9645974923247
169.2796053461262
180.1463717897535
153.7252867915273
159.512320957233
169.4886456234158
181.2948869936889
154.8234865054897
161.173783305436
170.9140096437824
183.7012242754566
190.5372971381316
201.7903338691253
209.3373542793091
218.162517816214
192.3778570599224
203.947475354321
212.1163864636263
219.33045162421
193.4985942369562
205.0479803569015
213.6470411012214
218.3262770519238
195.2366621947905
206.9709292985274
215.5719666508252
213.2095359444387
181.4274704246022
165.0709020963522
114.0353185952517
78.67372732264471
173.2946784450802
162.5394913463139
121.5219279626953
81.3635889488714
171.9959694054772
161.3142079556839
125.2966639324247
83.49467868889704
171.9731092173896
161.6594704906451
130.7126175747069
84.86389355485645
73.05111659986591
72.10769206979739
71.29231074138723
70.93003624404854
72.92899833337576
71.73549980240193
70.85090356143562
70.47271982501169
72.80672160518603
71.87247874366646
71.13418005349065
70.90446382692744
72.84652690030299
71.55365315856919
70.61804270396601
70.29687448249277
70.98545786222576
70.60489605877549
71.90502453081533
82.83049502297024
70.38170132372002
69.65704272635703
69.03042254248459
75.82086344306332
70.92985899521142
70.22941219154214
68.89582929259554
69.99730940987729
70.19840059168925
69.23778814922417
66.59795612628595
60.73660714276174
109.3400998194126
114.2518239960898
117.8559525855538
119.6768178533466
109.8050845232418
114.3868033736555
118.0398200130054
119.9429365055666
110.2398958808532
114.368998872902
118.2215898054288
120.278622502417
108.5601482838394
114.5207819202406
118.1133299609579
120.4534016034161
122.3928992017209
123.6401599345664
119.5301432115291
106.8656131354306
123.2434924246877
125.0506966378543
123.6040915940869
115.1013766314322
123.330294102032
125.4943557366921
123.6456694934783
119.0252154015523
123.7373771393062
126.319853502225
126.2797253874368
127.9924383342532
54.0918166470537
71.27151303443961
77.56389339950097
79.75943761273385
50.81843062416836
69.89466123601693
76.93567419076238
79.66603260651669
48.22189838414252
68.23883620907094
76.32174611796673
79.54989227845392
46.39894734785281
65.93396584546613
75.50435637590085
79.42095602819467
79.26090745617095
73.28905798341222
58.94007477393867
53.28233313472551
79.25268643497249
73.51419122686447
60.14522164932796
51.93673470735487
79.25458738851493
74.01478212956873
61.86253058825654
49.4968058463007
79.3131047843838
74.73197953806969
63.82094148950655
47.17468239829113
79.42095602787815
79.54989227837984
79.66603260622627
79.7594376123934
75.50435637564577
76.32174611785385
76.93567419026655
77.56389339907716
65.93396584562083
68.23883620895636
69.8946612361803
71.27151303463597
46.39894734785233
48.22189838406941
50.81843062416721
54.09181664717025
)
;

boundaryField
{
    back
    {
        type            empty;
    }
    inlet
    {
        type            zeroGradient;
    }
    front
    {
        type            empty;
    }
    top
    {
        type            zeroGradient;
    }
    outlet
    {
        type            fixedValue;
        value           uniform 80;
    }
    bottom
    {
        type            zeroGradient;
    }
    wall
    {
        type            zeroGradient;
    }
}


// ************************************************************************* //
