/*--------------------------------*- C++ -*----------------------------------*\
  =========                 |
  \\      /  F ield         | OpenFOAM: The Open Source CFD Toolbox
   \\    /   O peration     | Website:  https://openfoam.org
    \\  /    A nd           | Version:  11
     \\/     M anipulation  |
\*---------------------------------------------------------------------------*/
FoamFile
{
    format      ascii;
    class       volScalarField;
    location    "0.3592369";
    object      rho;
}
// * * * * * * * * * * * * * * * * * * * * * * * * * * * * * * * * * * * * * //

dimensions      [0 0 0 0 0 0 0];

internalField   nonuniform List<scalar> 
880
(
0.2239950333699092
0.2239950336977215
0.224021931562625
0.2277382586412879
0.2239950333702082
0.223995034333608
0.2240283853304672
0.2294907033302151
0.2239950333717012
0.2239950371321023
0.2240567390940034
0.2315875596219684
0.2239950333941023
0.2239950499075351
0.2241222561444115
0.2347100213571791
0.223995033259515
0.2239950334139612
0.2239950459401247
0.2239952242250021
0.2239951096740913
0.2239953271764824
0.2239968608740043
0.2239977477633404
0.2242817678345959
0.2244566876140057
0.2247513471593033
0.2250683450220063
0.2401925165881014
0.2455343664274003
0.2500085283449484
0.252020234418625
0.2239955037659717
0.2239988445534105
0.224009418371768
0.224039595622062
0.224020169145313
0.2241022666651793
0.2242088544168291
0.224446102255228
0.2264583090431238
0.2276525086053438
0.2291735054211812
0.2311938032730906
0.253993992478955
0.2568433273461525
0.2574509439741249
0.2560354544649021
0.2436279997411256
0.2366721036407011
0.2331385187212767
0.2308249142855419
0.2347449318788092
0.2358606998275451
0.236538380632981
0.2365730512485371
0.2252532933035215
0.2262087830235664
0.2272170934210942
0.2279428751944617
0.2241532013150798
0.2243777873452787
0.2247180618066215
0.2251948751372027
0.2257495304281853
0.2263070207412267
0.2268586788536406
0.2272747178513601
0.228463730515012
0.2287683583893864
0.2289177237422598
0.2289562594284838
0.2358869725854046
0.234935828998845
0.2336846479548595
0.2323892240664001
0.2284543687346083
0.2270998477710292
0.2263600755808109
0.2255255840689073
0.2257913749742977
0.2314865433154452
0.2288735558959409
0.2275322583593555
0.2365888197800982
0.2310972116059371
0.2286240132737229
0.2274951618091984
0.2954161975198109
0.2338488322163156
0.2283256858453972
0.2269978455275956
0.3573535504168029
0.2486713956868285
0.2292793032716149
0.2268111737768604
0.2267524629008161
0.2306964686993124
0.2665979542398977
0.384528220195432
0.2257541807047748
0.2332912137106624
0.2862193140266189
0.3841152344318267
0.2261775765541983
0.2392095898076666
0.3116800187727856
0.3875967796674786
0.2277763375264417
0.2496194519040396
0.3348901056634694
0.3832616293914136
0.3736730461545617
0.3470977808393381
0.265151371878096
0.2312646518131601
0.3618910135865313
0.3484420209123766
0.2820887943668644
0.2373727767902222
0.3493505639433773
0.34444097281546
0.2966031922064397
0.2469825907654258
0.3360857035118628
0.3272444863415147
0.2987923594254581
0.258668183966485
0.2688484801865363
0.2915295204299539
0.3056280702485588
0.3202638416428668
0.2674712043125022
0.2769601447166948
0.2821379086611259
0.2973622887672898
0.2634550373452487
0.2629451352851892
0.2588575194721896
0.2680360927558575
0.2581468907612708
0.2516079080370648
0.237653547131497
0.2330812777970743
0.2537300482883704
0.2402838370363533
0.216738903911159
0.1875799513846058
0.2465605704511161
0.2298995319154491
0.1990006951829394
0.1311076752586772
0.2410506212327336
0.2255981613033425
0.1852429552842362
0.08691817869234802
0.2363160103548789
0.2232416345281682
0.1728890500671273
0.05198506629969658
0.05321524776935624
0.1741783593886598
0.221394148376909
0.232072229375982
0.07253487866159927
0.1742441469607919
0.2201203572234635
0.2291994411466725
0.07399466162049778
0.1723930182618834
0.218394335951543
0.2272665991516745
0.06823132440217965
0.169086423764022
0.2169799145729011
0.2262496171253707
0.08121602415114573
0.1750669863224672
0.2166091463346584
0.2244899572779381
0.09692913877362856
0.1821350977843674
0.2169353048844582
0.2234647372272002
0.1160785902978775
0.1914403837234415
0.2176617895912123
0.223419472257925
0.1390485105224171
0.1994237091545233
0.2188313393339634
0.2235311345639642
0.1554766397312061
0.175785856919155
0.20984858789788
0.2225128122929781
0.1533134647986568
0.1786600371766103
0.2102828369782446
0.2224898037790891
0.1489454823071093
0.1829368055207234
0.2113251397075195
0.2224888174589855
0.143727362270318
0.1876059050840307
0.2129159787244263
0.2226132088147534
0.1390485105224701
0.1994237091545822
0.2188313393336488
0.2235311345631577
0.116078590298176
0.1914403837226761
0.2176617895906357
0.2234194722563468
0.09692913877372016
0.1821350977841966
0.2169353048838303
0.2234647372263664
0.08121602415123563
0.1750669863216887
0.2166091463343698
0.2244899572776571
0.2320722293764216
0.2213941483771487
0.17417835938838
0.05321524776854909
0.2291994411464404
0.2201203572233787
0.1742441469601653
0.0725348786608646
0.2272665991520009
0.2183943359521726
0.172393018260959
0.07399466162041105
0.2262496171258377
0.2169799145735278
0.1690864237639393
0.06823132440199964
0.05198506629971464
0.1728890500670882
0.2232416345284614
0.2363160103552333
0.08691817869197087
0.1852429552842116
0.2255981613035333
0.241050621232384
0.1311076752583141
0.199000695183853
0.2298995319157595
0.2465605704519198
0.1875799513849519
0.2167389039108189
0.2402838370353095
0.2537300482891616
0.2688484801874695
0.2915295204312156
0.3056280702495285
0.3202638416423545
0.2674712043123918
0.2769601447164424
0.2821379086618406
0.2973622887668353
0.2634550373446912
0.2629451352850512
0.2588575194723814
0.2680360927558237
0.2581468907612425
0.2516079080365623
0.2376535471310302
0.2330812777974232
0.3360857035115246
0.3272444863410143
0.2987923594261736
0.2586681839680576
0.3493505639427049
0.3444409728149986
0.2966031922067893
0.2469825907656346
0.3618910135863037
0.3484420209114509
0.2820887943663969
0.2373727767911579
0.3736730461536746
0.3470977808397912
0.2651513718788295
0.2312646518131423
0.226752462900497
0.2306964686991508
0.2665979542399501
0.3845282201943919
0.225754180705673
0.2332912137108321
0.2862193140265094
0.3841152344307003
0.2261775765556894
0.23920958980925
0.3116800187719676
0.3875967796668554
0.2277763375267574
0.24961945190435
0.3348901056630452
0.383261629391027
0.226811173777
0.2269978455272838
0.2274951618100268
0.2275322583594619
0.2292793032708304
0.2283256858448314
0.2286240132744895
0.2288735558957718
0.2486713956858415
0.2338488322162659
0.2310972116053708
0.2314865433151668
0.3573535504153058
0.2954161975190919
0.2365888197806519
0.2257913749743764
0.2272747178519366
0.2289562594289256
0.2323892240667032
0.2255255840685639
0.2268586788528512
0.2289177237422964
0.233684647954576
0.2263600755805923
0.2263070207412858
0.2287683583893767
0.2349358289992617
0.2270998477703687
0.2257495304276264
0.228463730514192
0.2358869725856571
0.2284543687347658
0.22415320131497
0.2252532933028442
0.2347449318789473
0.2436279997409954
0.224377787345145
0.226208783022768
0.2358606998278034
0.2366721036399816
0.2247180618074758
0.2272170934196539
0.2365383806330046
0.2331385187198383
0.2251948751370343
0.2279428751943006
0.2365730512485138
0.2308249142849423
0.2560354544646172
0.2311938032734948
0.2244461022549828
0.2240395956223866
0.2574509439738922
0.2291735054214035
0.2242088544164219
0.2240094183717732
0.2568433273456281
0.227652508604968
0.2241022666636325
0.223998844553608
0.2539939924791564
0.2264583090426452
0.2240201691448069
0.2239955037659839
0.252020234418279
0.2250683450223011
0.2239977477631986
0.2239952242259381
0.250008528343991
0.2247513471592682
0.2239968608737692
0.2239950459407107
0.245534366426627
0.2244566876138952
0.2239953271765729
0.2239950334137216
0.2401925165875708
0.2242817678341947
0.2239951096732778
0.2239950332612173
0.2239950333699093
0.2239950336979472
0.2240219315626988
0.2277382586411067
0.2239950333704065
0.2239950343328749
0.2240283853310125
0.2294907033295508
0.2239950333721685
0.2239950371315927
0.2240567390939601
0.2315875596226283
0.2239950333946447
0.2239950499073844
0.2241222561445148
0.2347100213575967
0.2309860568021747
0.2340818556809049
0.2390621953326304
0.2488979473615795
0.234081855681489
0.2381173496209395
0.2455747595497125
0.2600340723127952
0.2390621953329242
0.2455747595494649
0.257588866049387
0.2748616709922364
0.2488979473621986
0.2600340723117001
0.2748616709932948
0.2928128081751642
0.3104166886828777
0.295322555828287
0.289112867097753
0.2745363280507319
0.3072131455343259
0.3028631143407902
0.3034058289555829
0.2963689859892382
0.3073449301184375
0.3059055269411802
0.3051217708132394
0.302578716041179
0.3028576064972814
0.3020909260748328
0.3018049569633591
0.3000916783591047
0.2950240541967827
0.2917401451491445
0.2853881412010925
0.2766609280946045
0.2958574869305184
0.2924022485013992
0.2858384165290827
0.2774974329831497
0.2966769359234065
0.2929358417730172
0.285925134804586
0.2782979033388223
0.297075417641157
0.2928005703469015
0.2862005495011355
0.2758410617044083
0.2263160413198591
0.204267010150338
0.2017444163440358
0.2026248886844137
0.2115210376187536
0.1977466383396933
0.1990277047728513
0.2006370376042708
0.1993451683856742
0.1972927038673736
0.2000145039755661
0.201485528218441
0.1809417613892565
0.1925853666161898
0.1978577231789115
0.1999101599506335
0.2023252498189808
0.2029379756772904
0.2046256494110512
0.2066685215840154
0.2009345030589345
0.2018167753618712
0.2037635914211981
0.206316952626019
0.2016265296743618
0.2022706421909082
0.2039852210101959
0.2060234384509369
0.2003334106156665
0.2011785736144623
0.2033035160341054
0.2060924680955243
0.2180899725227192
0.2812250742365614
0.361444752157456
0.382206503619854
0.2229328818554117
0.2927335586744177
0.3544350660854398
0.3674467757824039
0.2263446935840234
0.2975609600844183
0.3517796051783204
0.3643077266770858
0.2283719769745139
0.3061295521408239
0.3524202531386354
0.3640318279973861
0.4398968934190499
0.4300651033090329
0.4215541578414472
0.406083871320223
0.436934082456275
0.430367325131939
0.4218066724782499
0.4064951886028906
0.4312652686280165
0.4288334507110435
0.4202848200997958
0.405502390300279
0.4223954528165164
0.4303389490923847
0.4216463996496415
0.4068338882603701
0.3875010279456014
0.3713085558031909
0.35554069336273
0.3469266095743509
0.3887679435588328
0.3719721107893066
0.3555326709466974
0.3465954321266017
0.3881569697276379
0.3703906744690169
0.3547421798903304
0.3453439357495031
0.39066897442344
0.3717215816139012
0.3564604650934687
0.3464651947096476
0.3381631696029109
0.3240654454298225
0.3003142778513975
0.2623605723787746
0.3387634173799629
0.3267217829252007
0.3038970703741889
0.2701430940463333
0.3380922252150959
0.3272110390810338
0.3035346605873554
0.2700298443644253
0.3396839867066783
0.3305057915718092
0.3044648352267518
0.3119512414681951
0.1731391400698484
0.05034373767112348
0.008911877948708747
0.004212737929535824
0.136565525057471
0.03448456286451922
0.01027394818538393
0.008104182975495733
0.1037545795659054
0.02499450956308258
0.01089992056513242
0.009786642032629713
0.07437612658351249
0.01516455943269083
0.01060708654778003
0.01059513568271601
0.007180823716360462
0.01439547566933122
0.02016567565552946
0.02856981009183554
0.01249879528789984
0.01872651218145109
0.02471762211454687
0.03400875071937792
0.01535742994677936
0.02183504327544323
0.02993092758957041
0.03977552496946881
0.01757982096767568
0.02469613450830491
0.03513796356598798
0.04478694194871687
0.03597861094033613
0.0519564678262746
0.07156268353743461
0.09542394738752068
0.03896830594259597
0.05280886238080578
0.07024350311497307
0.0911188698729381
0.0427548587591366
0.0528764470283035
0.06805794877451593
0.08778024480683351
0.04171618949539281
0.04958580372201754
0.05995640825779407
0.08264994691089464
0.09972263518468866
0.09878534068121614
0.0991874600281541
0.1010378528733222
0.09008932756172873
0.09155972337532979
0.09365983622460139
0.09517703935078833
0.08610358584130542
0.09010297526001311
0.09206418613899627
0.09461474733962927
0.08127602812090784
0.08658439226351428
0.08919853568971467
0.0939954975376097
0.09891490094915514
0.1032400401399736
0.1060216978996274
0.1069887891732627
0.09791345198449612
0.1011867409974585
0.1034641061096731
0.1045902286253422
0.09812567373592242
0.1013573514924189
0.1046579920273699
0.1063073571530396
0.1051231464933017
0.1089088005429632
0.1123103174815272
0.1130949298321631
0.1069887891732772
0.1045902286253493
0.1063073571530318
0.1130949298321539
0.1060216978996567
0.1034641061096485
0.1046579920273663
0.1123103174815361
0.103240040140004
0.1011867409975733
0.1013573514926475
0.1089088005429952
0.09891490094944455
0.09791345198452352
0.09812567373610541
0.1051231464933386
0.1010378528736909
0.09918746002829025
0.09878534068134998
0.09972263518480605
0.09517703935084162
0.09365983622472317
0.0915597233753578
0.09008932756183978
0.09461474733986686
0.09206418613932761
0.09010297526007682
0.08610358584145193
0.09399549753774666
0.08919853568981188
0.08658439226368346
0.08127602812105397
0.08264994691111834
0.05995640825815331
0.04958580372229009
0.04171618949563406
0.0877802448070277
0.06805794877462303
0.05287644702857682
0.04275485875953447
0.0911188698731222
0.07024350311521467
0.05280886238108044
0.03896830594285455
0.095423947387667
0.07156268353771218
0.05195646782642919
0.03597861094075334
0.02856981009201382
0.02016567565562002
0.01439547566926156
0.007180823716304925
0.03400875071954376
0.0247176221146851
0.0187265121814442
0.01249879528791295
0.03977552496964478
0.02993092758977425
0.02183504327542613
0.01535742994677454
0.04478694194888411
0.03513796356608178
0.02469613450835467
0.01757982096768275
0.004212737929450807
0.008911877948548556
0.05034373767069473
0.1731391400694724
0.008104182975493569
0.01027394818531753
0.03448456286428803
0.1365655250574521
0.0097866420326295
0.01089992056508449
0.02499450956306758
0.1037545795659597
0.01059513568268497
0.01060708654773053
0.01516455943265868
0.07437612658350742
0.262360572378746
0.3003142778513336
0.3240654454288359
0.3381631696031829
0.2701430940457224
0.3038970703732182
0.3267217829248806
0.3387634173788364
0.2700298443645995
0.3035346605870655
0.3272110390821452
0.3380922252148754
0.3119512414681776
0.3044648352258122
0.3305057915726221
0.3396839867061885
0.3469266095738587
0.355540693361958
0.3713085558029177
0.3875010279440006
0.3465954321261634
0.3555326709467928
0.371972110787532
0.3887679435573651
0.3453439357500339
0.354742179889306
0.3703906744677684
0.3881569697267592
0.3464651947088973
0.3564604650930922
0.3717215816132158
0.3906689744223535
0.4060838713193598
0.4215541578412494
0.4300651033087078
0.4398968934195635
0.4064951886023439
0.4218066724777469
0.4303673251313548
0.4369340824567392
0.4055023903002864
0.4202848200994986
0.428833450711235
0.4312652686277119
0.4068338882603741
0.4216463996495008
0.4303389490912639
0.4223954528175848
0.3822065036198646
0.3614447521570354
0.2812250742367352
0.2180899725233019
0.3674467757823042
0.354435066085218
0.2927335586745631
0.222932881855986
0.3643077266770219
0.3517796051781838
0.2975609600844967
0.2263446935846211
0.3640318279964434
0.352420253138507
0.3061295521409055
0.2283719769751368
0.2066685215843711
0.2046256494102784
0.2029379756761273
0.2023252498179611
0.2063169526264725
0.2037635914210187
0.2018167753607706
0.2009345030584727
0.2060234384514579
0.2039852210099489
0.2022706421898749
0.2016265296739499
0.2060924680960369
0.2033035160336107
0.2011785736134001
0.2003334106148475
0.2026248886834726
0.2017444163433105
0.2042670101505437
0.2263160413200716
0.2006370376033542
0.1990277047720035
0.1977466383401111
0.2115210376188742
0.2014855282175408
0.2000145039747315
0.1972927038679214
0.199345168385729
0.1999101599497205
0.1978577231779121
0.192585366616737
0.1809417613894098
0.2766609280946184
0.2853881412010474
0.2917401451495839
0.2950240541964935
0.2774974329832307
0.2858384165296387
0.292402248501287
0.2958574869299634
0.2782979033388661
0.2859251348045458
0.2929358417728711
0.2966769359230234
0.2758410617043702
0.2862005495018325
0.2928005703475741
0.2970754176408835
0.3000916783581164
0.3025787160390176
0.2963689859883564
0.2745363280506352
0.3018049569615394
0.3051217708123209
0.3034058289536273
0.2891128670966437
0.3020909260736052
0.3059055269396675
0.3028631143390297
0.2953225558262017
0.3028576064960369
0.307344930117121
0.3072131455315805
0.310416688679685
0.1499151168987106
0.2006578757162381
0.2185669802449854
0.2235520804876497
0.1465634227656496
0.1988682013584099
0.2174185571854702
0.2233523564148351
0.1435235969762549
0.1964071749101325
0.2163007886233726
0.2231149306701376
0.1411689070046649
0.1921316258340243
0.2146288674408097
0.2228457006136458
0.222512812292807
0.2098485878979904
0.1757858569190217
0.15547663973158
0.2224898037788404
0.2102828369781604
0.1786600371763424
0.1533134647986193
0.222488817458789
0.2113251397076543
0.1829368055203825
0.1489454823073738
0.2226132088143764
0.2129159787242051
0.1876059050838038
0.1437273622706037
0.2228457006129196
0.2231149306699658
0.2233523564139852
0.2235520804866777
0.2146288674401961
0.2163007886231374
0.2174185571843323
0.2185669802438866
0.1921316258343831
0.1964071749096891
0.1988682013586396
0.20065787571662
0.1411689070047187
0.1435235969761151
0.1465634227656437
0.1499151168990139
)
;

boundaryField
{
    back
    {
        type            empty;
    }
    inlet
    {
        type            calculated;
        value           nonuniform List<scalar> 
16
(
0.2239950333699092
0.2239950333702082
0.2239950333717012
0.2239950333941023
0.223995033259515
0.2239950334139612
0.2239950459401247
0.2239952242250021
0.2239952242259381
0.2239950459407107
0.2239950334137216
0.2239950332612173
0.2239950333699093
0.2239950333704065
0.2239950333721685
0.2239950333946447
)
;
    }
    front
    {
        type            empty;
    }
    top
    {
        type            calculated;
        value           nonuniform List<scalar> 
40
(
0.2239955037659717
0.2239988445534105
0.224009418371768
0.224039595622062
0.2241532013150798
0.2243777873452787
0.2247180618066215
0.2251948751372027
0.2257495304281853
0.2263070207412267
0.2268586788536406
0.2272747178513601
0.2275322583593555
0.2274951618091984
0.2269978455275957
0.2268111737768604
0.2267524629008161
0.2257541807047748
0.2261775765541983
0.2277763375264417
0.2312646518131601
0.2373727767902222
0.2469825907654258
0.258668183966485
0.2688484801865363
0.2674712043125022
0.2634550373452487
0.2581468907612708
0.2537300482883704
0.2465605704511161
0.2410506212327336
0.2363160103548789
0.232072229375982
0.2291994411466725
0.2272665991516745
0.2262496171253707
0.2244899572779381
0.2234647372272002
0.223419472257925
0.2235311345639642
)
;
    }
    outlet
    {
        type            calculated;
        value           uniform 0.2239950333699093;
    }
    bottom
    {
        type            calculated;
        value           nonuniform List<scalar> 
40
(
0.2235311345631577
0.2234194722563468
0.2234647372263664
0.2244899572776571
0.2320722293764216
0.2291994411464404
0.2272665991520009
0.2262496171258377
0.2363160103552332
0.241050621232384
0.2465605704519198
0.2537300482891616
0.2688484801874695
0.2674712043123918
0.2634550373446912
0.2581468907612425
0.2586681839680576
0.2469825907656346
0.2373727767911579
0.2312646518131423
0.226752462900497
0.225754180705673
0.2261775765556894
0.2277763375267574
0.226811173777
0.2269978455272838
0.2274951618100268
0.2275322583594619
0.2272747178519366
0.2268586788528512
0.2263070207412858
0.2257495304276264
0.22415320131497
0.224377787345145
0.2247180618074758
0.2251948751370343
0.2240395956223866
0.2240094183717732
0.223998844553608
0.2239955037659838
)
;
    }
    wall
    {
        type            calculated;
        value           nonuniform List<scalar> 
104
(
0.3104166886828777
0.3072131455343259
0.3073449301184375
0.3028576064972814
0.297075417641157
0.2928005703469015
0.2862005495011355
0.2758410617044083
0.1809417613892565
0.1925853666161899
0.1978577231789115
0.1999101599506335
0.2003334106156665
0.2011785736144623
0.2033035160341054
0.2060924680955243
0.2283719769745139
0.3061295521408239
0.3524202531386354
0.3640318279973861
0.4223954528165164
0.4303389490923847
0.4216463996496415
0.4068338882603701
0.3906689744234401
0.3717215816139012
0.3564604650934687
0.3464651947096476
0.3396839867066783
0.3305057915718092
0.3044648352267518
0.3119512414681951
0.07437612658351249
0.01516455943269083
0.01060708654778003
0.01059513568271601
0.01757982096767568
0.02469613450830491
0.03513796356598798
0.04478694194871687
0.04171618949539281
0.04958580372201754
0.05995640825779407
0.08264994691089464
0.08127602812090784
0.08658439226351428
0.08919853568971467
0.0939954975376097
0.09891490094915514
0.1032400401399736
0.1060216978996274
0.1069887891732627
0.1069887891732772
0.1060216978996567
0.103240040140004
0.09891490094944455
0.09399549753774666
0.08919853568981188
0.08658439226368346
0.08127602812105397
0.08264994691111834
0.05995640825815331
0.04958580372229009
0.04171618949563406
0.04478694194888411
0.03513796356608178
0.02469613450835467
0.01757982096768275
0.01059513568268497
0.01060708654773053
0.01516455943265868
0.07437612658350742
0.3119512414681776
0.3044648352258122
0.3305057915726221
0.3396839867061884
0.3464651947088973
0.3564604650930922
0.3717215816132158
0.3906689744223535
0.4068338882603741
0.4216463996495008
0.4303389490912639
0.4223954528175848
0.3640318279964434
0.352420253138507
0.3061295521409055
0.2283719769751368
0.2060924680960369
0.2033035160336107
0.2011785736134001
0.2003334106148475
0.1999101599497205
0.1978577231779121
0.192585366616737
0.1809417613894098
0.2758410617043702
0.2862005495018325
0.2928005703475741
0.2970754176408835
0.3028576064960369
0.307344930117121
0.3072131455315805
0.310416688679685
)
;
    }
}


// ************************************************************************* //
