/*--------------------------------*- C++ -*----------------------------------*\
  =========                 |
  \\      /  F ield         | OpenFOAM: The Open Source CFD Toolbox
   \\    /   O peration     | Website:  https://openfoam.org
    \\  /    A nd           | Version:  11
     \\/     M anipulation  |
\*---------------------------------------------------------------------------*/
FoamFile
{
    format      ascii;
    class       volScalarField;
    location    "2.8";
    object      p;
}
// * * * * * * * * * * * * * * * * * * * * * * * * * * * * * * * * * * * * * //

dimensions      [0 2 -2 0 0 0 0];

internalField   nonuniform List<scalar> 
4455
(
136.02951
136.12666
136.31943
136.63237
137.04084
137.61255
138.27469
139.55827
139.89803
135.97579
136.08595
136.29769
136.62149
137.06593
137.66947
138.46516
139.73759
140.60699
135.87053
136.004
136.23902
136.58358
137.04681
137.68278
138.50914
139.88028
140.84257
135.71957
135.88432
136.14525
136.5116
136.99051
137.66546
138.5454
140.0158
141.2018
135.53031
135.73028
136.01969
136.40621
136.90416
137.61662
138.57102
140.15395
141.64083
135.31073
135.54761
135.8652
136.26928
136.79044
137.54418
138.56524
140.28827
142.06834
135.06982
135.34177
135.68535
136.10459
136.64558
137.43903
138.52453
140.41202
142.52073
134.81663
135.11846
135.48448
135.91725
136.47513
137.30441
138.44435
140.51229
142.97472
134.55945
134.88382
135.26651
135.71138
136.2834
137.14816
138.34104
140.58654
143.44684
134.3054
134.06161
133.83594
133.63285
133.45527
133.30521
133.18534
133.09785
133.04691
134.64261
134.40001
134.1632
133.93608
133.7229
133.52765
133.35397
133.20392
133.07402
135.03533
134.79292
134.54643
134.29952
134.05621
133.82167
133.5987
133.39049
133.20011
135.48599
135.23884
134.98182
134.71953
134.45302
134.18656
133.92228
133.66328
133.40447
136.0677
135.82233
135.56383
135.29568
135.0159
134.72822
134.43876
134.15533
133.87065
136.96677
136.7464
136.50076
136.23325
135.93848
135.62435
135.2942
134.96013
134.61911
138.21917
138.06776
137.88962
137.6706
137.38738
137.05784
136.69385
136.31871
135.93618
140.66218
140.63404
140.48729
140.22835
139.86526
139.43252
138.95508
138.44233
137.88949
144.05777
144.51027
144.39539
143.81492
142.97925
142.01678
141.00811
139.98043
138.95002
133.04372
133.02313
132.97946
132.92256
132.85241
132.7703
132.67061
132.55847
132.42433
132.99054
132.91441
132.82303
132.71464
132.59083
132.45259
132.29506
132.12123
131.93171
133.077
132.97896
132.87053
132.75385
132.62219
132.47867
132.32491
132.14386
131.95245
133.21803
133.09186
132.97
132.84481
132.69974
132.53118
132.35326
132.15967
131.94165
133.65278
133.51654
133.40242
133.28503
133.14741
132.98475
132.79984
132.5979
132.37793
134.33909
134.16946
134.02994
133.88478
133.71866
133.52549
133.30329
133.05921
132.80153
135.62205
135.4337
135.27708
135.09948
134.88968
134.6485
134.37552
134.08323
133.78821
137.37727
136.92342
136.46247
135.98064
135.47501
134.94828
134.41109
133.87683
133.37257
138.0326
137.21174
136.3931
135.59096
134.81283
134.0633
133.35186
132.65701
132.03487
131.61052
131.20792
131.07793
131.2966
131.82743
132.54852
133.35091
134.20238
135.08761
132.94961
132.5957
132.30223
132.07942
131.92997
131.85563
131.86278
131.9713
132.15089
133.50698
133.24217
132.99072
132.76066
132.54934
132.3599
132.1983
132.06719
131.96401
132.53916
132.28048
132.01756
131.75366
131.49149
131.22928
130.96464
130.70428
130.44993
132.14573
131.9081
131.65882
131.39838
131.12768
130.84797
130.55683
130.2532
129.93655
131.7034
131.45343
131.1887
130.90631
130.60684
130.29271
129.95957
129.60479
129.23098
131.74671
131.51534
131.26825
131.00584
130.72107
130.41692
130.09089
129.73681
129.36148
131.71971
131.47592
131.21694
130.94202
130.63875
130.316
129.97367
129.59796
129.20491
132.25123
132.0448
131.82748
131.59873
131.35505
131.08435
130.78684
130.45708
130.09797
129.70133
129.27456
128.80429
128.30087
127.75411
127.16007
126.52096
125.82188
125.0723
128.78071
128.31389
127.81504
127.28684
126.72279
126.11916
125.47105
124.78189
124.04281
128.96161
128.52678
128.06418
127.57541
127.05642
126.50124
125.90869
125.26962
124.58685
128.8414
128.43162
127.99853
127.54186
127.06392
126.55946
126.02835
125.46248
124.86062
129.60845
129.26869
128.91952
128.55936
128.18755
127.79817
127.39258
126.96344
126.50895
130.20093
129.95883
129.72299
129.49242
129.2701
129.04678
128.82018
128.58325
128.33677
131.88872
131.84178
131.82653
131.83587
131.86848
131.91765
131.97954
132.04288
132.10775
132.39635
132.7074
133.07974
133.49819
133.96527
134.46932
135.00195
135.56168
136.14023
135.99983
136.93138
137.88928
138.86857
139.87934
140.91806
141.98713
143.08469
144.21133
145.36024
136.72408
132.1581
128.0668
126.01897
124.21893
123.86678
123.25142
124.25858
146.53513
137.30751
132.1904
127.76975
125.49413
123.5361
123.09171
122.40224
123.37251
147.72132
137.87172
132.19233
127.4298
124.9218
122.79782
122.25029
121.49583
122.43595
148.91831
138.40554
132.1538
127.04582
124.29957
122.00024
121.35104
120.51802
121.39719
150.09229
138.88396
132.05885
126.59616
123.60954
121.1389
120.38911
119.47743
120.28664
151.23222
139.28985
131.89394
126.0757
122.84938
120.21392
119.34142
118.3598
119.08834
152.22992
139.58371
131.63458
125.46929
122.00954
119.20018
118.21292
117.16947
117.77389
153.06692
139.7423
131.26165
124.76514
121.08244
118.09891
117.00464
115.89071
116.39055
153.47929
139.67988
130.73496
123.93972
120.05627
116.91607
115.71243
114.52121
114.9086
113.39641
113.04614
114.28828
115.59797
118.85943
122.93562
129.97399
139.29119
153.42743
111.92047
111.47345
112.70066
114.13545
117.43117
121.63384
128.70682
137.96585
150.47651
110.19475
109.81179
110.97129
112.5259
115.78567
120.0341
127.0243
136.10687
147.9073
108.1675
108.02932
109.11521
110.77111
113.96392
118.25222
125.1158
134.11145
145.57358
105.90153
106.09554
107.11869
108.87192
111.9878
116.30319
123.07144
132.01432
143.1884
103.52793
104.03627
105.00229
106.84329
109.87795
114.22008
120.90476
129.80368
140.67454
101.04471
101.86479
102.7575
104.67785
107.614
111.98745
118.58797
127.43924
138.06513
98.468508
99.589901
100.38907
102.39135
105.21665
109.59209
116.1141
124.92247
135.42367
95.749308
97.193783
97.896688
99.980089
102.67862
107.01738
113.4617
122.24708
132.74914
130.02648
119.4234
110.64124
104.27919
99.997456
97.438383
95.297583
94.68367
92.898858
127.243
116.44268
107.64213
101.36381
97.164468
94.763615
92.594507
92.046557
89.980358
124.40376
113.30168
104.47938
98.291245
94.202585
91.968762
89.809144
89.338841
87.13897
121.48857
109.9934
101.13787
95.039764
91.105674
89.050332
86.935524
86.565393
84.31794
118.48682
106.50377
97.630869
91.647773
87.900065
86.043582
83.983757
83.72804
81.327622
115.36153
102.82077
93.937208
88.09302
84.578361
82.954978
80.964954
80.848057
78.165901
112.09085
98.935791
90.08138
84.41143
81.189753
79.784855
77.935916
77.921476
75.099048
108.64867
94.839237
86.044421
80.581674
77.732138
76.577791
74.911918
74.997346
72.121164
105.01572
90.528525
81.859094
76.671921
74.247799
73.340237
71.915234
72.104193
69.275818
66.538459
69.261108
68.914612
70.060516
70.654816
72.521515
77.259992
85.654194
100.77497
63.967264
66.50549
65.966663
66.795187
67.007227
68.175417
72.273792
80.021312
95.581377
61.540795
63.878445
63.132399
63.641267
63.446836
63.800794
67.10607
74.079633
89.840411
59.342694
61.408186
60.487097
60.649362
60.037053
59.563392
61.95104
68.0513
83.5642
57.355806
59.120627
58.056854
57.830938
56.823942
55.498753
56.837544
61.960269
76.561075
55.653189
57.042101
55.869247
55.234929
53.863636
51.713143
51.876594
56.041739
68.603407
54.178954
55.185544
53.945018
52.872813
51.206819
48.271924
47.043884
50.507641
59.346531
53.058367
53.591619
52.302899
50.775764
48.919032
45.294004
42.40032
45.813598
48.434811
52.006088
52.228663
50.972707
48.899628
47.028243
42.897395
38.002022
42.486414
36.935572
51.36845
51.075658
49.937865
47.155045
45.149514
40.476821
32.542781
39.169207
27.330641
51.215292
50.047102
49.090344
45.325325
42.892962
37.534907
26.240177
35.501346
22.92754
51.406294
49.097936
48.334062
43.441769
40.298652
34.198932
20.040524
31.315419
25.055705
51.719282
48.332864
47.681846
41.592262
37.550499
30.63014
13.988995
26.289243
36.226649
52.298392
47.825483
47.128113
39.870978
34.87861
26.976285
7.6199915
19.948253
33.059767
53.112795
47.602914
46.777018
38.341442
32.306875
23.147273
0.63063626
14.315512
27.737008
54.18301
47.625904
46.602685
37.037325
29.820177
19.152683
-6.4546133
12.067028
27.470337
55.431636
47.868917
46.630622
35.972605
27.435655
15.091416
-12.367419
7.3900009
24.96714
56.876471
48.32777
46.824223
35.170893
25.190791
11.032723
-17.216097
1.1042099
23.744866
22.810011
-2.974627
-19.524455
7.54881
23.343653
34.698617
47.192175
49.022997
58.421128
22.351646
-6.5206875
-21.076425
4.814845
22.030354
34.527527
47.739577
49.966324
60.043673
22.158241
-9.1077878
-22.694571
2.3024156
21.05304
34.643879
48.500305
51.128412
61.755217
22.097752
-10.188758
-23.949934
-0.077958339
20.337586
35.019795
49.425166
52.44929
63.531912
21.87094
-11.072303
-25.425244
-2.3749957
19.832815
35.627171
50.478259
53.886591
65.34424
21.223953
-12.691959
-27.122869
-4.5261419
19.513328
36.431284
51.628056
55.430612
67.159915
20.498555
-14.706513
-29.384686
-6.4896162
19.398604
37.400185
52.866137
57.066594
68.973134
18.365112
-16.639112
-31.733994
-8.224973
19.491723
38.508497
54.187505
58.797908
70.783949
17.028686
-18.859462
-34.427069
-9.7908188
19.888874
39.817644
55.594748
60.634097
72.85099
16.174446
-21.792416
-37.521345
-9.4486871
21.43709
42.572917
58.216532
63.940136
76.283733
18.010641
-28.114694
-43.593591
-8.0001738
25.793265
47.377057
62.417248
68.586854
80.162186
18.150778
-33.695576
-45.565691
-4.20636
31.567193
53.0172
66.997221
73.173679
83.636924
16.493672
-39.840225
-46.109489
1.2399083
38.374317
58.653278
71.314437
77.472415
86.658271
13.894749
-43.720478
-45.131338
7.8769342
45.237173
64.011632
75.264377
81.376544
89.249541
10.322041
-49.237119
-43.029016
15.485844
52.122044
68.936947
78.87169
84.912619
91.287453
6.2229995
-49.13932
-39.797559
23.949371
58.680873
73.348924
82.127773
87.991702
92.837673
1.6892671
-55.287739
-35.508393
33.075902
64.831715
77.22167
85.01473
90.647869
93.88549
-2.3656827
-52.07675
-28.819952
42.59806
70.160172
80.483786
87.481091
92.871945
94.550328
12.873627
-46.950867
-8.1214786
59.688607
89.167368
99.448657
103.67448
103.28893
101.67207
12.819578
-47.723385
-8.2762815
59.08433
88.8761
99.043753
103.35893
102.95049
101.5655
12.672028
-48.677787
-8.9478725
57.92373
88.376912
98.31528
102.76561
102.31791
101.36691
12.512605
-49.486024
-10.729604
56.241159
87.66131
97.362325
101.98466
101.49982
101.10765
12.23829
-50.626472
-12.161775
54.189009
86.735388
96.210476
101.05482
100.60962
100.80791
11.895739
-51.811257
-14.127684
51.924814
85.608393
94.924875
99.983051
99.667855
100.47406
11.46112
-52.947924
-15.599674
49.612204
84.308585
93.573556
98.795079
98.670673
100.18064
10.936476
-53.922989
-17.048607
47.6681
82.941899
92.233712
97.542357
97.79616
99.821049
10.401967
-54.662885
-18.022912
46.137382
81.563445
90.915809
96.323173
97.426739
99.06675
-2.3679842
-52.082715
-28.826328
42.598749
70.160276
80.483829
87.480979
92.871967
94.550525
1.6868896
-55.295915
-35.514102
33.075895
64.831789
77.221681
85.014597
90.647867
93.885609
6.2211515
-49.145247
-39.802805
23.948646
58.680799
73.348817
82.127615
87.99166
92.837725
10.320781
-49.244711
-43.033836
15.484524
52.121815
68.936741
78.871489
84.912544
91.287458
13.893845
-43.727478
-45.136086
7.8751692
45.236707
64.011381
75.264117
81.376449
89.249502
16.493317
-39.847688
-46.114303
1.2377905
38.373631
58.652926
71.314132
77.472283
86.658185
18.151233
-33.702535
-45.570727
-4.208775
31.566188
53.016663
66.996823
73.173486
83.636782
18.010285
-28.121684
-43.598771
-8.0028064
25.791934
47.376387
62.416676
68.586569
80.161987
16.171855
-21.798952
-37.526592
-9.4514866
21.435403
42.572082
58.215804
63.939731
76.283454
58.420285
49.02188
47.190839
34.69697
23.341355
7.5458665
-19.529961
-2.9804288
22.80848
60.042898
49.965282
47.738296
34.525949
22.028083
4.811909
-21.082105
-6.5266291
22.350059
61.754512
51.127452
48.499086
34.642361
21.050805
2.2995018
-22.700387
-9.114024
22.156636
63.531282
52.448412
49.424021
35.018326
20.335404
-0.080838614
-23.955713
-10.19529
22.096126
65.34367
53.885793
50.477185
35.625771
19.830718
-2.3778337
-25.430866
-11.078656
21.869337
67.159393
55.42989
51.627048
36.429967
19.511291
-4.5289814
-27.128303
-12.698271
21.222248
68.972667
57.065947
52.86519
37.398968
19.396628
-6.4924635
-29.390037
-14.712886
20.49682
70.783559
58.79733
54.186611
38.50738
19.489812
-8.22783
-31.739331
-16.645512
18.363072
72.85065
60.633584
55.593908
39.816636
19.887036
-9.7937188
-34.432405
-18.866016
17.026072
23.743293
1.0985788
-17.221327
11.029822
25.188474
35.169182
46.822828
48.326574
56.875554
24.96538
7.3845806
-12.372315
15.088588
27.433302
35.970836
46.629162
47.867651
55.430625
27.468636
12.061766
-6.4592138
19.149923
29.817831
37.0355
46.601191
47.62458
54.181919
27.735048
14.310433
0.62630023
23.144574
32.304503
38.339561
46.775472
47.601537
53.111627
33.057714
19.943447
7.615962
26.973656
34.876249
39.869058
47.126502
47.824047
52.297135
36.224735
26.284683
13.985237
30.627553
37.548172
41.590296
47.68018
48.331359
51.717933
25.053672
31.311089
20.037004
34.196399
40.296345
43.439785
48.332359
49.096375
51.404871
22.925202
35.497207
26.236934
37.532454
42.890658
45.323315
49.088588
50.045493
51.213819
27.328171
39.165329
32.539712
40.474387
45.147241
47.152988
49.936034
51.07397
51.366898
66.536502
69.259155
68.912587
70.058476
70.652713
72.519434
77.257989
85.652533
100.77379
63.96531
66.503545
65.964648
66.7931
67.005082
68.173236
72.271662
80.019537
95.580081
61.538842
63.876478
63.130368
63.639123
63.44464
63.798524
67.103785
74.077671
89.839009
59.340771
61.406214
60.485054
60.647218
60.034808
59.561047
61.948602
68.049162
83.562685
57.353921
59.118687
58.054822
57.828785
56.821666
55.496337
56.834955
61.95793
76.559438
55.651316
57.040197
55.867242
55.232766
53.861355
51.710673
51.873878
56.039144
68.601712
54.177134
55.18368
53.943042
52.870676
51.204541
48.269428
47.041049
50.504746
59.344784
53.056614
53.589813
52.300966
50.77365
48.916733
45.291486
42.397383
45.810366
48.432874
52.004437
52.226898
50.970816
48.897534
47.025956
42.894904
37.999033
42.482838
36.933464
105.01454
90.526962
81.857225
76.669924
74.245753
73.338219
71.913243
72.102248
69.273849
108.6475
94.837753
86.042639
80.579759
77.730163
76.57581
74.909995
74.995415
72.119223
112.08965
98.934398
90.079677
84.409622
81.187848
79.782879
77.934043
77.919531
75.097132
115.36031
102.81946
93.935573
88.091277
84.576541
82.953078
80.963145
80.846122
78.164023
118.48566
106.50249
97.629306
91.646058
87.898298
86.041825
83.981965
83.726158
81.325804
121.48748
109.99217
101.13637
95.038095
91.10393
89.048577
86.933779
86.56355
84.316044
124.40272
113.30047
104.47793
98.289642
94.200887
91.966934
89.807457
89.337055
87.137026
127.24207
116.44148
107.64075
101.36227
97.162823
94.761864
92.592821
92.044831
89.978561
130.02555
119.42221
110.63989
104.2777
99.995867
97.436769
95.295938
94.68199
92.897219
113.39512
113.04482
114.28693
115.59663
118.85817
122.93436
129.97283
139.29016
153.42664
111.91921
111.47209
112.6993
114.13409
117.42988
121.63256
128.70565
137.96478
150.47571
110.19347
109.8104
110.96997
112.52456
115.78432
120.03279
127.02312
136.10577
147.9065
108.16615
108.0279
109.11381
110.7697
113.96256
118.2509
125.11463
134.11037
145.57275
105.9001
106.09408
107.11722
108.87045
111.98642
116.30185
123.07024
132.01323
143.18754
103.52647
104.03477
105.00086
106.84182
109.87653
114.21872
120.9035
129.80259
140.67363
101.04324
101.86324
102.75606
104.67634
107.61253
111.98607
118.58666
127.43815
138.06415
98.466993
99.58831
100.38753
102.38979
105.21516
109.59065
116.11278
124.92134
135.42266
95.747752
97.192154
97.895103
99.978517
102.67709
107.0159
113.46035
122.24591
132.74813
114.90735
116.38937
117.77272
119.0872
120.28553
121.3961
122.43488
123.37146
124.25755
114.51992
115.88946
117.16824
118.35859
119.47625
120.51686
121.4947
122.40113
123.25034
115.71118
117.00345
118.21175
119.34027
120.38794
121.34988
122.24917
123.09063
123.8657
116.91477
118.09765
119.19895
120.21268
121.1377
121.9991
122.7966
123.53484
124.21777
120.05499
121.08117
122.00832
122.84817
123.60834
124.29838
124.92062
125.49297
126.01782
123.93848
124.76393
125.46808
126.0745
126.59497
127.04464
127.42862
127.76858
128.06563
130.73382
131.26051
131.63344
131.8928
132.05773
132.15267
132.19118
132.18925
132.15694
139.67883
139.74124
139.58265
139.28879
138.88288
138.40447
137.87064
137.30641
136.72296
153.47851
153.06613
152.22913
151.23141
150.09147
148.91747
147.72044
146.53422
145.35934
125.07129
124.04175
124.58576
124.85952
126.5078
128.33562
132.10659
136.13908
144.21041
125.82088
124.78086
125.26856
125.46138
126.9623
128.5821
132.04174
135.5605
143.08372
126.51999
125.47003
125.90765
126.02729
127.39146
128.81904
131.97838
135.00079
141.98614
127.15912
126.11817
126.50023
126.55842
127.79707
129.04564
131.91649
134.46816
140.91703
127.75318
126.72179
127.05541
127.0629
128.18647
129.26896
131.86733
133.96409
139.8783
128.29996
127.28587
127.57442
127.54085
128.55829
129.49128
131.8347
133.49699
138.86749
128.8034
127.81412
128.06321
127.99753
128.91846
129.72188
131.82538
133.07853
137.88817
129.27368
128.31298
128.52583
128.43063
129.26765
129.95773
131.84065
132.70617
136.93024
129.70047
128.77982
128.96067
128.84043
129.60744
130.19983
131.88761
132.39513
135.99862
132.2505
131.71893
131.74592
131.70257
132.14487
132.53822
133.50595
132.94838
131.60917
132.04405
131.47512
131.51454
131.4526
131.90722
132.27952
133.24113
132.59446
131.20656
131.82672
131.21616
131.26743
131.18786
131.65792
132.01659
132.98965
132.30099
131.07657
131.59795
130.94122
131.00502
130.90544
131.39747
131.75267
132.75957
132.07816
131.29532
131.35427
130.63794
130.72024
130.60594
131.12674
131.49047
132.54824
131.9287
131.82615
131.08355
130.31517
130.41604
130.29182
130.84701
131.22825
132.3588
131.85438
132.54718
130.78603
129.97281
130.09002
129.95866
130.55586
130.96361
132.19717
131.86151
133.34959
130.45625
129.59709
129.73595
129.60385
130.25221
130.70323
132.06603
131.97002
134.20112
130.09713
129.20404
129.36056
129.23003
129.93555
130.44885
131.96289
132.14965
135.08637
132.03346
133.37136
133.78718
132.8006
132.37709
131.94084
131.95167
131.93097
132.42361
132.65564
133.87563
134.08221
133.0583
132.59708
132.1589
132.14313
132.12049
132.55777
133.35054
134.40986
134.37454
133.30242
132.79903
132.3525
132.32419
132.29433
132.66991
134.06194
134.94708
134.64754
133.52465
132.98397
132.53041
132.47794
132.45188
132.76961
134.8115
135.47387
134.88874
133.71782
133.14665
132.69901
132.62148
132.59012
132.85173
135.58968
135.97949
135.09858
133.88397
133.28429
132.84412
132.75314
132.71393
132.92189
136.39179
136.46135
135.27621
134.02915
133.40169
132.9693
132.86984
132.82235
132.97878
137.21041
136.92235
135.43285
134.1687
133.51583
133.09116
132.97829
132.91378
133.02246
138.03131
137.37621
135.62124
134.33835
133.6521
133.21734
133.07635
132.9899
133.04303
138.94872
137.88845
135.9354
134.6184
133.86998
133.40381
133.19946
133.07336
133.04623
139.97909
138.44133
136.31795
134.95945
134.15468
133.66264
133.38985
133.20325
133.09718
141.00683
138.95411
136.69313
135.29355
134.43814
133.92166
133.59807
133.35332
133.18468
142.01553
139.43159
137.05714
135.62372
134.72763
134.18596
133.82105
133.52702
133.30456
142.97797
139.86438
137.38673
135.93789
135.01533
134.45245
134.05562
133.72229
133.45464
143.81372
140.22752
137.67001
136.23269
135.29515
134.71898
134.29895
133.93549
133.63224
144.3943
140.48653
137.88908
136.50023
135.56332
134.9813
134.54589
134.16264
133.83534
144.50937
140.63336
138.06728
136.74592
135.82186
135.23835
134.79241
134.39948
134.06104
144.05719
140.66161
138.21874
136.96633
136.06726
135.48554
135.03486
134.64212
134.30486
136.02947
136.12663
136.31941
136.63234
137.04081
137.61253
138.27467
139.55826
139.89801
135.97569
136.08586
136.2976
136.6214
137.06585
137.6694
138.4651
139.73753
140.60694
135.87036
136.00384
136.23888
136.58345
137.04669
137.68267
138.50902
139.88018
140.84251
135.71933
135.8841
136.14505
136.51141
136.99034
137.66529
138.54523
140.01565
141.2017
135.53001
135.73001
136.01944
136.40597
136.90394
137.6164
138.57081
140.15374
141.64069
135.31037
135.54729
135.8649
136.269
136.79017
137.54391
138.56499
140.288
142.06816
135.06941
135.34139
135.685
136.10426
136.64527
137.43872
138.52424
140.41168
142.52049
134.81617
135.11805
135.48408
135.91687
136.47477
137.30406
138.44401
140.51188
142.97442
134.55895
134.88336
135.26608
135.71096
136.28301
137.14776
138.34066
140.58605
143.44644
142.77776
143.47808
144.17992
145.00726
145.96045
146.98384
148.07715
149.21309
150.29301
143.47809
144.12264
144.85738
145.71683
146.68648
147.71409
148.792
149.9055
150.96104
144.17995
144.8574
145.62959
146.50945
147.47671
148.49472
149.55636
150.64913
151.71775
145.00734
145.71687
146.5095
147.38327
148.33345
149.33275
150.37748
151.4692
152.57969
145.96057
146.6866
147.4768
148.33352
149.25347
150.23269
151.26309
152.36891
153.54955
146.98404
147.7143
148.49493
149.33293
150.23282
151.20179
152.23988
153.38704
154.63547
148.0775
148.79237
149.55672
150.3778
151.26336
152.24008
153.29602
154.51323
155.88335
149.21368
149.9061
150.64974
151.4698
152.36946
153.38753
154.51363
155.75598
157.12319
150.29397
150.96202
151.71877
152.58073
153.5506
154.63645
155.88442
157.12398
158.89389
163.22899
159.84324
158.65469
156.83013
155.49717
154.22772
153.1596
152.23208
151.47547
153.32112
154.35011
154.30077
154.23086
153.88699
153.37781
152.79946
152.13538
151.44811
149.65841
150.20286
150.32863
150.55952
150.58476
150.53326
150.41367
150.18543
149.82815
147.3282
147.63394
147.61501
147.78653
147.80173
147.8291
147.79873
147.76047
147.60157
145.51304
145.70143
145.68309
145.76624
145.74404
145.74396
145.71561
145.70823
145.64206
143.91859
144.04907
143.99303
144.0856
144.02596
144.05006
143.98281
143.96566
143.89302
142.50062
142.53975
142.50092
142.52119
142.47283
142.45891
142.41048
142.37801
142.32831
141.12332
141.11651
141.04613
141.06213
140.97817
140.97692
140.90139
140.87477
140.80354
139.80548
139.73663
139.66592
139.61181
139.53665
139.47483
139.41502
139.36449
139.29932
137.90624
136.52924
135.02648
133.29529
131.33397
128.75268
125.72511
121.97251
119.24005
137.99069
136.60077
135.08143
133.31386
131.27294
128.68062
125.50622
121.8709
118.45964
138.01437
136.61945
135.05996
133.26971
131.14476
128.51933
125.22672
121.5186
117.52371
138.09818
136.66308
135.12484
133.26184
131.1384
128.38557
125.01749
120.98155
116.51776
138.12159
136.71752
135.1251
133.29602
131.08617
128.32465
124.79542
120.50207
115.55438
138.22376
136.78256
135.19709
133.33184
131.11047
128.28014
124.68782
119.99968
114.68439
138.26065
136.85889
135.24676
133.42833
131.1464
128.37018
124.6368
119.8076
113.82602
138.34548
136.91325
135.31275
133.4593
131.21402
128.35057
124.65131
119.56471
115.16535
138.46286
137.05207
135.45149
133.65573
131.39787
128.67681
124.83428
119.87487
112.56459
119.79001
122.38087
125.53713
127.77661
129.28158
130.67691
132.02979
133.36841
134.64587
118.62097
121.51686
125.15811
127.52611
129.09982
130.57228
132.00898
133.38583
134.69024
117.22417
120.75033
124.85643
127.27884
128.87905
130.40179
131.89031
133.30662
134.63419
115.37012
119.92054
124.61237
127.10147
128.80904
130.40297
131.94789
133.37464
134.70938
113.03938
118.8539
124.10973
126.63845
128.44229
130.14709
131.77165
133.25133
134.61547
110.27931
118.72561
124.30933
126.71093
128.56201
130.28206
131.90334
133.36389
134.71734
104.70104
117.00642
123.66374
126.08383
128.13736
130.01518
131.72534
133.22865
134.61168
100.65551
117.49024
124.14692
126.30482
128.31132
130.16989
131.85152
133.332
134.69796
89.959173
115.96265
123.73605
125.9422
128.09091
130.04624
131.77111
133.2609
134.64357
135.89529
137.11075
138.35591
139.62749
140.95134
142.31328
143.75082
145.25902
146.88378
135.93266
137.16052
138.39902
139.6827
141.00522
142.38544
143.82895
145.36055
146.98845
135.8961
137.14067
138.39645
139.6951
141.03131
142.42749
143.88019
145.43023
147.07217
135.9596
137.21203
138.46392
139.76838
141.10349
142.50845
143.9652
145.53007
147.18129
135.88664
137.15761
138.42917
139.74731
141.09521
142.51528
143.98952
145.57337
147.24228
135.973
137.23729
138.49934
139.81536
141.1597
142.58149
144.05521
145.64391
147.31605
135.89032
137.17437
138.45643
139.78672
141.14216
142.57537
144.06038
145.66146
147.34609
135.96616
137.2395
138.51514
139.83909
141.19205
142.62269
144.10849
145.70924
147.39468
135.92127
137.20504
138.48597
139.81878
141.17215
142.60915
144.09694
145.70384
147.39089
148.62206
150.50945
152.53655
154.72855
157.04278
159.51997
162.08911
164.81036
166.73457
148.75342
150.65107
152.71879
154.95123
157.3575
159.93496
162.66717
165.51867
167.60682
148.86433
150.78577
152.89558
155.17214
157.66789
160.35042
163.23501
166.17964
168.47403
148.99355
150.93062
153.07703
155.38542
157.95462
160.7056
163.71873
166.77259
169.33041
149.07446
151.03176
153.20807
155.54905
158.17618
160.99253
164.1388
167.32119
170.17899
149.1596
151.12723
153.32647
155.68889
158.3663
161.2314
164.5164
167.81728
171.01519
149.20417
151.18196
153.40375
155.78153
158.5015
161.40023
164.81244
168.2376
171.84543
149.25693
151.23738
153.46999
155.85578
158.60797
161.52382
165.056
168.55929
172.82327
149.25858
151.24588
153.48382
155.88159
158.64037
161.58496
165.17026
168.76323
172.96319
167.77362
160.29753
157.56614
154.26183
150.97127
147.80838
144.78644
141.81891
138.89949
168.96374
161.11503
158.3159
154.85947
151.49552
148.24716
145.22124
142.18971
139.27337
170.0615
161.85545
159.00515
155.46605
152.02665
148.72392
145.66805
142.61378
139.68619
171.18654
162.53393
159.61659
155.95041
152.50001
149.11489
146.07289
142.94837
140.04843
172.36724
163.38156
160.34001
156.58432
153.07137
149.66254
146.5768
143.45612
140.52089
173.53734
163.95715
160.83322
156.9749
153.46613
149.94886
146.88557
143.67849
140.77964
174.97349
165.03136
161.58288
157.69915
154.11588
150.58595
147.47402
144.27588
141.35009
175.7219
165.30567
161.81786
157.87087
154.30013
150.70402
147.60711
144.36351
141.45602
178.21006
166.95433
162.79118
158.75917
155.12941
151.47694
148.33562
145.0662
142.14328
135.96698
133.01544
130.02867
127.00105
123.91061
120.75876
117.52338
114.19974
110.77494
136.28756
133.36166
130.32909
127.33406
124.21066
121.08285
117.82598
114.51529
111.06912
136.70081
133.77706
130.74971
127.76174
124.64202
121.53103
118.27914
115.00123
111.56397
137.00018
134.1192
131.03789
128.09755
124.93529
121.86987
118.57981
115.34668
111.87258
137.48808
134.58207
131.52026
128.56236
125.41615
122.35133
119.06904
115.85826
112.38161
137.68179
134.8238
131.71151
128.80172
125.61754
122.59452
119.28705
116.10475
112.62661
138.26529
135.39265
132.29312
129.3818
126.20241
123.1945
119.87931
116.74667
113.21739
138.33948
135.48869
132.36851
129.47569
126.2856
123.28924
119.97614
116.83926
113.34962
139.01461
136.16513
133.04095
130.16166
126.96932
123.99712
120.68132
117.59163
114.05524
106.82018
102.15911
97.447085
92.339096
87.120723
81.862077
76.86207
69.768687
60.927543
107.1788
102.604
98.031211
93.041066
88.011861
82.916964
78.398812
72.119571
64.145192
107.73758
103.24172
98.838902
93.936822
89.147928
84.115028
79.902585
73.792982
67.028689
108.16719
103.78183
99.501691
94.741907
90.046874
85.168149
81.331692
76.941537
69.876085
108.72485
104.39926
100.29706
95.610609
91.119127
86.18143
82.740845
77.578434
78.796704
109.07261
104.922
100.82815
96.388346
91.780893
87.068222
82.870006
81.658604
79.397718
109.76323
105.66057
101.85957
97.452862
93.169738
88.334414
84.498602
78.456807
101.9534
109.93982
105.99195
102.1093
97.967034
93.532744
88.834553
83.472727
80.718752
90.552793
110.79069
106.9913
103.42151
99.42809
95.469436
90.955425
87.854443
69.691354
130.97005
40.238699
26.502628
28.741302
23.936661
22.686998
24.808033
26.198192
26.713436
27.734717
41.885315
26.4192
29.034149
24.949164
24.87126
25.675338
26.587869
27.074338
28.1323
42.588062
26.049707
29.462681
25.042055
24.118431
25.709812
26.763321
27.435969
28.581421
41.066902
24.681999
30.435997
25.046609
25.523277
26.206895
26.988378
27.792377
29.025359
36.510743
22.238028
30.588602
25.101986
25.039034
26.349531
27.241974
28.153572
29.475004
31.814298
24.083521
31.872717
24.382102
25.812328
26.680523
27.427693
28.534055
29.844363
34.608575
34.923747
28.927373
25.044351
25.796367
26.84915
27.729423
28.8458
30.182931
35.83
20.463731
29.366794
24.140991
26.00831
27.04404
27.833925
29.095054
30.414248
-44.420762
42.900018
25.464733
24.72777
26.634888
27.220266
28.128414
29.31978
30.56973
27.481003
26.53821
24.577813
21.015705
15.506898
7.82161
0.96943885
-21.835373
-15.615993
28.098811
27.317065
25.43324
21.582411
15.805776
7.5183539
-0.68355123
-22.712564
-14.462465
28.543038
27.766109
25.663142
21.384493
15.111341
5.9295816
-4.3820409
-20.514834
-15.584385
28.992979
28.15788
25.941749
21.264986
14.3315
4.6363771
-7.0385659
-22.123538
-13.673007
29.43452
28.585044
26.192972
21.150259
13.709032
3.5223498
-8.7465812
-18.897226
-10.004533
29.831451
28.949421
26.386579
21.03935
13.083378
2.5775413
-8.6997642
-14.930111
-5.7377743
30.142655
29.209402
26.409525
20.727977
12.29487
1.346902
-8.1298409
-11.84093
-0.48837612
30.353936
29.339698
26.401097
20.472868
11.739387
1.021914
-7.7774579
-9.2492608
2.1959427
30.435569
29.278444
25.994671
19.477905
10.09789
-0.6831822
-8.2381538
-5.2802455
8.972931
-31.138635
-20.714292
-5.963699
5.4215467
2.459554
5.1508049
8.0349854
7.9126461
9.2134743
-25.714631
-23.907341
-7.9390375
4.635111
2.0981139
4.4404421
7.4837472
8.4107513
10.390695
-21.677896
-24.523809
-10.209088
3.7469299
2.0112315
3.2824908
6.2541518
8.7633789
11.323335
-15.656335
-26.185162
-12.713922
2.2204991
2.0644307
1.7967024
4.4482753