/*--------------------------------*- C++ -*----------------------------------*\
  =========                 |
  \\      /  F ield         | OpenFOAM: The Open Source CFD Toolbox
   \\    /   O peration     | Website:  https://openfoam.org
    \\  /    A nd           | Version:  11
     \\/     M anipulation  |
\*---------------------------------------------------------------------------*/
FoamFile
{
    format      ascii;
    class       volVectorField;
    location    "0.22";
    object      U;
}
// * * * * * * * * * * * * * * * * * * * * * * * * * * * * * * * * * * * * * //

dimensions      [0 1 -1 0 0 0 0];

internalField   nonuniform List<vector> 
880
(
(25 -2.529889710278827e-14 0)
(25.00000000003869 6.489411140365017e-10 0)
(24.99989474902839 -6.498414661410707e-05 0)
(24.95459310251435 -0.00596636604273697 0)
(25 -3.537361828859318e-13 0)
(24.99999998785282 -9.089264029691328e-09 0)
(24.99974712184062 -0.0002598244834422784 0)
(24.92101320509162 -0.100077835417137 0)
(25 2.174920879260716e-12 0)
(24.9999999949944 1.040159885953641e-08 0)
(24.99922569113612 -0.0006909194538256346 0)
(24.8669892293819 -0.1953923923396834 0)
(25.0000000000007 -1.078780298062358e-11 0)
(25.00000002430821 -2.185836047563977e-08 0)
(24.99747255408355 -0.001672433995784516 0)
(24.60525013455714 -0.3421273184161507 0)
(25.0000000002362 -4.37698184127026e-10 0)
(24.9999999992314 4.946294686036994e-09 0)
(25.00000000529399 3.899974584694888e-08 0)
(24.99999679060731 1.973636576876636e-06 0)
(25.00000033777998 -4.442638182449264e-07 0)
(24.9999963379771 1.34718236087924e-06 0)
(24.99996795208559 6.105995878672341e-05 0)
(25.00005659289825 -0.0002323304582369488 0)
(24.99106917782816 -0.003037676695284852 0)
(24.98277340919827 0.0009048400694073995 0)
(24.97209546092034 0.01899582399325509 0)
(24.98178275280502 -0.03077495507168581 0)
(23.99560036493592 -0.09318466171418818 0)
(23.40745464764097 0.5526349434929219 0)
(23.12791244067699 1.158678429944109 0)
(23.05613649439425 1.54047102815044 0)
(24.99999457367308 -2.013715499802469e-05 0)
(24.99996799376665 -7.412164058295713e-05 0)
(24.99986788200506 -0.0001881849310401115 0)
(24.99964082033154 -0.000713625259504727 0)
(24.99926261954447 3.242606370114868e-05 0)
(24.99787635422095 0.0005388480171815569 0)
(24.99528126626879 0.0028736384504468 0)
(24.9930379911621 0.004190636039735809 0)
(24.90731776275724 0.005541332117346307 0)
(24.83687013087334 0.07082165322846214 0)
(24.75831469372413 0.1874341638145016 0)
(24.70691678368528 0.2498286159108073 0)
(23.01683201998686 1.984628469099043 0)
(22.82964646715602 2.40705777055575 0)
(22.88605756327946 2.79420157326414 0)
(23.05477860827143 3.232467806350731 0)
(24.03866199352976 3.688456989354232 0)
(24.62312129585539 3.459189851185192 0)
(24.90292925049929 3.01022712281202 0)
(25.15126022912558 2.573635087370131 0)
(24.55067615691075 0.5127778997842347 0)
(24.58525856255769 0.8081299914984779 0)
(24.67821620475251 1.003188173252455 0)
(24.82106349527746 1.104119515181827 0)
(24.97299618766338 0.01593070823801852 0)
(24.94992372780628 0.04664301765804314 0)
(24.93319704646936 0.09574299971103245 0)
(24.93259877030707 0.1521476644760791 0)
(24.99835725057318 -0.001967231384009763 0)
(24.99586935226705 -0.005544221882099827 0)
(24.99262296008066 -0.01139339808160679 0)
(24.98951173914774 -0.01785376146293105 0)
(24.98432618260669 -0.02094734334210847 0)
(24.98050171898808 -0.02062061839515856 0)
(24.97875010091186 -0.01804702592625412 0)
(24.97906846083725 -0.01486774801711266 0)
(24.95448800449603 0.1989143337044297 0)
(24.99590511821176 0.2234889549020703 0)
(25.03992178998915 0.2181537980770147 0)
(25.06242516797681 0.1972801332730838 0)
(24.98847067067571 1.095096991839041 0)
(25.15049598262756 1.023294997561791 0)
(25.28417241041851 0.9273466114771092 0)
(25.36211920945656 0.8289165521337694 0)
(25.35874159547079 2.170566551953029 0)
(25.5193205463132 1.76922581227966 0)
(25.65712020041104 1.38548840278102 0)
(25.8184208382681 1.013431348002991 0)
(25.94771734740742 0.726745324437946 0)
(25.40346647937269 0.7088877290921008 0)
(25.07252203100341 0.1666636951770811 0)
(24.98106180852668 -0.01138284328127378 0)
(25.88367271305178 0.5671876896707905 0)
(25.40176630363488 0.6126475411637355 0)
(25.07382540833536 0.132342527781618 0)
(24.98443041436237 -0.008103004823850809 0)
(25.14028020824171 0.8097245621613833 0)
(25.38310102555442 0.4113055929882808 0)
(25.07191739235392 0.08110629998389254 0)
(24.98919097450503 -0.004354235149864338 0)
(21.08635271549707 1.426705596891765 0)
(25.0644558806739 0.3696481680260758 0)
(25.04955132684928 0.0381507614455255 0)
(24.99402361423804 -0.001930229549814911 0)
(24.99696619672932 -0.001522430446581112 0)
(25.0099521813006 0.02316698567021151 0)
(24.34969574147672 0.4853091619212286 0)
(16.50507078634254 2.70667775815791 0)
(24.99751026976796 -0.002122307192561978 0)
(24.97907217945253 0.02942977433958196 0)
(23.7237543970215 0.8397731265822923 0)
(16.2422234106304 4.588693463782272 0)
(24.996498106264 -0.005148910718284512 0)
(24.92850386278581 0.0652027387021135 0)
(22.87956038264919 1.490599709890293 0)
(15.4489283578438 6.252292727250482 0)
(24.99050540002823 -0.01196995217225941 0)
(24.85503382378766 0.1475157382267352 0)
(22.09067046592668 2.395793860405665 0)
(15.15926291994412 7.655325952563126 0)
(15.14867034431995 8.877229666573703 0)
(21.28909611388356 3.588476380434886 0)
(24.71209576207056 0.3267800573507267 0)
(24.9804725958879 -0.02647454804121247 0)
(15.11042623228501 9.919863258526924 0)
(20.6073931340383 4.954671252829374 0)
(24.5308404164652 0.6318369041969244 0)
(24.9570860990685 -0.04989874018642572 0)
(15.41167722119278 10.69400698394865 0)
(20.26154794630225 6.17257603240142 0)
(24.25558310878909 1.132077982087894 0)
(24.92305687134294 -0.08513097750589936 0)
(16.01276453283252 11.26520670271336 0)
(20.09706804399717 7.373584912846646 0)
(24.01724980675871 1.765720066165164 0)
(24.86044228313063 -0.1254127382300487 0)
(24.78117040856728 -0.1808020790815673 0)
(23.77619650346595 2.641536874090447 0)
(20.9713415538303 7.893040875708573 0)
(17.5863469417959 11.18439210026409 0)
(24.72425668560238 -0.2295909221947619 0)
(24.36718502173926 2.729575798168046 0)
(22.63283069549164 7.32581353154068 0)
(19.83102199050121 10.58521668783749 0)
(24.90065276011539 -0.2131404342439392 0)
(24.90083531204736 2.345409696267553 0)
(24.60499163972403 6.252206932143937 0)
(22.72935031496898 9.568202028107439 0)
(24.75011951723642 -0.3625073343213921 0)
(25.15714353472161 1.698908996326882 0)
(25.9175495214961 4.524885714186917 0)
(25.80528067359698 7.345126143164829 0)
(24.80480434141768 -0.1209623920700572 0)
(25.5004397056709 1.468662267719845 0)
(27.11220111063419 3.154257958672118 0)
(30.00630765026006 4.663766262607152 0)
(24.88399192498857 -0.06312011344757019 0)
(25.84395127638872 0.9581817282974061 0)
(27.63393987975138 1.882225718069787 0)
(33.04598131826441 1.085745079451908 0)
(24.97162719049388 -0.0545409659229 0)
(25.85142676821536 0.4953665011195096 0)
(27.66369304525815 0.6461356709123165 0)
(33.3970715817094 -2.72022944442512 0)
(25.03425661787303 -0.03920148099931824 0)
(25.61838828531738 0.2059079960142236 0)
(27.2429264012009 -0.3039461408148283 0)
(28.61965772950157 -1.661439628683067 0)
(24.7912288909826 -2.665445709084998 0)
(26.68128692915352 -1.266634512964512 0)
(25.41794353182032 -0.10886472672726 0)
(25.0407192103875 -0.02552911153207305 0)
(21.6135847680925 -3.341863661791179 0)
(25.8997591868337 -2.06349748324452 0)
(25.22524248376465 -0.3222304706221998 0)
(25.01671299450877 -0.006877181711268703 0)
(18.28192659474028 -6.031849421176326 0)
(24.94575380513007 -2.742642478199089 0)
(25.0609309274073 -0.3468349427663147 0)
(25.00370793182386 -0.01113610745822504 0)
(14.14426619326743 -7.503643121743101 0)
(23.90668925186552 -3.16554307705379 0)
(24.91457449403146 -0.3714608122986936 0)
(24.99748306728124 -0.01390455265765819 0)
(13.86470734034178 -7.824414435153098 0)
(23.34304907123126 -2.741218015144833 0)
(24.83642705531587 -0.268289077134435 0)
(24.99509541111556 -0.007541920978627768 0)
(15.55046792471989 -7.346520357748834 0)
(23.28712200088353 -1.93952432750355 0)
(24.84769162785292 -0.1531567633781149 0)
(24.99699875939105 -0.002977029526856281 0)
(16.96888096151422 -4.60082691486329 0)
(23.5339506014846 -1.037636584670546 0)
(24.89583419873557 -0.06605905931979066 0)
(24.99853130340985 -0.001161067567415736 0)
(19.30033209066452 -3.220706967456607 0)
(24.02351288366605 -0.7212077711269282 0)
(24.96064419716629 -0.05749785230120202 0)
(24.99948217848461 -0.0006840011935245514 0)
(19.18565437514764 0.6093161833624445 0)
(23.90210122370449 0.01575404499817424 0)
(24.89452608538918 -0.002966128625142735 0)
(24.99603327612058 -0.0001313670267587096 0)
(18.92674028065468 1.622220754372708 0)
(23.82928669649274 0.09734473980595131 0)
(24.89410921743785 -0.005907370291913064 0)
(24.99646460885972 -0.0003605128639749483 0)
(18.44611888630352 1.857468612300232 0)
(23.7001943493078 0.1097584589713457 0)
(24.88945772090746 -0.00580242654406735 0)
(24.99685419181592 -0.0003382619438108811 0)
(18.10116717880493 1.804495001298264 0)
(23.61058357190023 0.06021651105474763 0)
(24.88559816605138 -0.007589359825661884 0)
(24.99713481008319 -0.0003353951227242577 0)
(19.30033209069409 3.220706967436952 0)
(24.02351288373649 0.7212077711119712 0)
(24.96064419728057 0.0574978522326703 0)
(24.99948217858287 0.0006840011796137286 0)
(16.96888096154 4.600826914834716 0)
(23.53395060154179 1.037636584684557 0)
(24.89583419876156 0.06605905933523949 0)
(24.99853130345365 0.001161067613791483 0)
(15.55046792472815 7.346520357741356 0)
(23.28712200091471 1.93952432754221 0)
(24.84769162786343 0.1531567634320797 0)
(24.99699875941119 0.002977029537745471 0)
(13.8647073402992 7.824414435133539 0)
(23.34304907125712 2.741218015203429 0)
(24.8364270553134 0.2682890771568882 0)
(24.99509541111902 0.007541921004359248 0)
(25.04071921036825 0.0255291115504982 0)
(25.41794353179842 0.1088647267036388 0)
(26.681286929149 1.266634512952349 0)
(24.79122889094768 2.66544570916671 0)
(25.01671299451671 0.006877181730282168 0)
(25.22524248375344 0.3222304706220439 0)
(25.89975918682417 2.06349748322357 0)
(21.61358476803738 3.341863661837661 0)
(25.00370793179779 0.01113610745984395 0)
(25.06093092739521 0.3468349427674653 0)
(24.94575380518221 2.742642478267211 0)
(18.28192659467969 6.031849421225717 0)
(24.99748306726033 0.01390455265302054 0)
(24.91457449399092 0.3714608122718664 0)
(23.90668925188725 3.165543077110354 0)
(14.14426619320981 7.503643121749191 0)
(28.61965772945389 1.661439628712686 0)
(27.24292640119733 0.3039461407886869 0)
(25.61838828531845 -0.205907995978895 0)
(25.0342566178759 0.03920148101176245 0)
(33.3970715817022 2.720229444463976 0)
(27.66369304525896 -0.6461356709073959 0)
(25.85142676816013 -0.4953665011368559 0)
(24.9716271905191 0.0545409659435382 0)
(33.04598131828902 -1.085745079437328 0)
(27.63393987974321 -1.882225718067252 0)
(25.84395127634224 -0.9581817282714687 0)
(24.88399192503471 0.06312011334428386 0)
(30.00630765027102 -4.663766262589078 0)
(27.11220111065806 -3.154257958657529 0)
(25.50043970570386 -1.468662267682112 0)
(24.80480434154759 0.1209623915913826 0)
(24.78117040857272 0.1808020791174863 0)
(23.77619650336142 -2.641536874118855 0)
(20.97134155374743 -7.893040875719429 0)
(17.58634694181414 -11.18439210026212 0)
(24.72425668559071 0.229590922218014 0)
(24.36718502170197 -2.729575798112063 0)
(22.63283069545459 -7.325813531521197 0)
(19.83102199051655 -10.58521668782853 0)
(24.90065276002008 0.213140434685694 0)
(24.90083531197992 -2.345409696250828 0)
(24.60499163974105 -6.252206932124804 0)
(22.72935031499865 -9.568202028095174 0)
(24.75011951705666 0.3625073343745582 0)
(25.15714353478603 -1.698908996282831 0)
(25.91754952149529 -4.52488571418292 0)
(25.80528067361047 -7.345126143155903 0)
(16.01276453284649 -11.26520670270475 0)
(20.09706804400334 -7.373584912884626 0)
(24.01724980681395 -1.765720066192542 0)
(24.86044228299338 0.1254127382169072 0)
(15.41167722119295 -10.69400698393339 0)
(20.26154794634128 -6.172576032333959 0)
(24.25558310884024 -1.132077982071432 0)
(24.92305687132307 0.08513097751061792 0)
(15.11042623227784 -9.919863258531555 0)
(20.60739313398208 -4.954671252875566 0)
(24.53084041658234 -0.6318369041425032 0)
(24.95708609899822 0.04989874016631581 0)
(15.1486703443495 -8.877229666575506 0)
(21.28909611384771 -3.58847638048795 0)
(24.71209576187505 -0.326780057523845 0)
(24.98047259589343 0.02647454805359208 0)
(24.9969661967168 0.001522430445698699 0)
(25.00995218127766 -0.02316698565936891 0)
(24.34969574147835 -0.4853091619332591 0)
(16.50507078635464 -2.706677758172812 0)
(24.99751026968811 0.002122307195761635 0)
(24.97907217945426 -0.02942977431102848 0)
(23.723754397087 -0.8397731265668894 0)
(16.24222341069871 -4.588693463817187 0)
(24.99649810616986 0.005148910729542225 0)
(24.92850386260063 -0.06520273879320143 0)
(22.8795603825604 -1.490599709935364 0)
(15.44892835779361 -6.252292727270547 0)
(24.99050539996229 0.01196995216925874 0)
(24.85503382404496 -0.1475157381044871 0)
(22.09067046602618 -2.395793860323305 0)
(15.15926291998155 -7.655325952548512 0)
(24.99402361423738 0.001930229544864781 0)
(24.98919097451635 0.004354235149772363 0)
(24.98443041432535 0.008103004840014659 0)
(24.9810618085265 0.01138284329197875 0)
(25.04955132695345 -0.03815076138666015 0)
(25.07191739237727 -0.08110630000070354 0)
(25.07382540835996 -0.1323425277765383 0)
(25.07252203100063 -0.1666636952164741 0)
(25.06445588072102 -0.3696481680441768 0)
(25.3831010255436 -0.4113055930034419 0)
(25.40176630367665 -0.6126475411711684 0)
(25.40346647939995 -0.7088877291015599 0)
(21.08635271553118 -1.426705596893886 0)
(25.14028020823749 -0.8097245621541449 0)
(25.88367271304894 -0.5671876896679027 0)
(25.94771734741034 -0.7267453244273937 0)
(24.97906846081098 0.01486774803293021 0)
(25.06242516795031 -0.1972801332635632 0)
(25.36211920945253 -0.8289165521021119 0)
(25.81842083825324 -1.013431347972775 0)
(24.97875010092815 0.01804702592118616 0)
(25.03992178995723 -0.2181537980682982 0)
(25.28417241040691 -0.9273466114616719 0)
(25.65712020040558 -1.385488402775696 0)
(24.98050171898454 0.02062061839385828 0)
(24.99590511819602 -0.223488954891732 0)
(25.15049598266432 -1.0232949975812 0)
(25.51932054637873 -1.769225812290896 0)
(24.98432618264072 0.02094734332949987 0)
(24.95448800451459 -0.1989143337062749 0)
(24.98847067068742 -1.095096991834839 0)
(25.35874159547869 -2.170566551949678 0)
(24.9983572505734 0.001967231352936249 0)
(24.97299618771789 -0.01593070817015038 0)
(24.55067615688794 -0.5127778997981621 0)
(24.03866199350779 -3.688456989329024 0)
(24.99586935231419 0.005544221823236013 0)
(24.94992372782228 -0.04664301758510398 0)
(24.58525856254224 -0.8081299914889682 0)
(24.62312129583716 -3.459189851176563 0)
(24.9926229600473 0.01139339809237504 0)
(24.93319704649491 -0.09574299968511701 0)
(24.67821620478124 -1.003188173296872 0)
(24.90292925055948 -3.010227122840501 0)
(24.98951173916599 0.01785376144229948 0)
(24.93259877032644 -0.1521476644468085 0)
(24.82106349527579 -1.104119515183904 0)
(25.15126022914885 -2.573635087388178 0)
(23.05477860827598 -3.232467806349073 0)
(24.70691678367048 -0.2498286159434805 0)
(24.99303799123268 -0.004190635959280693 0)
(24.99964082030086 0.0007136252688180028 0)
(22.88605756330931 -2.794201573244439 0)
(24.75831469370065 -0.1874341638207914 0)
(24.99528126634569 -0.002873638397013711 0)
(24.99986788202415 0.0001881848970099348 0)
(22.82964646714445 -2.407057770536458 0)
(24.836870130848 -0.07082165323904713 0)
(24.99787635431335 -0.0005388480205589159 0)
(24.99996799377857 7.412156180731521e-05 0)
(23.01683202000336 -1.984628469095191 0)
(24.90731776276178 -0.005541332131045005 0)
(24.99926261959801 -3.242606048998388e-05 0)
(24.99999457361048 2.01371706108703e-05 0)
(23.05613649444108 -1.540471028139897 0)
(24.98178275281572 0.0307749550894897 0)
(25.00005659290322 0.0002323304627584681 0)
(24.99999679057922 -1.973611461359354e-06 0)
(23.12791244070372 -1.158678429949578 0)
(24.97209546095089 -0.01899582397722827 0)
(24.99996795214754 -6.105996488853677e-05 0)
(25.00000000529096 -3.899897252703722e-08 0)
(23.40745464766419 -0.5526349435057042 0)
(24.98277340922014 -0.0009048400666950175 0)
(24.99999633800725 -1.347190194299798e-06 0)
(24.9999999992335 -4.958096573156091e-09 0)
(23.99560036495286 0.09318466169192421 0)
(24.99106917784726 0.003037676684800713 0)
(25.00000033779116 4.44274684049034e-07 0)
(25.00000000020399 4.499609174822896e-10 0)
(25.00000000000001 2.61185451203544e-14 0)
(25.00000000003755 -6.630908490447278e-10 0)
(24.99989474901519 6.498414234648439e-05 0)
(24.95459310178829 0.005966366129497047 0)
(25 4.951035146028878e-13 0)
(24.99999998787614 9.086285926603971e-09 0)
(24.99974712183623 0.0002598244714168535 0)
(24.9210132049297 0.1000778353610748 0)
(25 -3.438781685219253e-12 0)
(24.99999999500088 -1.040589368702088e-08 0)
(24.99922569113545 0.0006909194423137277 0)
(24.86698922935846 0.19539239230033 0)
(24.99999999999729 1.589475817966619e-11 0)
(25.00000002435836 2.185626723393449e-08 0)
(24.99747255409988 0.001672433985572049 0)
(24.60525013457159 0.3421273183901204 0)
(24.91523016270764 -1.824132719039177e-11 0)
(24.85191815698359 0.1030938178111469 0)
(24.67060881616103 0.1802628521260242 0)
(23.98193278887708 0.101675372621445 0)
(24.85191815722264 -0.103093817929384 0)
(24.72022687629791 -7.859820915135643e-11 0)
(24.27069240973669 -0.0130624513374625 0)
(23.04589022658502 -0.3806084353746582 0)
(24.67060881630725 -0.180262852199835 0)
(24.27069240984356 0.01306245124567012 0)
(23.1443371714963 -2.097923975783769e-11 0)
(21.11784105828059 -0.5490599211371134 0)
(23.981932788873 -0.1016753726846302 0)
(23.04589022660462 0.3806084353030444 0)
(21.11784105828893 0.54905992107857 0)
(18.76079391045213 -3.323651890192558e-11 0)
(18.08995996500126 2.610584208595319 0)
(18.79361097256124 3.052386975990423 0)
(20.57183416430958 2.699415042515039 0)
(22.12735409402765 1.779001386045731 0)
(19.0760258272226 4.371925668646639 0)
(19.18887848972602 4.35963060829199 0)
(19.9986487378868 4.287089562251331 0)
(21.12724768171135 4.017441755761269 0)
(18.87726815197551 5.448351450267969 0)
(19.74874194129551 4.622939458138035 0)
(20.4926778872251 4.824457802544965 0)
(21.15137897304453 4.677524221887468 0)
(19.4555815415268 5.959147362707807 0)
(20.43979370678691 4.891261153598431 0)
(20.98128905816085 5.050276168468148 0)
(21.37061518757734 4.963454955678498 0)
(21.72120772063251 5.113837956963454 0)
(21.83159312418896 5.19008800769506 0)
(22.09033384711637 5.253101277977478 0)
(22.62396903996823 5.38334957722988 0)
(21.50385622581024 5.176049149224169 0)
(21.7553502746358 5.266404798301416 0)
(22.04711965076534 5.29904480793776 0)
(23.09474735793304 5.61965506842558 0)
(21.12970807666322 5.043565969921377 0)
(21.54867033689332 5.208061850741107 0)
(21.91276342324322 5.277503207389939 0)
(24.48771149986882 6.03883957888328 0)
(20.05876643833896 6.027113725370524 0)
(20.61851027771161 6.070541487538549 0)
(21.1605073741925 6.091664254923813 0)
(26.14371638600631 7.339127151126221 0)
(26.26435666180533 3.176560728531221 0)
(26.71836790398842 0.7468309725192804 0)
(25.96229185782714 0.4340507339845963 0)
(25.7642217022317 0.4262298167678928 0)
(28.62275753081369 2.165677505535414 0)
(28.69354060773216 0.3310740215565495 0)
(27.50482041558024 0.2811683699304724 0)
(26.80114327190454 0.3846306203861007 0)
(31.74223027361862 1.861630745263255 0)
(29.97159020015492 0.06632014446341489 0)
(28.45951511786517 0.07906311385416075 0)
(27.4791188380239 0.1526045968970358 0)
(25.50631708329211 1.636621810856998 0)
(24.10496673182265 0.610661377527063 0)
(23.74623799612054 0.2479839363955984 0)
(23.52646388752278 -0.05993560059166866 0)
(25.70484883498984 0.3458442400933228 0)
(25.67886878191403 0.2415136441790579 0)
(25.66998043429102 0.1265574518620223 0)
(25.75019065861076 -0.01215176424550897 0)
(26.36171139067584 0.3409500532977481 0)
(26.00826879370245 0.2427949812737848 0)
(25.8097997753549 0.1027633944469087 0)
(25.74837176648207 0.01983931790317271 0)
(26.78304617678632 0.1377324096403134 0)
(26.17416430098529 0.09686681461933253 0)
(25.83306964624586 0.02218179607950291 0)
(25.60107978239141 0.03687894545893377 0)
(23.30746001464902 -0.4322332008515199 0)
(23.20874210651628 -0.6029476781424968 0)
(23.19825537502087 -0.5232706663419997 0)
(23.11688623077225 -0.6064294460670914 0)
(25.87211844016076 -0.1442034454726915 0)
(25.60610303452082 0.3425476283673824 0)
(21.2683212743475 4.124344300499973 0)
(15.23609704375677 3.544275309327929 0)
(25.82871448517452 -0.1185461266396083 0)
(25.2412530141904 0.6438505543001102 0)
(18.05345615569467 4.317020989150092 0)
(10.98314980611856 2.050378838489375 0)
(25.66310275755594 -0.03775657552005937 0)
(24.49582816477555 0.6805295801923433 0)
(14.6511948783064 3.324131758708448 0)
(5.576871816346752 2.356000803609549 0)
(23.58480281648305 -0.7208904793403347 0)
(21.59142800100203 -0.800651882714029 0)
(11.15089040473774 -1.05910979330007 0)
(1.85645816610659 0.1526548276227074 0)
(11.85754977367637 4.914686621441023 0)
(13.22807180616324 6.423277172514682 0)
(13.80799038116196 7.700872890956846 0)
(14.3617005697112 8.63273307943377 0)
(10.09468237789259 4.543215648313827 0)
(12.63207247844922 6.386490976672702 0)
(13.63480355662321 7.852432987209533 0)
(14.22705227374295 8.790372206729456 0)
(7.027568442477106 2.83002695571678 0)
(10.84629973727555 5.577894262428375 0)
(12.81816157188873 7.745273257453011 0)
(13.65715106204068 8.809869676635119 0)
(2.301203119296522 2.029978123928478 0)
(5.98612755841137 3.974815882146844 0)
(9.757246131720304 5.307848250931489 0)
(11.81428431691097 6.42257400544227 0)
(14.79042693628978 8.846028806468301 0)
(14.40243515073107 9.207480451477343 0)
(14.78046122733151 10.08282473763408 0)
(15.67416954466701 11.10869928557466 0)
(14.76249299632962 9.037646363873622 0)
(14.72258934624991 9.319715687324027 0)
(15.0003117725688 10.13810528327986 0)
(15.62730297142922 10.92710372915714 0)
(14.3637732052852 9.182399564870023 0)
(14.72184073176653 9.464894720574099 0)
(15.1277653560564 10.07641173824174 0)
(15.76335332174566 10.72917996949645 0)
(12.87487740588451 7.513378356721181 0)
(13.78623127563373 8.868387594864958 0)
(14.8161176681323 9.695183744363698 0)
(15.56896453645947 10.15233681962829 0)
(16.59595562929186 11.8307392285223 0)
(18.18077260147129 11.92347968605105 0)
(20.95710800247024 11.65301200398906 0)
(24.92913897685569 10.24422105285448 0)
(16.52948585021016 11.54755210707143 0)
(18.08377339749876 11.84332972711665 0)
(20.607890565489 11.7098839926691 0)
(24.84005762180548 12.30240396603909 0)
(16.65044147103473 11.31889708381831 0)
(17.84138978351451 11.7530122149893 0)
(20.70846366803755 12.63316484202528 0)
(30.81716438344897 18.00728951049196 0)
(16.6051089500696 10.31571707427578 0)
(17.86733495240528 11.31247922525 0)
(21.58325121875128 13.04013943264262 0)
(42.04436879184105 24.78935654010584 0)
(30.65961148649622 5.316866154603506 0)
(32.91654316485458 -4.640316881827359 0)
(11.29109411783514 2.010054703144701 0)
(7.487304925686223 8.11003268005096 0)
(32.03531048336453 4.552146001123235 0)
(26.66749930113951 -3.352248884416698 0)
(7.93540704176781 8.531390673779651 0)
(4.99659830924057 13.7270302008361 0)
(31.53964836821176 3.090689287497492 0)
(17.09760315783399 -6.454915965248972 0)
(3.520030483593906 10.62450515653421 0)
(3.204053836496857 14.30659949543594 0)
(20.26053104361922 -8.57886302567279 0)
(5.996465588826824 -3.113717806785682 0)
(1.28605964820584 12.29902972162559 0)
(1.670379027682787 13.84973603972408 0)
(4.193371012180171 7.439620419201332 0)
(1.690323874423535 5.496026510442601 0)
(0.3582437471592302 3.333612976553828 0)
(-0.08013637546179375 3.089609855326402 0)
(2.787209349230369 12.31022361624278 0)
(1.375396358371098 9.523546402865671 0)
(0.4213711657335704 6.680919563099086 0)
(0.4000476833884055 4.286819868013502 0)
(2.249292779380905 13.3019046855086 0)
(1.605948309240055 10.89681871368364 0)
(0.8923388636493094 8.022952581279906 0)
(0.04933849522639996 3.742700962354045 0)
(0.7475165930901766 13.11072340853741 0)
(0.117602077215995 10.92979722750765 0)
(-0.6348202092671256 8.055179695960764 0)
(-0.7461065840002084 3.343533720783846 0)
(2.628462592667879 -0.3349481749556224 0)
(6.540788113329748 -5.706158353135579 0)
(9.912342996548013 -7.498503246710561 0)
(14.35842458161576 -8.91029962270127 0)
(-0.9359619325876121 0.2284903541677625 0)
(3.914264105489578 -3.433180670922424 0)
(9.152945760278019 -5.451423309041194 0)
(14.20371818514706 -7.551247966910309 0)
(-2.548854763068633 0.6231428536536291 0)
(0.7012780308015194 -2.164447180487007 0)
(6.881971079258933 -3.905088805039355 0)
(13.5392886670884 -5.542737382719787 0)
(-2.567531179036898 1.333044360873428 0)
(-0.4735689532404887 -0.2942682429058637 0)
(5.837249117948307 -0.1932711991149454 0)
(14.65778976949821 -3.799916181689755 0)
(14.68801814510193 -10.23881559647035 0)
(13.68206453905798 -10.3763107336153 0)
(12.41083437664767 -8.679015158429907 0)
(9.61106927764207 -7.408041455852873 0)
(15.84260891571761 -11.47621598263666 0)
(14.69917283311971 -13.0801947825852 0)
(12.11958810845408 -10.59565469123076 0)
(7.913538620717655 -9.175963490935169 0)
(15.88025030055373 -11.86626811261491 0)
(13.71896839435745 -13.08878425812687 0)
(10.07252887385451 -8.457965424654564 0)
(4.937351962907596 -6.118726789557675 0)
(13.69572219699493 -14.25737642562636 0)
(9.476306605308388 -10.21863956876796 0)
(5.087076919035479 -3.237535179708881 0)
(1.608785232056247 -0.9749212028366093 0)
(0.06108889712653306 0.1056365549399568 0)
(-0.6792211412250077 0.4336125482065942 0)
(-1.034476154088066 0.37109044276007 0)
(-1.11920856438248 0.09110135204140112 0)
(1.198595358704342 -3.513291751840824 0)
(-0.4908499825921275 -2.079027227107752 0)
(-1.209124824406107 -1.085437082510444 0)
(-1.2404646312276 -0.3730900545271882 0)
(4.049933683157116 -7.091791250014799 0)
(1.743650165458219 -5.394359937387872 0)
(0.6353646825929627 -3.399109875081874 0)
(0.4982169732817955 -1.150618926498251 0)
(6.914106775902463 -5.563909875710308 0)
(5.328055283412664 -4.289610320331711 0)
(4.808545635126626 -2.575730196133192 0)
(4.826107927883911 -0.7610693377997875 0)
(-1.119208564383432 -0.09110135203272436 0)
(-1.240464631231753 0.3730900545380742 0)
(0.4982169732739463 1.150618926504759 0)
(4.826107927864922 0.761069337779774 0)
(-1.03447615408888 -0.3710904427535837 0)
(-1.209124824407085 1.085437082521629 0)
(0.6353646825999101 3.399109875086928 0)
(4.808545635151574 2.575730196120004 0)
(-0.6792211412247011 -0.4336125481987292 0)
(-0.4908499825862826 2.0790272271121 0)
(1.743650165476635 5.394359937394219 0)
(5.328055283466992 4.289610320332375 0)
(0.06108889712856729 -0.1056365549390598 0)
(1.198595358708304 3.513291751848252 0)
(4.049933683165455 7.091791250030794 0)
(6.914106775931205 5.563909875724161 0)
(9.611069277643134 7.40804145586532 0)
(12.41083437664932 8.679015158437267 0)
(13.68206453906447 10.37631073362097 0)
(14.68801814510864 10.23881559646756 0)
(7.913538620719066 9.175963490941173 0)
(12.11958810845626 10.59565469122921 0)
(14.6991728331256 13.08019478258436 0)
(15.84260891572358 11.47621598263148 0)
(4.937351962911499 6.118726789556243 0)
(10.07252887385437 8.457965424656642 0)
(13.7189683943579 13.0887842581328 0)
(15.88025030055973 11.8662681126128 0)
(1.608785232054661 0.9749212028348601 0)
(5.087076919028707 3.237535179705575 0)
(9.476306605305481 10.21863956875987 0)
(13.6957221969991 14.25737642562624 0)
(14.65778976950294 3.799916181686686 0)
(5.837249117955101 0.1932711991130762 0)
(-0.4735689532249751 0.2942682428970326 0)
(-2.567531179010414 -1.333044360859996 0)
(13.53928866709228 5.542737382717378 0)
(6.881971079256898 3.905088805039032 0)
(0.7012780308061087 2.164447180471309 0)
(-2.54885476304896 -0.6231428536551205 0)
(14.20371818515081 7.551247966903879 0)
(9.152945760273507 5.451423309043025 0)
(3.914264105473441 3.433180670898903 0)
(-0.9359619326010493 -0.2284903541818757 0)
(14.35842458161801 8.910299622692346 0)
(9.912342996545703 7.498503246713842 0)
(6.540788113296207 5.706158353117301 0)
(2.628462592594238 0.3349481749574418 0)
(-0.08013637551324895 -3.089609855346976 0)
(0.3582437470965543 -3.333612976605376 0)
(1.69032387438549 -5.496026510543886 0)
(4.193371012158045 -7.439620419302955 0)
(0.4000476833510238 -4.286819867990202 0)
(0.4213711656930394 -6.680919563119015 0)
(1.375396358370605 -9.523546402931471 0)
(2.787209349263745 -12.3102236163212 0)
(0.04933849521297509 -3.742700962338092 0)
(0.8923388636118299 -8.022952581284263 0)
(1.605948309234711 -10.89681871372909 0)
(2.249292779396615 -13.30190468557725 0)
(-0.7461065839982818 -3.343533720765785 0)
(-0.6348202092868346 -8.055179695957369 0)
(0.1176020772004318 -10.92979722754262 0)
(0.7475165930858121 -13.11072340859969 0)
(7.487304925658205 -8.110032680117481 0)
(11.29109411770757 -2.010054703283366 0)
(32.91654316479071 4.640316881876113 0)
(30.65961148650468 -5.31686615457563 0)
(4.996598309256997 -13.72703020087514 0)
(7.935407041758141 -8.53139067385567 0)
(26.66749930109371 3.352248884397648 0)
(32.03531048336716 -4.552146001101661 0)
(3.204053836492757 -14.30659949547961 0)
(3.520030483589365 -10.62450515659358 0)
(17.09760315780661 6.454915965209848 0)
(31.53964836821628 -3.09068928750135 0)
(1.670379027682557 -13.84973603977567 0)
(1.286059648207069 -12.2990297216774 0)
(5.996465588845822 3.113717806731864 0)
(20.26053104365525 8.578863025659931 0)
(24.92913897687314 -10.24422105283752 0)
(20.95710800250216 -11.6530120039817 0)
(18.18077260148555 -11.92347968604205 0)
(16.59595562930152 -11.83073922854442 0)
(24.84005762181783 -12.3024039660243 0)
(20.6078905655041 -11.70988399266155 0)
(18.08377339751223 -11.84332972711622 0)
(16.52948585020992 -11.54755210709228 0)
(30.81716438344937 -18.00728951048103 0)