/*--------------------------------*- C++ -*----------------------------------*\
  =========                 |
  \\      /  F ield         | OpenFOAM: The Open Source CFD Toolbox
   \\    /   O peration     | Website:  https://openfoam.org
    \\  /    A nd           | Version:  11
     \\/     M anipulation  |
\*---------------------------------------------------------------------------*/
FoamFile
{
    format      ascii;
    class       volScalarField;
    location    "0.35923565";
    object      p;
}
// * * * * * * * * * * * * * * * * * * * * * * * * * * * * * * * * * * * * * //

dimensions      [0 2 -2 0 0 0 0];

internalField   nonuniform List<scalar> 
880
(
80.0000000000004
80.00000016385775
80.01345666442893
81.88034515969352
80.00000000017729
80.0000004813165
80.01669048445271
82.76389393054916
80.00000000090172
80.00000187777135
80.03089500414055
83.82258442110077
80.0000000120275
80.0000082456971
80.06380946009875
85.4075514989828
79.9999999446778
80.00000002780087
80.00000611601484
80.00009435552934
80.00003799652146
80.00014606424841
80.00091099947801
80.00134649678353
80.14459832094316
80.23457400704243
80.38548849318992
80.5377876280086
88.34436920002766
91.39560020119571
94.00066462428167
95.23497961405272
80.00023343509397
80.00190271080766
80.00718966988849
80.02228097846901
80.01262420885648
80.05407608358009
80.10847723382933
80.22875671872919
81.27049744985581
81.90766634857393
82.71482064553024
83.76512585136892
96.38507997019491
97.95088688690807
98.27349333000915
97.50849785515359
90.9866569962159
87.50957169152241
85.83751411382237
84.74258645479905
85.69174768377896
86.3714173719181
86.77397149898532
86.80859550308375
80.63879964406183
81.1235408847852
81.63900424166744
82.02323622554989
80.07908840175972
80.19128812185153
80.36115931963079
80.59965883586499
80.87775602834625
81.15708715482633
81.43362409145961
81.6400491107605
82.3128593811501
82.48081528831095
82.5676106854723
82.57335143253455
86.4490674194036
85.94968338614564
85.29455047907281
84.61630479655048
83.58709803042451
82.89854364372928
82.50698784255205
82.0791349984611
82.08344520425723
84.14365958144651
82.52050704019094
81.76637223835763
87.74225892970884
83.86378119005914
82.36950400221227
81.74666392134198
120.55699019865
85.26203616661884
82.18751110691905
81.49456732774378
158.3475493793985
93.05757324285371
82.67018767100383
81.40186856052381
81.37295110899191
83.39321998147751
102.7713134840367
175.0765232404127
80.87269742352748
84.75157591890471
113.7341576234645
174.2794052003763
81.08511274769835
87.90148549952346
128.3725016083648
176.1372677744566
81.89137242274305
93.58552704626148
142.2708360837535
173.4127901542714
167.70744072311
149.9507199680883
102.239733972588
83.66779076278114
160.7383841648032
151.190945099559
111.8298080021956
86.84021804956303
153.343147329684
148.9209023747038
120.125557509138
91.94271696990195
145.6346956346287
138.9087786333046
121.4587637174236
98.3123699282081
103.9488690468165
117.3638691812787
126.5676293914617
136.6078150140281
103.1375847310558
109.2148446169129
113.4275933296391
123.6649428938463
100.8366889164452
101.4842743659749
100.6813241814837
107.3274285114045
97.84654200743849
95.2240932884164
89.17511579090815
88.30752134258977
95.46834346765907
89.32756193032253
78.72372986105438
66.39564443892834
91.68568412095789
83.96082942860859
69.93164651324521
43.0637700184741
88.80544970884321
81.54220867908001
63.23956638116955
26.39393113544465
86.35648666243166
80.46176696701103
58.9910302007467
14.84812254363858
15.60565390090697
60.569100803014
79.58678646050078
84.17249578959193
24.7631542882907
61.36494438838243
78.9941801730355
82.70510671015401
27.33967183128479
61.04517778464855
78.13599223006101
81.7138389741484
25.83946426031837
60.43852595125779
77.52979369978887
81.17536426769416
31.26908016161156
63.06650968910196
77.20208937567809
80.23975565775002
36.95814370726281
65.60884928451516
77.11656701858092
79.68640263020481
43.59638516219972
68.84969223891061
77.31448404415499
79.66585330374016
51.42001681132798
71.09837576866622
77.69928136523586
79.73914569273212
53.28217710152235
58.94013842430905
73.28915442810906
79.26092798603615
51.93655952688422
60.14527421310854
73.51427935759635
79.25270619183608
49.49661892504977
61.86258602621306
74.01485293936483
79.25460530578816
47.17459636862993
63.82100112715786
74.73203485897797
79.31311943237482
51.42001681133222
71.09837576860697
77.69928136520842
79.7391456924075
43.59638516225537
68.84969223858502
77.31448404401216
79.66585330320483
36.95814370727389
65.60884928432546
77.11656701817961
79.68640262970543
31.26908016166274
63.06650968881488
77.20208937556816
80.23975565747816
84.17249578980885
79.58678646057432
60.56910080298185
15.6056539006345
82.7051067101052
78.99418017300464
61.36494438829469
24.7631542880189
81.71383897419948
78.13599223017026
61.04517778421636
27.3396718312268
81.17536426775153
77.52979370005052
60.43852595114264
25.8394642603042
14.84812254367884
58.99103020068129
80.46176696700519
86.35648666253984
26.3939311353282
63.23956638119363
81.54220867918386
88.80544970884608
43.06377001839133
69.93164651351512
83.96082942865891
91.68568412124856
66.39564443905542
78.72372986087147
89.32756192994532
95.46834346785408
103.9488690470977
117.3638691819349
126.5676293919711
136.6078150139623
103.137584730936
109.2148446167605
113.4275933298927
123.664942893893
100.8366889160097
101.4842743658506
100.6813241814815
107.3274285114618
97.84654200732987
95.22409328819882
89.17511579076798
88.30752134276842
145.6346956346055
138.9087786334117
121.458763717798
98.31236992902289
153.343147329579
148.9209023747658
120.1255575093067
91.94271697000228
160.7383841648378
151.1909450994196
111.8298080019617
86.84021804984164
167.7074407228407
149.9507199684069
102.2397339729517
83.66779076279916
81.37295110891553
83.39321998148968
102.7713134839635
175.0765232401096
80.87269742400852
84.75157591906328
113.7341576234587
174.2794051999733
81.08511274844159
87.90148550022259
128.3725016083538
176.1372677742854
81.89137242285919
93.58552704620463
142.2708360838394
173.4127901540549
81.40186856053606
81.4945673276555
81.74666392171137
81.7663722384202
82.67018767060485
82.18751110666774
82.36950400234601
82.52050704014415
93.05757324238886
85.26203616662826
83.86378118976461
84.14365958133384
158.3475493788777
120.5569901982724
87.7422589298308
82.08344520426465
81.64004911103287
82.57335143266899
84.61630479672316
82.07913499855911
81.43362409117276
82.56761068563166
85.29455047918789
82.50698784260454
81.15708715482236
82.48081528834133
85.94968338612561
82.89854364338316
80.87775602808026
82.31285938091199
86.44906741966911
83.58709803049494
80.0790884016286
80.63879964380222
85.69174768398805
90.98665699639628
80.19128812160388
81.12354088439358
86.37141737217806
87.50957169140813
80.36115931995364
81.63900424122193
86.77397149902188
85.83751411326148
80.59965883566922
82.02323622544425
86.80859550331293
84.74258645452238
97.50849785506122
83.76512585147304
80.22875671857092
80.02228097878682
98.27349332996893
82.71482064562237
80.10847723368525
80.00718966985959
97.9508868869418
81.90766634845203
80.05407608285489
80.00190271062071
96.38507997019677
81.27049744963621
80.01262420861543
80.00023343538167
95.23497961391138
80.53778762810742
80.00134649682246
80.00009435598372
94.00066462383619
80.38548849318329
80.00091099925962
80.00000611630176
91.39560020078999
80.23457400699765
80.0001460640816
80.0000000276608
88.34436919970005
80.14459832081201
80.00003799635472
79.99999994537085
80.00000000002807
80.00000016396199
80.01345666443636
81.88034515957014
80.00000000026193
80.00000048100623
80.01669048447467
82.76389393047866
80.00000000110963
80.00000187755403
80.03089500418636
83.82258442138719
80.00000001233936
80.00000824561874
80.06380946014964
85.40755149912633
83.52398576585956
85.09527303359562
87.6436800364644
92.78682187408374
85.0952730338857
87.15059675045157
90.99716601891036
98.69102618815002
87.6436800365982
90.99716601889463
97.31193098359591
106.8207920930374
92.78682187418731
98.69102618789525
106.8207920933966
117.1819534341876
127.9923945484733
119.0251653770689
115.1013221258629
106.8655572800308
126.279677938394
123.6456209050186
123.6040428299493
119.5300908314848
126.3198180777114
125.4943188734015
125.0506576700305
123.6401160320654
123.7373454912364
123.3302616697253
123.2434592867625
122.3928637714608
119.6767856317857
117.8559383691709
114.2518132538688
109.3401053073658
119.9429050058991
118.0398034634817
114.3867937547569
109.8050882485314
120.2785913701609
118.221573885443
114.3689902995432
110.2398989551155
120.4533712039366
118.1133115968453
114.5207703545486
108.5601459548802
82.83050398851215
71.90503940463852
70.60492170646999
70.98548379280354
75.82087056677825
69.03043634373242
69.65707003169723
70.38172917887992
69.99731469360331
68.89584245979049
70.22943958803378
70.92988705496946
60.73660875426394
66.59797051843633
69.23781686859799
70.19842939504539
70.93007491551693
71.29235623324561
72.10773241137602
73.05115597295429
70.47275969370439
70.85095066207106
71.73554181015021
72.9290383234121
70.90450485021063
71.13422830884713
71.87252223533551
72.80676804222564
70.29691567123912
70.6180903620088
71.55369405934253
72.84657143216575
78.67358031025017
114.0348246694991
165.0703896388338
181.4274495706821
81.36336501084676
121.5214867149528
162.5391328638573
173.2945593234346
83.49442405939122
125.2962438991289
161.3138306985599
171.995820919854
84.86360033058862
130.7122064376257
161.6591666689249
171.9728925720231
218.1626180181557
209.3375949802265
201.7907107755406
190.5376196363234
219.3305406781268
212.1166246337273
203.9477391344347
192.378160394239
218.3263622315154
213.6472794501196
205.0481903954176
193.4988471079013
213.2095910799297
215.5722015809032
206.9710844070334
195.2368692467616
178.1485020382669
167.8956951102294
158.274666783295
153.3866624331349
180.1468490045798
169.280163255309
158.9648026926429
153.7600000673487
181.2953454179308
169.4892040941823
159.5125691397425
153.725291727083
183.7016661937195
170.9143789123752
161.1739723256987
154.8235120362711
148.5697705045113
140.658193453855
126.774177410222
105.885075226107
149.2635722673122
142.1818701333771
128.8939466253375
114.3599972129033
149.2079195452453
142.6097458175786
130.6897859848823
119.6674749594866
150.3700722477145
144.9548917439578
134.0436877846817
134.5834633240022
64.62303182297755
16.54899919049247
2.69061678938901
1.28361994507491
49.9516373742399
10.3944702191508
2.242193555513436
1.464416282240233
34.73868481545732
6.571953213624156
1.96343215789865
1.620814063766739
19.55113776828978
3.061003776043016
1.7262015275861
1.813270924591609
1.929260043601734
4.153527993070315
6.785766030762428
10.67159754157081
2.736364465460305
5.087901933101763
7.800722052462978
11.94483469045613
3.199570680181169
5.472995415817796
8.646011206637796
12.64696051774464
3.753876063292993
6.199482149957511
10.0929591168525
13.79309669484855
12.51726273425939
18.94028859260721
26.03304503917067
34.74106874391791
12.12981946220416
17.87732593364501
24.72001732283949
33.23100258531962
12.44052824214746
16.35109253826874
22.8755298239704
32.23958179160599
11.69548506748187
14.46079144008061
19.06071534177572
30.28216694103899
35.03387487170965
33.20774158048117
32.5478962446182
33.17744645218475
31.86523783534873
31.78646687811498
32.24761122217826
32.35377662429672
31.0125614469057
32.65717946511464
32.9867151879652
33.02248112430558
29.23682932208557
31.45587125130678
31.77609581947599
32.50250907849651
32.92044340486791
33.23137434259261
33.49137626242594
33.61792615844836
32.97862612494664
32.93622350188792
32.84474002044917
32.95093475639577
32.92856594622638
33.39768105887594
33.83631866405016
34.09496152571472
34.75148475453905
35.80221735166931
36.5401276784014
36.54220819553872
33.61792615845017
32.95093475638178
34.09496152573166
36.54220819554325
33.49137626244231
32.8447400204443
33.83631866405885
36.54012767841215
33.23137434257156
32.93622350190514
33.39768105891672
35.80221735170294
32.9204434049227
32.97862612493128
32.92856594625044
34.75148475457923
33.17744645228684
32.54789624464057
33.20774158054384
35.03387487174722
32.35377662432029
32.2476112222264
31.78646687816735
31.86523783539162
33.0224811243507
32.98671518804166
32.65717946516008
31.01256144696261
32.50250907851083
31.77609581950484
31.4558712513467
29.23682932213621
30.28216694113228
19.06071534190034
14.46079144018176
11.69548506756757
32.2395817916839
22.87552982405169
16.35109253837557
12.44052824226592
33.2310025853977
24.72001732295085
17.87732593375861
12.12981946230383
34.74106874398057
26.03304503928131
18.94028859269234
12.51726273440429
10.67159754163099
6.785766030789843
4.153527993032203
1.929260043630481
11.94483469051359
7.800722052509028
5.087901933090661
2.736364465463502
12.64696051780849
8.646011206701212
5.472995415814854
3.199570680177242
13.79309669491141
10.09295911690383
6.199482149972702
3.75387606328986
1.283619945112909
2.690616789351708
16.54899919037934
64.6230318230035
1.464416282256581
2.242193555499921
10.39447021909471
49.95163737420943
1.620814063766754
1.963432157888243
6.571953213619357
34.73868481549678
1.813270924588591
1.726201527575048
3.061003776043219
19.55113776828773
105.8850752261647
126.7741774101941
140.6581934536159
148.5697705045116
114.3599972127957
128.893946625165
142.1818701332792
149.2635722670833
119.6674749594673
130.6897859847167
142.6097458176584
149.2079195451956
134.583463324112
134.0436877844663
144.9548917440653
150.3700722475651
153.3866624330743
158.2746667830093
167.8956951099898
178.148502037671
153.7600000672575
158.9648026926043
169.2801632544643
180.1468490039044
153.725291727254
159.512569139392
169.4892040934392
181.2953454173493
154.8235120361632
161.1739723255282
170.9143789119762
183.7016661932946
190.5376196359146
201.7907107752042
209.3375949799541
218.1626180182211
192.3781603939841
203.9477391342105
212.1166246333419
219.330540678172
193.4988471077478
205.0481903951319
213.6472794498557
218.3263622314697
195.236869246669
206.9710844068771
215.5722015804112
213.2095910801727
181.4274495706844
165.0703896385747
114.0348246695623
78.67358031053254
173.2945593233504
162.5391328636833
121.5214867149933
81.36336501114538
171.9958209197638
161.3138306984125
125.2962438991186
83.49442405970406
171.9728925717257
161.6591666687818
130.7122064376123
84.86360033091168
73.05115597317642
72.10773241111342
71.29235623273118
70.93007491515422
72.92903832366757
71.73554181004647
70.85095066154487
70.47275969348301
72.80676804250457
71.87252223518324
71.13422830834084
70.90450484998928
72.84657143244054
71.55369405911516
70.61809036148406
70.29691567088217
70.98548379235996
70.60492170612655
71.90503940476501
82.83050398864978
70.38172917845071
69.65707003127982
69.03043634395212
75.820870566865
70.92988705454131
70.22943958760204
68.89584246004567
69.99731469365271
70.19842939461057
69.23781686808388
66.59797051867722
60.73660875434391
109.3401053074
114.2518132538897
117.8559383694719
119.6767856316641
109.8050882485378
114.3867937550168
118.0398034636782
119.9429050056737
110.239898955111
114.3689902995259
118.2215738854861
120.2785913699889
108.5601459548531
114.5207703548041
118.1133115971594
120.4533712037762
122.3928637708605
123.6401160311229
119.5300908306742
106.8655572800058
123.243459285913
125.0506576690976
123.6040428286469
115.1013221253895
123.3302616690612
125.4943188723313
123.6456209035117
119.0251653759755
123.7373454904902
126.3198180767832
126.2796779364937
127.9923945463248
54.09194370006738
71.27154680791027
77.56391926772342
79.75944336335861
50.81860815958804
69.89469564707116
76.93570380071108
79.66603972907434
48.22205270556239
68.2388759507062
76.32177895947092
79.54990110527355
46.39900594411638
65.93401800459921
75.50439887251015
79.42096762743675
79.26092798595413
73.28915442812455
58.9401384243003
53.28217710160106
79.25270619169785
73.51427935760086
60.14527421309468
51.93655952691233
79.25460530575289
74.01485293947451
61.86258602615131
49.49661892512214
79.31311943230232
74.73203485892834
63.82100112712464
47.1745963686954
79.42096762725116
79.54990110517383
79.66603972894451
79.75944336309408
75.50439887226042
76.32177895935816
76.93570380034626
77.56391926751647
65.93401800466778
68.23887595065609
69.89469564721355
71.27154680808651
46.39900594409919
48.22205270550162
50.81860815958557
54.09194370011897
)
;

boundaryField
{
    back
    {
        type            empty;
    }
    inlet
    {
        type            zeroGradient;
    }
    front
    {
        type            empty;
    }
    top
    {
        type            zeroGradient;
    }
    outlet
    {
        type            fixedValue;
        value           uniform 80;
    }
    bottom
    {
        type            zeroGradient;
    }
    wall
    {
        type            zeroGradient;
    }
}


// ************************************************************************* //
