/*--------------------------------*- C++ -*----------------------------------*\
  =========                 |
  \\      /  F ield         | OpenFOAM: The Open Source CFD Toolbox
   \\    /   O peration     | Website:  https://openfoam.org
    \\  /    A nd           | Version:  11
     \\/     M anipulation  |
\*---------------------------------------------------------------------------*/
FoamFile
{
    format      ascii;
    class       volVectorField;
    location    "0.35923565";
    object      U;
}
// * * * * * * * * * * * * * * * * * * * * * * * * * * * * * * * * * * * * * //

dimensions      [0 1 -1 0 0 0 0];

internalField   nonuniform List<vector> 
880
(
(24.99999999999999 -2.806072831080758e-12 0)
(24.99999998203183 -1.217411498662781e-08 0)
(24.99829024799718 -0.000555404490002742 0)
(24.71736365053473 0.007624578441728422 0)
(24.99999999998872 -2.831303802212934e-11 0)
(24.99999994445427 -7.039724328226415e-08 0)
(24.99747958888242 -0.001722080778851631 0)
(24.63269745973988 -0.1593358730671919 0)
(24.99999999963697 -2.437775212119819e-10 0)
(24.99999976102305 -2.871834414800173e-07 0)
(24.99514555666203 -0.00358446446310064 0)
(24.51360384579646 -0.2644843956755017 0)
(24.99999999829957 1.052109859571574e-09 0)
(24.9999988181946 -1.167840573411515e-06 0)
(24.98908582864664 -0.007016759961565153 0)
(24.13724768588003 -0.413721865473778 0)
(25.0000000111903 -4.11433566226438e-09 0)
(24.99999998001881 8.779173923270107e-09 0)
(24.99999953213299 -9.298422567553589e-07 0)
(24.99999314126271 -1.184366330997482e-05 0)
(24.99999376807887 -4.448651801595992e-06 0)
(24.99996304614169 -1.867013800143943e-05 0)
(24.99985589118394 1.067312315877682e-05 0)
(25.00017477351759 -0.001107681061795098 0)
(24.97171081331206 -0.01019833373491262 0)
(24.95164311167085 -0.0063603978437472 0)
(24.9241468445132 0.0107310169174053 0)
(24.91407814987805 -0.06683427723802632 0)
(23.40264428283294 -0.09542236419265579 0)
(22.6901766927519 0.6348499324926177 0)
(22.26855862135192 1.335026329776945 0)
(22.24430610883473 1.746227840687395 0)
(24.99988402760394 -6.197927934769887e-06 0)
(24.99960662010588 -0.0003640875408098739 0)
(24.99925376170427 -0.001529045193941258 0)
(24.99747571663957 -0.004522216097664324 0)
(24.99801877325525 -0.000693098187693196 0)
(24.99019685291852 -0.0003535383022675618 0)
(24.97715040529017 0.005493417231831666 0)
(24.95441966097123 0.008911096872628761 0)
(24.75586142585368 -0.01080194106744975 0)
(24.63017886336932 0.09839484427131771 0)
(24.46165253275759 0.2785198060604414 0)
(24.31834844414315 0.4062575294340285 0)
(21.98167589989439 2.340707098038714 0)
(21.98732984110862 2.779770588564838 0)
(21.88512520664892 3.317360902890666 0)
(22.33926167203955 3.758407639626572 0)
(23.38567802654793 4.323112420522048 0)
(24.11422522057487 4.173020222170891 0)
(24.45809953268088 3.766265090758279 0)
(24.81733004991828 3.316632785365371 0)
(24.07886090812102 0.7463985725392729 0)
(24.09385913295261 1.10440261561252 0)
(24.19612008974396 1.349488081796321 0)
(24.38213495856512 1.475561249554908 0)
(24.875641262033 0.03529359002502892 0)
(24.77190366582411 0.1155044752990829 0)
(24.67954079827755 0.241273153527614 0)
(24.63421561678626 0.3945567536566048 0)
(24.98787379111018 -0.01055567083065278 0)
(24.97236302863287 -0.02426007180774081 0)
(24.95024720655979 -0.04404389295767214 0)
(24.92405165761189 -0.07056204766205552 0)
(24.9014917165641 -0.1010171998758333 0)
(24.88771182341709 -0.1311315448142673 0)
(24.88284709098842 -0.1445269138608644 0)
(24.88832797054343 -0.1379808219630735 0)
(24.63263869833399 0.5574749578693647 0)
(24.67445868714772 0.7120242642044825 0)
(24.76092418382181 0.8382229971070222 0)
(24.87669324322388 0.8925665940097414 0)
(24.5495412356613 1.60877304233828 0)
(24.75258060363619 1.654943686011842 0)
(24.94052793350151 1.627180807128968 0)
(25.09323418805984 1.555464073467511 0)
(24.99115112337015 2.905790283125642 0)
(25.17872873299428 2.48959692030767 0)
(25.29112402710128 2.094356623620625 0)
(25.36345442950971 1.778074458755086 0)
(25.42831662790033 1.377467472108485 0)
(25.24435278500899 1.453728265761024 0)
(24.99916150146385 0.9127361394998441 0)
(24.89607497074172 -0.1212250420700076 0)
(24.54807633888893 1.559490439073133 0)
(25.34338646369046 1.289313386031657 0)
(25.14340580800331 0.861775310929155 0)
(24.90333259391486 -0.09618206502910853 0)
(19.15452099392711 1.728676653767695 0)
(25.15905747922599 1.297209948688932 0)
(25.25814801393771 0.7517575482060189 0)
(24.91621899919249 -0.08053366411030001 0)
(14.12718404035095 2.095950524139343 0)
(23.70235957287284 1.628786689627596 0)
(25.2771204298 0.7747366303985757 0)
(24.94896509445183 -0.09185039491140939 0)
(24.95452835717926 -0.06679377470550601 0)
(25.21733520792986 0.7182168125326402 0)
(22.05151250665205 2.269335284062261 0)
(12.48987693427915 3.860291501363416 0)
(24.83136721610639 -0.08882752435065498 0)
(24.99460181437828 0.8082282763987572 0)
(20.60604426891886 3.314537622623332 0)
(12.79860226720023 5.64054492329878 0)
(24.78950975064819 -0.1158492779475219 0)
(24.47446112647561 1.156884459017101 0)
(18.82501851492993 4.649451773792656 0)
(12.64754458048027 7.078641760363795 0)
(24.69832280243901 -0.1634646949760494 0)
(23.59936858615166 1.928786271569231 0)
(17.58780293111552 6.058347786960964 0)
(13.13583620946189 8.144183592321118 0)
(14.04754482059075 8.855737146076414 0)
(16.96793568887794 7.293783929664854 0)
(22.43006345144539 3.156590521950504 0)
(24.51832783359852 -0.1864963288677135 0)
(15.13572746286813 9.393303506110877 0)
(17.24088877758038 8.2193651299291 0)
(21.21733414658938 4.641897330348978 0)
(24.1984633396955 -0.07130497027580178 0)
(16.37658669528719 9.684274626962905 0)
(18.11055371641489 8.754313314535006 0)
(20.70757879038598 5.995883022506007 0)
(23.69390819291753 0.2364048609776346 0)
(17.54806091693688 9.756794211500832 0)
(19.39761089362195 8.854132408726649 0)
(20.87609302669711 7.035950468655521 0)
(23.19630292930905 0.7228965169857728 0)
(22.91099745741288 0.8509477632885045 0)
(22.04904574835676 7.09113539716624 0)
(21.12108281128798 8.806656403743096 0)
(18.96385611732071 9.897794954417193 0)
(23.45623015055074 0.646370490924317 0)
(23.50851381106944 6.648116901172285 0)
(23.10797876790818 8.415245958334344 0)
(20.90706188485654 9.810493017992929 0)
(24.04000913218561 0.3441044036210181 0)
(24.93162798162959 5.875071392389398 0)
(25.19364557825804 7.620152530346219 0)
(23.4473544299432 9.238274489039146 0)
(24.51868662817829 -0.2494488308128512 0)
(26.06332229120409 4.606849065686595 0)
(27.16638941916972 6.226687605349954 0)
(26.40059702607295 7.616383435048815 0)
(24.88419266413365 -0.3075657247486259 0)
(26.92925451951566 3.628093676606528 0)
(29.04978907572476 4.804325065834125 0)
(30.6834611577585 4.759022963493165 0)
(25.30046343722718 -0.4989502526638316 0)
(27.49765126566787 2.601741215844474 0)
(30.11083316720559 3.390621922050857 0)
(34.00250799762646 0.7046129096062872 0)
(25.54326795759704 -0.5425548283970149 0)
(27.54994851527689 1.647317328684282 0)
(30.83474968381165 1.256058641915092 0)
(36.34819745417511 -4.253963219911286 0)
(25.65368623743178 -0.5437335052032145 0)
(27.22444293336443 1.022792050896107 0)
(30.31234367062576 -0.3107729394742513 0)
(37.77915999853716 -9.251831905350926 0)
(34.01925825507883 -7.327988042903277 0)
(29.13038826913806 -1.417300091455716 0)
(26.94232004860496 0.355489886882396 0)
(25.69370652438546 -0.5467459746131066 0)
(25.63438245590398 -3.215007430753924 0)
(28.24645485286864 -1.936566175358823 0)
(26.64810010559072 -0.1001426338090237 0)
(25.62904731336305 -0.4720500148609764 0)
(23.08903296478969 -3.612743866138736 0)
(27.75005077140275 -2.841725651579007 0)
(26.39348785420014 -0.5594292331886589 0)
(25.50626078682754 -0.3592839803826205 0)
(19.90309807416789 -3.659479141266627 0)
(26.97782005864735 -3.45013332769253 0)
(26.04929790827522 -0.9532359142481968 0)
(25.38979079755218 -0.2751009423589381 0)
(18.08525277914609 -4.760168406385857 0)
(25.72426971030083 -4.391146215083329 0)
(25.48600732041548 -1.289818161370532 0)
(25.18021375050507 -0.2156655669095716 0)
(15.4332329143748 -6.813654540223751 0)
(24.08648079600673 -4.635052101836695 0)
(24.89651557590463 -1.125727535193587 0)
(25.00123526959911 -0.1079241944338341 0)
(14.37828557655181 -6.976693938053923 0)
(23.02531592894948 -4.048535413338447 0)
(24.65192832358731 -0.7359013863664167 0)
(24.9708108989745 -0.04913471164341596 0)
(14.33666781993147 -5.861280291908599 0)
(22.80033696869707 -3.600457251405099 0)
(24.67303748252758 -0.6014492064179532 0)
(24.97608509418857 -0.03607881604833057 0)
(14.22229008622853 -0.6632626628012313 0)
(20.34306104148311 -0.1132438350782671 0)
(23.64827274290009 0.01058000505360497 0)
(24.85559676663731 0.001982421505660313 0)
(14.2038830811636 -1.755772363962636 0)
(20.3397019912347 -0.5377886928193107 0)
(23.66318463910606 0.0006327024229001543 0)
(24.8525397424663 0.004365046748630958 0)
(14.41820278919891 -3.256101012329049 0)
(20.34761569589777 -0.987888615265768 0)
(23.70250433376701 -0.07175359643803783 0)
(24.8517894487959 0.0002503821754613924 0)
(14.47002067231176 -4.649569783998856 0)
(20.55621367093968 -1.352416198268019 0)
(23.80223672015845 -0.1947131325203343 0)
(24.86017529310733 -0.01139007690557641 0)
(14.33666781994905 5.86128029188948 0)
(22.80033696872146 3.60045725139729 0)
(24.67303748263906 0.6014492063708289 0)
(24.97608509429795 0.03607881602896366 0)
(14.37828557658232 6.976693938028851 0)
(23.02531592902607 4.04853541338986 0)
(24.65192832363878 0.7359013863508869 0)
(24.97081089905191 0.04913471168952895 0)
(15.43323291442737 6.813654540247366 0)
(24.08648079604192 4.635052101878345 0)
(24.89651557589447 1.125727535237818 0)
(25.00123526964169 0.1079241944842386 0)
(18.08525277917007 4.760168406387657 0)
(25.7242697103924 4.391146215150947 0)
(25.48600732042888 1.289818161404727 0)
(25.18021375050794 0.2156655669576369 0)
(25.69370652434879 0.5467459745545783 0)
(26.94232004862989 -0.3554898869168329 0)
(29.13038826914914 1.417300091447296 0)
(34.01925825500265 7.327988043030934 0)
(25.6290473133583 0.4720500148095042 0)
(26.64810010560034 0.1001426338017374 0)
(28.24645485291011 1.936566175363437 0)
(25.63438245595871 3.215007430855755 0)
(25.50626078677676 0.3592839803364812 0)
(26.39348785417528 0.559429233214629 0)
(27.7500507714887 2.841725651711722 0)
(23.08903296472624 3.612743866183297 0)
(25.38979079747688 0.2751009423384015 0)
(26.0492979082071 0.9532359142199479 0)
(26.97782005867209 3.450133327770518 0)
(19.90309807422068 3.659479141292126 0)
(37.77915999864621 9.251831905510642 0)
(30.31234367062891 0.3107729394690007 0)
(27.22444293340786 -1.022792050904472 0)
(25.65368623742004 0.5437335051559613 0)
(36.34819745418351 4.253963219960368 0)
(30.8347496838398 -1.256058641873261 0)
(27.54994851531843 -1.647317328690987 0)
(25.54326795757331 0.5425548284090868 0)
(34.00250799762714 -0.704612909564411 0)
(30.11083316715959 -3.390621922033186 0)
(27.49765126570453 -2.601741215822032 0)
(25.30046343710165 0.498950252732592 0)
(30.68346115772005 -4.759022963474005 0)
(29.04978907576583 -4.80432506580453 0)
(26.92925451960878 -3.628093676577408 0)
(24.88419266402014 0.3075657248365605 0)
(22.91099745734227 -0.8509477632698934 0)
(22.04904574829248 -7.09113539716859 0)
(21.12108281124457 -8.806656403745839 0)
(18.96385611733994 -9.8977949544176 0)
(23.45623015053572 -0.6463704908798636 0)
(23.5085138110733 -6.648116901166964 0)
(23.10797876786013 -8.41524595831654 0)
(20.90706188486665 -9.810493017991853 0)
(24.04000913224393 -0.3441044036011309 0)
(24.93162798166325 -5.875071392400302 0)
(25.19364557822545 -7.620152530321556 0)
(23.44735442993867 -9.238274489025821 0)
(24.5186866281461 0.2494488308825591 0)
(26.0633222912668 -4.606849065663224 0)
(27.1663894191742 -6.226687605316218 0)
(26.40059702603714 -7.616383435034098 0)
(17.54806091695559 -9.75679421150569 0)
(19.39761089362814 -8.854132408740128 0)
(20.87609302665439 -7.035950468651855 0)
(23.1963029291678 -0.7228965170018143 0)
(16.37658669531994 -9.684274626981262 0)
(18.1105537164419 -8.754313314543761 0)
(20.70757879036747 -5.995883022513904 0)
(23.69390819288316 -0.2364048609743694 0)
(15.13572746287851 -9.393303506124077 0)
(17.24088877763324 -8.219365129929626 0)
(21.21733414660777 -4.641897330323115 0)
(24.19846333961656 0.07130497028284591 0)
(14.04754482062376 -8.855737146079544 0)
(16.96793568887972 -7.293783929632205 0)
(22.43006345135966 -3.156590521916648 0)
(24.51832783357667 0.1864963288692288 0)
(24.95452835719912 0.06679377472819045 0)
(25.21733520793402 -0.7182168125064216 0)
(22.05151250667891 -2.269335284076032 0)
(12.48987693432033 -3.860291501369407 0)
(24.83136721600432 0.08882752434890555 0)
(24.99460181436456 -0.8082282763547669 0)
(20.60604426894144 -3.31453762262332 0)
(12.79860226724058 -5.640544923321499 0)
(24.78950975048387 0.1158492779408431 0)
(24.47446112635707 -1.1568844589535 0)
(18.82501851495694 -4.649451773763357 0)
(12.64754458050626 -7.078641760368432 0)
(24.69832280238973 0.1634646949792264 0)
(23.59936858617979 -1.928786271493602 0)
(17.58780293117668 -6.058347786935646 0)
(13.13583620947844 -8.144183592327211 0)
(24.94896509443099 0.09185039492523826 0)
(24.91621899921035 0.08053366412287495 0)
(24.90333259383992 0.09618206505876359 0)
(24.89607497073248 0.1212250420663689 0)
(25.2771204298789 -0.7747366304000408 0)
(25.2581480140028 -0.7517575481968869 0)
(25.14340580794478 -0.8617753109168776 0)
(24.99916150144223 -0.9127361395155575 0)
(23.70235957296505 -1.628786689646544 0)
(25.15905747923968 -1.297209948693309 0)
(25.34338646374701 -1.289313386044557 0)
(25.24435278503367 -1.453728265753743 0)
(14.1271840404098 -2.095950524142047 0)
(19.15452099399354 -1.72867665376338 0)
(24.54807633886268 -1.559490439047536 0)
(25.42831662789233 -1.377467472082891 0)
(24.88832797049464 0.1379808219703015 0)
(24.87669324317223 -0.8925665939891411 0)
(25.09323418804931 -1.555464073442363 0)
(25.36345442953353 -1.778074458704383 0)
(24.88284709105089 0.1445269138416134 0)
(24.76092418376943 -0.8382229970993476 0)
(24.94052793352389 -1.62718080710725 0)
(25.29112402711487 -2.094356623578357 0)
(24.88771182340933 0.1311315448049807 0)
(24.67445868714233 -0.7120242641524406 0)
(24.75258060369609 -1.654943686024433 0)
(25.17872873304615 -2.489596920307483 0)
(24.90149171661744 0.1010171997949308 0)
(24.63263869835447 -0.5574749578476021 0)
(24.54954123565161 -1.608773042333175 0)
(24.99115112338805 -2.905790283117203 0)
(24.9878737911079 0.01055567074551519 0)
(24.87564126212793 -0.03529358993118203 0)
(24.07886090812037 -0.7463985725312434 0)
(23.38567802652713 -4.32311242049626 0)
(24.97236302867167 0.02426007169180939 0)
(24.77190366591319 -0.1155044752277764 0)
(24.09385913296832 -1.104402615577685 0)
(24.11422522060909 -4.173020222174723 0)
(24.95024720647001 0.04404389293076625 0)
(24.67954079838624 -0.2412731534565372 0)
(24.19612008979956 -1.349488081797716 0)
(24.45809953279158 -3.766265090807579 0)
(24.92405165764611 0.0705620475939913 0)
(24.63421561680605 -0.3945567536031334 0)
(24.38213495861238 -1.475561249518698 0)
(24.81733004996426 -3.316632785389824 0)
(22.33926167206267 -3.758407639613955 0)
(24.31834844414132 -0.4062575294372973 0)
(24.95441966106023 -0.008911096777823214 0)
(24.99747571658705 0.00452221608439075 0)
(21.88512520667716 -3.317360902874445 0)
(24.46165253274869 -0.2785198060645295 0)
(24.97715040533977 -0.005493417193853206 0)
(24.99925376173947 0.001529045162919433 0)
(21.98732984113528 -2.779770588553598 0)
(24.63017886341555 -0.09839484427720424 0)
(24.99019685307131 0.0003535383092726445 0)
(24.99960662012452 0.0003640874191399435 0)
(21.98167589989845 -2.340707098022289 0)
(24.75586142591656 0.01080194105994722 0)
(24.99801877333143 0.0006930982028453863 0)
(24.99988402758639 6.19794220249523e-06 0)
(22.24430610880724 -1.746227840672445 0)
(24.91407814988445 0.06683427724257847 0)
(25.00017477354078 0.001107681081081365 0)
(24.99999314123308 1.184370654412845e-05 0)
(22.26855862129982 -1.335026329763837 0)
(24.9241468445251 -0.0107310169205852 0)
(24.99985589124218 -1.067312399603914e-05 0)
(24.99999953209123 9.298515271238736e-07 0)
(22.69017669260071 -0.6348499325014981 0)
(24.95164311169709 0.006360397834853642 0)
(24.99996304619389 1.867012875168107e-05 0)
(24.99999998004261 -8.824589300004954e-09 0)
(23.40264428261095 0.09542236414567878 0)
(24.97171081337282 0.01019833372962399 0)
(24.99999376816062 4.448664859722755e-06 0)
(25.00000001114298 4.117502557163513e-09 0)
(25.00000000000002 5.954701865127583e-12 0)
(24.99999998201898 1.215740554965349e-08 0)
(24.99829024799227 0.000555404472103607 0)
(24.71736365050731 -0.007624578284999017 0)
(24.99999999997173 4.182343705484764e-11 0)
(24.99999994453042 7.037377093942958e-08 0)
(24.99747958888318 0.001722080756475398 0)
(24.63269745952551 0.1593358731375081 0)
(24.99999999962681 2.564842857514811e-10 0)
(24.99999976109916 2.871871397773847e-07 0)
(24.99514555666797 0.003584464449744987 0)
(24.51360384545083 0.2644843956061646 0)
(24.99999999828481 -1.02621845521248e-09 0)
(24.99999881823999 1.167853227645993e-06 0)
(24.98908582865248 0.007016759951276708 0)
(24.13724768560838 0.4137218654182803 0)
(24.52527729653028 1.098743198464001e-10 0)
(24.35980027976316 0.1495547594801449 0)
(23.97405343340025 0.1736329988254031 0)
(23.03856139062595 0.01871784777821537 0)
(24.35980027997947 -0.1495547592631342 0)
(24.08844241761097 4.09654271654209e-11 0)
(23.40958327766492 -0.0603107455635435 0)
(21.96067762396219 -0.4863792345501758 0)
(23.97405343384807 -0.1736329987325121 0)
(23.40958327800756 0.06031074563943416 0)
(22.12863025501636 6.328552301266017e-11 0)
(20.03097380653534 -0.5819750850756903 0)
(23.03856139104455 -0.01871784779888076 0)
(21.96067762448454 0.4863792344917548 0)
(20.03097380684031 0.5819750850301397 0)
(17.78920061398896 -2.400793364855437e-10 0)
(17.25879622636096 2.521585734227286 0)
(17.89936309112009 2.917351205922248 0)
(19.54340889154612 2.655844515878708 0)
(21.08694894886134 1.887814632714909 0)
(18.24492160665562 4.246789508282124 0)
(18.3081363422132 4.203004451261445 0)
(19.04067002344505 4.114783125681677 0)
(20.07398888542185 3.952548241914142 0)
(17.68386933176289 5.193203620327115 0)
(18.85058460681334 4.491074409068561 0)
(19.52793403048104 4.691880174539182 0)
(20.0523471349583 4.56375037772275 0)
(18.33526491630969 5.75422244693686 0)
(19.70556509802399 4.717196050518471 0)
(20.20572542460788 4.891234660589004 0)
(20.49071026336706 4.805576041105311 0)
(20.79097424601967 4.932707308325041 0)
(21.02926507226729 5.061731649997268 0)
(21.40435774661826 5.120580559201904 0)
(22.16085270015235 5.280349242378921 0)
(20.72901113332958 4.994248978301049 0)
(21.03869592757216 5.10157101306941 0)
(21.53837309039615 5.117414432648743 0)
(22.65128997469997 5.500672475793795 0)
(20.47285549916064 4.931260595282549 0)
(20.97344440635517 5.105924164496052 0)
(21.55537132659437 5.158192244452062 0)
(24.10137258766526 5.943007532917652 0)
(18.97617900535407 5.851121838153595 0)
(19.59933704507038 5.875950862198922 0)
(20.50317875874265 5.734761751056568 0)
(25.83119145705645 7.125898936571973 0)
(25.81525776350519 3.187581997033933 0)
(26.409453383137 0.8090346402154772 0)
(25.72185826200241 0.4870783953901699 0)
(25.59509925587856 0.3820583807523381 0)
(28.37610926342867 2.198782227328512 0)
(28.69592285425869 0.3397473514558769 0)
(27.56801898235204 0.2832496330617539 0)
(26.89269683436455 0.3137580390026877 0)
(31.54902423399034 1.904714867967394 0)
(30.14994929028248 0.04577628263628839 0)
(28.75773490446759 0.05144590386245873 0)
(27.77933141583744 0.09386646555999728 0)
(25.07990693760003 1.987935002105134 0)
(24.2174728111922 0.6522665914987835 0)
(24.072323754017 0.08970466616737402 0)
(24.15978565688897 -0.2164444670154045 0)
(25.66542524991034 0.3867737124042688 0)
(25.71343723573696 0.3198138127302961 0)
(25.70095527180841 0.2051404483897512 0)
(25.65343171998147 0.1716706508182698 0)
(26.53712078671827 0.3417383775231295 0)
(26.22459679161117 0.291514683274161 0)
(25.94663110923764 0.1915964414964817 0)
(25.72127179506548 0.1306877315951739 0)
(27.15029862992382 0.1478464485113025 0)
(26.5922422030347 0.147193552004198 0)
(26.09880704035079 0.0983048679766632 0)
(25.66597993632883 0.08514282770404065 0)
(24.13123525901824 -0.4622499452229137 0)
(23.90331584467321 -0.6207333160848134 0)
(23.70231830921846 -0.7154381301111877 0)
(23.36993776832569 -0.6662469270372308 0)
(25.2055582351111 0.7716924340739457 0)
(20.0925118625918 5.098258471070869 0)
(13.72002560309124 3.924565993659896 0)
(9.345245406586606 1.059337831246508 0)
(24.62764760558272 1.255330789018802 0)
(16.07240172731753 4.951595376563163 0)
(8.863885362193228 2.740866060512977 0)
(4.471065885833544 -0.1764299456298342 0)
(23.43575887796125 1.29502063470019 0)
(11.69349345090495 3.634450270952161 0)
(3.139748898323754 2.029170227762783 0)
(-0.7690095174487452 0.2418297457737719 0)
(19.41407330712527 -0.7286073663620113 0)
(7.302955549277178 -0.7958048451803166 0)
(0.2337660966655526 0.542984689084844 0)
(-2.595577553159802 0.1744010062268006 0)
(8.569177335915539 2.693904942074503 0)
(10.585355347207 4.559496447045327 0)
(11.49759546557075 6.280339411946149 0)
(12.44951192531383 7.625631103206645 0)
(6.136714585943081 1.993702964295137 0)
(9.511381984445935 4.411055859421847 0)
(11.2012772557436 6.226214034578367 0)
(12.40430141327709 7.672156769164189 0)
(2.933347436270507 0.01199476245553858 0)
(7.442511120941883 3.331980649401745 0)
(10.26714921626818 6.036198738842759 0)
(12.02122034975434 7.596920875328808 0)
(0.239569950364973 -0.1062399723820322 0)
(3.470314030356513 2.476001961506547 0)
(7.538076196627311 3.976214316646892 0)
(10.63465209645379 5.463992620979308 0)
(13.63848559810076 8.98647401341737 0)
(14.7705337172553 10.00814136708762 0)
(15.91944593261517 10.5657888192683 0)
(16.81353231130662 10.8559942527972 0)
(13.55815740736172 8.920994918799394 0)
(14.71380933892146 9.954787584780792 0)
(15.82396410814762 10.54167560812891 0)
(16.696403341603 10.88142553701453 0)
(13.23585898111886 8.764170435453488 0)
(14.51737735476324 9.775726506847755 0)
(15.74209684754397 10.47463395769641 0)
(16.6230789597739 10.96198759738604 0)
(13.11736582558835 6.748236656111802 0)
(14.672005576222 8.448593700441094 0)
(15.76612216473768 10.30181680287487 0)
(16.64566842519712 10.93922011512339 0)
(17.82792605080556 11.27568824935513 0)
(19.42338068822216 11.76985188166014 0)
(21.77504435688838 11.69322026161643 0)
(24.77797605559669 10.42095423923933 0)
(17.62278809467116 11.27977052079265 0)
(19.07492862749646 11.72985897337798 0)
(21.21153527652847 11.74952199914954 0)
(24.97582159574991 12.47346790986031 0)
(17.47371367798175 11.36886621057604 0)
(18.72297983232022 11.78346656602137 0)
(21.3454764684268 12.58553914437332 0)
(31.48514903813282 18.4588324466481 0)
(17.43736566128562 11.39313121033705 0)
(18.64012438805181 11.79211878917948 0)
(22.0680709208426 13.17484098570647 0)
(43.24393092016275 25.51572904124621 0)
(30.5938718492447 5.261201065185093 0)
(32.03810071578641 -3.582405253950144 0)
(12.65433150964144 8.691328824963163 0)
(7.857815116616867 30.84075938003702 0)
(32.2313438374611 4.900224533699011 0)
(26.46678149672735 -1.952379165125384 0)
(8.976540463321696 17.41679569011779 0)
(8.448251032772609 29.02677940110283 0)
(31.97400326130817 3.292516384442891 0)
(17.20844484540914 -4.302840484584762 0)
(3.828926766453706 21.32884213011232 0)
(4.61197766780728 29.02648985105625 0)
(20.30819256709813 -8.299024659306468 0)
(7.328047807408614 -0.5716186947645954 0)
(2.088292164507032 24.81801609763802 0)
(2.648151590020738 28.73387391249232 0)
(7.017742590193539 24.62058515999558 0)
(2.699454262580717 17.69689575383472 0)
(-0.773448159077795 14.87145711860878 0)
(-2.833119971192837 9.937922872306565 0)
(6.712157901898534 23.57246597965031 0)
(1.914961913674856 19.24734895490863 0)
(-0.4568756493447424 14.98164335377655 0)
(-1.25360198364543 7.687144960724019 0)
(3.278175247079426 22.61471279774637 0)
(1.430367286029079 18.10663182057795 0)
(-0.3154329949423097 12.35856705972646 0)
(-0.8159265859014664 4.900415351391836 0)
(0.7861674661357386 22.03869857458749 0)
(-0.4547278736796097 17.36654193412134 0)
(-1.909240694871338 10.96800731880582 0)
(-1.7388514191799 3.285177430388075 0)
(-6.073767194258861 3.289714487854824 0)
(-2.016634727723389 0.2620995899026691 0)
(2.429072483545675 -2.420552647705866 0)
(4.457054401253581 -6.63222147640467 0)
(-6.812370510520673 3.051086027272591 0)
(-5.955657693330077 0.3486851811745347 0)
(-1.266658234590409 -0.7974141498096542 0)
(2.679206186757233 -5.575545915739329 0)
(-6.212833537911798 2.126668966801101 0)
(-7.806324563820098 0.6686809201059891 0)
(-4.517797400863917 0.3046301730098822 0)
(0.03255719904485123 -4.086241816819764 0)
(-4.585709521243147 2.184266234625326 0)
(-7.136578879288043 2.668526625441784 0)
(-5.229364822826446 3.072700912210668 0)
(-0.6497549354885542 -1.052238778808682 0)
(2.361428535245393 -6.935591224771845 0)
(2.293337566414265 -7.541108804908317 0)
(3.156964988603861 -7.215792912792137 0)
(4.463022103548106 -6.469209867237289 0)
(1.465795193789168 -6.803539448418548 0)
(1.92667939533133 -6.275278896394346 0)
(3.127074715040738 -5.840734945939845 0)
(3.899718267946706 -4.92444157170979 0)
(0.4567882233630935 -4.750823113510593 0)
(0.6585631752428931 -3.491350879226614 0)
(1.655395345317683 -3.003678035986637 0)
(2.137376608556683 -1.923692356687077 0)
(1.658975284977391 -1.986463839215484 0)
(1.311174396013352 -0.7525463646505378 0)
(1.877108991790001 -0.3122949425836233 0)
(1.653216819172507 0.6367311766022375 0)
(0.7800667445416365 1.14733429645121 0)
(-0.0330149487720036 1.284726103649926 0)
(-0.6587369467704084 0.9682913624287671 0)
(-0.9813318234955363 0.3366282309206617 0)
(1.587021126471099 -0.9804694017021629 0)
(0.5863218725650368 -0.4815457601416576 0)
(-0.2570367262861913 -0.05723899043729298 0)
(-0.675078538624226 -0.02422797560836056 0)
(3.363781826130166 -3.8060567708418 0)
(2.44409628681004 -2.796907939433168 0)
(1.338074605917882 -1.704901360530506 0)
(0.6067555343138756 -0.6385289652824496 0)
(5.107052353049616 -4.81673994783199 0)
(4.96992161532848 -3.302442092550349 0)
(4.187947439418244 -2.022012849469732 0)
(3.720979906262299 -0.7293669136957687 0)
(-0.9813318234978311 -0.3366282308977793 0)
(-0.6750785386245356 0.02422797561814873 0)
(0.6067555343139042 0.6385289652768388 0)
(3.720979906263608 0.7293669136762727 0)
(-0.6587369467741047 -0.968291362409031 0)
(-0.257036726286979 0.05723899044679006 0)
(1.338074605922083 1.704901360527738 0)
(4.187947439447335 2.022012849451468 0)
(-0.03301494877582745 -1.284726103636887 0)
(0.5863218725634765 0.4815457601487499 0)
(2.444096286811341 2.796907939433496 0)
(4.969921615348434 3.30244209255084 0)
(0.7800667445393953 -1.147334296440922 0)
(1.587021126474078 0.9804694017075359 0)
(3.363781826124681 3.806056770848329 0)
(5.107052353049913 4.816739947838199 0)
(4.463022103533219 6.469209867217276 0)
(3.156964988609279 7.215792912785685 0)
(2.293337566417392 7.541108804898345 0)
(2.361428535261102 6.935591224761562 0)
(3.899718267946077 4.924441571709621 0)
(3.127074715049525 5.84073494593358 0)
(1.926679395346014 6.275278896381727 0)
(1.465795193810608 6.80353944840745 0)
(2.137376608559275 1.923692356686328 0)
(1.65539534532238 3.003678035981637 0)
(0.6585631752533696 3.491350879224915 0)
(0.456788223376767 4.750823113504625 0)
(1.653216819175106 -0.6367311765986935 0)
(1.877108991797634 0.3122949425879758 0)
(1.311174396023085 0.7525463646579709 0)
(1.658975284985965 1.98646383922339 0)
(-0.6497549354709838 1.05223877881075 0)
(-5.229364822791339 -3.072700912183437 0)
(-7.136578879251211 -2.668526625410865 0)
(-4.585709521215828 -2.184266234616894 0)
(0.0325571990601642 4.086241816817616 0)
(-4.51779740083777 -0.3046301729871256 0)
(-7.806324563763131 -0.6686809200886199 0)
(-6.212833537854161 -2.126668966772693 0)
(2.679206186770544 5.575545915731004 0)
(-1.26665823455767 0.7974141498334212 0)
(-5.955657693259257 -0.3486851811487363 0)
(-6.81237051047218 -3.051086027222494 0)
(4.457054401266185 6.63222147639982 0)
(2.429072483570025 2.420552647727292 0)
(-2.016634727636601 -0.2620995898816567 0)
(-6.073767194165966 -3.289714487788926 0)
(-2.833119971186942 -9.937922872193669 0)
(-0.7734481591358198 -14.87145711861928 0)
(2.699454262620229 -17.69689575409804 0)
(7.01774258992822 -24.6205851601329 0)
(-1.253601983641256 -7.68714496066032 0)
(-0.4568756493558622 -14.98164335375155 0)
(1.914961913763879 -19.24734895499575 0)
(6.71215790193535 -23.57246597966104 0)
(-0.8159265859030997 -4.900415351367411 0)
(-0.3154329949472057 -12.35856705971099 0)
(1.430367286053768 -18.10663182059978 0)
(3.278175247097454 -22.61471279775857 0)
(-1.738851419174926 -3.285177430396002 0)
(-1.909240694876117 -10.96800731881627 0)
(-0.4547278736811491 -17.36654193413092 0)
(0.7861674661464655 -22.03869857462079 0)
(7.857815116259614 -30.84075938008512 0)
(12.65433150937969 -8.691328825273166 0)
(32.0381007157097 3.582405253995029 0)
(30.59387184921719 -5.261201065166379 0)
(8.448251032635174 -29.02677940114867 0)
(8.976540463265447 -17.41679569031388 0)
(26.46678149672233 1.952379165097259 0)
(32.23134383743392 -4.900224533675922 0)
(4.611977667824929 -29.02648985113883 0)
(3.828926766399146 -21.32884213022244 0)
(17.20844484538879 4.30284048453492 0)
(31.97400326126298 -3.292516384433274 0)
(2.648151590025773 -28.73387391255556 0)
(2.088292164484737 -24.81801609775787 0)
(7.328047807431431 0.571618694700314 0)
(20.30819256712388 8.299024659293327 0)
(24.77797605558537 -10.42095423921905 0)
(21.77504435688768 -11.69322026159661 0)
(19.42338068825901 -11.76985188165538 0)
(17.8279260508101 -11.27568824935591 0)
(24.9758215957668 -12.47346790985438 0)
(21.21153527653718 -11.74952199913099 0)
(19.07492862749857 -11.7298589733626 0)
(17.62278809470455 -11.27977052080621 0)
(31.48514903811032 -18.45883244662448 0)