/*--------------------------------*- C++ -*----------------------------------*\
  =========                 |
  \\      /  F ield         | OpenFOAM: The Open Source CFD Toolbox
   \\    /   O peration     | Website:  https://openfoam.org
    \\  /    A nd           | Version:  11
     \\/     M anipulation  |
\*---------------------------------------------------------------------------*/
FoamFile
{
    format      ascii;
    class       volVectorField;
    location    "0.35923785";
    object      U;
}
// * * * * * * * * * * * * * * * * * * * * * * * * * * * * * * * * * * * * * //

dimensions      [0 1 -1 0 0 0 0];

internalField   nonuniform List<vector> 
880
(
(24.99999999999999 -2.806427774467014e-12 0)
(24.99999998203183 -1.217519489215138e-08 0)
(24.99829019247895 -0.0005554008255095878 0)
(24.71735931738626 0.007624793861635196 0)
(24.99999999998872 -2.831582487072353e-11 0)
(24.99999994445427 -7.040154973314826e-08 0)
(24.99747951677335 -0.001722116702758526 0)
(24.63269232653528 -0.1593361648297192 0)
(24.99999999963697 -2.43796800639898e-10 0)
(24.99999976102305 -2.871981888375115e-07 0)
(24.99514544468403 -0.003584531035783092 0)
(24.5135974548567 -0.2644846566154641 0)
(24.99999999829957 1.052171192439639e-09 0)
(24.9999988181946 -1.167889799852773e-06 0)
(24.98908562384278 -0.007016874500748537 0)
(24.13723982687781 -0.4137218418075769 0)
(25.0000000111903 -4.114193682207047e-09 0)
(24.99999998001881 8.777902258577509e-09 0)
(24.99999953213299 -9.298845537809036e-07 0)
(24.99999314126271 -1.184413573664809e-05 0)
(24.99999376775806 -4.448815801076771e-06 0)
(24.99996304575119 -1.867033789265866e-05 0)
(24.99985588940937 1.067018870253976e-05 0)
(25.00017477407662 -0.001107697994564185 0)
(24.97171038246159 -0.0101984547589997 0)
(24.95164246835083 -0.006360549097062638 0)
(24.92414583403304 0.01073088813806967 0)
(24.91407668943526 -0.06683487416849256 0)
(23.40263507134289 -0.09542126793217451 0)
(22.69016625432025 0.6348520454405348 0)
(22.26854637950048 1.335029572783184 0)
(22.24429419528839 1.74623133055323 0)
(24.99988402596559 -6.196798178470595e-06 0)
(24.99960660903996 -0.0003640916856534363 0)
(24.99925373344217 -0.001529086499596964 0)
(24.9974756483597 -0.004522301127220918 0)
(24.99801873419544 -0.000693113614240376 0)
(24.99019666974172 -0.0003535858594072883 0)
(24.97714998275868 0.005493435509759136 0)
(24.95441881437883 0.008911133464835323 0)
(24.75585907866171 -0.01080221437761154 0)
(24.63017538117534 0.0983953150416919 0)
(24.46164762568634 0.2785211069475486 0)
(24.31834217011198 0.406259908157086 0)
(21.98166424492053 2.340711152659907 0)
(21.98731837587536 2.779776344093773 0)
(21.88511413089825 3.317366058442099 0)
(22.33925207137538 3.758415846882085 0)
(23.38567004273557 4.323119993797554 0)
(24.11422023582615 4.173028530961985 0)
(24.4580945350339 3.766273750654405 0)
(24.81732683593404 3.31663980655733 0)
(24.07885381874974 0.7464017212931341 0)
(24.09385290000879 1.104404797178959 0)
(24.19611213598031 1.349492594453316 0)
(24.38212885643181 1.475564324945726 0)
(24.87563932516503 0.03529386949713395 0)
(24.7719000611221 0.1155054458857397 0)
(24.67953629304575 0.2412750874622814 0)
(24.63421060810191 0.394559735697208 0)
(24.98787352204491 -0.01055586930571012 0)
(24.972362459249 -0.02426043134646737 0)
(24.95024623311677 -0.04404435276343188 0)
(24.92405010298482 -0.07056264626809233 0)
(24.90148957184152 -0.1010179684008343 0)
(24.88770924416318 -0.1311327570292742 0)
(24.88284433890907 -0.1445289736683178 0)
(24.888325468563 -0.137983399732285 0)
(24.63263344810035 0.5574787944747536 0)
(24.67445324058684 0.7120293140835299 0)
(24.76091847996458 0.8382300780683706 0)
(24.87668798620402 0.8925751692752367 0)
(24.54953508640015 1.608777988827574 0)
(24.75257460386182 1.654950442698507 0)
(24.94052329819255 1.627188110598319 0)
(25.0932303291754 1.555472500143375 0)
(24.99115120251515 2.905796374830495 0)
(25.17872548238675 2.489602201591897 0)
(25.29112363419582 2.094361181051092 0)
(25.36345058305684 1.778078311555164 0)
(25.42831176949875 1.377474962437938 0)
(25.24434866810927 1.453737968525831 0)
(24.99915689141999 0.9127458978638926 0)
(24.89607346825176 -0.1212275458530127 0)
(24.54802028463206 1.559505269748543 0)
(25.34338306106678 1.289324716686342 0)
(25.14340177970934 0.861786247642509 0)
(24.90333176830691 -0.09618417261187549 0)
(19.15436752701767 1.728678658529489 0)
(25.15904039538032 1.297224861990388 0)
(25.25814624560796 0.7517677476920838 0)
(24.91621875909441 -0.0805355755127007 0)
(14.12710654985482 2.095965109874308 0)
(23.70231484351873 1.62880948856659 0)
(25.27711681923454 0.7747493806724329 0)
(24.94896249370646 -0.09185197632959942 0)
(24.95453286877268 -0.06679733897830673 0)
(25.21733209473852 0.7182320407101842 0)
(22.05145739632712 2.269365189362866 0)
(12.48982846784215 3.860311058596471 0)
(24.83136389511312 -0.08883035002114612 0)
(24.99459420125871 0.8082495815065229 0)
(20.60597385520103 3.314576499549371 0)
(12.79856429647294 5.640557297639816 0)
(24.78950328501633 -0.1158529020670488 0)
(24.47444127599111 1.156917571456417 0)
(18.82493299308504 4.649498784442044 0)
(12.64751164258009 7.078643083631174 0)
(24.6983117807716 -0.1634683889546869 0)
(23.59932822627416 1.928838726398398 0)
(17.5877333063519 6.05838809343371 0)
(13.1358283380757 8.144173049571503 0)
(14.04754601484965 8.855719557329971 0)
(16.9679082640602 7.293807048978846 0)
(22.43000918582623 3.156660681231532 0)
(24.51830951119377 -0.1864961904533305 0)
(15.1357329507623 9.393285072130672 0)
(17.24086851869852 8.219384887499933 0)
(21.21727132592487 4.641974145155935 0)
(24.19843529668592 -0.071293389068838 0)
(16.37659322448028 9.684255753040812 0)
(18.11055362928267 8.754312906322525 0)
(20.70753445857039 5.995951492788384 0)
(23.69386537251245 0.2364294293049608 0)
(17.54806607974639 9.756780366324506 0)
(19.39763420212357 8.854121021936862 0)
(20.87608318019204 7.035999888317439 0)
(23.19625623467979 0.7229342672878128 0)
(22.91096280931231 0.8509791117691258 0)
(22.04903033125053 7.091154337329182 0)
(21.12109973320109 8.806647898592269 0)
(18.96386322926775 9.897789047031983 0)
(23.45620822413055 0.6463976073045165 0)
(23.50851144779449 6.648125423721492 0)
(23.10798917167825 8.415241127533561 0)
(20.90706911727476 9.810493525891573 0)
(24.040000222389 0.344127520052714 0)
(24.9316265742374 5.87507817383553 0)
(25.19364704941392 7.620149592831554 0)
(23.44736242603064 9.238278967536569 0)
(24.51868830666422 -0.2494350723615 0)
(26.06333243620067 4.606851147928644 0)
(27.16639126001964 6.226688668050981 0)
(26.40060493580551 7.616392304940546 0)
(24.88420067472348 -0.3075611086103435 0)
(26.92927107331584 3.628092152749501 0)
(29.04980670052929 4.804324699147551 0)
(30.68347486334322 4.759034619958694 0)
(25.30047682250554 -0.4989523617226382 0)
(27.49767069597389 2.601740900810713 0)
(30.11086665842111 3.390624687843952 0)
(34.00252765098284 0.7046283562113529 0)
(25.54328286290406 -0.5425615638344619 0)
(27.54997523492239 1.647315891321615 0)
(30.83479755496309 1.256059584463637 0)
(36.34819176643357 -4.253907224010941 0)
(25.65370250998069 -0.5437421372757909 0)
(27.22447087639453 1.022788988893362 0)
(30.31241036934547 -0.3107842094032916 0)
(37.77954997795911 -9.252032575877433 0)
(34.01917621245106 -7.328142155397734 0)
(29.13042505177251 -1.417320951213483 0)
(26.94234391447386 0.3554852766409 0)
(25.69372418125032 -0.5467553115424953 0)
(25.63457617525596 -3.215036746045447 0)
(28.24647877620161 -1.936575331288619 0)
(26.6481236413638 -0.1001471823173803 0)
(25.62906453212497 -0.4720619813993939 0)
(23.08909445082409 -3.612729427744377 0)
(27.75007606027193 -2.841733623565523 0)
(26.39351133307591 -0.5594351138289452 0)
(25.50627704393207 -0.3592973780191809 0)
(19.90316707116411 -3.659490211480917 0)
(26.97784333193623 -3.450134564537765 0)
(26.04932075196318 -0.9532418913218111 0)
(25.38980672933928 -0.2751126727841203 0)
(18.08532712130062 -4.760133317171221 0)
(25.72431042706488 -4.391146127729204 0)
(25.48602823474648 -1.289832601482231 0)
(25.18022418188699 -0.2156752809847916 0)
(15.43328145527912 -6.8135811118321 0)
(24.08650802952151 -4.635071847018295 0)
(24.89652562847351 -1.125747767972785 0)
(25.00123751716542 -0.1079290923304663 0)
(14.37829203236886 -6.976630996343101 0)
(23.02533105591702 -4.048560447381722 0)
(24.65192875836825 -0.7359193277602999 0)
(24.97081053344192 -0.04913681528736074 0)
(14.33664385747124 -5.861265256940057 0)
(22.80032990862973 -3.600496596356975 0)
(24.6730346519893 -0.6014638790785776 0)
(24.9760843438826 -0.03608029015091711 0)
(14.22223590856839 -0.6632477209085702 0)
(20.34301177385921 -0.1132546351643503 0)
(23.64823671396056 0.01057894681734695 0)
(24.85558974653241 0.001982481567415843 0)
(14.20381361272471 -1.755732289018761 0)
(20.33965543191756 -0.5378203941484431 0)
(23.66315041857655 0.0006279646565297832 0)
(24.85253290821833 0.004365011491272449 0)
(14.41812896759675 -3.256050884253884 0)
(20.34756850484436 -0.9879311042359928 0)
(23.70247412637514 -0.07176253371139306 0)
(24.85178307163102 0.0002500694913701448 0)
(14.46993605928097 -4.649571737736045 0)
(20.55616826403517 -1.352465209825774 0)
(23.80221141492325 -0.1947246274104817 0)
(24.86016986542109 -0.01139108685766734 0)
(14.33664385747637 5.861265256915771 0)
(22.80032990864353 3.600496596347732 0)
(24.67303465212196 0.6014638790319656 0)
(24.97608434399485 0.03608029013155328 0)
(14.37829203236161 6.976630996299808 0)
(23.02533105601981 4.048560447437705 0)
(24.65192875846159 0.7359193277459986 0)
(24.97081053359998 0.04913681533362888 0)
(15.43328145531391 6.813581111847948 0)
(24.08650802953696 4.63507184705605 0)
(24.89652562846334 1.125747768017013 0)
(25.00123751717611 0.1079290923807357 0)
(18.08532712133193 4.760133317174906 0)
(25.72431042722715 4.391146127808806 0)
(25.48602823477183 1.289832601517039 0)
(25.18022418185125 0.2156752810325313 0)
(25.69372418121974 0.5467553114841187 0)
(26.94234391445551 -0.3554852766747537 0)
(29.13042505181167 1.417320951206403 0)
(34.01917621237809 7.328142155526083 0)
(25.62906453214045 0.4720619813483048 0)
(26.6481236413686 0.1001471823100744 0)
(28.24647877630217 1.936575331297216 0)
(25.63457617536016 3.215036746153359 0)
(25.50627704384786 0.3592973779725915 0)
(26.3935113329647 0.5594351138529867 0)
(27.75007606035717 2.841733623698137 0)
(23.08909445073549 3.61272942778503 0)
(25.38980672921508 0.2751126727630456 0)
(26.04932075187902 0.9532418912929954 0)
(26.9778433319518 3.450134564614255 0)
(19.90316707126771 3.659490211515785 0)
(37.77954997790575 9.25203257599747 0)
(30.31241036930219 0.3107842093975595 0)
(27.22447087636493 -1.02278898889888 0)
(25.65370250994109 0.5437421372279512 0)
(36.34819176644607 4.253907224060484 0)
(30.83479755502267 -1.25605958442311 0)
(27.54997523494356 -1.647315891327138 0)
(25.54328286295029 0.5425615638480324 0)
(34.00252765102313 -0.7046283561703102 0)
(30.11086665827181 -3.390624687814744 0)
(27.49767069596651 -2.601740900783952 0)
(25.30047682235413 0.4989523617909634 0)
(30.68347486326648 -4.759034619933675 0)
(29.04980670055998 -4.804324699116186 0)
(26.92927107347066 -3.628092152728419 0)
(24.88420067456401 0.3075611086976955 0)
(22.91096280923594 -0.850979111750286 0)
(22.0490303311954 -7.091154337334204 0)
(21.12109973314913 -8.806647898591679 0)
(18.96386322929855 -9.897789047038474 0)
(23.4562082241302 -0.6463976072604972 0)
(23.50851144780345 -6.648125423717545 0)
(23.10798917159757 -8.415241127504018 0)
(20.90706911732551 -9.810493525910665 0)
(24.04000022242094 -0.3441275200324202 0)
(24.93162657426216 -5.875078173844109 0)
(25.19364704934953 -7.620149592797183 0)
(23.44736242602907 -9.238278967523826 0)
(24.51868830661424 0.2494350724310147 0)
(26.06333243628675 -4.606851147909237 0)
(27.16639126006735 -6.226688668026759 0)
(26.40060493575857 -7.616392304922202 0)
(17.54806607977105 -9.756780366332702 0)
(19.39763420218933 -8.854121021977768 0)
(20.87608318015295 -7.035999888314851 0)
(23.19625623455602 -0.7229342673043873 0)
(16.3765932245227 -9.684255753064736 0)
(18.11055362934266 -8.754312906347597 0)
(20.7075344585541 -5.995951492796878 0)
(23.69386537249784 -0.2364294293018881 0)
(15.13573295077237 -9.393285072143835 0)
(17.24086851878759 -8.21938488751784 0)
(21.21727132595544 -4.641974145132625 0)
(24.19843529657404 0.07129338907578588 0)
(14.04754601488231 -8.855719557332744 0)
(16.96790826406997 -7.293807048949493 0)
(22.43000918573841 -3.156660681197414 0)
(24.51830951119374 0.1864961904550202 0)
(24.95453286882886 0.06679733900108697 0)
(25.21733209477922 -0.7182320406849897 0)
(22.05145739632358 -2.269365189373567 0)
(12.48982846790171 -3.860311058608113 0)
(24.83136389502925 0.08883035001946117 0)
(24.99459420126251 -0.8082495814631543 0)
(20.60597385522822 -3.314576499549973 0)
(12.79856429651986 -5.640557297665615 0)
(24.78950328487834 0.1158529020604959 0)
(24.47444127583051 -1.156917571390975 0)
(18.82493299316708 -4.649498784426229 0)
(12.6475116426245 -7.078643083645945 0)
(24.69831178072292 0.16346838895787 0)
(23.59932822623481 -1.928838726317234 0)
(17.58773330644004 -6.058388093417951 0)
(13.13582833807799 -8.144173049568323 0)
(24.94896249368129 0.09185197634340884 0)
(24.9162187591402 0.08053557552536469 0)
(24.90333176822004 0.09618417264148803 0)
(24.89607346824267 0.1212275458493749 0)
(25.27711681931228 -0.7747493806738753 0)
(25.25814624567808 -0.7517677476830761 0)
(25.1434017795727 -0.8617862476275565 0)
(24.99915689141799 -0.9127458978803296 0)
(23.7023148436245 -1.628809488586511 0)
(25.15904039541137 -1.297224861995584 0)
(25.34338306113764 -1.289324716699792 0)
(25.2443486681404 -1.453737968518883 0)
(14.12710654994255 -2.095965109881211 0)
(19.15436752708408 -1.728678658525148 0)
(24.5480202845564 -1.559505269719863 0)
(25.42831176949034 -1.377474962412357 0)
(24.88832546850751 0.1379833997394796 0)
(24.87668798612062 -0.8925751692534358 0)
(25.09323032916555 -1.555472500118261 0)
(25.36345058315542 -1.77807831150983 0)
(24.88284433898179 0.1445289736491182 0)
(24.76091847994657 -0.8382300780618352 0)
(24.94052329830673 -1.627188110582279 0)
(25.29112363426028 -2.094361181013063 0)
(24.88770924414703 0.1311327570199333 0)
(24.67445324058221 -0.7120293140315038 0)
(24.75257460382594 -1.654950442704978 0)
(25.17872548243883 -2.489602201591743 0)
(24.90148957189552 0.1010179683199312 0)
(24.63263344816886 -0.5574787944539608 0)
(24.54953508645882 -1.608777988826672 0)
(24.99115120251449 -2.905796374820216 0)
(24.98787352205205 0.01055586922057655 0)
(24.8756393252801 -0.03529386940331648 0)
(24.07885381880194 -0.7464017212865816 0)
(23.38567004278729 -4.323119993785472 0)
(24.9723624592392 0.0242604312304871 0)
(24.77190006118916 -0.115505445814346 0)
(24.093852900066 -1.104404797145806 0)
(24.11422023593016 -4.17302853097831 0)
(24.95024623299037 0.0440443527364804 0)
(24.67953629322822 -0.2412750873919459 0)
(24.19611213601596 -1.349492594453599 0)
(24.45809453519693 -3.766273750711304 0)
(24.92405010299355 0.07056264619993784 0)
(24.6342106081018 -0.3945597356433614 0)
(24.38212885655335 -1.4755643249131 0)
(24.81732683598617 -3.316639806582572 0)
(22.33925207140025 -3.758415846869801 0)
(24.31834217006831 -0.4062599081596087 0)
(24.9544188144395 -0.008911133370020977 0)
(24.99747564837773 0.004522301113961385 0)
(21.88511413093824 -3.317366058427718 0)
(24.46164762567332 -0.2785211069515694 0)
(24.97714998283092 -0.005493435471783497 0)
(24.99925373347387 0.001529086468570224 0)
(21.98731837597437 -2.779776344090497 0)
(24.63017538124059 -0.09839531504765144 0)
(24.99019666990428 0.0003535858664136576 0)
(24.9996066089628 0.0003640915639893103 0)
(21.98166424488028 -2.340711152638672 0)
(24.75585907874277 0.01080221437011441 0)
(24.99801873427202 0.0006931136293920947 0)
(24.99988402604403 6.196812443982036e-06 0)
(22.24429419527677 -1.746231330539582 0)
(24.91407668941093 0.06683487417296381 0)
(25.00017477412541 0.001107698013850865 0)
(24.99999314123308 1.184417896973491e-05 0)
(22.26854637944897 -1.335029572770126 0)
(24.92414583404508 -0.01073088814124941 0)
(24.99985588941916 -1.067018954019968e-05 0)
(24.99999953209123 9.298938238876742e-07 0)
(22.69016625416587 -0.6348520454492927 0)
(24.95164246837819 0.006360549088170392 0)
(24.99996304573075 1.867032864478668e-05 0)
(24.99999998004261 -8.823320477477796e-09 0)
(23.40263507109757 0.09542126788510288 0)
(24.97171038254401 0.01019845475371845 0)
(24.9999937679563 4.448828858081853e-06 0)
(25.00000001114298 4.117363032603598e-09 0)
(25.00000000000002 5.955378858883686e-12 0)
(24.99999998201898 1.215848533102131e-08 0)
(24.99829019247103 0.0005554008076117534 0)
(24.71735931735196 -0.007624793704914207 0)
(24.99999999997173 4.18261303613384e-11 0)
(24.99999994453042 7.03780772773295e-08 0)
(24.99747951668574 0.001722116680376217 0)
(24.63269232640537 0.1593361649005746 0)
(24.99999999962681 2.565036725852149e-10 0)
(24.99999976109916 2.872018875288534e-07 0)
(24.99514544471451 0.003584531022429771 0)
(24.51359745449936 0.2644846565460244 0)
(24.99999999828481 -1.02627938005123e-09 0)
(24.99999881823999 1.167902454507043e-06 0)
(24.9890856238482 0.007016874490460104 0)
(24.13723982658186 0.4137218417517112 0)
(24.52527012743346 1.098647397957275e-10 0)
(24.35979150002014 0.1495549520699443 0)
(23.97404185426442 0.173632772347149 0)
(23.03854686882611 0.01871646194694931 0)
(24.35979150023727 -0.1495549518530714 0)
(24.08843134914657 4.096835758082106e-11 0)
(23.40956942765852 -0.06031102390857328 0)
(21.96066093851464 -0.4863806090455217 0)
(23.97404185470894 -0.1736327722542257 0)
(23.40956942803257 0.06031102398458977 0)
(22.12861423244761 6.329081481974584e-11 0)
(20.03095695588084 -0.5819754500856705 0)
(23.03854686919441 -0.01871646196753853 0)
(21.96066093911632 0.4863806089888486 0)
(20.03095695612839 0.5819754500385376 0)
(17.78918549000968 -2.400790097462034e-10 0)
(17.25878332588573 2.521584334983747 0)
(17.89934923902871 2.917349086436531 0)
(19.54339331460335 2.655843753627106 0)
(21.08693353702356 1.887816275245638 0)
(18.2449088211943 4.246787511894529 0)
(18.30812335018002 4.203001951765885 0)
(19.04065661482785 4.114780427112783 0)
(20.07397462305119 3.952546839624753 0)
(17.6838549426447 5.193199337528683 0)
(18.85057294245648 4.491072771655495 0)
(19.52792127547557 4.691878552535607 0)
(20.05233311134646 4.563749572294047 0)
(18.33525006767496 5.754218058039365 0)
(19.70555388784334 4.717193064412864 0)
(20.2057137867002 4.89123185198807 0)
(20.49069805070171 4.805573522020201 0)
(20.79096260964191 4.932705040277692 0)
(21.02925583653576 5.061730738858489 0)
(21.4043497854091 5.120578350934325 0)
(22.16084796305683 5.280348024794259 0)
(20.72900047437838 4.99424642066595 0)
(21.03868780344829 5.101569046995945 0)
(21.5383661318192 5.117412177698649 0)
(22.65128516172047 5.500670963770842 0)
(20.47284512993897 4.931258098950452 0)
(20.97343693078528 5.105921822185348 0)
(21.55536417592221 5.158189577350842 0)
(24.10136801934282 5.943006557864381 0)
(18.97616521997409 5.851118748664667 0)
(19.59932747384954 5.875945802126423 0)
(20.50317262767764 5.73475637463268 0)
(25.8311881670431 7.125897185628705 0)
(25.81525169272366 3.18758204980339 0)
(26.40945028417533 0.8090351203895266 0)
(25.72185520327473 0.487079559262204 0)
(25.59509766401572 0.3820585915345768 0)
(28.37610439949948 2.198782637201685 0)
(28.69592349246703 0.3397479152720227 0)
(27.56802010286473 0.2832497672847384 0)
(26.89269658868138 0.3137577490263148 0)
(31.54901827690858 1.904715748650543 0)
(30.14995216335554 0.04577684779117767 0)
(28.75773941490377 0.05144593588293402 0)
(27.77933254567727 0.09386616343860815 0)
(25.07990635391796 1.987932254051135 0)
(24.21747622865023 0.6522749456830957 0)
(24.07232522467788 0.08970108137213012 0)
(24.15978731353075 -0.2164447911261152 0)
(25.66543193912678 0.3867732909688537 0)
(25.71344485704493 0.3198127046419512 0)
(25.70096084207595 0.2051363264334549 0)
(25.65343755312487 0.1716667638851509 0)
(26.53712810911277 0.3417373855621462 0)
(26.22460703665728 0.2915139416013699 0)
(25.94663909626022 0.191593436481185 0)
(25.72127868662893 0.1306858391469893 0)
(27.15030694496462 0.1478463637768841 0)
(26.59225438845231 0.1471934467743262 0)
(26.0988160377742 0.09830233659604862 0)
(25.66599018571638 0.08514096568670698 0)
(24.13124634732092 -0.4622505504570416 0)
(23.90332744618651 -0.62073429532805 0)
(23.70232986968382 -0.7154387242326137 0)
(23.36995076470971 -0.6662496068829484 0)
(25.20551743690623 0.7717401419378869 0)
(20.09234610206077 5.098324373813458 0)
(13.71990374393564 3.924507360209698 0)
(9.345192288195081 1.05931651921338 0)
(24.62757554275561 1.255395751097026 0)
(16.07217930453076 4.951636804184512 0)
(8.863759041125721 2.740799593383528 0)
(4.471017467337859 -0.1764426906417082 0)
(23.43563724236363 1.295074012011926 0)
(11.69323869047922 3.63446549812173 0)
(3.139617801984353 2.029113501236159 0)
(-0.7690393397641191 0.2418315114063536 0)
(19.41389540615646 -0.7286246457457455 0)
(7.302744994265263 -0.7957765334785415 0)
(0.2336902142786663 0.5430076329668901 0)
(-2.595595383669747 0.1743922731434901 0)
(8.569144786129382 2.693892996541129 0)
(10.58536613568429 4.559500565148389 0)
(11.49761677511415 6.280355991643451 0)
(12.44952775540546 7.625636034945903 0)
(6.136670670210831 1.993682198101439 0)
(9.511367605667111 4.41104977590566 0)
(11.20129285703409 6.226231202961708 0)
(12.40432078463614 7.672156824810143 0)
(2.93330232783043 0.01197529897064017 0)
(7.442474102891235 3.331959766477352 0)
(10.26714233876764 6.036194433229811 0)
(12.02123502357598 7.596917736075277 0)
(0.2395571836152589 -0.1062612736092583 0)
(3.47027794569533 2.475981726313051 0)
(7.538045454688484 3.976182955689417 0)
(10.63466101646742 5.463975537088463 0)
(13.63849138566164 8.986498294814885 0)
(14.77053691273556 10.0081574784925 0)
(15.91945429894959 10.56578241911364 0)
(16.81352931063671 10.85599070428547 0)
(13.55816758559398 8.921006194483997 0)
(14.71383973012189 9.954780761348527 0)
(15.82396976967645 10.54166900443895 0)
(16.69639631987032 10.88141754068998 0)
(13.23585636866866 8.764176552142047 0)
(14.51738015873129 9.775718066376459 0)
(15.74209053553459 10.47461992064697 0)
(16.62306547208273 10.96197506976428 0)
(13.11739115493749 6.748231517184888 0)
(14.67206409279889 8.448515966039521 0)
(15.76611344280322 10.30179052160134 0)
(16.64565158739963 10.93920964424846 0)
(17.82791753471026 11.27568285845716 0)
(19.423373321038 11.769846697039 0)
(21.77505039862691 11.69323313349192 0)
(24.77798205772239 10.42096923256979 0)
(17.62277570606413 11.27976026907105 0)
(19.07491972682638 11.72984973384935 0)
(21.21153692312177 11.74952474814627 0)
(24.97582799271238 12.47348097028233 0)
(17.47369650137014 11.36885324530618 0)
(18.72296845165736 11.78345714338703 0)
(21.34547157297895 12.58553907651537 0)
(31.48516190397034 18.45884551344956 0)
(17.43734597762294 11.39311787951312 0)
(18.64011374380847 11.79210697414204 0)
(22.06806774429531 13.17483791092462 0)
(43.2439491212501 25.51574234884276 0)
(30.59388473900467 5.261218695560415 0)
(32.03813575945176 -3.582409937830439 0)
(12.65433746147781 8.691195428878277 0)
(7.857656273400366 30.84085978754093 0)
(32.23135860192801 4.900236274307319 0)
(26.46682485872196 -1.952404490976788 0)
(8.976503426022184 17.41677863362819 0)
(8.448154467131317 29.02688100316455 0)
(31.97401404875744 3.292520694283458 0)
(17.20849030095162 -4.302885789166831 0)
(3.828887359283059 21.32888832431464 0)
(4.612016533487654 29.02661267232234 0)
(20.30819325054662 -8.299018895769649 0)
(7.328077771660523 -0.5716337658430336 0)
(2.088257701040272 24.81811837998771 0)
(2.648165316560512 28.7339854035727 0)
(7.017367551745172 24.62073610633 0)
(2.699621434251716 17.69720736408748 0)
(-0.7733888193528644 14.87157695029894 0)
(-2.833083828186375 9.937961259895363 0)
(6.712223342327103 23.57249892636037 0)
(1.915115148357833 19.24750246655881 0)
(-0.4567908836408518 14.98173641033896 0)
(-1.253569607960273 7.687191229806904 0)
(3.278225247984121 22.61478135227251 0)
(1.4304294949014 18.10669383917643 0)
(-0.3153723819442576 12.35863299885411 0)
(-0.8159270752569836 4.900444272332633 0)
(0.7861832156510156 22.03877669571931 0)
(-0.4547171797723433 17.36658759094449 0)
(-1.909241243002403 10.96805801265634 0)
(-1.738865157546224 3.285195483842038 0)
(-6.073850517933882 3.28976283221786 0)
(-2.016771815425661 0.2622000696779802 0)
(2.428945771663947 -2.420460763182666 0)
(4.45696867291816 -6.632184063182613 0)
(-6.812483407498641 3.051148240509184 0)
(-5.955811629697923 0.3487892447088553 0)
(-1.26681836763967 -0.7973146871527935 0)
(2.679105001481439 -5.57546864264969 0)
(-6.212938187462687 2.126712663289979 0)
(-7.806468626168353 0.6687465317449083 0)
(-4.517979610211811 0.3046803103400837 0)
(0.0323750930258959 -4.086200196231204 0)
(-4.585771484220488 2.184294382817419 0)
(-7.136680265291004 2.668625215351724 0)
(-5.22956836927712 3.07272635943801 0)
(-0.6500353563773837 -1.052222374480299 0)
(2.361352859737227 -6.935601771856482 0)
(2.293264477409073 -7.541103721330381 0)
(3.156900105038782 -7.215746428624055 0)
(4.462957638219099 -6.469106055533181 0)
(1.46573253646194 -6.803495025449969 0)
(1.926613079762995 -6.275212534702108 0)
(3.127011210704197 -5.840651317906138 0)
(3.899654526589989 -4.92433095526781 0)
(0.4567096817466524 -4.750728271191925 0)
(0.6584731134370749 -3.491279755729272 0)
(1.655310728385887 -3.003631317773184 0)
(2.137325613901816 -1.923641928901142 0)
(1.658822938245932 -1.986274313626857 0)
(1.311061401975679 -0.7524735206497432 0)
(1.87700620253894 -0.3122914989811605 0)
(1.653188950215024 0.6367005769975059 0)
(0.7800839711304868 1.14730760352098 0)
(-0.0329818152119921 1.284705504106822 0)
(-0.6586975817074938 0.9682802223852457 0)
(-0.9812893597772675 0.3366268299689351 0)
(1.586991714288739 -0.9804219848248111 0)
(0.5863036065996673 -0.4815248057294693 0)
(-0.2570271576215359 -0.05723232648253192 0)
(-0.6750505042457884 -0.02422119795013313 0)
(3.363715514440091 -3.805942675282171 0)
(2.444031524649527 -2.796814227971447 0)
(1.338004691614082 -1.70485562778949 0)
(0.6067136596828265 -0.6385107067028328 0)
(5.106983310651002 -4.816625918713714 0)
(4.969822248985874 -3.302354707949663 0)
(4.187833632745853 -2.02199747114544 0)
(3.720929534170109 -0.7293579904444913 0)
(-0.9812893597795583 -0.3366268299460441 0)
(-0.6750505042458049 0.02422119795991367 0)
(0.6067136596830108 0.6385107066974223 0)
(3.720929534171403 0.7293579904249902 0)
(-0.6586975817118876 -0.9682802223664883 0)
(-0.2570271576224425 0.05723232649205627 0)
(1.338004691618629 1.704855627787192 0)
(4.187833632773168 2.021997471126066 0)
(-0.0329818152157982 -1.284705504093056 0)
(0.5863036065983878 0.4815248057367706 0)
(2.444031524648031 2.796814227968522 0)
(4.969822249006889 3.302354707950918 0)
(0.7800839711275908 -1.147307603509729 0)
(1.586991714291324 0.9804219848298783 0)
(3.363715514428446 3.80594267528164 0)
(5.106983310656407 4.816625918724725 0)
(4.462957638195687 6.46910605550107 0)
(3.156900105040572 7.215746428609909 0)
(2.293264477410696 7.541103721315984 0)
(2.361352859750196 6.935601771838632 0)
(3.899654526590143 4.924330955268458 0)
(3.127011210713034 5.840651317899806 0)
(1.926613079780118 6.275212534697392 0)
(1.465732536482537 6.803495025435248 0)
(2.137325613901309 1.923641928897597 0)
(1.655310728387642 3.003631317762882 0)
(0.6584731134483054 3.491279755731459 0)
(0.4567096817603222 4.750728271185852 0)
(1.653188950215684 -0.6367005769931565 0)
(1.877006202546593 0.3122914989855135 0)
(1.311061401984341 0.7524735206565414 0)
(1.658822938254549 1.986274313634755 0)
(-0.650035356359951 1.05222237448266 0)
(-5.229568369238399 -3.072726359408697 0)
(-7.136680265254348 -2.668625215320805 0)
(-4.585771484193138 -2.18429438280894 0)
(0.03237509304120965 4.086200196229187 0)
(-4.517979610194375 -0.304680310317864 0)
(-7.806468626111435 -0.6687465317275265 0)
(-6.212938187390444 -2.12671266325657 0)
(2.679105001494681 5.575468642641254 0)
(-1.266818367608131 0.7973146871772486 0)
(-5.955811629627064 -0.3487892446830727 0)
(-6.812483407444772 -3.051148240456639 0)
(4.45696867293087 6.632184063177693 0)
(2.428945771688251 2.420460763204086 0)
(-2.016771815340906 -0.262200069657247 0)
(-6.073850517826115 -3.289762832143552 0)
(-2.833083828179684 -9.937961259779884 0)
(-0.773388819410525 -14.87157695029972 0)
(2.699621434288651 -17.69720736434438 0)
(7.017367551462955 -24.62073610640842 0)
(-1.253569607955991 -7.687191229743099 0)
(-0.4567908836517686 -14.98173641030828 0)
(1.915115148446619 -19.24750246664406 0)
(6.712223342355434 -23.57249892634243 0)
(-0.8159270752585536 -4.900444272307642 0)
(-0.31537238194838 -12.35863299880778 0)
(1.43042949492843 -18.10669383922752 0)
(3.278225248001241 -22.6147813522776 0)
(-1.738865157540689 -3.285195483848905 0)
(-1.909241243010704 -10.96805801268629 0)
(-0.4547171797735416 -17.36658759094195 0)
(0.7861832156602906 -22.03877669571179 0)
(7.857656273030414 -30.84085978753927 0)
(12.65433746120675 -8.691195429181791 0)
(32.03813575943602 3.582409937882397 0)
(30.59388473906876 -5.261218695556139 0)
(8.448154466974712 -29.02688100314493 0)
(8.976503425974846 -17.41677863384157 0)
(26.4668248587983 1.952404490954486 0)
(32.23135860184226 -4.900236274275858 0)
(4.612016533501561 -29.02661267238127 0)
(3.828887359230346 -21.32888832443468 0)
(17.20849030088059 4.302885789104517 0)
(31.97401404868225 -3.292520694270682 0)
(2.648165316566612 -28.73398540364804 0)
(2.088257701019261 -24.81811838012339 0)
(7.328077771684343 0.5716337657788311 0)
(20.30819325052952 8.299018895738847 0)
(24.77798205771053 -10.42096923254938 0)
(21.77505039859041 -11.69323313345259 0)
(19.42337332109125 -11.76984669704483 0)
(17.82791753467121 -11.27568285842926 0)
(24.97582799275666 -12.47348097029179 0)
(21.21153692319019 -11.74952474816153 0)
(19.07491972682349 -11.72984973383098 0)
(17.62277570613249 -11.27976026910536 0)
(31.48516190388038 -18.45884551338582 0)