/*--------------------------------*- C++ -*----------------------------------*\
  =========                 |
  \\      /  F ield         | OpenFOAM: The Open Source CFD Toolbox
   \\    /   O peration     | Website:  https://openfoam.org
    \\  /    A nd           | Version:  11
     \\/     M anipulation  |
\*---------------------------------------------------------------------------*/
FoamFile
{
    format      ascii;
    class       volScalarField;
    location    "0.185";
    object      rho;
}
// * * * * * * * * * * * * * * * * * * * * * * * * * * * * * * * * * * * * * //

dimensions      [0 0 0 0 0 0 0];

internalField   nonuniform List<scalar> 
880
(
0.2239950333699092
0.2239950333762994
0.2239957252396408
0.2243513265408914
0.2239950333699093
0.2239950333928653
0.2239966358835968
0.2248255115485787
0.2239950333699093
0.2239950335836192
0.2239999691782747
0.2258835773589482
0.2239950333699091
0.2239950332475764
0.2240110452404702
0.227789749232015
0.2239950333688954
0.2239950333711164
0.2239950334101331
0.2239950491721674
0.2239950335600961
0.2239950364376074
0.2239951975233603
0.2239951232496935
0.2240507462899007
0.2240988324705988
0.2242229476577083
0.2241037842604333
0.2323165798708744
0.2368948037660673
0.2401121146025215
0.2416599263568375
0.2239951102656178
0.2239954104161532
0.2239974365368404
0.2239982637119274
0.2239988083150831
0.2240049912942626
0.2240179811046117
0.2240319748371086
0.2246879926537636
0.2251514009746733
0.2257204464447474
0.2263777125853763
0.2436045113038987
0.2465084258638683
0.2488488536566615
0.2494892532352335
0.2415450743749263
0.2371962371971522
0.2360475237975189
0.2349961921307456
0.2285931390782883
0.229402688703073
0.2301051226394233
0.2304980798712572
0.2241388607117702
0.2242898648305119
0.224450761701622
0.2246195026548377
0.2240068871943726
0.2240275009870725
0.2240631823354769
0.2240920366123055
0.2241039381780579
0.2240947906497315
0.2240751279450404
0.2240498942473857
0.2247706010271694
0.2248191903395002
0.2247592842138401
0.2246587412543291
0.2306453662323647
0.2304617377967251
0.230012886398228
0.2293953491393323
0.2342973251871317
0.2343470748824495
0.2344908798779705
0.2341476265398458
0.2334615936017847
0.2286730255708583
0.2245195286254201
0.2240259982124998
0.2319233355836105
0.2276679415265392
0.2243569533297161
0.2240088004245514
0.2365077139344591
0.2265589226119919
0.2241646695602648
0.2239968494660745
0.2663433315413558
0.2266595042620713
0.2240583226584986
0.2239956631458861
0.2239969722976345
0.224051052043078
0.2297533612209337
0.3179926201479257
0.2240024276655823
0.2241378651473002
0.2334541943595747
0.3240242841550809
0.2240164098673229
0.2243253296572796
0.2393261003104929
0.3334979472111884
0.2240515663311471
0.2247526894986114
0.2470959398796436
0.340507083305057
0.3471517313170255
0.2565461257237257
0.2254375838181674
0.2241161877665368
0.3510114069613382
0.2674489684239924
0.2266459347627595
0.2242389220370006
0.353280830644741
0.2794946062035305
0.2284431698877055
0.2244194422228451
0.3519383378946769
0.2902362055280404
0.2312993622395706
0.2247365784043106
0.2251962029592287
0.2347045735932637
0.2978177116988593
0.3447230750584164
0.2256029143186972
0.2351411738430567
0.2851730835755122
0.3219539434063717
0.2259181367808925
0.2322899170841335
0.2678666161299957
0.2949902641374752
0.2248116314839492
0.2288329649013685
0.2486921963150307
0.2616641390653078
0.2252500806322378
0.2295807167456141
0.2361435285290033
0.2139716568147766
0.2251133304790763
0.2267962440054981
0.2253776444739259
0.1617000524966593
0.2245472102760487
0.2253142455486324
0.2188447262235146
0.1281767773033549
0.2241326567635538
0.2244052727949216
0.2111093529811982
0.1140253152465228
0.113061555039319
0.2070517576418275
0.2236268930754834
0.2239666765675961
0.1123435569044152
0.2052445703487094
0.2229675953302723
0.2239592821166678
0.1166783614534941
0.2046619894330156
0.2226015937862161
0.2239642933577902
0.1141753858664448
0.2023619056477191
0.2223066119422978
0.223961275202543
0.1286356314025655
0.2046741949314994
0.2226242513311058
0.223970162757143
0.1429863689112079
0.2087056953247044
0.2231718352563799
0.2239843542958302
0.1511138625327723
0.2122820835360665
0.2235393386203986
0.2239907627290195
0.1622330719592102
0.2168103519207286
0.2238651085237438
0.2239935452224282
0.1874125102028179
0.2176821228264838
0.2235548530834865
0.2239839977863824
0.1826630039682286
0.2173850989559063
0.2235676936889192
0.2239850518245629
0.1762957240762559
0.2166920714254994
0.2235735833436591
0.2239862909964532
0.1703345814443856
0.2158866344466694
0.2235843944835927
0.2239878058956381
0.1622330719590762
0.2168103519204482
0.2238651085237654
0.2239935452216819
0.1511138625327872
0.2122820835357279
0.2235393386199539
0.2239907627285667
0.1429863689110666
0.2087056953244182
0.2231718352560095
0.2239843542954739
0.1286356314025673
0.2046741949311252
0.2226242513311737
0.2239701627571188
0.2239666765678638
0.2236268930756355
0.2070517576418567
0.1130615550386916
0.2239592821165682
0.22296759533033
0.2052445703486338
0.1123435569040525
0.2239642933580658
0.2226015937863725
0.2046619894324725
0.1166783614532437
0.2239612752026574
0.2223066119428962
0.2023619056474768
0.1141753858664508
0.1140253152461161
0.2111093529810641
0.2244052727947283
0.2241326567638058
0.1281767773031163
0.2188447262233922
0.2253142455485298
0.2245472102762373
0.1617000524962571
0.2253776444739322
0.2267962440054197
0.2251133304796229
0.213971656814737
0.2361435285286454
0.2295807167447476
0.2252500806326449
0.2251962029589598
0.2347045735942301
0.2978177117001996
0.344723075058582
0.2256029143186023
0.2351411738430315
0.2851730835762485
0.3219539434065139
0.2259181367798724
0.2322899170847207
0.267866616129915
0.2949902641373429
0.2248116314837469
0.2288329649005106
0.2486921963151952
0.2616641390653116
0.3519383378948807
0.2902362055280554
0.2312993622384462
0.2247365784055601
0.3532808306451614
0.2794946062038831
0.2284431698890569
0.2244194422225106
0.3510114069612856
0.2674489684252709
0.2266459347641439
0.2242389220373666
0.3471517313167842
0.2565461257226578
0.2254375838169328
0.2241161877667419
0.2239969722977537
0.2240510520430576
0.2297533612206064
0.3179926201476548
0.2240024276662908
0.2241378651478032
0.2334541943592116
0.3240242841545085
0.2240164098682603
0.2243253296573613
0.2393261003104278
0.3334979472106717
0.2240515663312913
0.2247526894998375
0.2470959398804301
0.3405070833052539
0.2239956631459132
0.223996849466011
0.2240088004249721
0.2240259982125178
0.22405832265767
0.2241646695599521
0.2243569533295367
0.2245195286252828
0.2266595042617917
0.2265589226121351
0.2276679415262348
0.2286730255705807
0.2663433315410917
0.2365077139345152
0.2319233355836779
0.2334615936017291
0.2240498942476205
0.2246587412546139
0.229395349139582
0.2341476265400493
0.2240751279448361
0.2247592842142024
0.2300128863984741
0.2344908798780111
0.2240947906496763
0.2248191903396559
0.2304617377964719
0.234347074881756
0.2241039381777261
0.2247706010269659
0.2306453662326012
0.2342973251872329
0.2240068871943306
0.2241388607111532
0.2285931390784946
0.2415450743751757
0.2240275009865548
0.2242898648305113
0.2294026887034799
0.2371962371971447
0.224063182335742
0.2244507617011751
0.2301051226393792
0.2360475237971482
0.2240920366120814
0.2246195026546281
0.2304980798715387
0.2349961921301915
0.2494892532350559
0.2263777125851988
0.2240319748366443
0.2239982637122279
0.2488488536564257
0.2257204464449314
0.2240179811040348
0.2239974365368536
0.246508425863924
0.2251514009749489
0.224004991293244
0.2239954104159638
0.2436045113036786
0.224687992653488
0.2239988083147766
0.223995110266263
0.2416599263566107
0.2241037842607336
0.2239951232497447
0.2239950491726298
0.2401121146023588
0.2242229476575604
0.2239951975230934
0.2239950334101712
0.2368948037659703
0.2240988324704609
0.2239950364373627
0.2239950333711129
0.2323165798707706
0.2240507462896285
0.2239950335599505
0.2239950333692805
0.2239950333699092
0.2239950333762953
0.2239957252397468
0.2243513265404771
0.2239950333699093
0.2239950333926663
0.2239966358835714
0.2248255115486233
0.2239950333699093
0.2239950335833549
0.2239999691781706
0.2258835773588986
0.2239950333699093
0.2239950332471945
0.2240110452403264
0.2277897492317884
0.2248284538138673
0.2258351461226567
0.2279657678948231
0.2345064481165415
0.225835146122709
0.2272980597617773
0.2319172154877647
0.2433092316146888
0.2279657678948152
0.2319172154877642
0.24156149110039
0.2576572135934115
0.2345064481166838
0.2433092316148531
0.2576572135936211
0.2769806375568126
0.2966930019243739
0.2800163530907627
0.2727546909966344
0.2578100995465913
0.2920557795551609
0.2876199680920515
0.2884212036395166
0.2805046436453225
0.2922134229978699
0.2908338476411115
0.2908419242560048
0.2875913060346207
0.2913466754426324
0.2905702068757582
0.2904118922587492
0.2880205372284742
0.2855961906766633
0.2848643378666597
0.2833220978620079
0.2789343861133061
0.2872354923603214
0.2856370108640728
0.2840614980537144
0.2795789226082373
0.2875314978085749
0.2859174840786475
0.284612316578963
0.2804452483530155
0.2882091159923318
0.2861749082052423
0.2847622951621664
0.2763119890757583
0.2321059835286856
0.2124566956180908
0.2139881732729309
0.2167139071971833
0.2167873314932462
0.2067145331136752
0.2123870205994451
0.2154773718221646
0.203739982751289
0.2070111350190322
0.213686439728418
0.2163621661196685
0.1854595573767527
0.2028570326527519
0.2117027009237265
0.2145718291738873
0.2188582167792356
0.2212085581807887
0.2236405099710165
0.2256930374854947
0.2177391806901295
0.2202379443424329
0.2228415951010712
0.2250911623295404
0.2181150162477056
0.2200830505371069
0.2223090829506659
0.2246461599123302
0.2167264878002639
0.2194424093908018
0.2222188474354957
0.2245843334971923
0.2266865782484207
0.2285648068615836
0.2737635595090949
0.3349484050782499
0.2264000609876957
0.2295663570274323
0.284934102004903
0.3299217631993367
0.2261255168535152
0.2307838127337431
0.2891569777142323
0.32326484263056
0.2261610706906671
0.2309192660403507
0.2948366971793039
0.3264703845357155
0.4153397683526933
0.4011473583053677
0.3920842566280577
0.3836088330818851
0.4144924618149412
0.4028983466382645
0.3930653179718624
0.3841088840344268
0.4099446715643405
0.4026356444578231
0.3934379370340766
0.3844262139165667
0.4050684745808317
0.4035861982512962
0.3950858044425772
0.3853675357024011
0.3815039738695656
0.3854247399112827
0.3843530395906384
0.3819814792700222
0.3820360901601842
0.3852265388966404
0.3853779571074242
0.3849962439643843
0.381679256954397
0.3841060915083339
0.3853218862513433
0.3862094383036567
0.3825094216572767
0.3851302705385641
0.3860278943462945
0.3871050424604754
0.3689581624838839
0.3426520241882441
0.3168526225649132
0.2775361130989699
0.3743546897015666
0.3495450280113179
0.320405782994347
0.284153348342006
0.3795112330538195
0.3567502319849661
0.3219729965281853
0.2853332542666329
0.3808151699485512
0.3637025635657067
0.3259297337802571
0.3282030945931986
0.1830449194194042
0.050646505836808
0.01931686417049536
0.02434685180109719
0.1475300876092441
0.03642221887796713
0.02272747440949307
0.02901626579398616
0.1113424904345068
0.02643289651868339
0.02566071855503961
0.03496240712585661
0.07887522736808446
0.01934519444811758
0.02787709556005215
0.0366811149110514
0.03465794323293344
0.0432010558648632
0.05280406969567247
0.05896581624538246
0.04061611772447751
0.05029118133951924
0.05896974924706213
0.0644922815845273
0.04692958452681976
0.05640851497341039
0.0633571778836583
0.07074582596677102
0.04932821642679275
0.0599766332502577
0.06766938361040979
0.07643473336200036
0.08310323697333276
0.09461262282433681
0.1013965146101489
0.1089906789967349
0.08457757840279044
0.0976355724956887
0.1029359906848004
0.1103757159124379
0.08502089368522041
0.09802251012244916
0.1021032818499986
0.1062672030046127
0.08184879307506812
0.09620091607930185
0.1013344882515863
0.108696415422151
0.09509366083909421
0.0896602563382943
0.09599763804998336
0.09613875391478374
0.08774489538566194
0.07856198727333291
0.07999450343610291
0.08106979954962966
0.07673107061389592
0.07393416897243005
0.07647922421297412
0.08002097000926395
0.06187384760537239
0.06712172486295301
0.07297414705356184
0.0771281240682225
0.08029809366601241
0.0801875168172916
0.07900177069243317
0.078030230070986
0.08236511828605327
0.08135716490759634
0.07932691423287476
0.0775892385561968
0.08068569422695235
0.08025226869479495
0.07913958906776239
0.07827781555961734
0.09217305500554948
0.08854806850136017
0.08492075884966944
0.08313438238651948
0.07803023007098449
0.07758923855617875
0.0782778155596249
0.08313438238650275
0.07900177069243056
0.0793269142328695
0.07913958906779284
0.08492075884966412
0.08018751681729949
0.08135716490760972
0.08025226869483496
0.08854806850138003
0.08029809366602313
0.08236511828606148
0.08068569422699529
0.09217305500559803
0.09613875391483201
0.09599763805009033
0.0896602563383788
0.09509366083916206
0.08106979954967249
0.07999450343617384
0.07856198727338332
0.08774489538566974
0.08002097000927913
0.07647922421296846
0.07393416897246058
0.07673107061393875
0.07712812406824465
0.07297414705357044
0.06712172486294764
0.06187384760538445
0.1086964154221956
0.1013344882516739
0.09620091607940658
0.08184879307528549
0.1062672030046639
0.102103281850051
0.09802251012251093
0.08502089368538837
0.1103757159124663
0.1029359906848305
0.09763557249571869
0.08457757840294677
0.1089906789967648
0.1013965146101848
0.09461262282431608
0.08310323697345465
0.05896581624567028
0.05280406969583908
0.04320105586490153
0.03465794323286149
0.06449228158481619
0.05896974924724396
0.05029118133965125
0.04061611772449444
0.07074582596702209
0.0633571778838173
0.0564085149735442
0.04692958452684166
0.07643473336223458
0.067669383610589
0.05997663325042881
0.04932821642683245
0.02434685180115178
0.01931686417048574
0.05064650583646064
0.1830449194192136
0.02901626579406184
0.02272747440951723
0.03642221887787854
0.1475300876091492
0.03496240712591944
0.02566071855506996
0.02643289651867342
0.1113424904344304
0.03668111491111575
0.0278770955600876
0.01934519444810307
0.07887522736803335
0.2775361130988476
0.3168526225648003
0.342652024187957
0.3689581624835425
0.2841533483419243
0.3204057829941366
0.3495450280109812
0.3743546897011362
0.2853332542665662
0.3219729965280345
0.3567502319846013
0.3795112330533774
0.3282030945930849
0.3259297337801151
0.3637025635653455
0.3808151699480082
0.3819814792700784
0.384353039590642
0.3854247399108826
0.381503973870345
0.3849962439641731
0.3853779571072089
0.3852265388963712
0.3820360901609758
0.3862094383032837
0.3853218862509685
0.3841060915081752
0.3816792569551033
0.3871050424599192
0.386027894345637
0.3851302705382983
0.3825094216580038
0.3836088330814579
0.3920842566274785
0.4011473583045862
0.4153397683522692
0.3841088840339897
0.3930653179713974
0.4028983466375269
0.4144924618145745
0.3844262139161164
0.3934379370336864
0.4026356444571913
0.4099446715641193
0.3853675357018702
0.3950858044422525
0.4035861982506819
0.4050684745806528
0.3349484050778854
0.2737635595088673
0.2285648068616573
0.2266865782484759
0.3299217631989852
0.2849341020046271
0.2295663570274699
0.2264000609878043
0.3232648426303703
0.2891569777139107
0.2307838127337486
0.2261255168536694
0.3264703845355103
0.2948366971789553
0.2309192660403406
0.2261610706908356
0.2256930374858732
0.2236405099709801
0.2212085581802134
0.2188582167793199
0.2250911623298828
0.2228415951010049
0.2202379443418685
0.2177391806901998
0.2246461599127222
0.2223090829505588
0.2200830505366398
0.2181150162477526
0.2245843334976262
0.2222188474353362
0.2194424093902696
0.2167264878003268
0.2167139071967906
0.213988173272626
0.2124566956181858
0.2321059835289169
0.2154773718217824
0.2123870205991386
0.2067145331138794
0.2167873314934542
0.2163621661193314
0.2136864397280961
0.2070111350192931
0.2037399827515143
0.2145718291735619
0.2117027009233255
0.2028570326530666
0.1854595573770695
0.2789343861132199
0.2833220978617135
0.284864337866756
0.2855961906765284
0.2795789226080715
0.2840614980535862
0.2856370108642451
0.2872354923601411
0.2804452483528451
0.2846123165788711
0.2859174840788281
0.2875314978083556
0.2763119890755723
0.2847622951621275
0.28617490820545
0.2882091159920412
0.2880205372279952
0.2875913060344672
0.2805046436453094
0.2578100995467125
0.2904118922583592
0.2908419242559007
0.288421203639409
0.2727546909966175
0.2905702068753317
0.2908338476409605
0.2876199680919879
0.280016353090607
0.2913466754422753
0.2922134229977439
0.2920557795550051
0.2966930019241026
0.1678070620124919
0.2171869600570175
0.2237289733917192
0.2239921782957095
0.1656417227773822
0.2161524130839071
0.2236309860742028
0.2239904723136287
0.1669648193128584
0.2156193388882668
0.2236063883655692
0.2239897761995327
0.1659328053866483
0.2154911599544901
0.2235937790731193
0.2239889736909564
0.2239839977867887
0.2235548530831189
0.2176821228264839
0.1874125102027518
0.2239850518245651
0.2235676936886951
0.2173850989559348
0.1826630039681972
0.2239862909967009
0.2235735833433237
0.2166920714254953
0.1762957240762744
0.2239878058956527
0.2235843944833875
0.2158866344467192
0.1703345814443272
0.2239889736906604
0.22398977619958
0.2239904723136615
0.2239921782952258
0.2235937790728064
0.223606388365443
0.2236309860739948
0.2237289733916143
0.2154911599544798
0.2156193388881338
0.2161524130840526
0.217186960056954
0.1659328053865771
0.1669648193127118
0.1656417227772371
0.1678070620122918
)
;

boundaryField
{
    back
    {
        type            empty;
    }
    inlet
    {
        type            calculated;
        value           nonuniform List<scalar> 
16
(
0.2239950333699092
0.2239950333699093
0.2239950333699093
0.2239950333699091
0.2239950333688954
0.2239950333711164
0.2239950334101331
0.2239950491721674
0.2239950491726298
0.2239950334101712
0.2239950333711129
0.2239950333692805
0.2239950333699092
0.2239950333699093
0.2239950333699093
0.2239950333699092
)
;
    }
    front
    {
        type            empty;
    }
    top
    {
        type            calculated;
        value           nonuniform List<scalar> 
40
(
0.2239951102656178
0.2239954104161532
0.2239974365368404
0.2239982637119274
0.2240068871943726
0.2240275009870725
0.2240631823354769
0.2240920366123055
0.2241039381780579
0.2240947906497315
0.2240751279450403
0.2240498942473857
0.2240259982124998
0.2240088004245514
0.2239968494660745
0.2239956631458861
0.2239969722976345
0.2240024276655823
0.2240164098673229
0.2240515663311471
0.2241161877665368
0.2242389220370006
0.2244194422228451
0.2247365784043107
0.2251962029592287
0.2256029143186972
0.2259181367808925
0.2248116314839492
0.2252500806322378
0.2251133304790763
0.2245472102760487
0.2241326567635538
0.2239666765675961
0.2239592821166678
0.2239642933577902
0.223961275202543
0.223970162757143
0.2239843542958301
0.2239907627290195
0.2239935452224282
)
;
    }
    outlet
    {
        type            calculated;
        value           uniform 0.2239950333699093;
    }
    bottom
    {
        type            calculated;
        value           nonuniform List<scalar> 
40
(
0.2239935452216819
0.2239907627285667
0.2239843542954739
0.2239701627571188
0.2239666765678638
0.2239592821165682
0.2239642933580658
0.2239612752026574
0.2241326567638058
0.2245472102762374
0.2251133304796229
0.2252500806326449
0.2251962029589598
0.2256029143186023
0.2259181367798724
0.2248116314837469
0.2247365784055601
0.2244194422225106
0.2242389220373666
0.2241161877667419
0.2239969722977537
0.2240024276662907
0.2240164098682603
0.2240515663312912
0.2239956631459132
0.223996849466011
0.2240088004249721
0.2240259982125178
0.2240498942476205
0.224075127944836
0.2240947906496763
0.2241039381777261
0.2240068871943306
0.2240275009865548
0.224063182335742
0.2240920366120814
0.2239982637122279
0.2239974365368536
0.2239954104159638
0.2239951102662631
)
;
    }
    wall
    {
        type            calculated;
        value           nonuniform List<scalar> 
104
(
0.2966930019243739
0.2920557795551609
0.2922134229978699
0.2913466754426324
0.2882091159923318
0.2861749082052423
0.2847622951621664
0.2763119890757583
0.1854595573767527
0.2028570326527519
0.2117027009237265
0.2145718291738873
0.2167264878002639
0.2194424093908017
0.2222188474354957
0.2245843334971923
0.2261610706906671
0.2309192660403507
0.2948366971793039
0.3264703845357155
0.4050684745808317
0.4035861982512962
0.3950858044425772
0.3853675357024011
0.3825094216572767
0.3851302705385641
0.3860278943462945
0.3871050424604754
0.3808151699485512
0.3637025635657067
0.3259297337802571
0.3282030945931986
0.07887522736808446
0.01934519444811758
0.02787709556005215
0.0366811149110514
0.04932821642679276
0.0599766332502577
0.06766938361040979
0.07643473336200036
0.08184879307506812
0.09620091607930184
0.1013344882515863
0.108696415422151
0.06187384760537239
0.06712172486295301
0.07297414705356184
0.0771281240682225
0.08029809366601241
0.0801875168172916
0.07900177069243317
0.078030230070986
0.0780302300709845
0.07900177069243056
0.08018751681729949
0.08029809366602313
0.07712812406824465
0.07297414705357044
0.06712172486294764
0.06187384760538445
0.1086964154221957
0.1013344882516739
0.09620091607940659
0.08184879307528549
0.07643473336223458
0.067669383610589
0.05997663325042881
0.04932821642683245
0.03668111491111575
0.0278770955600876
0.01934519444810306
0.07887522736803335
0.3282030945930849
0.3259297337801151
0.3637025635653455
0.3808151699480082
0.3871050424599192
0.386027894345637
0.3851302705382982
0.3825094216580038
0.3853675357018702
0.3950858044422525
0.4035861982506819
0.4050684745806528
0.3264703845355103
0.2948366971789553
0.2309192660403406
0.2261610706908356
0.2245843334976262
0.2222188474353362
0.2194424093902696
0.2167264878003268
0.2145718291735619
0.2117027009233255
0.2028570326530666
0.1854595573770695
0.2763119890755723
0.2847622951621275
0.28617490820545
0.2882091159920412
0.2913466754422753
0.2922134229977439
0.2920557795550051
0.2966930019241026
)
;
    }
}


// ************************************************************************* //
