/*--------------------------------*- C++ -*----------------------------------*\
  =========                 |
  \\      /  F ield         | OpenFOAM: The Open Source CFD Toolbox
   \\    /   O peration     | Website:  https://openfoam.org
    \\  /    A nd           | Version:  11
     \\/     M anipulation  |
\*---------------------------------------------------------------------------*/
FoamFile
{
    format      ascii;
    class       volScalarField;
    location    "8.3";
    object      p;
}
// * * * * * * * * * * * * * * * * * * * * * * * * * * * * * * * * * * * * * //

dimensions      [0 2 -2 0 0 0 0];

internalField   nonuniform List<scalar> 
4455
(
6836.8055
6850.8096
6874.2053
6908.8434
6952.0212
7011.9539
7091.0049
7197.3652
7342.3383
6761.5329
6783.2293
6815.2026
6856.1339
6905.4741
6971.7958
7061.4217
7185.3378
7380.3437
6682.545
6713.1422
6753.2298
6800.7922
6855.2203
6926.7611
7024.8483
7162.9427
7393.2954
6601.1837
6641.3844
6689.3744
6742.7633
6800.6576
6878.3344
6983.4584
7135.9435
7400.1507
6519.4789
6568.9785
6624.0836
6682.1504
6743.4668
6826.0006
6938.3946
7106.0772
7410.431
6438.7664
6496.8476
6558.068
6619.8539
6684.4934
6771.1442
6890.1351
7070.6624
7421.0841
6360.558
6425.8129
6492.0092
6556.4751
6623.5167
6713.8915
6839.3665
7029.8217
7426.2504
6286.047
6356.5442
6426.4259
6492.8827
6562.0998
6655.2449
6786.0008
6981.7721
7425.8517
6216.1742
6289.8849
6362.0098
6430.177
6500.9022
6596.3851
6731.1711
6927.2389
7416.4161
6151.5597
6092.6992
6040.1636
5994.1123
5954.7071
5921.983
5895.9421
5876.6019
5864.4318
6226.1689
6165.6629
6109.3945
6057.6086
6010.7689
5968.8428
5932.3329
5901.8536
5877.2255
6298.6916
6236.5927
6177.4178
6121.6652
6069.304
6020.5002
5975.0199
5932.4327
5892.0655
6366.8251
6302.811
6240.5502
6180.5971
6123.1469
6068.3118
6016.064
5966.5422
5919.4762
6437.6887
6371.6949
6306.6751
6243.0399
6180.8779
6120.1301
6060.9004
6003.4446
5946.3957
6533.6125
6465.4268
6397.1526
6329.3552
6262.0828
6196.0838
6131.6097
6069.3016
6007.2978
6670.9056
6601.1169
6528.0183
6452.8638
6375.4366
6297.3987
6219.4008
6143.0139
6066.7804
6860.0355
6770.0037
6677.0492
6582.6253
6487.5136
6395.0573
6304.8081
6215.7299
6125.1404
7397.1196
7308.3534
7115.4015
6894.1766
6704.0585
6531.4968
6355.5681
6192.0518
6036.3176
5861.9296
5858.5216
5851.2127
5840.7722
5827.0518
5811.2952
5791.8012
5770.116
5744.3968
5863.5247
5849.7369
5831.4895
5809.409
5784.9664
5757.2344
5726.259
5693.2477
5656.9518
5863.964
5841.2824
5817.5436
5792.2753
5765.0894
5735.0316
5701.8718
5666.0133
5627.5422
5886.0004
5858.378
5829.0603
5798.0513
5764.9698
5729.3623
5691.0184
5649.9384
5606.0407
5901.9393
5867.4038
5833.7739
5799.319
5762.9235
5723.9316
5682.0497
5637.0647
5589.0018
5955.7345
5914.0872
5873.0494
5830.6756
5786.1757
5738.9666
5689.2375
5637.0431
5582.5242
6002.0718
5948.6224
5897.5515
5846.4862
5793.528
5737.8355
5679.2151
5618.4854
5556.2791
6042.8617
5964.2459
5879.4922
5793.852
5709.7869
5629.2623
5551.0364
5474.887
5402.4951
5896.4452
5776.539
5667.2892
5563.3864
5458.1302
5351.488
5246.587
5149.249
5062.6327
5004.515
4953.8773
4920.9995
4920.9167
4955.9328
5014.9606
5086.7596
5166.4865
5249.5228
5339.0023
5281.1519
5228.2281
5182.7022
5145.0424
5117.02
5099.8853
5090.7777
5089.5136
5496.8704
5439.6232
5383.0001
5328.2506
5276.854
5229.6977
5186.0317
5146.7702
5110.9759
5527.9974
5473.6469
5418.0894
5361.8293
5305.7007
5250.6026
5196.6016
5143.557
5090.8713
5539.2725
5488.3311
5435.1519
5380.3159
5324.1337
5266.9778
5208.8473
5149.7125
5089.4165
5560.1045
5512.0414
5461.2667
5408.0595
5352.3565
5294.1952
5233.7165
5170.9892
5105.8471
5586.6024
5542.6343
5495.6961
5446.5259
5395.1752
5341.2987
5284.3404
5224.1784
5160.8154
5617.0622
5573.9957
5527.5031
5477.5599
5424.9282
5369.2768
5310.3565
5248.0606
5182.3096
5711.5554
5672.5374
5632.7921
5592.0066
5549.1445
5502.4615
5451.4315
5395.3496
5334.6796
5269.7486
5200.7784
5126.9674
5048.8487
4965.5943
4877.4812
4784.1148
4685.5992
4581.0076
5112.9261
5040.0634
4963.1199
4882.3666
4798.5276
4710.3989
4617.5212
4521.8215
4420.7599
5094.3921
5024.6098
4951.6072
4875.3634
4795.8803
4712.6853
4625.8928
4534.9127
4439.6727
5038.3376
4968.4511
4896.3421
4821.9384
4745.1376
4665.6599
4583.4065
4497.93
4408.7998
5027.9748
4965.3622
4901.7068
4836.9344
4771.027
4703.8493
4634.1642
4563.4325
4489.7116
5038.4998
4986.4748
4934.8518
4883.5931
4832.6416
4781.3226
4730.0907
4677.727
4623.5808
5078.4475
5049.6144
5025.1084
5002.361
4982.2554
4963.7595
4945.3235
4927.7767
4909.5745
5094.5429
5106.2285
5123.8178
5145.526
5171.4999
5201.95
5235.7234
5272.3205
5310.4042
5336.5024
5426.3942
5517.8726
5611.4247
5708.3409
5807.3616
5908.2306
6011.4621
6118.5752
6228.0075
5349.3097
4889.2993
4566.3714
4411.3342
4316.1934
4339.8993
4314.4629
4470.8836
6339.1239
5387.5787
4867.2408
4505.7352
4330.4973
4219.0273
4234.7679
4203.4772
4354.4566
6451.6727
5424.0675
4840.5981
4440.0377
4244.0681
4116.5384
4124.8876
4087.3741
4231.7907
6564.9198
5456.8204
4808.079
4369.2604
4150.9533
4009.3401
4010.4749
3966.3274
4102.7216
6674.7388
5483.4034
4769.231
4291.5765
4052.3803
3894.6724
3888.2828
3838.9896
3966.6206
6779.2616
5501.3938
4720.697
4205.6611
3945.8043
3773.7549
3761.6171
3706.1025
3824.3737
6868.6245
5507.4276
4661.6697
4109.7239
3830.2079
3645.7523
3628.2173
3567.009
3674.8895
6940.4781
5497.6064
4588.2745
4002.7058
3705.3561
3507.5929
3485.556
3421.9829
3519.3329
6967.8219
5463.5248
4497.2869
3882.0969
3569.6861
3363.0717
3338.1915
3270.4425
3358.535
3198.7298
3113.4171
3180.2707
3207.4289
3416.9765
3740.5384
4378.7499
5390.2502
6940.7134
3042.6567
2950.1924
3010.2981
3039.3671
3245.9693
3570.2
4211.2974
5229.7605
6669.5213
2868.0181
2780.1109
2834.7186
2861.0404
3057.3676
3371.0722
3996.0745
4995.4238
6346.227
2673.4041
2602.5254
2649.1971
2671.0812
2852.542
3148.1445
3747.9362
4727.3914
6031.8769
2471.3325
2418.1151
2453.873
2467.553
2628.273
2904.1753
3477.1539
4441.5792
5724.2416
2267.403
2228.3176
2253.4327
2256.6101
2392.7957
2646.0362
3190.4694
4141.3184
5415.0093
2062.5235
2033.571
2048.6134
2036.0646
2145.8831
2370.2635
2883.2913
3821.474
5097.5833
1856.5459
1836.0689
1836.6088
1808.9436
1887.7846
2079.6918
2557.1364
3479.6607
4760.7939
1651.9219
1639.321
1624.4452
1576.9895
1619.0843
1773.6179
2209.8759
3110.1202
4410.163
4051.2337
2715.1547
1839.833
1454.393
1345.4112
1343.1907
1412.1546
1442.6884
1449.9428
3678.0997
2292.4803
1445.6214
1120.532
1064.2737
1106.2093
1199.8333
1248.6912
1253.7635
3289.2868
1842.8333
1034.9793
777.37996
780.03534
869.92882
991.99557
1061.4373
1065.9366
2880.3844
1359.4643
602.752
424.60051
494.06105
637.8396
790.99234
881.63628
889.39171
2454.5967
841.96844
155.89766
68.449098
212.86845
412.07496
598.51259
711.91646
727.69468
1994.1907
288.44783
-308.0737
-288.88082
-61.646079
196.22047
417.52495
556.42519
583.15586
1482.5999
-298.24541
-776.75491
-639.54775
-324.84149
-5.380012
253.55873
417.35013
457.49598
937.36451
-924.03513
-1255.2023
-980.57017
-571.01766
-190.68179
105.51988
296.62146
352.64196
343.84581
-1582.9956
-1727.9535
-1302.9226
-797.38757
-356.10843
-19.92867
196.80668
284.64164
241.06462
121.46826
-123.96402
-499.89011
-1003.9324
-1611.3193
-2214.6324
-2326.955
-368.00562
222.59902
70.17244
-199.14404
-614.66387
-1179.6146
-1886.3835
-2680.7528
-3161.9796
-1269.3475
235.68893
43.982009
-243.37284
-695.51203
-1312.6038
-2108.8742
-3090.0095
-4018.1906
-2316.0684
280.44784
42.596286
-254.52376
-739.7931
-1401.8435
-2269.6539
-3418.9545
-4838.7082
-3521.365
351.97205
65.113823
-234.27305
-753.31728
-1447.9037
-2365.3617
-3649.6214
-5579.8137
-4951.7011
450.42119
111.55086
-184.32708
-734.47192
-1454.8414
-2397.3557
-3755.0317
-6138.861
-6670.5268
572.49603
180.36349
-108.9377
-689.75556
-1426.5901
-2377.8602
-3716.7668
-6449.5831
-8710.9923
715.20881
267.90442
-9.1060288
-616.41827
-1370.8241
-2322.4186
-3544.4301
-6458.2971
-10711.309
873.59832
369.64208
109.91632
-524.96172
-1292.9628
-2265.3043
-3315.8132
-6107.408
-12293.051
1029.3535
478.78761
247.19076
-420.31691
-1213.3959
-2255.8319
-3155.5976
-5688.1471
-13716.163
1171.7603
588.2067
369.30053
-349.12622
-1199.1941
-2368.079
-3405.9922
-6629.4411
-15569.906
1344.3106
700.98957
463.92238
-312.03666
-1258.8308
-2573.6919
-4003.1136
-8233.9737
-17333.337
1531.6686
822.2287
552.32473
-278.3603
-1330.9033
-2831.1099
-4593.0629
-9784.0657
-16504.89
1724.8613
957.90025
652.57899
-226.51076
-1383.944
-3071.8269
-5069.062
-11354.172
-14231.797
1917.5249
1107.8747
767.3138
-151.17068
-1416.8464
-3302.2584
-5470.596
-12943.352
-14139.84
2111.022
1270.7966
891.03063
-56.206114
-1422.6422
-3521.9821
-5913.5765
-14449.492
-15278.898
2302.6624
1442.0874
1020.6701
54.53108
-1421.1583
-3728.4618
-6485.515
-15591.334
-16748.628
2503.0644
1623.999
1154.8076
179.31141
-1394.713
-3907.1194
-7070.1116
-15899.023
-17149.028
-17008.361
-15781.435
-7442.7936
-4014.8029
-1352.8525
311.03892
1289.5834
1812.8471
2704.4902
-16995.929
-15748.866
-7625.9581
-4053.5728
-1273.701
458.2082
1426.8348
2002.6819
2893.4367
-16930.84
-15747.762
-7732.6648
-4037.2709
-1160.4214
622.27344
1569.291
2195.7222
3072.8403
-16844.947
-15678.854
-7809.3279
-4000.4774
-1029.4603
796.84741
1716.946
2391.3581
3252.4261
-16712.687
-15555.367
-7869.0299
-3949.958
-885.33659
971.10952
1868.0091
2589.0672
3430.7017
-16610.129
-15396.574
-7915.8057
-3896.5406
-738.9579
1141.5422
2020.6767
2785.5273
3595.8664
-16491.69
-15241.336
-7941.6562
-3830.6317
-588.10864
1310.5451
2172.2626
2977.8884
3752.4937
-16543.844
-15068.582
-7951.7661
-3747.2212
-431.08714
1476.9652
2324.469
3166.5933
3904.6668
-16546.885
-14930.673
-7930.4242
-3626.3277
-262.20734
1648.8246
2479.1348
3353.8862
4049.9629
-16438.483
-14241.817
-7556.1859
-3289.4337
84.682696
1948.3541
2756.3204
3662.6427
4282.3264
-15777.634
-13560.832
-7154.8842
-2698.6426
639.94583
2405.949
3112.3527
4061.5045
4541.8777
-14559.08
-13008.096
-6663.1547
-1948.4141
1224.8911
2828.1496
3499.649
4499.828
4718.6739
-13572.687
-12524.316
-6065.5891
-1191.6121
1766.9915
3185.6506
3844.5891
4798.1965
4760.4628
-12933.817
-12108.393
-5355.2809
-411.01312
2242.2172
3473.8419
4192.1983
5060.1446
4562.3462
-12612.868
-11777.055
-4557.916
334.37423
2638.4461
3700.5249
4465.0166
5126.5012
4221.8362
-12407.188
-11542.614
-3699.5903
870.21499
3034.09
3861.2766
4716.6364
5048.7524
3639.32
-12749.918
-11366.742
-2773.724
1327.4522
3338.0582
3923.8855
4814.2246
4701.2574
3001.0952
-12396.583
-11213.961
-1844.9097
1743.2893
3434.1617
3950.1143
4851.446
4330.386
2218.2934
-9274.2236
-8667.6109
-6346.7246
-3336.1341
-3715.3465
-1894.2771
-698.40796
324.31619
296.17236
-9455.0542
-8903.2953
-6308.1342
-2994.1587
-3142.3962
-1587.784
-497.83074
253.26477
299.11356
-9633.126
-9126.2908
-6234.2461
-2640.1226
-2553.4893
-1254.1144
-256.97873
200.53658
300.56833
-9803.2045
-9334.2886
-6112.9778
-2281.4531
-1960.0021
-894.69032
24.90843
165.22104
306.20178
-9969.1598
-9524.6799
-5950.2122
-1926.4471
-1373.7515
-518.43079
335.99406
148.74161
345.90701
-10124.894
-9700.2441
-5745.9813
-1579.577
-776.32035
-134.68533
656.6151
140.79975
442.21763
-10282.537
-9856.2297
-5490.8081
-1236.9677
-243.20034
244.27161
985.71419
156.05942
604.73133
-10428.964
-9989.7197
-5203.8879
-890.50283
258.86022
610.8536
1326.4748
214.50034
839.69989
-10576.346
-10115.864
-4901.5505
-536.75582
736.72281
966.91396
1667.6155
308.68295
1155.944
-4678.6619
-1872.5402
-1921.2215
-6629.3859
-2239.4636
-574.9995
553.65144
859.44173
655.54009
-4595.2232
-1812.8604
-1909.8578
-6263.7195
-2594.9101
-809.88381
380.7205
874.19136
732.52641
-4434.7922
-1689.4288
-1689.2836
-5814.9579
-2872.5449
-1074.4365
147.79568
803.75865
758.60839
-4388.0149
-1477.9746
-1521.6413
-5326.6496
-3061.9793
-1329.2131
-108.34871
672.80344
762.97141
-4431.7867
-1286.5105
-1207.9909
-4755.8922
-3147.0089
-1570.4301
-358.10167
465.7628
717.37615
-4416.5813
-1121.5649
-915.32967
-4164.9792
-3104.5262
-1720.9403
-578.48035
226.11472
636.36179
-4395.9286
-947.05846
-578.81739
-3517.3351
-2917.2097
-1806.1282
-775.22049
-6.519137
510.41624
-4373.8446
-761.21265
-241.20512
-2823.5078
-2591.5091
-1779.1327
-882.79112
-231.64642
360.13157
-4334.0448
-680.78453
128.86067
-2101.0778
-2142.2512
-1658.081
-908.39864
-399.48644
198.34626
-144.89991
-163.57964
-166.90422
-198.89611
-136.50355
-159.7867
1737.9815
1171.4325
-4382.9928
-176.72632
-268.84335
-294.14949
-384.8039
-337.81075
-392.76884
1744.6028
1084.9063
-4361.8445
-186.52469
-354.89869
-414.35722
-567.85719
-545.35698
-643.89746
1681.5269
941.8701
-4277.967
-181.43401
-419.81869
-524.98138
-746.98617
-754.85161
-867.25252
1548.7961
779.02434
-4267.7837
-161.31471
-465.46802
-620.92534
-916.18685
-963.68858
-1071.6698
1354.6877
618.296
-4227.1862
-131.01484
-495.66096
-702.6317
-1077.0519
-1173.6748
-1248.3139
1128.7957
312.90366
-4269.2578
-89.267472
-507.63668
-771.49883
-1228.746
-1384.9258
-1419.5401
869.64288
75.171086
-4255.7394
-41.149956
-500.62079
-827.15055
-1367.8113
-1594.6701
-1587.5204
623.03695
-170.10975
-4317.5653
43.53156
-474.21799
-869.82541
-1492.2357
-1810.9934
-1791.1255
398.52292
-504.59231
-4276.3121
-4461.3515
1423.8415
1714.6976
65.643372
75.286068
0.93147673
-26.594551
-41.173071
-91.361328
-4207.3763
1664.9906
1705.5314
320.5289
303.74545
217.95922
131.36995
94.987214
-21.835791
-4023.6849
1811.4361
1672.8517
563.30799
530.8881
433.27166
300.0883
238.70847
51.710096
-3430.2595
2272.9612
1647.0646
783.01467
748.59697
640.51178
475.73817
388.94293
152.35085
-2997.3185
2851.7984
1670.1879
974.52506
951.05655
840.16648
658.9115
552.28147
271.18454
-4456.3104
3227.003
1768.2876
1147.2067
1143.7284
1032.2994
845.30116
725.74857
396.09783
-4872.9067
3463.3803
1920.1666
1318.854
1334.6523
1222.3198
1035.1069
906.9903
534.94537
-3566.5893
3563.6093
2115.4651
1522.7248
1530.1206
1416.1464
1233.3006
1096.6832
701.24561
-2581.6874
3504.8132
2355.2206
1773.2803
1735.8107
1612.7444
1437.0716
1298.4215
906.08951
3086.8513
3383.6039
3441.7
3553.25
3654.6942
3664.4723
3727.6512
3603.6862
4707.2696
2862.6166
3152.6965
3217.2996
3335.8503
3437.3909
3443.7504
3468.972
3168.831
4105.0461
2618.0819
2918.4202
2992.0193
3117.4611
3221.3279
3236.8331
3244.2317
2771.2009
3409.4022
2362.814
2682.2907
2768.8036
2899.1232
3006.0669
3038.7696
3061.3415
2439.9438
2582.9241
2109.3224
2443.4598
2539.9434
2680.6818
2797.5287
2848.1572
2923.1546
2215.0695
1634.1543
1866.1357
2207.1739
2315.5026
2458.3323
2585.0194
2658.9519
2823.8394
2121.4163
543.61908
1630.5929
1970.0232
2089.1556
2240.8952
2371.2519
2465.7162
2745.6807
2190.9342
-575.79667
1409.649
1739.8529
1867.5673
2025.4761
2158.3637
2258.2859
2666.7607
2481.4746
-1588.3208
1153.4716
1514.0406
1652.5126
1816.8803
1947.5826
2033.3156
2561.4974
3011.5936
-2171.4256
5182.7098
4010.3022
3996.7256
3885.9092
3872.0306
3765.543
3660.8109
3607.8755
3319.3083
5586.5091
4390.0031
4263.0596
4107.3405
4087.7859
3973.7959
3879.2691
3826.0722
3562.3936
5953.9032
4759.54
4540.2763
4334.4134
4303.2837
4180.3418
4093.6292
4039.8767
3805.5713
6308.2489
5121.0153
4823.4136
4564.8637
4519.3452
4384.7073
4305.4071
4248.0568
4043.2353
6638.0709
5464.6948
5103.1996
4797.0224
4734.4194
4587.3399
4513.9541
4452.1218
4274.8636
6950.3372
5793.618
5379.6909
5027.5197
4946.3739
4785.9371
4714.3536
4648.5642
4498.6561
7251.6546
6107.7871
5648.4293
5255.4488
5152.4
4978.7855
4911.7464
4839.224
4716.0326
7538.4544
6406.3401
5907.9898
5477.2995
5352.1465
5166.6657
5101.5803
5023.3458
4924.1333
7819.6882
6689.6143
6156.4058
5691.9319
5547.4093
5347.0553
5281.2168
5199.4583
5123.5645
6430.7466
6400.8816
6520.9165
6576.0612
6870.1654
7104.4432
7735.3153
8396.1279
9766.2572
6343.3876
6304.7739
6422.9887
6478.1926
6776.4845
7010.4155
7648.2903
8323.5433
9696.3169
6240.6225
6200.4521
6313.9867
6372.2521
6664.4427
6894.0208
7525.8537
8192.1403
9512.4371
6112.9165
6086.5212
6194.1959
6253.658
6539.9421
6758.3465
7376.9226
8030.0772
9304.3392
5969.0238
5960.4175
6065.1623
6126.8802
6401.2593
6608.0047
7208.6469
7850.0134
9082.0821
5816.4911
5826.3926
5926.0389
5988.8172
6247.4825
6446.2244
7025.0681
7655.3124
8852.1799
5656.6047
5681.7855
5777.8416
5842.3574
6086.2355
6273.4536
6827.3556
7442.3325
8607.9905
5489.4847
5529.6189
5621.5946
5687.42
5914.2116
6090.8674
6616.3216
7208.9864
8355.2472
5311.4305
5368.2566
5454.9974
5519.3457
5734.336
5896.6908
6392.4066
6957.2077
8091.8217
6517.2639
6602.3246
6681.5576
6754.5133
6821.316
6881.5534
6935.7881
6984.6029
7027.9515
6490.629
6573.4513
6650.4284
6720.844
6785.9645
6844.7815
6898.3316
6946.4648
6991.2097
6608.1283
6684.8626
6754.4955
6817.9725
6875.7811
6928.0197
6974.5927
7016.7086
7055.657
6662.4098
6740.4133
6812.7558
6877.8129
6936.2318
6984.9208
7032.1826
7073.6974
7108.8183
6946.1395
7010.1004
7064.5448
7113.5619
7154.6968
7190.9136
7224.0395
7251.087
7274.5363
7178.1196
7238.7516
7290.03
7331.7623
7366.1951
7394.7544
7417.1316
7435.7238
7450.2729
7785.1742
7815.9065
7834.8232
7845.6445
7849.5183
7847.6591
7842.0768
7832.8029
7820.5463
8410.009
8408.8713
8396.1092
8374.3457
8346.1974
8310.7949
8268.324
8225.7819
8187.4583
9688.0137
9611.3342
9526.6039
9445.1387
9361.1248
9272.1463
9178.838
9084.0316
8988.2351
7066.5797
7030.7686
7088.8724
7142.4086
7296.3919
7461.541
7806.9543
8147.7629
8894.5664
7100.4862
7065.8475
7120.0288
7171.5874
7313.8673
7470.2376
7792.2197
8105.1347
8800.2058
7130.7717
7098.5788
7147.2648
7197.4769
7329.5961
7477.2736
7776.4741
8064.6002
8715.4919
7156.9823
7127.3017
7171.8018
7220.1163
7344.1432
7482.2197
7759.3126
8026.4468
8636.6168
7180.4183
7152.9185
7193.7428
7239.6581
7356.0417
7485.3684
7741.9086
7986.0944
8555.4214
7200.9787
7175.8446
7213.4637
7257.6015
7366.2461
7487.7187
7724.2628
7942.0887
8473.6584
7219.453
7196.4905
7230.7836
7273.1892
7376.7272
7490.0127
7706.6418
7898.59
8379.8431
7234.6424
7213.6381
7245.969
7285.6197
7384.6995
7492.2523
7690.0653
7858.1033
8277.9393
7246.9886
7229.1879
7258.1032
7297.6566
7389.959
7494.3534
7675.6645
7819.6491
8180.1589
7293.9075
7291.3598
7312.1713
7338.6194
7413.7052
7500.0998
7643.7119
7715.438
7683.3165
7292.6089
7289.4146
7310.5246
7337.6135
7414.9675
7500.4437
7642.5891
7703.6876
7665.5546
7290.575
7286.4102
7308.4343
7336.3916
7415.7078
7500.6917
7641.9833
7697.4625
7666.8166
7287.4947
7282.3904
7306.2015
7334.7892
7415.5585
7501.4219
7640.7691
7697.8516
7694.8439
7283.2593
7277.4975
7301.1656
7332.0832
7414.204
7502.4472
7640.7198
7704.9952
7747.7368
7277.9184
7271.4898
7294.1893
7328.3951
7411.1693
7501.9001
7643.5364
7715.7043
7820.636
7272.2101
7263.7117
7287.0364
7323.3904
7407.1903
7500.7808
7649.2651
7730.491
7903.757
7265.5173
7254.2392
7279.633
7317.2968
7402.4976
7499.1962
7656.3271
7753.8864
7991.9459
7257.0871
7243.0983
7269.5841
7308.9887
7396.0878
7496.8079
7664.5285
7784.5812
8084.641
7700.5259
7734.6325
7647.0429
7500.0513
7412.2574
7338.4576
7312.5892
7292.7563
7294.2663
7735.6018
7760.2287
7650.7573
7498.3705
7409.8297
7336.6075
7312.6669
7293.3468
7294.3597
7782.5496
7786.1315
7654.3342
7494.6027
7406.58
7333.9704
7312.085
7293.3157
7294.3451
7835.6433
7809.6001
7656.0937
7488.4362
7402.1536
7330.8497
7310.9113
7292.7496
7294.0996
7891.8463
7830.6261
7653.375
7480.2331
7396.0908
7326.4664
7309.4154
7291.818
7293.697
7952.635
7846.6942
7646.3331
7469.8202
7388.3631
7321.0165
7307.4347
7290.6443
7293.4236
8014.1146
7858.3285
7635.8707
7457.7757
7379.2905
7315.2986
7304.6726
7289.5029
7293.3669
8072.2567
7866.8889
7624.6531
7445.6637
7369.9459
7310.6279
7301.3479
7288.5079
7293.6166
8128.8541
7876.8891
7617.8066
7437.7411
7363.0485
7309.093
7298.631
7288.3187
7293.5628
8190.0176
7894.1545
7621.5258
7440.4494
7362.318
7312.2583
7297.367
7289.6373
7292.4726
8255.2187
7911.5659
7625.8613
7444.9375
7362.6411
7314.4722
7296.0111
7289.5805
7291.0519
8313.7871
7923.8581
7627.3531
7448.224
7362.7127
7314.6017
7294.2172
7288.3261
7289.3423
8361.143
7929.7693
7622.7931
7448.7253
7361.0719
7312.7371
7291.4421
7285.9248
7287.0241
8397.0145
7925.9225
7610.8124
7445.6632
7357.2145
7308.8225
7287.1551
7282.1842
7283.7981
8413.1059
7909.5484
7590.658
7438.273
7350.6271
7302.7174
7280.8704
7276.7634
7279.2589
8379.4582
7876.1723
7563.1362
7426.825
7340.9842
7293.9816
7272.2381
7269.3116
7272.9575
8244.4066
7826.7657
7532.0334
7410.9196
7327.9617
7282.1617
7260.9173
7259.3885
7264.3406
8047.3772
7760.6522
7499.4646
7390.286
7311.1816
7267.1586
7246.5068
7246.358
7252.7564
6907.1517
6914.3832
6930.2309
6958.529
6998.5817
7055.2884
7128.5091
7227.085
7368.0249
6971.7039
6973.1572
6984.4618
7008.917
7048.9746
7107.0628
7183.9425
7291.5491
7454.3236
7029.9241
7026.7748
7033.5604
7055.7969
7095.0998
7154.1958
7231.8048
7341.1656
7490.4203
7081.1504
7074.4974
7077.9056
7098.5144
7137.6416
7198.2497
7279.0367
7393.7155
7548.4435
7125.2192
7116.2476
7117.5695
7136.9822
7176.6657
7239.4034
7324.3506
7449.3363
7610.5334
7162.2945
7152.4454
7152.3447
7171.2262
7211.4363
7277.2484
7366.3247
7507.7894
7674.5071
7192.9497
7183.2961
7182.1645
7200.9741
7242.4701
7311.3257
7404.027
7568.3369
7743.7007
7217.8624
7208.8959
7207.358
7226.8394
7269.1941
7340.991
7437.7143
7629.8375
7820.3951
7237.5192
7229.7021
7228.6668
7248.6419
7291.4347
7366.4896
7467.9458
7690.9724
7909.4864
7585.7553
7646.3022
7703.6703
7778.3549
7869.1925
7983.5425
8133.9487
8342.0223
8626.6929
7616.2164
7672.5293
7734.9304
7814.5157
7909.8072
8029.7946
8186.5763
8401.5559
8688.7314
7646.204
7700.5989
7765.3494
7849.0593
7950.0229
8078.1865
8244.2209
8469.5946
8766.2795
7677.26
7731.8935
7798.7388
7884.73
7991.297
8125.9965
8299.2481
8534.7488
8840.0174
7709.269
7764.5944
7833.2779
7920.9225
8028.9477
8168.257
8347.4821
8590.5203
8896.575
7732.8248
7787.9715
7856.3952
7942.9436
8050.8969
8187.6049
8366.0525
8622.8816
8913.8598
7738.1791
7787.7527
7852.8888
7935.4151
8040.7209
8172.0898
8334.5976
8622.8323
8860.1679
7700.7814
7746.2197
7806.7208
7877.7543
7967.3879
8092.8345
8193.67
8579.4054
8675.0323
7605.4702
7643.47
7689.1231
7754.162
7796.1878
7945.8326
7885.7048
8493.7103
8275.7222
5239.9426
7053.2776
6768.0434
7343.0355
7250.9557
7411.1081
7367.2716
7403.9814
7335.0963
5965.0348
6173.5335
6125.6936
6451.3924
6393.0403
6618.6717
6589.8302
6725.651
6670.268
6183.6466
6215.9204
6128.8154
6244.4714
6175.6748
6300.6257
6248.3344
6345.7152
6316.1603
6152.17
6195.7696
6155.3157
6215.5367
6166.0485
6234.1511
6189.0089
6249.7678
6219.6459
6081.2987
6120.2169
6080.2155
6153.0073
6090.3983
6147.4317
6108.101
6158.538
6115.2901
6000.8885
6023.9184
6002.4382
6040.602
6007.7703
6042.8016
6008.4676
6036.7409
6007.5394
5923.4627
5932.2548
5918.3786
5938.757
5927.0951
5949.9834
5941.3894
5960.5803
5952.4414
5822.7935
5826.9669
5813.9891
5828.1499
5813.4121
5829.3176
5818.4905
5833.8345
5823.1755
5717.5516
5714.9649
5705.5538
5709.5445
5699.848
5704.9478
5697.8509
5705.6256
5695.3813
5566.3225
5426.7801
5261.7223
5060.7458
4834.5561
4557.7897
4235.8811
3880.4968
3632.665
5577.3456
5435.8783
5269.6237
5067.3461
4830.4245
4551.459
4213.984
3858.0434
3551.9029
5568.5708
5430.5281
5262.0786
5061.1953
4817.8209
4534.4691
4186.1514
3813.2857
3448.9266
5578.1788
5434.3357
5268.3275
5060.7386
4816.4743
4521.4039
4161.7936
3753.4788
3327.4578
5571.5201
5434.7085
5264.8158
5062.6827
4812.4438
4513.0218
4139.1628
3693.4371
3200.2781
5584.7562
5442.14
5274.8165
5068.113
4818.9657
4510.4051
4125.2392
3636.7546
3074.2417
5579.9984
5445.0477
5275.8708
5075.5771
4822.5024
4517.5066
4118.7815
3603.3977
2969.4772
5593.2278
5452.0976
5285.7352
5081.7047
4833.4807
4518.0925
4122.9032
3567.7782
2943.9328
5598.3635
5463.921
5297.7967
5101.9461
4851.7408
4551.282
4144.8639
3602.8066
2803.5671
3679.3603
3908.8285
4258.1679
4540.9058
4714.1133
4842.6914
4965.7648
5096.0994
5221.9252
3557.7876
3804.0681
4211.9705
4520.0325
4698.6349
4830.7104
4956.9812
5089.0681
5217.9173
3411.7874
3697.7451
4177.6292
4504.7782
4683.2838
4819.3417
4950.1043
5083.7102
5213.4496
3237.4016
3585.222
4141.4951
4484.9217
4665.7442
4808.029
4946.5362
5083.6576
5216.2609
3022.4403
3478.3956
4102.8567
4455.4253
4640.4936
4789.2671
4932.5466
5070.526
5204.7197
2711.9332
3420.82
4122.6788
4463.5832
4644.9806
4795.9948
4941.9167
5080.4618
5213.8823
2260.7649
3220.2904
4052.0379
4403.7881
4604.8642
4769.9291
4923.3664
5065.4166
5201.3229
1883.856
3302.2509
4123.9681
4431.895
4626.6209
4791.4155
4939.4511
5075.9116
5208.6203
655.72224
3096.3901
4081.1598
4386.1151
4599.8351
4774.5447
4930.6731
5069.5257
5203.9133
5347.8565
5463.0309
5578.0479
5693.2645
5816.1178
5942.8325
6081.2646
6227.0137
6388.9123
5345.6405
5464.2632
5580.5024
5698.0724
5821.4119
5950.2354
6089.7832
6238.2202
6400.8238
5342.2321
5462.366
5580.5319
5699.5469
5824.499
5955.1141
6096.3167
6247.2889
6412.0928
5345.0627
5467.8009
5586.0119
5707.0666
5831.3974
5963.6549
6105.0228
6257.9311
6423.8719
5334.6561
5459.9119
5580.2802
5703.8123
5829.3297
5963.828
6106.4279
6261.9667
6429.3466
5343.3911
5469.1446
5589.4314
5713.4319
5838.47
5973.5431
6116.5806
6272.3822
6441.2186
5331.4738
5459.4623
5581.4979
5708.2224
5833.6487
5970.9008
6114.4261
6272.1394
6441.869
5338.0256
5465.2403
5588.1075
5713.747
5839.3656
5976.4537
6121.098
6278.0487
6449.3024
5333.7124
5462.0645
5585.1852
5711.6633
5837.798
5975.8315
6120.2463
6277.9324
6449.2726
6562.9581
6758.8081
6968.9626
7207.915
7458.9371
7735.9872
8010.2133
8290.4124
8499.6191
6578.7551
6776.3374
6992.2026
7234.7673
7496.0246
7781.8405
8071.3233
8370.0994
8598.9251
6593.8166
6793.5714
7015.1954
7261.792
7532.3992
7827.0238
8134.4528
8448.8623
8698.1174
6609.0979
6810.4164
7037.2602
7287.6774
7566.5775
7869.0678
8194.3283
8521.8848
8793.141
6617.515
6821.3403
7051.9162
7307.3291
7594.3212
7905.9643
8248.0218
8589.6133
8884.3545
6630.4699
6836.0572
7069.4016
7328.4356
7621.1331
7941.2392
8298.0064
8652.8621
8968.2317
6633.8358
6840.5081
7078.1404
7338.5116
7639.287
7963.0478
8336.3782
8699.5975
9040.8419
6641.0471
6849.5023
7087.0285
7351.32
7653.4219
7984.2878
8364.8902
8742.3301
9107.3325
6642.0789
6850.4807
7089.8277
7353.9645
7659.1228
7990.1994
8378.2402
8758.2661
9149.1154
8545.0942
7882.6049
7401.2459
7023.865
6640.0706
6260.0266
5879.9155
5492.1255
5110.855
8676.8184
7979.0412
7485.4872
7099.0725
6708.5269
6320.28
5934.5557
5543.8176
5160.1647
8815.1749
8072.6027
7565.594
7168.5088
6773.1629
6378.2053
5989.4547
5596.5382
5211.2076
8955.4283
8165.228
7646.1461
7234.3766
6833.5078
6430.1321
6040.8713
5644.4533
5259.965
9098.2886
8258.1031
7728.9362
7308.6797
6902.2954
6492.3608
6097.5359
5701.7478
5314.5457
9243.2008
8352.1524
7801.5017
7361.9337
6953.1952
6534.2062
6141.6549
5737.6814
5352.5862
9369.7393
8460.77
7897.7959
7445.8916
7029.2167
6609.5142
6211.424
5810.8592
5422.2581
9478.4718
8524.4289
7942.0215
7474.0249
7055.7842
6627.5252
6231.416
5825.0364
5438.3709
9583.1872
8675.9785
8063.432
7577.6978
7152.8296
6721.417
6321.7513
5914.4474
5525.8983
4730.2061
4348.1725
3951.8364
3547.3581
3128.0247
2686.5235
2220.9702
1726.8105
1199.2882
4776.7248
4394.4628
3998.3465
3594.0196
3172.8484
2730.786
2266.0784
1772.2604
1247.1395
4826.4108
4443.745
4048.4721
3645.7334
3226.4946
2786.0996
2325.9387
1834.5748
1315.3072
4870.6652
4490.9391
4094.3666
3695.7473
3272.8665
2835.7227
2375.6131
1889.7429
1374.4358
4926.8766
4543.2475
4149.126
3748.7447
3330.643
2893.0881
2438.3359
1951.7125
1440.4608
4958.5711
4580.8857
4183.0404
3789.7657
3365.3465
2932.4492
2475.9272
1996.9077
1487.2593
5029.7538
4648.288
4252.8011
3858.514
3439.4225
3007.4207
2554.8257
2078.4188
1568.7293
5042.5038
4665.3281
4267.5129
3877.2072
3454.4599
3025.2795
2572.1938
2100.3231
1592.7471
5128.9308
4750.6779
4353.8992
3965.5952
3546.7249
3119.9646
2670.8331
2206.7099
1696.2495
582.88541
-161.85588
-958.73391
-1849.8527
-2744.4249
-3552.0339
-4515.7638
-6176.3612
-8691.1783
634.4348
-91.620245
-868.4603
-1727.4369
-2588.8125
-3359.8865
-4218.5391
-5762.714
-8199.8101
712.24717
9.2421463
-746.02728
-1572.7393
-2448.1697
-3286.6074
-4179.6043
-5602.1153
-7693.3874
786.36365
103.38257
-626.56134
-1429.5959
-2300.6202
-3152.2225
-4033.2852
-5332.0983
-7095.1208
860.27077
196.38333
-509.01248
-1287.529
-2135.1397
-2979.5102
-3830.2441
-4977.4589
-6319.8191
928.9455
280.09475
-393.66956
-1154.2605
-1980.638
-2837.6213
-3676.9582
-4695.537
-5391.2747
1021.7696
389.90636
-244.88077
-980.71157
-1767.1116
-2640.6878
-3420.7649
-4536.0304
-4147.7464
1067.2605
442.03178
-171.48174
-889.85734
-1664.5033
-2526.0246
-3443.7395
-4235.7562
-4687.2284
1191.7439
596.04671
31.21067
-642.80336
-1344.6954
-2155.3684
-2957.951
-4722.6881
162.66625
-12009.726
-14945.696
-16649.023
-16029.914
-16461.435
-16747.567
-17350.735
-17400.938
-16257.55
-11783.716
-15058.946
-16459.555
-15827.372
-16434.184
-16717.589
-17285.268
-17318.359
-16206.611
-11716.552
-15262.133
-16136.904
-15706.063
-16412.739
-16837.794
-17378.124
-17223.536
-16085.555
-11822.852
-15424.349
-15746.853
-15669.292
-16396.531
-16857.001
-17338.307
-17130.931
-15957.179
-12046.076
-15478.303
-15251.371
-15636.962
-16407.788
-16918.58
-17315.151
-16996.835
-15813.707
-11791.876
-15336.41
-15097.26
-15675.392
-16421.451
-16942.274
-17278.085
-16868.568
-15672.648
-10698.411
-15153.701
-15231.898
-15758.409
-16478.979
-16948.706
-17218.671
-16717.311
-15532.917
-11515.774
-15706.41
-15054.3
-15918.536
-16518.428
-16998.853
-17184.942
-16604.75
-15433.132
-24147.815
-13415.662
-15653.072
-16117.371
-16638.404
-17019.459
-17111.419
-16485.899
-15348.07
-14595.315
-13679.346
-12684.958
-11689.727
-11202.714
-11224.873
-11690.777
-14092.944
-14429.954
-14621.088
-13630.974
-12555.917
-11481.916
-10941.688
-10992.567
-11535.562
-14148.391
-14444.764
-14548.216
-13512.844
-12381.037
-11278.31
-10780.806
-10941.918
-11725.122
-14212.301
-14801.085
-14426.628
-13333.243
-12145.618
-11030.095
-10598.48
-10883.104
-11952.046
-14074.34
-14945.804
-14288.47
-13137.409
-11871.291
-10760.973
-10392.109
-10786.334
-12098.656
-13975.193
-15016.225
-14163.218
-12954.942
-11589.978
-10491.253
-10195.914
-10692.375
-12143.41
-13746.213
-14784.094
-14040.138
-12782.338
-11315.471
-10252.968
-10025.57
-10652.514
-12114.338
-13581.593
-14265.305
-13961.314
-12663.797
-11099.448