/*--------------------------------*- C++ -*----------------------------------*\
  =========                 |
  \\      /  F ield         | OpenFOAM: The Open Source CFD Toolbox
   \\    /   O peration     | Website:  https://openfoam.org
    \\  /    A nd           | Version:  11
     \\/     M anipulation  |
\*---------------------------------------------------------------------------*/
FoamFile
{
    format      ascii;
    class       volScalarField;
    location    "9.525";
    object      p;
}
// * * * * * * * * * * * * * * * * * * * * * * * * * * * * * * * * * * * * * //

dimensions      [0 2 -2 0 0 0 0];

internalField   nonuniform List<scalar> 
4455
(
5734.8481
5746.8627
5768.5183
5799.8362
5842.6653
5898.1932
5975.5697
6078.6115
6236.9418
5686.2775
5702.7406
5729.2001
5765.6312
5811.2251
5869.4493
5952.9452
6066.3514
6268.9492
5633.7384
5655.3491
5687.9116
5728.4119
5776.2355
5836.904
5922.8254
6043.6021
6288.7312
5578.3706
5606.4638
5644.6884
5688.3384
5737.9778
5800.9849
5888.0342
6016.4137
6306.5603
5521.9043
5556.8088
5599.5017
5646.5179
5697.2033
5761.5161
5849.4402
5984.0125
6325.8048
5465.6645
5506.5725
5553.6683
5603.0028
5654.3134
5720.4662
5808.3382
5944.1453
6343.9515
5410.6042
5456.8306
5507.5179
5558.1226
5610.2305
5677.8862
5765.1123
5897.554
6359.2097
5357.8821
5408.0363
5461.3995
5512.8237
5565.4835
5634.2559
5720.2196
5842.9808
6367.4547
5308.2211
5360.923
5415.6863
5467.7944
5520.692
5589.915
5675.576
5782.2241
6356.3597
5262.0065
5219.791
5182.0884
5149.1396
5120.9657
5097.4144
5078.551
5064.8263
5056.9695
5315.7279
5272.5517
5232.1661
5194.9854
5161.0571
5130.9066
5105.0194
5082.731
5064.1173
5370.4428
5325.8308
5283.4072
5243.401
5205.6143
5170.2131
5137.3057
5107.1382
5079.2701
5422.2216
5376.1072
5331.2708
5287.8363
5245.9969
5205.766
5166.737
5128.4694
5090.4823
5474.4827
5426.3021
5378.86
5332.7515
5288.1543
5245.7753
5206.2127
5169.129
5133.9362
5542.6101
5490.8975
5438.7471
5386.1431
5333.0629
5279.5711
5226.5178
5175.0342
5118.3172
5628.0921
5574.8517
5520.4159
5467.3115
5416.1766
5368.4857
5323.7181
5281.7228
5238.5939
5709.3028
5619.7509
5528.8555
5435.4995
5345.6474
5264.5775
5190.0359
5121.3711
5054.2758
6316.037
6162.4035
5925.7234
5722.4739
5536.7415
5362.9882
5201.246
5050.2885
4902.3621
5055.8663
5053.8226
5048.3949
5040.9637
5031.1626
5020.1427
5006.3961
4991.2736
4972.9381
5053.47
5043.5647
5031.2567
5016.3538
4998.6312
4978.6667
4956.5952
4932.1533
4905.2999
5061.2483
5045.3976
5027.9299
5009.1789
4989.0613
4967.3641
4943.6725
4917.792
4889.7312
5063.4655
5043.3004
5023.0081
5001.3732
4977.7601
4952.2208
4924.9519
4896.2483
4865.8793
5108.59
5084.5106
5057.6338
5029.1854
4999.7265
4969.3369
4937.4534
4903.4602
4866.903
5075.8634
5044.8054
5015.1204
4985.0004
4953.8398
4920.6415
4885.6837
4849.9246
4813.5058
5195.9318
5152.5105
5106.0274
5059.0088
5012.5752
4967.7757
4924.4917
4881.3807
4838.0668
4996.5056
4944.2494
4889.6521
4830.5849
4768.5754
4705.8925
4646.8191
4595.7954
4551.9234
4790.8428
4699.1825
4619.2823
4546.6771
4482.0692
4431.5544
4386.3954
4337.4153
4290.4529
4274.6462
4267.2524
4273.784
4309.4498
4380.7924
4478.7027
4587.1287
4702.5413
4823.5239
4515.2527
4480.178
4448.3371
4424.2674
4410.196
4408.1861
4420.3578
4444.0393
4476.4158
4798.0512
4761.169
4726.7029
4695.3353
4666.7441
4641.3488
4619.3725
4601.0578
4587.382
4777.3836
4740.9843
4703.2722
4665.2478
4627.6716
4591.0946
4556.3348
4524.3765
4494.5196
4829.8416
4792.5562
4754.5577
4715.8012
4676.2268
4636.3461
4595.7784
4555.6933
4515.2042
4833.9811
4799.8292
4762.9938
4723.8771
4683.5409
4641.8122
4598.3393
4553.7471
4507.2887
4860.0166
4828.6978
4795.3343
4759.8871
4722.5307
4683.3356
4642.1269
4598.9674
4553.4065
4877.0091
4846.6552
4813.1955
4776.7518
4738.2946
4697.8374
4655.1475
4609.8137
4561.686
4949.3689
4920.359
4890.9262
4861.0761
4830.3691
4797.1885
4761.0273
4721.1945
4677.4042
4629.9781
4578.882
4524.1289
4465.9196
4404.1995
4337.4144
4266.4163
4190.141
4108.8
4510.2704
4455.7685
4398.6291
4337.7476
4274.3372
4206.8317
4135.7078
4060.6964
3980.8822
4504.9015
4454.1931
4401.6154
4344.6456
4286.0954
4224.9349
4159.0325
4091.2618
4018.4028
4459.5878
4409.9711
4358.521
4305.3295
4249.8177
4193.1544
4132.6803
4070.5868
4004.7518
4474.3264
4433.7758
4391.6695
4349.1386
4306.7846
4262.5587
4217.3727
4171.6553
4121.8755
4466.3831
4439.5339
4413.5422
4387.8404
4362.7624
4338.0658
4313.9404
4289.288
4263.6785
4578.6832
4574.0776
4573.3126
4575.4055
4581.554
4590.9
4601.9265
4612.7115
4622.8316
4516.9549
4565.0876
4619.4311
4679.094
4741.6787
4805.4956
4871.3802
4939.4236
5009.0971
4948.1907
5072.8914
5201.1733
5327.0996
5454.9177
5582.9374
5712.4647
5845.5234
5978.5772
6113.1979
5078.4779
4632.1827
4235.4521
4070.0346
3935.0798
3941.0517
3896.8417
4021.8029
6248.6984
5146.1707
4639.1022
4203.8468
4015.5773
3861.432
3860.7748
3807.4247
3928.7214
6383.7352
5210.5674
4641.8543
4167.4046
3955.2205
3782.6698
3773.0197
3712.2317
3829.2356
6517.6722
5270.1128
4639.7043
4125.2148
3889.7992
3697.3764
3681.4939
3611.4264
3722.6296
6645.8907
5322.1746
4630.7831
4076.1786
3819.4683
3607.0062
3584.0212
3504.2679
3608.899
6762.4906
5364.2923
4613.3707
4017.0757
3740.616
3507.6872
3478.4845
3390.2061
3487.7415
6858.2229
5392.7857
4585.2739
3950.1103
3654.7655
3400.4544
3367.6952
3268.8767
3358.6645
6934.5284
5404.3252
4544.2961
3870.8213
3559.7451
3285.1984
3248.7226
3140.5865
3221.5882
6971.238
5394.0018
4486.8204
3777.384
3453.8454
3158.9881
3120.4417
3004.6655
3077.2412
2928.7275
2861.3195
2981.6575
3022.9014
3331.6998
3664.9011
4403.3722
5350.8571
6964.2548
2782.2296
2710.5263
2830.4337
2875.8948
3186.7073
3524.7778
4271.6168
5230.2505
6760.5434
2622.001
2551.5231
2663.3476
2714.6303
3021.3841
3356.6853
4093.3262
5036.4839
6466.6685
2437.3539
2381.7871
2487.5737
2540.6626
2836.5714
3165.089
3883.2455
4806.9182
6179.6516
2234.4692
2203.6365
2299.6767
2353.2994
2634.7587
2952.0195
3650.8353
4560.5874
5895.2671
2023.8177
2013.1752
2101.3245
2154.5523
2418.4785
2723.4881
3403.5565
4301.1558
5610.6003
1809.8089
1815.4549
1893.802
1942.1755
2187.9628
2479.3591
3137.5065
4025.0679
5318.4287
1593.3594
1609.7355
1679.1556
1722.6147
1943.3425
2219.7211
2854.2767
3730.3795
5016.484
1371.6713
1397.5293
1455.6801
1490.6993
1687.7166
1942.9079
2550.1547
3414.1255
4703.64
4382.3946
3076.8129
2226.4376
1649.4923
1420.2612
1251.8016
1224.8692
1181.6904
1144.9949
4051.4065
2716.7268
1879.548
1340.2341
1140.0784
1004.9103
992.42793
961.69073
911.31406
3709.2803
2334.5423
1514.2241
1017.0715
853.55994
752.59382
756.63001
740.51649
680.69272
3355.568
1927.4391
1127.8177
678.45231
557.61675
496.21857
518.88782
520.07736
452.52026
2984.5351
1495.3505
724.42421
330.65027
260.42896
238.88551
283.94743
303.53616
233.40355
2596.1924
1034.2028
301.06899
-25.540485
-43.722013
-16.98548
54.719367
92.184597
22.595961
2176.5303
542.5657
-134.81625
-383.51597
-341.57358
-267.91253
-168.95138
-111.09414
-173.84568
1735.0074
20.133406
-587.27621
-744.42161
-636.59749
-509.17096
-380.98241
-302.39485
-354.18897
1252.9986
-533.99164
-1044.0953
-1099.5439
-922.86395
-741.53786
-580.0983
-478.93311
-513.39749
-651.67657
-641.53025
-764.57283
-962.81731
-1201.1087
-1458.5936
-1529.6642
-1161.126
689.91005
-761.98847
-782.41136
-929.61614
-1166.2701
-1468.3861
-1807.8204
-2027.4386
-1876.5927
-29.166237
-846.42999
-895.20343
-1069.9806
-1345.4534
-1703.6757
-2129.0128
-2502.9421
-2625.1009
-833.01828
-900.361
-979.13469
-1181.7909
-1494.0659
-1908.9685
-2415.9487
-2936.7062
-3370.3251
-1749.1938
-920.8033
-1038.403
-1263.8501
-1611.6503
-2077.2421
-2659.7918
-3315.9866
-4092.3133
-2780.6425
-911.61821
-1077.2087
-1312.9999
-1697.2372
-2205.1446
-2852.2624
-3624.6986
-4736.0594
-3985.6866
-874.41738
-1094.6518
-1331.981
-1755.3885
-2293.8025
-2991.1943
-3842.0183
-5250.2404
-5409.4491
-813.01198
-1090.3581
-1321.8006
-1785.9231
-2350.7892
-3078.612
-3951.97
-5567.6411
-7017.6638
-730.60932
-1065.8602
-1288.9922
-1796.1586
-2378.6619
-3134.7972
-3985.2843
-5634.8288
-8462.3667
-649.1333
-1028.2425
-1230.4246
-1794.925
-2394.3858
-3222.0551
-4108.6453
-5693.9054
-9849.5942
-567.8716
-988.27793
-1173.2914
-1815.8558
-2469.65
-3411.2487
-4479.3077
-6456.6205
-11021.799
-460.14508
-944.05202
-1126.9889
-1855.9847
-2586.9106
-3691.3305
-5080.0883
-7550.7739
-11455.744
-328.94322
-890.20571
-1089.5667
-1907.4336
-2734.0406
-4006.3934
-5694.4869
-8681.1539
-9899.8202
-193.99778
-822.18641
-1039.0587
-1946.1327
-2872.7834
-4331.3562
-6279.6808
-9886.156
-8551.1353
-52.022368
-737.14606
-975.88091
-1963.8711
-2983.8772
-4638.6515
-6874.5663
-11166.307
-9268.1081
87.193516
-638.56525
-895.12098
-1961.05
-3082.155
-4941.1625
-7525.2061
-12229.159
-10711.473
229.09815
-529.6417
-806.23543
-1936.0925
-3169.773
-5241.842
-8201.3744
-12294.46
-11050.008
393.91041
-412.15452
-709.7816
-1895.0931
-3245.9709
-5513.6332
-8845.448
-12498.085
-11072.879
-11239.335
-12908.157
-9311.5978
-5712.0504
-3285.9439
-1830.3762
-610.6326
-285.19191
573.00622
-11357.093
-13210.145
-9645.3566
-5832.1443
-3295.5831
-1749.6596
-510.60923
-152.02499
736.62695
-11475.79
-13456.651
-9922.2252
-5909.6057
-3276.5852
-1643.9329
-400.54848
-14.273507
876.77851
-11609.522
-13662.887
-10148.173
-5957.1407
-3226.8989
-1521.6233
-283.85806
125.30073
997.87586
-11768.661
-13883.767
-10332.78
-5990.0187
-3164.9921
-1392.4326
-166.8136
261.14312
1113.3642
-11951.912
-14051.193
-10478.979
-6016.219
-3089.5204
-1260.8258
-50.611235
393.2741
1224.8771
-12185.369
-14230.673
-10589.488
-6033.0705
-3008.0507
-1129.5983
62.03629
522.52779
1330.9408
-12511.537
-14359.714
-10665.315
-6031.0151
-2913.3209
-994.90729
171.34135
649.11632
1429.5772
-12675.666
-14533.187
-10703.792
-5995.7993
-2804.5076
-856.2664
279.14785
774.21049
1522.2815
-12689.865
-14563.324
-10376.395
-5780.0814
-2532.1202
-594.61513
466.21735
987.03219
1668.1931
-12644.194
-14832.412
-10029.513
-5390.0698
-2083.0975
-244.93
716.27216
1252.4972
1863.874
-12232.701
-14956.669
-9609.0404
-4876.8695
-1585.2907
137.35872
950.34403
1505.7946
2041.8159
-11689.806
-14994.939
-9103.2244
-4228.0735
-1038.4841
469.82539
1140.5317
1746.3936
2226.8523
-11234.858
-14969.618
-8532.6735
-3544.909
-557.21282
711.72794
1314.4524
2006.1272
2388.003
-10964.562
-14841.912
-7928.751
-2849.2403
-163.50713
907.30873
1512.7999
2191.4427
2533.2006
-10836.223
-14564.78
-7293.5167
-2180.7717
163.40651
1089.3218
1749.2266
2402.9888
2603.2479
-10656.056
-14157.464
-6617.3165
-1541.5324
407.79846
1170.8646
1929.4228
2495.5495
2583.4819
-10250.541
-13645.811
-5936.535
-1039.2007
562.73227
1226.1269
2084.6018
2634.1186
2332.4087
-10233.443
-9676.6826
-7805.8751
-5274.4809
-4219.2689
-3820.4
-2940.2691
-1852.7289
-8.1976104
-10276.116
-9901.213
-7897.1095
-5228.6905
-3831.068
-3326.0222
-2547.3545
-1675.5122
146.04909
-10311.765
-10116.109
-7962.4531
-5141.0681
-3446.0899
-2861.7961
-2148.9185
-1474.8626
315.88868
-10340.424
-10321.098
-8009.9424
-5013.4557
-3066.7018
-2435.171
-1761.176
-1257.5724
505.03774
-10364.088
-10521.706
-8031.3139
-4844.8817
-2686.8238
-2040.1849
-1383.9341
-1028.1051
713.88451
-10382.071
-10713.161
-8015.2943
-4641.2519
-2315.7592
-1665.3603
-1009.9638
-780.3275
935.81882
-10394.336
-10894.463
-7963.7053
-4398.2692
-1958.2913
-1317.1922
-638.4156
-502.51982
1184.4238
-10400.166
-11067.863
-7887.3653
-4122.7012
-1609.9939
-982.86866
-279.58831
-205.30613
1461.1239
-10403.742
-11231.881
-7798.8536
-3825.5203
-1288.3306
-653.75559
61.13056
92.905135
1752.7046
-8215.9857
-2714.2378
-1086.0724
262.44805
-5324.3111
-3081.3494
-1623.8555
-599.44649
-171.37661
-8259.2905
-2994.1733
-942.34177
578.32428
-4596.8575
-3202.6346
-1826.0368
-841.18303
-228.95166
-8258.5275
-3123.9808
-393.18097
1002.5726
-3693.8708
-3128.2243
-1997.3306
-1091.1885
-372.91865
-8246.3256
-3409.1571
177.85655
1345.7869
-2809.6763
-2913.796
-2075.2596
-1330.53
-547.37661
-8327.346
-3789.652
563.02088
1797.0885
-1936.8752
-2568.2188
-2040.0653
-1532.9742
-732.37194
-8377.3395
-4100.2266
813.47453
2098.3766
-1108.9816
-2112.593
-1872.2262
-1624.2144
-938.23675
-8446.6241
-4437.5739
925.28897
2455.3037
-332.24111
-1560.3447
-1617.6782
-1584.6318
-1100.3529
-8776.4065
-4885.1747
906.2328
2662.4988
384.61481
-976.88463
-1266.1827
-1431.957
-1178.3775
-9337.8617
-5420.7184
587.13615
2738.7744
968.30585
-417.82403
-892.2671
-1189.4905
-1144.8076
-237.53556
281.70561
568.65431
1084.5509
1561.8871
1693.5268
1.6932035
-5478.4411
-11226.526
-377.58294
128.77214
445.27894
993.12646
1581.5434
1852.6853
54.629084
-5375.3827
-11114.3
-511.17836
-30.062821
313.10979
885.74145
1582.4593
2011.9045
116.76065
-5390.3563
-10973.434
-635.0974
-192.15688
171.7692
763.06625
1571.3963
2167.4207
183.88633
-5426.7133
-10850.326
-748.82143
-354.69674
23.888068
621.26799
1538.0162
2308.0812
251.31548
-5441.6213
-10703.056
-853.35634
-514.5388
-127.84167
465.5964
1485.2049
2433.1363
303.81562
-5436.2262
-10505.64
-945.18657
-670.27908
-282.63502
301.90395
1418.6771
2545.8986
371.0807
-5450.632
-10403.635
-1014.4957
-820.53182
-441.46641
123.34746
1328.5406
2623.0863
401.30348
-5455.326
-10161.539
-1066.8303
-965.39845
-606.76215
-69.771519
1211.7159
2671.4479
337.83137
-5529.9821
-9769.445
-11345.429
-5646.5473
52.662281
1547.6745
1528.032
1166.4895
689.00096
430.26496
-89.771252
-10965.738
-5396.4616
161.7734
1425.0372
1482.6182
1232.8664
803.46919
571.28914
62.190338
-10307.9
-4715.1422
257.53656
1308.6388
1437.6705
1280.4432
904.96833
701.97444
214.76926
-9414.7929
-3802.7011
279.85125
1229.3545
1409.3615
1315.4108
995.8952
822.7543
362.79578
-10097.343
-2809.7819
293.83534
1173.7128
1400.5485
1347.6059
1078.2953
932.23438
506.56183
-12720
-1768.278
349.30147
1135.9772
1401.812
1384.6804
1162.1826
1039.2767
636.37985
-12726.214
-976.49312
456.09189
1121.5552
1415.5414
1421.4846
1245.0735
1139.8936
761.46459
-10366.195
-264.07724
607.28374
1125.156
1436.6468
1456.4738
1328.1154
1234.3914
886.33833
-8664.556
179.44903
670.98238
1125.3077
1450.1225
1490.4822
1409.0278
1324.5645
1033.0305
2008.3293
2085.904
2016.0852
1867.7972
1589.2089
1144.9927
658.5428
196.40453
1640.9035
1904.9493
1988.9082
1923.2103
1779.6418
1484.4659
995.25211
378.65819
-391.60293
870.32246
1802.1864
1899.3351
1842.4814
1709.2143
1409.6968
891.31446
161.98302
-945.96386
-25.980565
1708.856
1816.2887
1768.5104
1657.4475
1364.6526
830.68197
30.946828
-1429.0168
-1095.3735
1612.5855
1736.7498
1706.9813
1618.6225
1344.1051
815.41221
-5.6768469
-1764.8976
-2392.7557
1524.7817
1656.6793
1648.339
1588.3204
1345.9036
842.99382
70.649201
-1905.0342
-3907.0181
1430.5736
1577.9709
1591.9133
1565.7406
1366.815
910.90958
213.35689
-1798.7375
-5603.0907
1343.512
1496.2115
1535.2431
1543.0264
1400.5245
996.07165
401.97754
-1384.7079
-6998.9762
1196.7217
1412.2609
1478.1629
1518.633
1436.8306
1084.288
580.19939
-614.92951
-7874.7665
2246.3852
737.58829
972.96735
1326.2477
1721.4771
1973.2764
2119.8386
2191.1552
2120.6432
2753.6443
1234.5558
1294.6857
1523.423
1868.3628
2092.3629
2232.4373
2303.8377
2236.3833
3220.3309
1710.2848
1631.5915
1744.2518
2032.1435
2224.3046
2354.1122
2425.296
2360.9148
3655.3141
2167.1053
1972.56
1980.2633
2213.938
2368.3781
2486.8636
2551.997
2492.8682
4058.2279
2598.7002
2312.3402
2224.4121
2403.1314
2521.7989
2626.7523
2684.3171
2631.9784
4441.3449
3007.2083
2647.5857
2474.5145
2597.2278
2684.1554
2770.5403
2821.1685
2772.8289
4801.9864
3390.3284
2975.1038
2726.906
2800.0735
2849.7604
2920.9376
2962.2021
2921.16
5150.6391
3750.0504
3289.5212
2975.7116
3003.0687
3017.9329
3076.7435
3105.5675
3071.0289
5485.1783
4085.5587
3590.5114
3217.2194
3203.4869
3187.4005
3231.5161
3248.6479
3224.5394
4461.1202
4418.905
4480.0275
4519.3112
4706.0467
4913.5408
5463.135
5984.5065
7462.4045
4361.0568
4308.8445
4364.9247
4399.5499
4583.0107
4787.1892
5351.1808
5906.5305
7544.2612
4240.3867
4192.4383
4242.2346
4271.6088
4446.5513
4639.6204
5211.2839
5766.8113
7428.5146
4107.6465
4071.3648
4114.0146
4135.9225
4297.7885
4473.1277
5040.8997
5594.2301
7210.622
3967.7909
3943.8666
3977.4431
3991.5479
4137.0323
4291.7148
4844.0503
5400.9922
6970.758
3826.2123
3811.7102
3835.7154
3840.1001
3966.0345
4099.2845
4627.9418
5187.1339
6704.221
3680.0601
3675.0566
3689.867
3682.9133
3785.5954
3895.081
4394.9815
4951.5436
6419.7482
3530.7516
3535.0756
3537.1748
3521.5189
3597.8559
3679.5219
4144.3861
4686.4466
6120.1359
3376.2131
3392.092
3382.6173
3355.8433
3403.7144
3453.8445
3874.5555
4398.0342
5811.5069
4562.2938
4665.4257
4764.6874
4858.9792
4948.4829
5031.8274
5110.1198
5182.736
5250.1504
4523.1446
4622.4534
4717.7451
4807.3979
4892.1109
4971.7555
5046.8489
5117.5174
5183.8762
4586.4027
4685.3213
4777.9239
4864.3364
4946.8305
5023.105
5093.2443
5160.676
5222.5412
4628.6965
4729.3433
4823.9865
4912.0062
4993.2233
5068.9207
5138.956
5203.8659
5264.2331
4814.3263
4910.4078
4998.4117
5078.8538
5152.4952
5220.047
5281.7009
5338.3601
5390.6919
5021.2025
5115.9322
5200.731
5276.4627
5345.4047
5407.2234
5461.8962
5510.6481
5554.2655
5549.1928
5621.1704
5683.5673
5740.5488
5788.9009
5826.5129
5857.6511
5883.5318
5902.9053
5973.7116
5961.517
5987.2428
6053.8813
6138.3026
6215.8477
6245.7742
6254.5079
6256.2532
7175.2791
6957.4099
6854.5326
6974.2225
7119.6354
7167.6709
7227.9513
7226.4382
7147.1381
5312.2987
5245.0387
5280.9694
5320.5876
5439.2155
5593.67
5918.8383
6249.1097
7080.7358
5369.8068
5302.9515
5335.5077
5372.6334
5484.3084
5629.0523
5931.9389
6232.6053
7005.6886
5422.8536
5357.2542
5385.852
5420.8727
5526.3643
5661.563
5941.7913
6216.2862
6914.54
5472.1319
5407.2609
5433.472
5465.8906
5565.6707
5691.4701
5950.6966
6198.1458
6833.1133
5517.5182
5453.5109
5478.2072
5508.2483
5602.4862
5719.6563
5959.805
6176.4569
6753.183
5559.0115
5497.6256
5518.5842
5547.1528
5636.844
5746.5704
5968.5561
6157.3364
6668.7339
5596.8644
5537.5523
5556.3887
5583.7322
5669.3149
5772.8903
5977.8776
6139.131
6592.4969
5630.903
5573.9183
5591.8721
5617.9141
5699.9442
5798.6153
5987.1349
6123.9143
6516.7766
5661.3976
5607.7053
5624.2116
5649.3905
5728.9281
5823.7099
5997.8132
6113.513
6440.9464
5831.1764
5803.2008
5814.6736
5837.56
5907.1171
6004.768
6152.2666
6247.0646
6174.5674
5819.7159
5789.2678
5801.5128
5824.0339
5893.9593
5988.4911
6132.2928
6210.88
6132.2977
5806.7145
5773.5942
5786.8081
5808.3157
5879.4377
5971.7037
6112.5898
6179.4239
6107.1699
5792.501
5756.9225
5769.9918
5791.2434
5863.6701
5953.7764
6094.3671
6153.9228
6107.7889
5776.3598
5738.19
5751.1381
5772.7066
5846.4168
5934.5563
6077.2178
6134.399
6134.1152
5758.0551
5716.5381
5730.1711
5751.8467
5827.023
5914.2809
6060.0215
6119.6992
6180.3988
5737.5509
5692.8758
5707.1394
5730.0261
5805.4085
5893.1122
6042.7952
6110.3611
6237.65
5714.8013
5667.5242
5681.9636
5705.5513
5781.7403
5871.0073
6026.0826
6106.3542
6302.8088
5689.3773
5639.1368
5654.4244
5678.5662
5756.2026
5847.9113
6010.7626
6107.1408
6371.291
6221.6901
6289.9454
6173.4895
6021.1575
5919.7289
5850.4848
5826.2769
5815.6117
5840.5704
6286.235
6339.1599
6194.9382
6035.9123
5930.4675
5861.711
5836.6828
5826.6206
5848.2738
6360.6374
6388.8759
6213.4592
6048.3711
5938.9311
5870.7953
5845.6101
5836.2278
5854.7164
6443.2468
6435.2646
6227.9482
6057.6968
5945.2583
5877.8619
5853.0569
5844.6104
5860.208
6528.3567
6477.1793
6237.8309
6063.1003
5949.0901
5883.2221
5859.4969
5851.7751
5864.7144
6613.0378
6513.8601
6242.4674
6064.7633
5950.3532
5887.3063
5865.0879
5857.7777
5868.5244
6695.8863
6544.0535
6242.0187
6063.4519
5949.541
5889.9903
5869.5408
5862.9576
5871.6603
6775.5274
6569.9179
6239.6995
6061.6983
5948.5996
5892.6245
5872.8626
5867.7432
5874.1002
6853.3189
6597.6048
6242.9135
6064.4443
5950.9718
5897.7567
5876.4374
5872.0029
5875.4693
6942.5724
6633.7131
6262.9329
6080.0897
5963.8947
5908.9543
5883.4921
5876.532
5876.0417
7044.0111
6670.4721
6287.5396
6099.745
5980.3128
5923.0512
5894.0606
5883.0588
5878.6213
7136.1001
6701.9742
6308.9009
6118.6233
5996.3342
5936.7811
5905.1036
5890.3708
5882.6179
7214.8471
6726.0452
6324.7653
6135.0924
6011.0616
5949.8979
5916.1224
5898.6151
5887.9258
7273.4651
6737.8475
6332.4511
6147.6605
6023.8186
5961.7196
5926.2683
5907.1605
5894.4236
7308.3865
6733.9284
6331.9284
6155.5959
6034.1965
5971.8344
5935.3241
5915.5175
5901.7882
7282.9077
6709.08
6323.2205
6158.1735
6041.5714
5979.6567
5942.7859
5923.1523
5909.3879
7128.5122
6664.7421
6310.0927
6155.2363
6045.6248
5984.4687
5948.1196
5929.4004
5916.5951
6911.6808
6599.7914
6294.8838
6147.6774
6045.6211
5985.2503
5950.7612
5933.4082
5922.7141
5778.8131
5787.112
5804.3093
5831.9828
5873.0229
5927.9459
6002.7356
6104.8202
6260.3888
5817.708
5822.7194
5838.1461
5865.2442
5907.433
5968.4598
6051.7453
6167.6383
6327.9077
5851.0002
5853.1857
5867.5487
5894.571
5938.2431
6002.8628
6089.1894
6209.3502
6368.6296
5877.7382
5878.6572
5892.2335
5919.5691
5965.221
6034.3098
6126.3148
6259.6553
6426.898
5898.1474
5898.9998
5912.1733
5940.2966
5988.4866
6062.8951
6163.6441
6312.0176
6484.1144
5912.6572
5914.4328
5927.7525
5956.4848
6007.912
6087.8945
6199.1446
6364.5761
6547.5025
5921.9026
5925.4211
5938.9948
5968.5935
6023.3079
6108.2771
6230.184
6418.4985
6613.1533
5926.3689
5932.0594
5946.5635
5976.9674
6034.3262
6124.4654
6255.7319
6474.4306
6686.8334
5926.4136
5934.4854
5950.3994
5982.2372
6041.4551
6136.8116
6275.9762
6532.0161
6774.2589
6469.3974
6526.7057
6582.339
6657.1843
6741.2834
6844.5853
6998.1757
7220.6206
7535.8461
6499.872
6554.1935
6613.5014
6691.4111
6781.1096
6890.104
7049.3968
7277.3799
7593.745
6527.5973
6578.8247
6638.9281
6718.4436
6815.79
6935.5714
7104.5463
7345.5157
7672.8379
6552.1628
6601.7301
6662.9912
6742.7897
6843.7507
6973.3885
7154.0842
7415.7687
7762.3216
6575.5512
6621.8106
6682.5676
6762.3731
6864.0508
7000.151
7187.8584
7479.1622
7843.7906
6583.5285
6626.8136
6684.2356
6761.8125
6861.5702
7000.0677
7188.0447
7520.7888
7905.9384
6557.2589
6596.429
6652.5397
6728.0616
6822.6429
6951.2895
7124.0952
7524.4483
7925.9441
6482.2144
6514.0143
6555.924
6615.6085
6698.9353
6821.08
6959.0019
7424.2546
7856.3437
6320.8443
6347.2842
6373.8238
6411.5374
6460.0976
6577.0016
6669.6996
7175.2758
7466.4242
1501.9283
4448.7429
4497.3231
5302.8468
5563.4245
5757.9384
5883.7315
5945.4507
5954.5028
3820.6269
3944.9399
3897.3712
4335.9729
4414.2164
4701.7017
4857.5152
5013.3582
5132.9978
4337.7113
4347.516
4239.6787
4368.5722
4295.0299
4450.8902
4452.2768
4580.5341
4638.3768
4350.3255
4404.6161
4349.5413
4441.2928
4358.7671
4452.2951
4382.0668
4468.7111
4409.4126
4370.8197
4396.0756
4361.8854
4446.6193
4376.6793
4467.571
4389.4283
4473.7455
4401.226
4398.3393
4410.2494
4385.714
4439.0926
4387.6203
4463.8457
4396.383
4469.4432
4404.3988
4427.2816
4432.1045
4420.6327
4443.7354
4418.5654
4456.6321
4420.8399
4463.7111
4425.3394
4463.2132
4470.3106
4459.4741
4474.0706
4461.3943
4469.9305
4454.7079
4466.8223
4419.6364
4524.8031
4530.4556
4533.606
4552.4452
4559.242
4582.3446
4597.3146
4631.5082
4653.9563
4656.013
4598.0458
4499.5171
4357.1456
4161.1941
3874.9719
3544.7501
3253.8448
3046.3069
4651.1296
4596.0534
4497.9598
4354.4792
4157.1706
3873.1366
3530.0812
3217.8574
2973.4372
4625.4712
4574.357
4475.7089
4331.4749
4133.9347
3848.4726
3498.2848
3154.5751
2869.7179
4612.7585
4564.2894
4468.2432
4321.3524
4123.9005
3833.5166
3477.2116
3087.4575
2738.5977
4592.1491
4552.0795
4456.7278
4311.4317
4112.4145
3824.6886
3454.1641
3020.7835
2592.2294
4588.3936
4548.2341
4459.2366
4308.4365
4112.1898
3823.2985
3438.2289
2966.1724
2448.6603
4566.8337
4541.0712
4448.8002
4308.6116
4105.8732
3827.3725
3429.9409
2930.2927
2336.4952
4570.0887
4541.0374
4456.3324
4309.8434
4116.2173
3829.8307
3436.7717
2902.8271
2288.766
4561.8918
4544.1673
4462.5343
4325.7659
4131.4539
3862.0057
3461.8021
2932.1306
2238.5182
3054.3669
3255.5192
3620.253
3951.061
4186.3763
4366.5948
4545.4103
4726.2027
4887.0904
2937.223
3144.8274
3570.1992
3930.5471
4172.1631
4354.7409
4535.3688
4717.1297
4882.2537
2792.1244
3035.7231
3538.1862
3918.8728
4158.5128
4343.2957
4528.4623
4713.7536
4882.6631
2619.9267
2925.6668
3505.1305
3901.3399
4140.7839
4332.3886
4524.2636
4712.1093
4883.1349
2408.391
2819.177
3468.9622
3875.1635
4113.2127
4314.0898
4511.0183
4701.9792
4874.4814
2095.5408
2749.7472
3488.2444
3885.494
4120.5424
4322.9272
4521.3436
4711.3713
4883.0731
1657.3218
2560.2059
3416.9225
3822.1683
4071.5757
4288.6863
4497.4146
4692.4665
4868.1031
1222.0547
2630.6107
3483.1247
3847.245
4092.7305
4306.8795
4511.155
4703.3531
4876.8223
77.425692
2448.0152
3449.135
3805.6046
4069.1809
4292.758
4502.2046
4695.4503
4870.6421
5031.9014
5173.6604
5314.848
5457.1636
5604.1467
5758.4511
5923.3962
6098.9363
6289.4189
5030.1548
5174.3216
5317.0747
5461.6163
5609.8509
5766.2542
5931.889
6109.9133
6301.1742
5032.612
5176.5771
5319.0241
5464.1799
5613.2511
5771.1046
5938.2514
6118.6064
6311.3298
5034.5667
5180.3231
5323.8081
5470.8256
5619.9033
5779.2188
5946.7936
6129.4172
6322.2301
5028.476
5175.5952
5320.6306
5469.0223
5619.441
5779.6829
5949.0051
6134.1369
6330.4647
5036.8572
5184.4164
5329.0447
5477.3578
5627.7692
5788.536
5957.1991
6142.5232
6339.0487
5024.3213
5174.9998
5322.2547
5472.5549
5623.4578
5784.6751
5955.5919
6142.9703
6340.199
5033.1888
5182.826
5329.927
5479.2074
5630.6773
5791.2092
5962.3307
6148.7487
6348.0813
5027.9124
5178.973
5326.388
5476.8357
5628.181
5789.6094
5960.6146
6148.3211
6347.2221
6489.1075
6705.9076
6936.4413
7182.006
7428.9896
7678.3424
7900.3723
8094.6428
8194.533
6503.4181
6722.7301
6959.1716
7212.8029
7474.0197
7732.4886
7966.4821
8165.3729
8267.8534
6517.1689
6738.5911
6979.9926
7243.231
7517.0877
7784.3124
8030.4604
8231.0288
8334.6222
6530.8712
6754.6731
7000.951
7272.6602
7555.4204
7832.3153
8090.7187
8294.3921
8394.2388
6540.724
6765.7786
7017.1997
7295.8345
7588.4456
7878.5809
8149.5872
8357.7225
8448.2696
6552.0561
6778.3031
7033.0364
7314.9695
7618.3069
7922.5156
8206.7206
8418.4109
8497.0918
6554.6271
6783.2729
7041.9065
7329.8834
7642.8341
7958.0036
8255.477
8466.3662
8536.859
6561.9908
6791.2299
7049.2125
7342.8631
7663.3269
7995.0549
8301.4606
8523.6426
8579.7451
6562.3366
6791.4476
7052.8169
7347.6966
7669.2367
8012.2448
8325.0754
8542.1991
8583.7758
8404.939
7915.542
7537.7999
7174.4253
6796.4312
6430.2128
6070.9286
5715.0557
5364.4896
8509.3705
8001.4006
7621.577
7251.2775
6866.47
6490.312
6125.3382
5765.0855
5412.6832
8611.1536
8084.136
7705.2631
7323.7033
6931.821
6547.4015
6180.6186
5816.2507
5462.849
8705.5254
8164.9
7790.3409
7395.9371
6996.0855
6600.8207
6232.3158
5861.3661
5510.173
8792.637
8242.9055
7872.5438
7468.1013
7064.959
6665.793
6289.6803
5917.2067
5560.9731
8873.4672
8321.4608
7952.3121
7524.7401
7117.5743
6707.4419
6335.0831
5950.7593
5600.9057
8926.0912
8398.7779
8038.3643
7606.6883
7191.4074
6781.3902
6401.1752
6020.4429
5663.2695
8964.3404
8456.3122
8088.6609
7639.0349
7224.6641
6802.6027
6425.162
6033.9977
5681.8521
8982.0016
8542.6688
8181.2778
7733.4035
7315.7219
6892.2836
6511.483
6118.7255
5762.7317
5018.3657
4670.532
4320.4862
3959.9644
3590.6906
3205.0858
2803.2345
2387.2404
1946.6363
5062.4771
4713.5799
4361.7058
4000.9425
3632.3938
3245.0875
2846.5298
2427.3619
1989.1693
5109.9641
4760.2635
4407.6107
4047.2384
3680.5221
3293.84
2898.67
2480.7416
2047.4227
5151.822
4804.9734
4448.2957
4090.7411
3723.441
3337.8706
2945.5217
2526.5621
2098.6791
5204.6947
4853.1535
4499.1635
4138.7453
3774.0995
3388.8034
2997.9308
2581.0283
2155.2041
5235.1715
4890.0565
4528.8909
4174.0578
3806.194
3423.7195
3034.8829
2617.3806
2197.0421
5301.2565
4951.6238
4593.2376
4236.5313
3870.9739
3489.6763
3101.753
2689.1699
2266.7115
5313.8598
4968.9744
4605.5981
4252.6775
3885.0494
3505.5499
3118.9436
2705.8315
2288.0278
5394.0235
5047.6364
4684.6914
4331.9016
3966.0987
3588.6289
3204.263
2797.2755
2375.8859
1443.6771
840.70287
189.25871
-507.51436
-1283.4018
-2034.4923
-2802.4987
-3709.8223
-5292.3968
1485.1606
904.67499
261.26181
-402.19575
-1162.9981
-1862.2212
-2610.8612
-3416.6282
-4866.4579
1547.7808
988.49385
357.95449
-279.95411
-1021.3088
-1722.3354
-2500.0772
-3292.2048
-4499.4205
1604.4445
1066.5833
452.03338
-164.09824
-885.10739
-1583.572
-2323.8223
-3066.8268
-4078.8344
1666.907
1143.6806
549.71979
-52.568941
-747.07868
-1441.3973
-2124.7284
-2809.9613
-3522.7433
1717.231
1212.1251
641.19817
50.151298
-616.01221
-1315.5217
-1974.1944
-2555.6924
-2921.6694
1797.1649
1300.7369
765.62023
184.47004
-442.12478
-1152.2136
-1774.1349
-2489.2082
-1646.7589
1827.9436
1343.0633
822.46871
256.18508
-361.70155
-1059.5115
-1800.7984
-2296.6298
-2490.0842
1932.4621
1467.5714
990.13013
453.39938
-103.70589
-760.19245
-1429.074
-2779.2652
1361.7439
-7977.5532
-9871.5842
-10593.036
-10476.114
-10693.162
-11123.806
-10788.055
-10387.917
-9987.3372
-7761.6065
-9872.8004
-10443.656
-10348.922
-10598.692
-10829.211
-10691.941
-10326.034
-9936.663
-7634.1298
-9965.1786
-10270.328
-10304.314
-10653.789
-10934.426
-10620.638
-10251.198
-9876.476
-7654.6989
-10055.306
-10080.231
-10300.748
-10598.598
-10779.398
-10541.212
-10176.094
-9804.3775
-7783.0789
-10033.291
-9767.2678
-10300.927
-10664.676
-10780.847
-10464.207
-10098.871
-9725.0767
-7492.6721
-9801.0274
-9722.3894
-10355.961
-10625.352
-10690.077
-10380.792
-10021.003
-9652.3015
-6442.8539
-9452.3475
-9881.5237
-10402.034
-10658.275
-10641.026
-10293.629
-9952.6647
-9582.4062
-6853.1549
-10173.758
-9830.4018
-10476.868
-10661.677
-10585.879
-10232.284
-9892.6833
-9520.5936
-16705.24
-8435.6131
-10306.434
-10543.324
-10647.938
-10508.819
-10153.945
-9837.8652
-9487.4795
-9747.3105
-9768.7288
-10002.723
-10532.127
-11433.674
-12662.14
-14187.992
-16810.681
-15850.182
-9684.9478
-9675.9217
-9904.0702
-10445.717
-11423.391
-12825.304
-14405.678
-16765.092
-15721.852
-9641.5062
-9623.4334
-9858.6073
-10470.053
-11589.987
-13146.442
-14846.351
-16532.226
-15606.478
-9574.7088
-9563.2776
-9825.9212
-10516.695
-11716.184
-13369.441
-15160.143
-16661.147
-15206.44
-9488.6153
-9495.1667
-9776.8682
-10539.337
-11817.353
-13526.902
-15292.355
-16166.557
-14671.355
-9390.9082
-9423.6252
-9721.1378
-10549.251
-11905.712
-13614.556
-15168.36
-15643.16
-14086.752
-9307.1668
-9371.3061
-9678.3055
-10576.918
-12004.594
-13747.355