/*--------------------------------*- C++ -*----------------------------------*\
  =========                 |
  \\      /  F ield         | OpenFOAM: The Open Source CFD Toolbox
   \\    /   O peration     | Website:  https://openfoam.org
    \\  /    A nd           | Version:  11
     \\/     M anipulation  |
\*---------------------------------------------------------------------------*/
FoamFile
{
    format      ascii;
    class       volScalarField;
    location    "0.35923695";
    object      Ma;
}
// * * * * * * * * * * * * * * * * * * * * * * * * * * * * * * * * * * * * * //

dimensions      [0 0 0 0 0 0 0];

internalField   nonuniform List<scalar> 
880
(
1.118016635923817
1.118016634793396
1.117913275771555
1.101702434431087
1.118016635922823
1.118016632481563
1.117870537955921
1.096268933258736
1.118016635905756
1.118016621504525
1.117737694552458
1.089039082253183
1.118016635824109
1.118016566726306
1.117400357391674
1.069555005873565
1.118016636535325
1.118016634945924
1.118016603634153
1.118016146180411
1.118016282135231
1.118014695876615
1.118008386285974
1.118021818270479
1.116457610193904
1.115369354573694
1.113824339546876
1.113109202991319
1.031318307539151
0.9943405825299514
0.9723373159267567
0.9700770830937031
1.11801099230716
1.117995259461189
1.117968926863451
1.117859299092069
1.117902555088417
1.117468088175115
1.116770902514691
1.115507631062405
1.104434000588607
1.097435409761958
1.088274487250228
1.079903836999442
0.9590689426527488
0.9591347919411753
0.9575133209802417
0.9810533649424784
1.040052917316438
1.075624128735153
1.08996910167214
1.104393022574334
1.065631450382728
1.06521882220357
1.069326017857187
1.077707187652117
1.111148976659763
1.105552517669645
1.100432613227958
1.097672950816657
1.11731674126126
1.116401022172897
1.115078547089986
1.113440615634256
1.111890020409698
1.110735845258059
1.10998524421213
1.10983984995474
1.097061247443891
1.0987119280662
1.102514642402685
1.107802355602554
1.086124661224609
1.096163820666548
1.105646860288787
1.113536348680515
1.111645897962749
1.119220114172005
1.123416398871532
1.126389424759764
1.128791688779445
1.120906413218681
1.113436752854182
1.109951842863093
1.07948820331708
1.125822910184516
1.120187546282995
1.110313839782371
0.8046086949313928
1.115050261225181
1.125647094622245
1.111386031348313
0.5734018985519299
1.037970322004075
1.125572370604857
1.113023906855234
1.113322268062415
1.121409669833379
0.9542266622246218
0.5177890541614106
1.108802747259605
1.108874201771463
0.8848676819633131
0.554942192247065
1.106523896302689
1.080245661403097
0.8075030758709154
0.5746157631927979
1.100895299404862
1.033508613529621
0.7627560970814184
0.6140858513898065
0.6624720573493583
0.7509871936368296
0.9748976959969784
1.089463125443077
0.7143565378565353
0.7749387812844776
0.9219136379203334
1.069247112444616
0.7674917292142929
0.8176036512367888
0.9053473008336163
1.037924832066282
0.8151715143740388
0.8746825604914515
0.9234562379518744
1.006073908201134
0.9854176470617351
0.9755968005201385
0.9503710079725755
0.875367700677019
1.00991863307622
1.03976086868986
1.03659645249644
0.9571065555575577
1.038619817810377
1.1019274639653
1.127949933191959
1.064399596707826
1.064422603975859
1.149828363179828
1.216003290952082
1.193061263602135
1.08429341073054
1.191061529345512
1.305727282853388
1.394838501750896
1.109067339564387
1.22150659648591
1.366104460644638
1.585975785767862
1.124974615961178
1.226892807452648
1.411600791688542
1.774900845175926
1.134437178900263
1.212809002667202
1.386974758529577
1.945086644624026
1.71746821206472
1.321801891807059
1.201073725096542
1.140474721988445
1.181736030901098
1.275075714633139
1.188875004888247
1.140462080832835
1.027536094323373
1.252846908397215
1.179570200300934
1.1369568818169
0.8788726289771495
1.215799194754539
1.165457443855537
1.132923397185863
0.8055054224449537
1.162030580458326
1.142392836671532
1.125675248920247
0.7301838657954055
1.092243319221996
1.117139906977982
1.11895334208383
0.6969522413685664
1.04187943840343
1.105959210393938
1.117614325180315
0.6807082634148565
1.033195234777931
1.106960101607488
1.117614702360419
0.6500029106420444
0.938951352384777
1.069465041640075
1.113028209856855
0.6571818291726971
0.937223056471378
1.069604453242034
1.112891512352528
0.6852834640804248
0.936256766157333
1.070400506870879
1.11284209624336
0.7090125461800738
0.9439656531119955
1.073784106714348
1.113118042247334
0.680708263414905
1.033195234779499
1.106960101612745
1.117614702365699
0.6969522413681186
1.041879438408417
1.105959210397468
1.117614325187328
0.7301838657973532
1.092243319223815
1.117139906978912
1.118953342085859
0.8055054224461211
1.162030580465869
1.142392836672904
1.125675248919753
1.140474721986779
1.201073725096131
1.321801891808251
1.7174682120645
1.140462080833577
1.188875004888524
1.275075714636184
1.181736030906843
1.136956881813588
1.179570200297332
1.252846908402686
1.027536094320378
1.132923397181201
1.165457443851569
1.215799194756548
0.8788726289806487
1.94508664461886
1.386974758528388
1.212809002666759
1.134437178898754
1.774900845176913
1.411600791690587
1.226892807453413
1.124974615962333
1.585975785768906
1.366104460638369
1.221506596486283
1.109067339558022
1.394838501747802
1.30572728285509
1.191061529351782
1.084293410724084
0.9854176470579649
0.9755968005172067
0.9503710079702444
0.8753677006776748
1.009918633076057
1.039760868690401
1.03659645249334
0.9571065555582934
1.038619817812763
1.101927463966915
1.127949933189577
1.064399596707159
1.064422603974053
1.149828363183444
1.216003290953447
1.193061263599707
0.8151715143747096
0.8746825604928865
0.9234562379500671
1.0060739081946
0.7674917292156767
0.8176036512385139
0.9053473008329261
1.037924832065183
0.714356537856852
0.7749387812871222
0.9219136379212612
1.069247112440123
0.6624720573502408
0.7509871936363465
0.9748976959927241
1.089463125442837
1.113322268064457
1.121409669834588
0.9542266622253039
0.5177890541634114
1.10880274725492
1.1088742017709
0.884867681964333
0.5549421922489574
1.106523896294916
1.080245661395628
0.8075030758727578
0.5746157631942242
1.10089529940268
1.033508613528923
0.7627560970837319
0.6140858513899848
1.113023906854358
1.111386031350101
1.110313839778079
1.109951842862543
1.125572370609187
1.12564709462569
1.120187546278082
1.113436752854114
1.037970322009367
1.115050261226537
1.125822910188014
1.120906413220031
0.5734018985549315
0.8046086949344388
1.07948820331432
1.128791688779162
1.109839849951753
1.107802355598666
1.113536348679583
1.126389424762543
1.109985244215409
1.102514642401174
1.105646860292024
1.123416398872846
1.110735845257515
1.098711928065693
1.096163820666653
1.119220114175036
1.111890020412556
1.097061247446367
1.086124661225861
1.11164589796313
1.117316741262055
1.111148976664931
1.065631450383798
1.040052917316891
1.116401022173945
1.105552517673458
1.065218822204824
1.07562412873856
1.115078547084397
1.100432613235317
1.069326017858631
1.089969101679547
1.113440615635537
1.097672950817051
1.077707187656919
1.104393022577173
0.9810533649434421
1.079903836997957
1.11550763106571
1.117859299091278
0.9575133209815335
1.08827448724956
1.116770902517829
1.117968926865086
0.9591347919439955
1.097435409764735
1.117468088183578
1.117995259459828
0.9590689426514395
1.104434000592377
1.117902555092266
1.11801099230842
0.9700770830930822
1.113109202990354
1.118021818271983
1.11801614617829
0.9723373159249304
1.11382433954738
1.118008386287515
1.118016603631737
0.9943405825238631
1.115369354574956
1.11801469587726
1.118016634947369
1.031318307529265
1.116457610197414
1.118016282142783
1.118016636532614
1.118016635923625
1.118016634792657
1.117913275771332
1.101702434429928
1.118016635921967
1.118016632485307
1.117870537953479
1.096268933251633
1.118016635905015
1.118016621508175
1.117737694553336
1.089039082237048
1.118016635822624
1.118016566728544
1.117400357391819
1.069555005860447
1.0900216500609
1.079809026693697
1.058234328437463
1.008455616488556
1.079809026702774
1.064150135016928
1.027795829180405
0.9529327686593113
1.05823432845663
1.027795829196169
0.9622075963104862
0.8591088678555481
1.008455616505156
0.9529327686840736
0.8591088678665376
0.7515447418467858
0.7259576575946869
0.7634724759407961
0.8354129034026608
0.9069053941348416
0.7808836148475801
0.78571416308933
0.8156860418688908
0.8610031647362114
0.7683366534980298
0.8085906205473558
0.8384372948281017
0.8598143404617862
0.8035042638833333
0.8475334264924714
0.8694712423559821
0.8807778428865514
0.8966516707695955
0.9095155282591743
0.929624514873919
0.968491440991966
0.8949917375391471
0.9106167359647909
0.9352850307162247
0.9903471008041245
0.8839067358715071
0.9081220010786034
0.9365980960607797
1.054092780962212
0.8334665129307604
0.8609968852028237
0.8995068933963652
1.141561264734264
1.149102451943287
1.190190896543679
1.162244694160777
1.155848565058449
1.270483970040373
1.298132383056136
1.245480120550272
1.213594612377282
1.425516241162785
1.363578717145701
1.297061881477776
1.251312309220705
1.160550744415412
1.101036141730113
1.087577000121176
1.089678555590616
1.158622208126397
1.159546509638389
1.157141447332295
1.153222337896647
1.197679674065964
1.182975478859976
1.168754194600684
1.156244028951979
1.223635969480737
1.19845863102167
1.175102967681271
1.153896822615069
1.088935305698681
1.078628132385294
1.06826573602181
1.050980856409575
1.12211250312096
0.8700073143934919
0.5643523026635834
0.3648322643305914
1.090917071881644
0.6976066850559128
0.3661611252312288
0.1741345086770238
1.032831741766495
0.5043315979980183
0.1475393705282682
0.03135648139566116
0.8517535146571958
0.3004571092703351
0.02332762605025065
0.1011549911807016
0.3408966364222138
0.4415099044439436
0.5060774778085622
0.5696200954095164
0.2433970529414549
0.399127893497451
0.4925655767692432
0.5666273588004884
0.110183477848849
0.3087569870450954
0.4557143787272931
0.5501831318379738
0.009858361116342236
0.1609763326060576
0.3251014700792081
0.4612704094581368
0.6437905645378661
0.7091240287173194
0.7653465968916047
0.8044258091634982
0.6372077668244045
0.7038037877374573
0.7599633528297126
0.7996772836875883
0.6207891277738141
0.6914818217393421
0.7536164673704314
0.7976351019550713
0.5749317199018374
0.6673099617980807
0.7485514256365978
0.7963441901228234
0.8505505300077201
0.921313015841645
1.016684352114302
1.130832670178878
0.8424437783991422
0.907217334538057
0.9950904412184494
1.146749140107496
0.8386699737036324
0.8955816019746112
1.009276991153759
1.465248092936837
0.8366963568401772
0.8901270116668597
1.035239376430247
2.043035204437848
1.358004776905696
1.502748885354967
0.7466990557588812
1.540917659724553
1.440689440942515
1.291889978148413
1.120956137383024
1.900699728470084
1.484631340107732
0.9245296033483025
1.364565978991197
1.930169939677348
1.143592163755618
0.4372448097377997
1.650015870089151
1.864187711000471
1.320036013222021
0.8907150052693373
0.6860955845458446
0.4518950357756134
1.399964830981839
0.9917620488668444
0.713073074662172
0.3512414357844347
1.338002484970159
0.9695938361865979
0.6147489476738918
0.2354623985920743
1.275457295777511
0.9266908840848331
0.5551680421296504
0.1790076378838851
0.3129847157506409
0.09002112767440251
0.1519488279952844
0.3539362870988037
0.3575717938601899
0.2740415537907435
0.06743408593201909
0.2737550137412056
0.3253581267824191
0.3765575054252746
0.2087423254629275
0.18020761677981
0.2563828285578114
0.3770766696211996
0.2875029436763493
0.05460710532949586
0.3303605316505138
0.3633314101312995
0.3674634849874887
0.3665527913247528
0.3127501804784024
0.2977531553098067
0.3017550336898699
0.2879383449870363
0.21253840552914
0.1577224463669707
0.1531271414180023
0.1300852418494854
0.1153203056163885
0.06703033300148288
0.08520541362359473
0.08051719553830002
0.06427350276923406
0.06053885413387233
0.05568782946813642
0.04946310762428633
0.08590513042654016
0.03554126227635546
0.0124908180160783
0.03216394624147922
0.2343427013078664
0.1729326999414892
0.1018675653498855
0.04156746628772148
0.3263171678302667
0.2781427944402738
0.2178991047739753
0.1782786190583832
0.04946310762403779
0.03216394624149782
0.04156746628754839
0.1782786190582496
0.05568782946748932
0.01249081801622024
0.1018675653499205
0.217899104774712
0.06053885413327438
0.03554126227652337
0.172932699941425
0.2781427944410397
0.06427350276877963
0.08590513042678352
0.2343427013077178
0.3263171678306074
0.366552791323174
0.3674634849869577
0.363331410130757
0.330360531650088
0.2879383449870177
0.3017550336897744
0.2977531553096013
0.3127501804779576
0.1300852418494708
0.1531271414177818
0.1577224463670681
0.2125384055289226
0.08051719553832043
0.08520541362397242
0.06703033300199683
0.1153203056169087
0.05460710532917008
0.2875029436740195
0.3770766696186771
0.2563828285561839
0.1802076167797048
0.2087423254617898
0.376557505422215
0.3253581267785238
0.2737550137410775
0.0674340859313535
0.2740415537872687
0.3575717938565515
0.3539362870988872
0.1519488279966878
0.09002112767047867
0.3129847157448625
0.451895035770792
0.6860955845461671
0.8907150052839522
1.320036013207386
0.351241435781556
0.7130730746606039
0.9917620488724789
1.399964830980945
0.2354623985908514
0.6147489476721248
0.969593836189233
1.33800248497117
0.1790076378840291
0.555168042130427
0.926690884084526
1.275457295777853
1.540917659681593
0.7466990557548754
1.502748885353689
1.358004776906482
1.900699728453619
1.120956137392437
1.291889978151202
1.440689440939027
1.930169939680544
1.364565978998864
0.9245296033440425
1.484631340103256
1.864187711004668
1.650015870099908
0.4372448097383956
1.143592163753961
1.130832670177714
1.016684352112804
0.9213130158428477
0.8505505300064879
1.146749140108491
0.9950904412197373
0.9072173345375153
0.842443778401246
1.465248092933311
1.009276991153079
0.8955816019697966
0.8386699737036404
2.04303520443258
1.035239376432312
0.8901270116635855
0.8366963568408291
0.8044258091648043
0.7653465968927978
0.7091240287166086
0.6437905645391186
0.7996772836880208
0.7599633528295867
0.7038037877385583
0.6372077668249825
0.7976351019536659
0.7536164673714482
0.6914818217392835
0.6207891277737392
0.7963441901245365
0.7485514256365093
0.6673099617979498
0.5749317199015788
0.569620095410427
0.5060774778102565
0.4415099044437206
0.3408966364225841
0.566627358800818
0.4925655767710904
0.399127893498304
0.2433970529421839
0.5501831318380119
0.4557143787279918
0.3087569870455494
0.1101834778497079
0.4612704094574617
0.3251014700782611
0.1609763326064364
0.009858361116552531
0.36483226433158
0.5643523026661202
0.870007314394279
1.122112503118773
0.174134508677897
0.3661611252336834
0.697606685058383
1.090917071879686
0.03135648139506466
0.1475393705298916
0.5043315980005645
1.032831741764351
0.1011549911806765
0.02332762605035872
0.3004571092711616
0.8517535146540693
1.15322233789551
1.157141447336647
1.159546509644536
1.158622208132732
1.156244028949958
1.168754194601353
1.182975478865016
1.19767967406944
1.153896822612614
1.175102967680603
1.198458631026429
1.22363596948458
1.050980856405282
1.068265736023045
1.078628132388242
1.088935305704039
1.155848565063346
1.162244694167739
1.190190896542217
1.149102451942286
1.213594612383527
1.245480120557217
1.298132383054994
1.270483970039956
1.251312309227293
1.29706188148468
1.363578717144064
1.42551624116334
1.089678555591313
1.087577000126725
1.101036141729144
1.160550744417847
0.9684914409923391
0.9296245148740993
0.9095155282559904
0.8966516707681188
0.9903471008029545
0.9352850307137106
0.9106167359628178
0.894991737536713
1.054092780964107
0.9365980960606681
0.9081220010736645
0.8839067358673203
1.141561264733835
0.899506893393534
0.8609968852000605
0.8334665129267437
0.8807778428846426
0.8598143404608307
0.8610031647303927
0.9069053941229229
0.8694712423549993
0.8384372948212608
0.8156860418621826
0.8354129033903608
0.8475334264875127
0.8085906205396282
0.7857141630803187
0.7634724759320736
0.8035042638789429
0.7683366534911834
0.7808836148396888
0.7259576575911199
0.6232858099749646
1.002704904991431
1.099020429306124
1.116673321783874
0.6574119334188676
0.9785208116253534
1.091854971759255
1.115850658849726
0.6902729644000758
0.9705186833457603
1.085819060657552
1.11484034410545
0.7062581776650381
0.9574419122582235
1.079432513259135
1.113852778615662
1.113028209855484
1.069465041639085
0.9389513523847356
0.6500029106388272
1.112891512353111
1.069604453242502
0.9372230564725762
0.657181829173683
1.112842096244717
1.070400506871505
0.9362567661585043
0.6852834640797686
1.11311804225007
1.073784106716097
0.9439656531127747
0.7090125461781094
1.113852778618805
1.114840344102334
1.115850658853632
1.116673321789642
1.079432513262965
1.08581906065928
1.091854971765589
1.09902042931397
0.9574419122570486
0.9705186833488206
0.9785208116257266
1.002704904990797
0.7062581776644693
0.6902729644006125
0.6574119334187039
0.6232858099737112
)
;

boundaryField
{
    back
    {
        type            empty;
    }
    inlet
    {
        type            calculated;
        value           nonuniform List<scalar> 
16
(
1.118016635923817
1.118016635923327
1.118016635921991
1.118016635900154
1.118016636034887
1.118016635839496
1.118016624557476
1.118016452907531
1.118016452906735
1.118016624556927
1.118016635839877
1.118016636034292
1.118016635923624
1.118016635923231
1.118016635921705
1.118016635899328
)
;
    }
    front
    {
        type            empty;
    }
    top
    {
        type            calculated;
        value           uniform 0;
    }
    outlet
    {
        type            calculated;
        value           nonuniform List<scalar> 
16
(
1.111558645261283
1.111421951624696
1.111388392984791
1.111763555257246
1.116097216016101
1.115119987823363
1.113890136557008
1.112672664327772
1.111558645259416
1.111421951624853
1.111388392986082
1.111763555259929
1.112672664330498
1.113890136553806
1.115119987827349
1.116097216021906
)
;
    }
    bottom
    {
        type            calculated;
        value           uniform 0;
    }
    wall
    {
        type            calculated;
        value           uniform 0;
    }
}


// ************************************************************************* //
