/*--------------------------------*- C++ -*----------------------------------*\
  =========                 |
  \\      /  F ield         | OpenFOAM: The Open Source CFD Toolbox
   \\    /   O peration     | Website:  https://openfoam.org
    \\  /    A nd           | Version:  11
     \\/     M anipulation  |
\*---------------------------------------------------------------------------*/
FoamFile
{
    format      ascii;
    class       volScalarField;
    location    "0.35923695";
    object      T;
}
// * * * * * * * * * * * * * * * * * * * * * * * * * * * * * * * * * * * * * //

dimensions      [0 0 0 1 0 0 0];

internalField   nonuniform List<scalar> 
880
(
500.0000000000027
500.000000292371
500.0240609338289
503.3408127738808
500.0000000004407
500.0000008570672
500.0298645953419
504.8871464789779
500.0000000016358
500.0000033381324
500.0553418587916
506.7156682078223
500.0000000211684
500.0000146208849
500.1147623834919
509.4284204586378
499.9999999006574
500.000000075423
500.0000101665258
500.0001636973264
500.000067158668
500.0002570950949
500.001614433651
500.0023566236371
500.263364169202
500.4347023844668
500.7186562412815
500.9607631165203
514.9178476190269
521.1125769791024
526.3742899927145
529.0292176681057
500.0004089501594
500.0033847053595
500.0128252433572
500.0397783277115
500.0227915615185
500.0985667403414
500.2005090062006
500.422022972719
502.4155845072571
503.6983989543031
505.2861617040679
507.230733754692
531.2573301765417
533.8984207342041
534.3926058238255
533.164029593505
522.8401904267137
517.6389005061823
515.4439771737003
513.9695394794418
511.0475279712341
512.6641960009486
513.5779603640711
513.7075767447653
501.1772420735225
502.0603158349677
503.0083268759923
503.7665923372993
500.1411473148827
500.3406004476724
500.6412577139611
501.0639230983463
501.5574494058398
502.0499012415195
502.5356128069152
502.8872545414465
504.3928473723133
504.7490248706497
504.9504827528915
504.9005902663325
513.0679091717833
512.1692417838282
510.9866194670087
509.749120508303
512.2219249067783
511.032329984387
510.2808458449176
509.5129828526466
508.9400117042147
508.8784218053661
504.7597915123814
503.0953205050019
519.1988259615007
508.0402865935404
504.3860366868831
503.0560902628913
571.3188379398355
510.4333721351498
503.9292068104608
502.603445823606
620.3440231323431
523.8957592613742
504.7805211239944
502.4448936892624
502.3965678759362
506.0674426452762
539.6774183635745
637.4093118676975
501.5158764759946
508.5903713925653
556.30299619706
635.189217384755
501.8918592626469
514.4422634006545
576.6105971820299
636.1937952384171
503.3246540667631
524.8675044907625
594.7479464218989
633.4377430117495
628.316716926049
604.8053456878766
539.8157955813931
506.4865138707823
621.8129868683102
607.4544057940625
554.9981679718503
512.1640583178696
614.4986023152611
605.2838908995552
566.9948007361529
521.1592206816917
606.6427685371802
594.2587207636196
569.0868019527342
532.0897242137743
541.2922186875443
563.599346678611
579.7591735112516
597.153612855299
539.8329308872438
552.0559462788095
562.8277185558951
582.2093946162703
535.8353403160679
540.3214704238484
544.5105533099224
560.5778382027456
530.6372452228516
529.8355770211349
525.3122447937424
530.4062579133306
526.7523679354291
520.4504909876492
508.4951641610554
495.5316538805289
520.591152937621
511.2779928264882
491.9681313528911
459.8350502304837
515.7630044962929
506.0172486369211
477.9301554290037
425.1204761286112
511.5882472006522
504.5831721903029
477.6779715388081
399.8649732855474
410.5403919652785
486.8260723566841
503.2609378470941
507.7684062303364
477.9399036246684
493.0369808780856
502.4041461956457
505.1698234279472
517.2611161853649
495.7344828599966
500.8734715775393
503.3599005637727
530.1721830455574
500.4060023872208
500.2272499705711
502.2905172560975
539.0029180225473
504.3269751600241
498.9655207910734
500.3929487662271
533.7937960272151
504.2973662378853
497.6634702137682
499.2219086546552
525.7951598360311
503.4849853237429
497.2753700801705
499.1942391237467
517.7070913645043
499.1155903604064
497.0793957296255
499.4038977208397
479.7737809247424
469.402238001795
488.9354072465505
498.6805415824899
474.25592795111
471.2942207696247
489.4245574446648
498.680383090064
465.2305926933513
473.4182482586712
490.3268801257764
498.6945553383193
459.5025788834598
476.2501285297112
491.379047281758
498.783899962561
517.7070913645543
499.115590359981
497.0793957298823
499.4038977205694
525.7951598360754
503.4849853230691
497.2753700800321
499.1942391227144
533.7937960272316
504.2973662372787
497.6634702126158
499.2219086538045
539.0029180226505
504.3269751590172
498.965520790829
500.3929487657779
507.7684062305515
503.260937847493
486.8260723568006
410.5403919643016
505.1698234277746
502.4041461956956
493.0369808783954
477.9399036235873
503.3599005638546
500.8734715778652
495.7344828591605
517.2611161852396
502.2905172560817
500.227249971019
500.4060023866321
530.1721830458976
399.8649732885954
477.6779715389303
504.5831721906044
511.5882472008732
425.1204761285255
477.9301554289189
506.0172486373831
515.7630044960862
459.8350502304332
491.9681313538511
511.2779928265961
520.5911529378963
495.5316538809622
508.4951641607874
520.450490986928
526.7523679355983
541.2922186875954
563.5993466792194
579.7591735118892
597.1536128558007
539.8329308867806
552.0559462784756
562.8277185561229
582.2093946168833
535.8353403153359
540.3214704235701
544.510553309906
560.5778382030953
530.6372452226497
529.8355770206688
525.3122447934005
530.4062579137669
606.6427685375741
594.2587207641242
569.0868019530237
532.0897242147064
614.498602315811
605.2838909000495
566.9948007362603
521.1592206816204
621.8129868688368
607.4544057945176
554.9981679715315
512.1640583179618
628.3167169265664
604.8053456882458
539.8157955818316
506.4865138706367
502.3965678757195
506.0674426451879
539.6774183634494
637.4093118679193
501.515876476677
508.5903713929099
556.3029961971631
635.1892173850085
501.8918592636297
514.4422634017834
576.6105971825315
636.1937952384534
503.3246540667696
524.8675044906947
594.7479464225522
633.4377430119168
502.4448936890951
502.6034458233761
503.0560902634808
503.0953205051468
504.7805211232799
503.9292068101008
504.3860366870766
504.7597915121738
523.89575926061
510.4333721350381
508.0402865929421
508.8784218052242
620.3440231323603
571.3188379394325
519.1988259616978
508.9400117040875
502.8872545419703
504.9005902667344
509.7491205086768
509.5129828528941
502.535612806718
504.9504827531909
510.9866194670934
510.2808458451152
502.0499012415137
504.7490248708525
512.1692417839918
511.0323299837515
501.5574494054158
504.3928473720123
513.0679091719114
512.2219249069506
500.1411473143012
501.177242073161
511.0475279715539
522.8401904270243
500.3406004471344
502.0603158345867
512.6641960014055
517.6389005061314
500.641257714511
503.0083268754553
513.5779603645145
515.4439771728158
501.0639230979251
503.7665923372539
513.7075767448138
513.9695394789893
533.164029593538
507.2307337549636
500.4220229726578
500.0397783279841
534.3926058239319
505.2861617042214
500.2005090059063
500.0128252432157
533.8984207344832
503.6983989541424
500.0985667391146
500.0033847050514
531.2573301767685
502.4155845068409
500.0227915611366
500.0004089505935
529.0292176678515
500.960763116901
500.0023566238237
500.0001636980382
526.374289992225
500.7186562413153
500.0016144334584
500.000010167016
521.112576978482
500.4347023844173
500.0002570948928
500.0000000750825
514.9178476185577
500.2633641690055
500.0000671579336
499.999999901189
500.0000000001753
500.0000002925185
500.0240609337587
503.3408127736494
500.0000000005271
500.0000008567644
500.0298645954811
504.8871464788311
500.0000000018922
500.0000033379117
500.0553418588285
506.7156682082966
500.0000000219067
500.0000146206988
500.1147623835825
509.4284204589626
506.2254481681067
508.9278791841286
513.24921922072
521.8955779464387
508.9278791845623
512.3867750642909
518.7555559958224
531.3321058642579
513.2492192210183
518.7555559958744
528.8806150293378
544.0768559809778
521.8955779465441
531.3321058640475
544.0768559815558
560.2595481497453
577.2416490285739
564.2359662093141
557.3544922944478
544.9498910024902
575.4561578496731
571.5456644127789
570.3314691814709
564.6288879799771
575.3921959439474
574.3217679347719
573.7613992670996
572.0573771812593
571.9799791486688
571.5450845150082
571.6839974567354
570.9797123722192
567.8988820141433
565.5535523055064
560.4612950375388
553.2864600838983
567.5583542902845
565.1532605347817
560.2395089090145
553.9644387492715
567.5747520744478
564.9925087590482
559.982417824307
554.5583716750513
567.6370835018902
564.7359073019171
560.185996058668
550.9724939587843
512.3813627186936
492.8098864450835
489.9499289795856
490.4502987552125
501.8264670340668
488.7084269213818
489.9704656024394
491.0967481429073
491.5798107206586
488.8777957524802
491.559335355638
492.8373829477362
469.9266984501363
484.1233405939725
489.9012895831545
491.5987331186001
490.7931593533979
491.8104717893163
493.3327295717318
494.8469873359052
491.0038753873841
491.4807748779229
492.8626934481792
494.8615814545942
492.3164030296693
492.3385930850866
493.2672976146725
494.7356984370825
491.2482711691412
491.4194655622682
492.7258258202472
494.8403833004069
505.0244981393994
567.6802352141342
639.3623039164264
664.5434558753362
510.9452779843133
581.1664966710873
642.0082892689759
660.2512005202603
516.4245813832
589.4975250096445
641.9783532415663
660.9495332255516
520.2338057154817
597.7652752475024
642.1828624131372
661.3625526804533
694.3007740902569
681.4451894307925
670.1397512463288
656.8748846051849
702.7509116083412
690.0067387557305
676.8980897765007
662.5491039290212
708.728556156484
697.4717638739793
683.0149246008158
668.0405045401656
706.6523338901962
701.2938522802338
687.1939962262712
671.8350449154204
643.6158519784723
633.026875671289
623.2181371481646
618.9683125995716
648.7142897396647
637.107397624201
625.9495030698032
621.0677456687629
653.8777519380375
640.6177299421424
629.5058946550181
623.1776697463775
658.2964653448635
643.6922516368915
632.996676682135
625.5984077979332
615.0674051040271
607.6462527502438
590.980562036893
565.0079669251129
616.8448539425364
609.2347805747722
593.7783912114596
592.6504540238085
617.8390072426115
610.1545705794825
602.7703108508198
620.4156109245988
619.7334732472432
614.0057781795251
616.3505430958613
603.9811652308294
522.5289692940648
460.1973530092489
422.6682793460157
426.5737967823745
512.0671125866453
421.983474541714
305.5291323835863
252.9718148692442
468.7317900989938
368.1012718371668
252.1785342836277
231.8540006243341
368.0076446954273
282.5858916312253
227.8297944509687
239.5911602838835
376.1289606983623
403.9262566259432
471.0873939881368
522.9242111725321
306.4934628239696
380.3607193438156
441.8187560242974
491.7073542208627
291.6672505394328
350.9020048237471
404.4014155771397
445.1312685308846
298.9376961326007
351.4329110238467
402.1237800105345
431.1502610343348
487.0605433118609
510.3457073273788
509.2796837515472
509.68717545495
435.7732894604945
473.928666605638
492.6750580281114
510.5673584753876
407.3532229098377
432.9142249419814
470.5546707792953
514.1744819749251
392.4922054304449
408.2738369441224
445.0625623568168
512.9336864527755
491.826307792049
470.6134539705184
459.3927346818886
459.7034486824941
495.1785147279825
486.0221573243543
482.0172003095021
475.895349091724
504.2372361235115
507.4084757709542
501.6103039544118
488.6176447198847
503.6018078855248
508.6045360733484
498.724973149583
484.0920030823359
465.9310839535223
450.6271643867846
442.2370677869828
439.8953372980189
471.5289530335961
455.6885026146476
444.4201559223912
441.0562874574298
469.7953773546907
461.29557213228
452.6147635367377
448.9983043179143
462.8008312638877
460.2203138525438
455.47934517078
452.3447038729398
439.8953372979831
441.0562874573998
448.998304317942
452.3447038730329
442.2370677868217
444.4201559222464
452.6147635367353
455.4793451710312
450.6271643865034
455.6885026143707
461.2955721321635
460.220313852737
465.93108395308
471.5289530334041
469.7953773545701
462.8008312640508
459.7034486826004
459.3927346818878
470.6134539708228
491.8263077922617
475.8953490917585
482.0172003095968
486.0221573246685
495.1785147281927
488.6176447196728
501.610303954222
507.4084757710627
504.2372361235769
484.0920030820887
498.7249731494937
508.604536073252
503.6018078854931
512.9336864528819
445.062562357234
408.2738369447341
392.4922054310527
514.1744819750288
470.5546707797697
432.9142249425725
407.3532229105583
510.5673584755551
492.6750580284454
473.9286666061833
435.7732894613835
509.687175455087
509.2796837517382
510.3457073279081
487.0605433124709
522.9242111723241
471.0873939880859
403.9262566244432
376.1289607075544
491.7073542208502
441.8187560245532
380.3607193431724
306.4934628244304
445.1312685311793
404.401415577755
350.9020048233774
291.6672505392627
431.1502610347221
402.123780011049
351.4329110241988
298.9376961327645
426.5737968042525
422.6682793479484
460.1973530091327
522.5289692942581
252.9718148730319
305.5291323834276
421.9834745411943
512.0671125871115
231.8540006246648
252.1785342832407
368.1012718379637
468.731790099783
239.5911602839979
227.8297944503395
282.5858916318246
368.0076446961339
565.0079669254853
590.9805620372802
607.6462527507953
615.0674051042819
592.6504540241348
593.7783912116513
609.2347805750243
616.8448539430564
620.4156109250439
602.7703108508256
610.1545705792413
617.8390072428311
603.981165231736
616.3505430957946
614.0057781792533
619.7334732475007
618.9683126002051
623.2181371485581
633.0268756710956
643.6158519785632
621.0677456692972
625.9495030697985
637.1073976239691
648.7142897394358
623.177669746531
629.505894655214
640.6177299417058
653.8777519376533
625.5984077983813
632.9966766823101
643.6922516366831
658.296465344687
656.8748846050286
670.1397512458722
681.4451894304123
694.3007740899423
662.5491039288564
676.8980897764329
690.0067387555262
702.7509116078152
668.0405045397478
683.0149246004793
697.4717638732291
708.728556156628
671.8350449150514
687.1939962260727
701.2938522802006
706.6523338895079
664.5434558753207
639.3623039161624
567.6802352140915
505.0244981398554
660.2512005201173
642.0082892686909
581.1664966709927
510.9452779848729
660.949533225321
641.9783532412259
589.4975250094427
516.4245813837699
661.3625526808355
642.1828624128013
597.7652752472779
520.2338057160456
494.8469873365577
493.3327295716226
491.8104717885842
490.7931593528403
494.8615814552415
492.8626934480334
491.4807748769577
491.0038753869724
494.7356984377265
493.2672976143881
492.3385930840976
492.3164030291403
494.8403833010444
492.7258258198756
491.4194655612133
491.2482711682519
490.4502987544229
489.9499289789574
492.8098864455049
512.381362719061
491.0967481421529
489.9704656015914
488.7084269219058
501.8264670343543
492.8373829469624
491.559335354666
488.8777957529339
491.5798107208718
491.5987331177933
489.9012895819909
484.1233405943456
469.9266984503552
553.2864600840406
560.4612950377168
565.5535523062032
567.8988820139693
553.9644387495625
560.2395089090853
565.1532605354389
567.5583542900184
554.5583716747624
559.9824178242538
564.9925087596027
567.5747520741612
550.9724939587398
560.1859960587695
564.7359073020216
567.6370835016631
570.9797123713199
572.0573771801753
564.6288879790119
544.9498910026086
571.6839974557903
573.7613992655241
570.3314691797502
557.3544922939653
571.5450845138938
574.3217679330152
571.5456644098954
564.2359662074978
571.9799791477142
575.3921959420866
575.4561578462425
577.2416490248991
505.1316210532803
497.2538776521314
496.8135753288093
499.4842205446809
485.4159631658617
492.0362132638202
495.3926510053614
499.345403621047
470.3697608190478
486.3989961352488
493.9791285136309
499.1480371067426
460.1373471798036
480.4284811839769
492.4955149119226
498.9410726877601
498.6805415820435
488.9354072465979
469.4022380016959
479.7737809248246
498.6803830896827
489.4245574447829
471.2942207694273
474.2559279514601
498.6945553382621
490.3268801261894
473.4182482583323
465.2305926936697
498.7838999625162
491.3790472820295
476.250128529468
459.502578883617
498.9410726873886
499.1480371066633
499.345403621121
499.4842205447173
492.4955149116668
493.9791285134384
495.3926510047576
496.8135753285847
480.4284811842106
486.3989961355268
492.0362132644031
497.2538776525535
460.1373471796245
470.3697608187922
485.4159631658701
505.1316210533457
)
;

boundaryField
{
    back
    {
        type            empty;
    }
    inlet
    {
        type            zeroGradient;
    }
    front
    {
        type            empty;
    }
    top
    {
        type            zeroGradient;
    }
    outlet
    {
        type            fixedValue;
        value           uniform 500;
    }
    bottom
    {
        type            zeroGradient;
    }
    wall
    {
        type            zeroGradient;
    }
}


// ************************************************************************* //
