/*--------------------------------*- C++ -*----------------------------------*\
  =========                 |
  \\      /  F ield         | OpenFOAM: The Open Source CFD Toolbox
   \\    /   O peration     | Website:  https://openfoam.org
    \\  /    A nd           | Version:  11
     \\/     M anipulation  |
\*---------------------------------------------------------------------------*/
FoamFile
{
    format      ascii;
    class       volScalarField;
    location    "0.16";
    object      rho;
}
// * * * * * * * * * * * * * * * * * * * * * * * * * * * * * * * * * * * * * //

dimensions      [0 0 0 0 0 0 0];

internalField   nonuniform List<scalar> 
880
(
0.3733250556165154
0.3733250556165154
0.3733250556331544
0.3733282764658539
0.3733250556165154
0.3733250556165154
0.3733250557019583
0.3733373849391903
0.3733250556165154
0.3733250556165153
0.3733250562731498
0.3733840596144836
0.3733250556165154
0.3733250556165154
0.3733250667826938
0.3735199154375344
0.3733250556165154
0.3733250556165155
0.3733250556165152
0.3733250556142193
0.3733250556165507
0.373325055610873
0.3733250559014585
0.3733250465018379
0.3733249526913386
0.373325192933695
0.3734471614857858
0.3731911662236869
0.378555375851553
0.3892932118686727
0.396128304351664
0.3987259765290076
0.3733250826079694
0.3733254280334437
0.3733256330102749
0.3733256294983849
0.3733260548037363
0.3733273421260334
0.3733328280429514
0.3733335374269212
0.3736729057193564
0.3739920155081772
0.3744818032197064
0.3749223326840033
0.4022904266998383
0.4072047447287592
0.4120694285024524
0.4180835496132309
0.4160517818230767
0.4068794690177285
0.3987710803969924
0.3955682739281664
0.3763432876963533
0.3792777108556377
0.3805893040033921
0.3809716799590512
0.3733509732572436
0.3734213054561402
0.3735272426991326
0.3736052471868653
0.3733267726518904
0.3733304843352062
0.373338817458149
0.373344173792062
0.3733436689423731
0.3733401615882835
0.3733343705953467
0.3733289913257399
0.3736221032538971
0.37359514843287
0.3735461650734581
0.3734751591786645
0.3804762814481281
0.3796594896725639
0.3786443003453839
0.377398832269028
0.3949896740767039
0.3936256936309345
0.3911529793699524
0.3881516676919172
0.3847948672623524
0.3759844440824544
0.3733969953948562
0.3733259221179237
0.3815016195299284
0.3746447677686922
0.3733444380750776
0.3733251267885248
0.377090399694602
0.3736126522526361
0.3733267405642307
0.373325015667318
0.3871059887456779
0.3735106913782678
0.3733253948525908
0.3733251787654737
0.3733248478636376
0.3733250770469416
0.3739560891183267
0.4469849106716857
0.3733252507300746
0.3733379505359135
0.3764165340235137
0.498091626788528
0.3733264685252993
0.3733582284785811
0.3797134764405442
0.5256185602066077
0.3733305348127923
0.3734253325463802
0.3844961394151867
0.5494408579042465
0.5645771741616085
0.3903486914231325
0.3735044121069599
0.3733359672904067
0.5807078364012773
0.3973635015129158
0.3736808023877177
0.3733494186258983
0.5968537011494032
0.4064155484180914
0.3739192520752748
0.3733594851083775
0.618545749133767
0.4164530844309203
0.3742344045333009
0.3733859278765382
0.3734082579683894
0.3747322413796362
0.4299221670391071
0.6364468406874607
0.3734604347528667
0.3754584086756689
0.441442686321284
0.6353546826879755
0.3736533174528708
0.3759302453457762
0.4348109164507165
0.5901133814453769
0.3732579820529596
0.37493270369944
0.4152039073671324
0.5202389723661155
0.3737024571559733
0.3775388871389393
0.404357388440481
0.414585274332215
0.3738448085411358
0.3770334856716364
0.3785145410887261
0.2994303698006404
0.3735924190551215
0.3748806634679739
0.3670572720008257
0.2212543743032523
0.3733453872692301
0.3735520506295154
0.3558466282120657
0.1822418255716688
0.1832494623498319
0.351284744519593
0.3727644789758648
0.3733234831422741
0.1838899500282598
0.3479864945190887
0.3722998069938326
0.3733162684754398
0.1858716483412722
0.3461679399163015
0.3722280249759326
0.3733162358898012
0.17989391663636
0.3426521429397346
0.3721245402146792
0.3733147206071725
0.2074312816302709
0.350018428987949
0.372670899970113
0.3733207265929129
0.2332360352169682
0.3586513009517365
0.3730669494195384
0.3733237861960302
0.2552582864829397
0.3644315212988095
0.373219556409162
0.3733246358400694
0.2805921746365519
0.3700189802197217
0.373307524797939
0.3733249143949267
0.3248602323182552
0.3671113617501301
0.3730799252364557
0.3733218620626014
0.3217785156724108
0.3673433866556781
0.3730910888097838
0.3733219126539548
0.3182005329688209
0.3674549360742742
0.3731010914159171
0.3733220141692135
0.3183594130985397
0.3680073491259492
0.3731426422266863
0.3733225654353665
0.2805921746358077
0.3700189802188286
0.3733075247970423
0.3733249143943489
0.2552582864816804
0.3644315212974125
0.3732195564026136
0.3733246358387435
0.233236035215071
0.3586513009510712
0.3730669494175691
0.3733237861981394
0.2074312816303501
0.3500184289906854
0.3726708999696213
0.3733207265914882
0.3733234831482798
0.37276447898
0.3512847445206762
0.1832494623492409
0.3733162684769669
0.3722998069960761
0.3479864945206891
0.1838899500290196
0.373316235884737
0.3722280249802156
0.3461679399170865
0.1858716483414138
0.3733147206075691
0.3721245402161805
0.3426521429463837
0.1798939166358402
0.1822418255684128
0.3558466282086574
0.3735520506290356
0.3733453872688608
0.2212543742997184
0.3670572719974552
0.3748806634654713
0.3735924190477324
0.299430369800251
0.3785145410854171
0.3770334856723625
0.3738448085348084
0.4145852743328337
0.4043573884397892
0.3775388871350162
0.3737024571633901
0.3734082579669389
0.3747322413901566
0.4299221670374191
0.6364468406891876
0.3734604347542175
0.3754584086761401
0.4414426863189733
0.6353546826872936
0.3736533174380913
0.3759302453430791
0.4348109164462217
0.5901133814449951
0.3732579820803247
0.3749327036978715
0.4152039073639543
0.5202389723658258
0.6185457491412117
0.4164530844310536
0.3742344045327101
0.3733859278763983
0.596853701162562
0.4064155484400519
0.3739192520919599
0.3733594851099376
0.5807078364018862
0.3973635015092124
0.3736808023857536
0.3733494186252593
0.5645771741593915
0.39034869141329
0.3735044121094906
0.3733359672893988
0.3733248478687178
0.3733250770481584
0.3739560891186811
0.4469849106672672
0.3733252507291983
0.3733379505310728
0.3764165340237984
0.4980916267853525
0.3733264685223654
0.3733582284820875
0.3797134764430923
0.5256185602127161
0.3733305348096912
0.3734253325405178
0.3844961394177208
0.5494408579065289
0.3733251787612115
0.3733250156693004
0.3733251267883068
0.3733259221174894
0.3733253948476183
0.3733267405658436
0.3733444380797497
0.3733969953923983
0.3735106913794169
0.3736126522540396
0.3746447677649989
0.3759844440806953
0.3871059887455041
0.3770903996948482
0.3815016195290389
0.38479486726268
0.3733289913215256
0.3734751591784239
0.377398832271842
0.3881516676944154
0.3733343705936092
0.3735461650723567
0.3786443003500294
0.391152979371673
0.373340161591619
0.3735951484327913
0.3796594896708319
0.3936256936307742
0.3733436689438975
0.373622103253946
0.3804762814501047
0.3949896740763272
0.373326772647481
0.3733509732530279
0.3763432876964801
0.4160517818224734
0.3733304843312132
0.3734213054562731
0.3792777108526109
0.4068794690142857
0.3733388174570743
0.3735272427042272
0.3805893040016048
0.3987710803954759
0.3733441737911786
0.3736052471901703
0.3809716799590253
0.3955682739258078
0.4180835496151584
0.3749223326950992
0.3733335374238539
0.3733256294958369
0.4120694285035708
0.3744818032346393
0.373332828041185
0.3733256329938765
0.4072047447312815
0.3739920155133107
0.3733273421258486
0.3733254280491102
0.402290426694192
0.3736729057045537
0.3733260548038024
0.3733250826092137
0.3987259765271231
0.3731911662153324
0.3733250465017081
0.3733250556157381
0.3961283043504887
0.3734471614851493
0.3733250559015423
0.3733250556165154
0.3892932118687801
0.3733251929326752
0.3733250556109131
0.3733250556165153
0.3785553758503485
0.3733249526898252
0.3733250556165565
0.3733250556165151
0.3733250556165154
0.3733250556165154
0.3733250556342128
0.3733282764830345
0.3733250556165152
0.3733250556165155
0.3733250557024134
0.3733373849466248
0.3733250556165154
0.3733250556165154
0.3733250562731399
0.3733840596209413
0.3733250556165154
0.3733250556165154
0.3733250667800403
0.373519915430995
0.3733341905340478
0.3733584603287047
0.373438409715844
0.3744681852948986
0.3733584603592878
0.3733787178863323
0.3735183503866827
0.377211866109543
0.3734384097258063
0.3735183503844403
0.3750228732518047
0.3942500754970776
0.374468185090185
0.3772118657149964
0.3942500753135797
0.4497654647600737
0.5309255688990211
0.4748953058625038
0.4445110473310558
0.4097634277273092
0.5163564261417742
0.5052812009884393
0.5040973398202037
0.4802162929307496
0.5108051994463207
0.5082005982857841
0.5094488755411936
0.4988416287755117
0.511937203479899
0.5097261077906171
0.5103366519229394
0.5032087194006672
0.5056230956580636
0.5045146019860313
0.5052588339368681
0.5077633768011749
0.5111739573110023
0.5081042670069259
0.5087759029128777
0.5114788578288726
0.5123652907905588
0.5102320149443511
0.5108002570462654
0.5128440994979202
0.5134026677433847
0.5113681473850026
0.5113955102485375
0.5066496557759771
0.4452884979746528
0.37713944594907
0.3575874659112882
0.3619928804344077
0.4168330328159607
0.3541892900422978
0.3506920000425142
0.3591057594729934
0.388635184548174
0.3483256372732798
0.3532516084708107
0.3609514450851367
0.3348915001176522
0.3340656276572826
0.3491482970468522
0.357857630665264
0.3692723076693347
0.3748823081948464
0.3772146257313755
0.3784382721374026
0.3672170931042518
0.3724935363263179
0.3750895905781819
0.3766848940291135
0.3678781367296448
0.3717385376336049
0.3743752210266791
0.376384080031034
0.3651199421199713
0.3694988322586426
0.373181776162127
0.375674949985583
0.379039088520208
0.3786850882422291
0.3797656153308405
0.4771120606700276
0.3777500481179313
0.37837786118221
0.3818784416022047
0.5137259095700317
0.3777515047321021
0.3788240312267554
0.3840583225778669
0.5284102755409199
0.3767882974240865
0.3784873739176542
0.3870597048904464
0.5393814624319361
0.7141958138384207
0.7330136625515212
0.7267264437241022
0.720629082716586
0.7516119940523922
0.7451906414567805
0.7322776864433531
0.7253266379443734
0.7374111301028503
0.7353960040577681
0.7320429883324974
0.7294501973737468
0.7533625182685604
0.7423840351411437
0.7363058806654791
0.7315688621226323
0.7041898003402817
0.6917248856186918
0.6856999665354522
0.690149846656281
0.7099189958762373
0.6976152990665684
0.6908484010464323
0.6945374719987992
0.71586566164871
0.703727819613316
0.6978501592420404
0.7012806083700899
0.7216298129146475
0.7078927936968388
0.7010146299608646
0.7037078390291005
0.693393381095371
0.6848308404094023
0.6478370826735446
0.5664561896622086
0.6972942652677633
0.6912101967193588
0.6516899912647505
0.5786591988078749
0.7044692704403561
0.6981699411795428
0.6573006476256039
0.5897980213836094
0.707342567946423
0.7019456131162137
0.6595236872443819
0.684044886200875
0.3644354453636986
0.08657007096488524
0.02096346873053085
0.03124967427732223
0.2964856270613014
0.05709805865258
0.02917457005158538
0.04040733919138262
0.2239331444381857
0.03581197184845096
0.02899750971676091
0.04875104745279504
0.161848089076021
0.0192991499666487
0.03310078642404227
0.05220169635496286
0.04570422703205037
0.05592156922089167
0.06439365810016626
0.06342596129161465
0.05700004337801699
0.06870521332361366
0.07263787096715761
0.06801443728385648
0.07046812689731932
0.08320334456639573
0.08005373579189101
0.07341585988116343
0.07616315836572281
0.09110904775175822
0.08500922191430565
0.07979514002946274
0.1000275851344561
0.1271994684142982
0.1518535622805154
0.1828069908423438
0.09586489227744621
0.1204715105169278
0.1403273479977522
0.1712217839577559
0.09058609444593371
0.1127025782276008
0.1287639477233047
0.1528170102183301
0.08494187912864185
0.1047713771018417
0.1171784847219056
0.1456730707566345
0.1420036903214389
0.09492250028706009
0.08491402142465619
0.0857527593576856
0.1278909406825436
0.09331291302889561
0.09901556925373979
0.08958812508643264
0.1030235707754947
0.09926491404785663
0.09890815970869611
0.09655637929078296
0.08535020481900536
0.09763786806335199
0.101084466791697
0.108063722936601
0.1086400141975825
0.1061370643569833
0.1055684358790564
0.1058132647180206
0.09423432646932166
0.08982733551626876
0.08834431120413426
0.08771110334565889
0.08318464785644986
0.08246022018956391
0.07977290086495935
0.07911631694181132
0.09575830170711114
0.09788432458241052
0.09479531509278256
0.09423579945868008
0.1058132647179861
0.08771110334569958
0.07911631694192935
0.09423579945924565
0.1055684358788928
0.0883443112041364
0.07977290086515754
0.09479531509288019
0.1061370643567953
0.08982733551627493
0.08246022018972121
0.09788432458217912
0.1086400141974441
0.09423432646930194
0.08318464785661119
0.09575830170688231
0.0857527593574368
0.08491402142428524
0.09492250028652102
0.1420036903203021
0.08958812508634949
0.09901556925358904
0.09331291302878209
0.1278909406818641
0.09655637929077532
0.09890815970868289
0.09926491404776992
0.1030235707751724
0.1080637229366272
0.1010844667917409
0.0976378680631904
0.08535020481874576
0.1456730707559892
0.1171784847208834
0.1047713771001832
0.08494187912766861
0.1528170102178645
0.1287639477227861
0.1127025782262071
0.09058609444491177
0.1712217839571704
0.1403273479974667
0.1204715105157988
0.09586489227645642
0.1828069908415507
0.1518535622802118
0.1271994684132778
0.1000275851333262
0.06342596129058285
0.06439365809998551
0.05592156922081913
0.04570422703172571
0.06801443728307306
0.07263787096669805
0.06870521332331382
0.05700004337779558
0.07341585988055392
0.08005373579140102
0.08320334456598016
0.07046812689716535
0.07979514002868933
0.08500922191376416
0.09110904775134951
0.07616315836543626
0.03124967427703891
0.02096346872997224
0.08657007096380608
0.3644354453627858
0.04040733919122268
0.02917457005105826
0.05709805865194448
0.2964856270602281
0.04875104745250215
0.02899750971616673
0.03581197184811545
0.2239331444375953
0.05220169635470327
0.03310078642371554
0.01929914996632396
0.1618480890758698
0.5664561896617984
0.6478370826751391
0.684830840412029
0.6933933811012113
0.5786591988077139
0.6516899912662421
0.691210196722456
0.697294265273962
0.5897980213834969
0.6573006476272895
0.6981699411831704
0.7044692704461201
0.6840448862016868
0.6595236872468165
0.7019456131202885
0.7073425679520414
0.6901498466630022
0.6856999665393193
0.691724885619363
0.704189800339904
0.6945374720053722
0.6908484010496386
0.6976152990670296
0.7099189958760019
0.7012806083760902
0.6978501592446166
0.703727819613114
0.7158656616482366
0.7037078390351441
0.7010146299631642
0.7078927936962934
0.7216298129139831
0.7206290827188436
0.7267264437284624
0.7330136625504367
0.7141958138337211
0.7253266379474249
0.7322776864475719
0.7451906414566225
0.7516119940507721
0.7294501973766522
0.7320429883361755
0.7353960040580823
0.7374111301032571
0.731568862124989
0.7363058806695918
0.7423840351409994
0.7533625182689802
0.4771120606640266
0.3797656153292646
0.3786850882433468
0.379039088522607
0.5137259095631114
0.3818784415997152
0.3783778611841947
0.3777500481211258
0.5284102755339094
0.3840583225753903
0.3788240312304092
0.3777515047353234
0.5393814624267423
0.3870597048868784
0.3784873739223557
0.3767882974282588
0.3784382721394783
0.3772146257333041
0.3748823081945572
0.3692723076683093
0.3766848940306881
0.3750895905798956
0.3724935363258731
0.3672170931028315
0.3763840800319983
0.3743752210279579
0.3717385376333542
0.3678781367280334
0.3756749499866721
0.3731817761637724
0.3694988322581707
0.3651199421185546
0.3619928804318541
0.3575874659093511
0.37713944594732
0.4452884979754858
0.3591057594701957
0.3506920000405568
0.354189290040819
0.4168330328178469
0.3609514450821905
0.3532516084693433
0.3483256372719714
0.3886351845513563
0.357857630661932
0.3491482970449952
0.3340656276547996
0.3348915001210425
0.5077633768005944
0.5052588339334831
0.5045146019891942
0.5056230956589819
0.5114788578278168
0.5087759029111221
0.5081042670103783
0.5111739573099515
0.5128440994966056
0.5108002570449091
0.5102320149481058
0.5123652907905522
0.5066496557771065
0.5113955102471679
0.5113681473883657
0.5134026677406132
0.5032087194023481
0.4988416287652253
0.4802162929306379
0.4097634277995864
0.5103366519206708
0.5094488755291751
0.5040973398100163
0.4445110473015279
0.5097261077906869
0.5082005982764358
0.5052812009417327
0.4748953057056656
0.5119372034810172
0.5108051994418358
0.516356426088506
0.5309255687839944
0.2905756104800985
0.3686601845525068
0.3732444746880243
0.3733245883278118
0.2889805100496385
0.3682214987883601
0.3732310497219097
0.3733243602022251
0.2973159754907943
0.3683959466368437
0.3732173986918583
0.3733240935058964
0.3064436742271237
0.3682294048316918
0.3731874614646285
0.3733234970481563
0.373321862062802
0.3730799252407446
0.3671113617457456
0.3248602323183677
0.373321912654718
0.3730910888131296
0.3673433866532198
0.3217785156688011
0.3733220141668833
0.3731010914162589
0.3674549360762628
0.3182005329667479
0.3733225654291766
0.3731426422287701
0.3680073491229469
0.3183594130975829
0.3733234970434082
0.3733240935032516
0.3733243601954657
0.3733245883199273
0.3731874614666898
0.3732173986918033
0.3732310497211707
0.3732444746868882
0.3682294048294756
0.3683959466315481
0.3682214987908606
0.3686601845522127
0.3064436742261739
0.297315975486992
0.2889805100480149
0.2905756104830719
)
;

boundaryField
{
    back
    {
        type            empty;
    }
    inlet
    {
        type            calculated;
        value           nonuniform List<scalar> 
16
(
0.3733250556165154
0.3733250556165154
0.3733250556165154
0.3733250556165154
0.3733250556165154
0.3733250556165155
0.3733250556165152
0.3733250556142193
0.3733250556157381
0.3733250556165154
0.3733250556165154
0.3733250556165151
0.3733250556165154
0.3733250556165152
0.3733250556165154
0.3733250556165154
)
;
    }
    front
    {
        type            empty;
    }
    top
    {
        type            calculated;
        value           nonuniform List<scalar> 
40
(
0.3733250826079694
0.3733254280334438
0.3733256330102749
0.3733256294983849
0.3733267726518904
0.3733304843352062
0.373338817458149
0.373344173792062
0.3733436689423731
0.3733401615882835
0.3733343705953467
0.3733289913257399
0.3733259221179237
0.3733251267885248
0.373325015667318
0.3733251787654737
0.3733248478636376
0.3733252507300746
0.3733264685252993
0.3733305348127923
0.3733359672904067
0.3733494186258983
0.3733594851083775
0.3733859278765383
0.3734082579683894
0.3734604347528666
0.3736533174528708
0.3732579820529596
0.3737024571559733
0.3738448085411358
0.3735924190551215
0.37334538726923
0.373323483142274
0.3733162684754398
0.3733162358898012
0.3733147206071725
0.3733207265929129
0.3733237861960302
0.3733246358400694
0.3733249143949267
)
;
    }
    outlet
    {
        type            calculated;
        value           uniform 0.3733250556165154;
    }
    bottom
    {
        type            calculated;
        value           nonuniform List<scalar> 
40
(
0.3733249143943489
0.3733246358387435
0.3733237861981394
0.3733207265914882
0.3733234831482799
0.3733162684769669
0.373316235884737
0.3733147206075691
0.3733453872688608
0.3735924190477324
0.3738448085348084
0.3737024571633901
0.3734082579669389
0.3734604347542175
0.3736533174380913
0.3732579820803247
0.3733859278763983
0.3733594851099376
0.3733494186252593
0.3733359672893988
0.3733248478687178
0.3733252507291983
0.3733264685223654
0.3733305348096912
0.3733251787612115
0.3733250156693004
0.3733251267883068
0.3733259221174894
0.3733289913215256
0.3733343705936092
0.3733401615916189
0.3733436689438975
0.373326772647481
0.3733304843312132
0.3733388174570743
0.3733441737911786
0.3733256294958369
0.3733256329938765
0.3733254280491102
0.3733250826092137
)
;
    }
    wall
    {
        type            calculated;
        value           nonuniform List<scalar> 
104
(
0.5309255688990211
0.5163564261417742
0.5108051994463207
0.511937203479899
0.5134026677433847
0.5113681473850026
0.5113955102485375
0.5066496557759771
0.3348915001176522
0.3340656276572826
0.3491482970468522
0.357857630665264
0.3651199421199713
0.3694988322586426
0.373181776162127
0.375674949985583
0.3767882974240865
0.3784873739176542
0.3870597048904464
0.5393814624319361
0.7533625182685604
0.7423840351411437
0.7363058806654791
0.7315688621226323
0.7216298129146475
0.7078927936968388
0.7010146299608646
0.7037078390291005
0.707342567946423
0.7019456131162137
0.6595236872443819
0.684044886200875
0.161848089076021
0.0192991499666487
0.03310078642404227
0.05220169635496286
0.07616315836572281
0.09110904775175822
0.08500922191430565
0.07979514002946274
0.08494187912864185
0.1047713771018417
0.1171784847219056
0.1456730707566345
0.08535020481900536
0.09763786806335199
0.101084466791697
0.108063722936601
0.1086400141975825
0.1061370643569833
0.1055684358790564
0.1058132647180206
0.1058132647179861
0.1055684358788928
0.1061370643567953
0.1086400141974441
0.1080637229366272
0.1010844667917409
0.09763786806319039
0.08535020481874576
0.1456730707559892
0.1171784847208834
0.1047713771001832
0.08494187912766861
0.07979514002868933
0.08500922191376416
0.09110904775134951
0.07616315836543626
0.05220169635470327
0.03310078642371554
0.01929914996632396
0.1618480890758698
0.6840448862016868
0.6595236872468165
0.7019456131202885
0.7073425679520414
0.7037078390351441
0.7010146299631642
0.7078927936962934
0.7216298129139831
0.731568862124989
0.7363058806695918
0.7423840351409994
0.7533625182689802
0.5393814624267423
0.3870597048868784
0.3784873739223557
0.3767882974282589
0.3756749499866721
0.3731817761637724
0.3694988322581707
0.3651199421185547
0.357857630661932
0.3491482970449952
0.3340656276547996
0.3348915001210425
0.5066496557771065
0.5113955102471679
0.5113681473883657
0.5134026677406132
0.5119372034810172
0.5108051994418358
0.516356426088506
0.5309255687839944
)
;
    }
}


// ************************************************************************* //
