/*--------------------------------*- C++ -*----------------------------------*\
  =========                 |
  \\      /  F ield         | OpenFOAM: The Open Source CFD Toolbox
   \\    /   O peration     | Website:  https://openfoam.org
    \\  /    A nd           | Version:  11
     \\/     M anipulation  |
\*---------------------------------------------------------------------------*/
FoamFile
{
    format      ascii;
    class       volScalarField;
    location    "0.33";
    object      T;
}
// * * * * * * * * * * * * * * * * * * * * * * * * * * * * * * * * * * * * * //

dimensions      [0 0 0 1 0 0 0];

internalField   nonuniform List<scalar> 
880
(
500.0000000000045
500.0000001365439
500.0149324075697
502.7918736143011
500.0000000002792
500.0000003837389
500.021305893317
504.1895993235961
500.0000000006015
500.0000014871845
500.0411105303014
505.8863588418681
500.0000000121123
500.0000070890807
500.0895534380001
508.4420389187702
499.9999999206801
499.9999999966136
500.0000057678554
500.0001620596139
500.000038334803
500.0001054764978
500.0013581131111
500.0018911497389
500.2117129739297
500.3601238419075
500.6123297584368
500.7600682486778
513.7935512939044
519.8652696176281
524.9954022766378
527.5829437945308
500.0003903162782
500.0026573273882
500.0083856810886
500.029850048834
500.0189656388074
500.0751940319496
500.1543223518091
500.3196923739109
502.1070012886338
503.271363803546
504.6833868491929
506.4389252269855
529.8618269504453
532.6545200667457
533.3451033420272
532.5316075270018
522.475996732691
517.4987627593702
515.6305142955762
514.0429498755238
510.145345737444
511.685016445356
512.6576042080368
512.8448594994866
500.9505405076692
501.6679107189343
502.4625327614121
503.1304698707112
500.106190725282
500.2652814635189
500.5135005315933
500.8601057954878
501.243917424314
501.6198030167923
501.9646385734251
502.1508050369272
503.6459515460357
503.9609419929625
504.1711868011676
504.1455599865746
512.3582375190306
511.7228928094626
510.7068629209723
509.6011046551303
512.2094617734109
511.428729097114
510.3980581999321
509.7930195867622
508.7983876363318
508.8019615624412
504.0818451110126
502.1920705431918
514.3308238597156
507.7494322228175
503.939928329398
502.0905337146526
552.7936188978839
509.2113386776601
503.3472099872581
501.6789477492844
608.2743972038832
519.0629838392307
503.8680973690495
501.6058339670648
501.0749571170093
504.5776386593312
533.0564275752903
632.4621057134395
500.6889147402961
506.1385967160831
547.425334235265
631.2921289625062
500.9437495897976
509.8140420746298
566.286307944968
634.3505175472446
501.8162641735682
516.7272509544171
584.716260061856
635.4518538255245
632.1341978742365
598.6250492220524
528.2159732324797
503.7509542413352
626.283375108522
605.5837750162838
542.305692031911
507.4272788735044
618.5791431841286
604.1871342093035
555.9134801773641
513.4338927138334
609.3247161141863
596.9344607870247
562.3088561414539
521.6320165443623
530.721978917821
560.5561586891286
582.9600673686009
598.5121466267283
530.1863744916931
549.2968908033589
565.7913912219374
583.0867788381507
527.6343010477142
538.3166303832294
547.3079681201011
561.7886439235768
523.7961355725261
527.9435502386913
527.4761158672575
532.3702756952712
521.1240993087255
519.2389081423709
511.5736006962203
498.2207858063448
516.2702212595136
510.4382663149265
495.9496712006611
461.9448548458254
512.0623687104328
505.4617991107202
487.6969093641848
420.2689869004112
508.5273324163713
504.6906550380471
490.3858871019277
399.1488803850513
448.2459611296712
496.0918476279706
503.591574921272
505.3579362208482
501.7947766536877
499.4856605179954
502.5659096214872
503.2148799680984
531.3509029670962
501.8919992253798
501.3087563566016
501.7292911307958
544.2120444214845
506.2122556547261
500.5453446593378
500.9703555388584
540.6163176917754
506.6949535099544
498.9636232602425
499.7884365390397
527.1166977357343
503.7756160522417
497.5879194696117
499.2865285272998
512.2110149272007
500.8289395742876
497.5990981281986
499.4745346761875
503.7403026583373
496.3591338480404
497.60539873151
499.7137909951418
466.3382164563712
472.2403472174043
492.6937601910337
499.329779218776
460.7946354660278
473.5739339808137
492.817901714918
499.3104940857295
454.6687789556765
475.8756940392461
492.9866202106172
499.2927968565042
453.3836898000945
478.6156787384167
493.4568134833009
499.2939835204207
503.7403026583701
496.3591338479715
497.605398731746
499.7137909949737
512.2110149272008
500.8289395740125
497.5990981281546
499.4745346758523
527.1166977356452
503.7756160518679
497.5879194691748
499.2865285268662
540.6163176917379
506.6949535095483
498.9636232601659
499.7884365388464
505.3579362208314
503.5915749214425
496.0918476282234
448.2459611283554
503.2148799679946
502.5659096215548
499.4856605181735
501.7947766528341
501.7292911307942
501.3087563566685
501.8919992250009
531.3509029669254
500.9703555388118
500.5453446595308
506.2122556542565
544.2120444214033
399.1488803848068
490.3858871019494
504.6906550380933
508.5273324163658
420.2689869003883
487.6969093641229
505.461799110912
512.0623687103831
461.9448548458985
495.9496712007571
510.4382663150407
516.2702212595682
498.2207858065184
511.5736006961942
519.2389081422522
521.1240993087622
530.7219789178962
560.5561586894908
582.9600673689606
598.5121466269178
530.1863744916149
549.2968908033085
565.7913912220079
583.0867788383849
527.6343010472534
538.31663038331
547.3079681201192
561.788643923702
523.7961355724506
527.9435502386099
527.4761158672322
532.3702756954621
609.3247161142984
596.9344607872027
562.3088561416997
521.6320165449013
618.5791431842702
604.1871342095063
555.9134801776095
513.4338927138608
626.2833751086813
605.5837750164363
542.3056920318475
507.4272788735669
632.1341978743657
598.625049222209
528.2159732327467
503.7509542413179
501.0749571169464
504.577638659363
533.0564275753186
632.4621057134104
500.688914740627
506.1385967163382
547.4253342353117
631.2921289624046
500.9437495902561
509.8140420752769
566.2863079451839
634.3505175472017
501.8162641736351
516.7272509541899
584.7162600620553
635.4518538256967
501.6058339670128
501.6789477493508
502.0905337152301
502.1920705435833
503.8680973686296
503.3472099868616
503.9399283284471
504.081845109831
519.0629838389578
509.2113386776327
507.749432222517
508.8019615622559
608.2743972036554
552.793618897717
514.3308238598613
508.7983876364735
502.150805037599
504.1455599858937
509.60110465522
509.7930195870256
501.9646385737925
504.1711868009056
510.706862921101
510.3980582001445
501.6198030165787
503.9609419935261
511.722892809448
511.4287290968924
501.2439174240979
503.6459515465725
512.3582375192512
512.2094617735447
500.1061907244721
500.9505405073858
510.1453457376956
522.4759967333537
500.2652814640888
501.6679107183721
511.6850164449034
517.4987627597653
500.5135005325296
502.4625327607405
512.6576042078127
515.6305142954538
500.8601057959107
503.1304698706674
512.8448594997833
514.0429498754374
532.5316075274936
506.4389252278457
500.3196923753014
500.0298500515777
533.3451033416942
504.6833868489537
500.1543223525831
500.008385677011
532.654520066702
503.2713638031349
500.0751940310336
500.0026573247678
529.8618269506032
502.1070012887772
500.0189656390966
500.0003903167395
527.58294379471
500.760068249101
500.0018911499916
500.0001620603194
524.9954022767041
500.6123297583641
500.0013581129877
500.0000057681391
519.8652696175376
500.3601238418526
500.0001054763695
499.9999999965738
513.7935512933792
500.2117129738938
500.0000383346322
499.9999999207366
500.0000000001235
500.0000001367077
500.0149324075193
502.7918736147182
500.0000000002411
500.0000003836032
500.0213058933097
504.1895993239896
500.0000000007399
500.0000014870973
500.0411105303185
505.8863588411161
500.0000000123372
500.0000070889602
500.089553437986
508.4420389182523
505.2754986413256
507.7155489553161
511.7084098101752
520.0280385713771
507.7155489543445
510.8192500816885
517.0562567287681
529.2793355652974
511.7084098099429
517.0562567295173
526.9856310674772
542.0834707607154
520.0280385709577
529.2793355650964
542.083470761072
558.5443234513569
575.9609927367492
562.6426636892141
555.5116479855456
542.9385518459029
574.0375588291386
570.0156932336637
568.7029446351382
562.7956966057408
574.229989536462
573.0851255100952
572.4344155364918
570.5578972222955
571.036485300751
570.5357050159172
570.6035377089677
569.7669465422282
566.8341591781837
564.9772756876537
560.1555011305633
553.5842609708491
566.5398984511336
564.5869856792648
560.0195993870771
554.2261239227944
566.5841353638716
564.5818918396837
559.897507238354
554.8357370153941
566.6867846875803
564.3187759856561
560.0122863980893
550.9895587894225
512.9089478094734
493.5550768867833
490.9306351211054
491.4792418445768
502.4468949481767
489.4115208803624
491.081288372664
492.0638504185588
492.2323913862085
489.4975057991413
492.6709509329528
493.7543391759501
470.3517304847808
484.7967090473213
491.0954264183405
492.4185140060605
492.0199565103943
493.0066593209518
494.5593433363687
496.0165092114466
492.4655890178699
493.1962627000171
494.3661951876246
496.1036938058718
493.9122549254458
494.2378081914175
494.9768464039266
496.2267110607328
492.8705899718372
493.4921664382462
494.4421845555499
496.4046176703957
500.2957754694612
549.7864874057924
619.8170749967692
657.6777057496063
502.9389975135528
563.0967688057814
627.0005762630842
652.6305539809377
506.0892845764391
571.1118624457225
629.0265165114197
654.1170560375638
508.2736438348953
579.6853961916709
632.2811649364704
653.8961120897745
691.2587611488422
680.9645339762325
673.6637831903621
664.1227458372098
699.8325449375964
689.7728730217389
680.9124661507944
670.0868306784997
706.6432848020285
697.3375468522382
687.8993794622645
676.2009548960343
704.9854704216017
701.4185554684223
691.7536273505109
679.3853488990584
651.9977601248153
639.947773946505
627.4003232851494
620.130134710016
656.6687558248689
644.1920690112579
630.5326133817581
621.8784083651359
661.751675671681
648.8746290960435
634.7178412751496
624.1925799758542
664.9560551353151
653.9220348550563
639.623583452147
627.029486721176
615.0294314348766
606.9359496642386
590.7660866755436
565.6915892593569
616.1625019958744
607.8911131220449
593.5504753675663
593.4372201640537
616.9891942279058
607.9585827491835
601.5131607195451
620.6639373456948
618.7733040979352
611.6219823877256
614.4024108825423
604.1846521540488
523.784801517088
459.2798722352439
378.6074040022045
292.2792378288952
512.0217917713401
418.474492360715
286.6145592627791
241.404893650495
470.0546964139494
366.5152291675907
250.0549536530231
235.405746356986
369.5257324178647
285.5182653386727
230.6804684714653
243.9004748197103
342.0179497015933
426.255961581158
477.2042686926445
519.1377093047686
314.0630083501298
389.2000477101481
439.9615132117984
482.18731097632
298.7568866361099
352.3726044261695
397.3321106270901
435.1337255988402
302.3506084191212
348.8050967349899
393.5100579848009
420.715767548824
490.4956719574051
505.5458995974836
498.882127179366
496.4903681094137
437.9535915251389
471.3788633168821
484.3519870451788
497.6959661013772
402.9977319601894
431.2379141412483
463.7285073206766
504.9729800775002
388.0752870949221
406.7239827927623
441.3833622340424
517.8322880136706
483.0173358639278
466.2686540992374
456.8280850623983
452.4306528017163
486.1755859266156
480.6185639263576
477.8114103291143
474.864714612991
494.0815765709338
503.1481401824917
500.2954412669199
492.7641157097998
484.372704894713
501.5332296311543
495.2562792311905
484.9912568872625
467.8399321582431
450.7236417632577
440.682802583457
437.6504105975555
476.8830856059089
459.5519460298024
446.9187274450539
443.0207265547323
472.144382384559
466.4451851347671
459.3807735293873
456.0005088055598
457.2480085512911
461.2638460246512
461.6156563241003
461.360110549646
437.6504105975512
443.0207265547079
456.0005088055572
461.3601105496921
440.6828025833958
446.9187274449374
459.380773529329
461.6156563242005
450.7236417631196
459.5519460296355
466.4451851346864
461.2638460247428
467.8399321580898
476.8830856057594
472.1443823845117
457.248008551384
452.4306528017725
456.8280850623771
466.2686540993453
483.0173358640201
474.8647146130072
477.8114103291708
480.6185639264397
486.1755859266915
492.7641157097402
500.2954412669228
503.1481401824874
494.0815765709564
484.9912568871854
495.2562792311856
501.5332296311693
484.3727048947466
517.8322880136099
441.3833622341764
406.7239827929695
388.0752870952365
504.972980077522
463.7285073207921
431.2379141414127
402.9977319604634
497.6959661014525
484.3519870452828
471.378863316981
437.9535915253627
496.4903681094738
498.8821271794154
505.5458995975185
490.4956719574855
519.1377093050196
477.2042686930981
426.2559615812035
342.0179497010312
482.187310976649
439.9615132123877
389.200047710417
314.0630083498539
435.1337255991799
397.3321106276052
352.3726044265194
298.7568866359501
420.7157675491324
393.5100579852555
348.8050967354681
302.3506084191496
292.2792378316052
378.607404001299
459.2798722353111
523.7848015173488
241.4048936506294
286.614559262072
418.4744923606785
512.0217917716011
235.4057463569437
250.0549536523537
366.5152291677192
470.0546964141233
243.9004748197402
230.6804684709005
285.5182653388218
369.5257324181628
565.6915892596064
590.7660866757641
606.9359496644657
615.0294314349575
593.4372201643391
593.5504753677116
607.8911131221882
616.1625019958303
620.66393734591
601.513160719635
607.9585827491362
616.989194227691
604.1846521542684
614.402410882538
611.6219823875691
618.7733040976104
620.1301347100376
627.4003232852718
639.9477739466372
651.9977601249333
621.8784083650946
630.5326133818161
644.19206901136
656.6687558249234
624.1925799757386
634.7178412751615
648.8746290961532
661.7516756716675
627.029486721019
639.6235834521287
653.9220348554136
664.9560551352685
664.1227458371533
673.6637831901362
680.9645339761569
691.2587611488316
670.0868306783211
680.9124661503743
689.7728730216085
699.8325449375608
676.2009548956108
687.8993794616312
697.3375468520518
706.6432848019274
679.3853488984911
691.7536273497406
701.4185554682107
704.9854704214931
657.6777057494996
619.8170749965676
549.7864874059167
500.2957754697613
652.6305539808014
627.0005762628828
563.0967688057898
502.9389975139248
654.117056037377
629.0265165112157
571.1118624456384
506.0892845768504
653.8961120895495
632.2811649362225
579.6853961915596
508.2736438352957
496.0165092118584
494.5593433366016
493.0066593209073
492.0199565105523
496.1036938062974
494.3661951877197
493.1962626999203
492.4655890180758
496.2267110611503
494.9768464039416
494.237808191288
493.9122549256762
496.4046176707826
494.4421845555914
493.4921664380309
492.8705899721052
491.4792418444989
490.9306351211632
493.5550768871755
512.9089478100119
492.0638504184246
491.0812883728261
489.4115208809484
502.4468949485263
493.7543391757406
492.6709509332482
489.4975057998674
492.2323913861718
492.4185140058827
491.0954264186828
484.7967090482113
470.3517304849648
553.5842609710069
560.1555011304899
564.9772756881357
566.8341591783491
554.2261239226732
560.0195993870834
564.5869856797111
566.5398984512941
554.8357370151566
559.8975072383695
564.5818918400345
566.5841353639603
550.9895587889774
560.0122863981268
564.3187759860476
566.6867846876703
569.7669465420333
570.5578972220065
562.7956966055126
542.9385518461354
570.6035377088166
572.43441553617
568.7029446346199
555.511647985387
570.5357050157897
573.0851255097438
570.015693232874
562.6426636884487
571.0364853006129
574.2299895360902
574.0375588282693
575.9609927352409
497.0670653570588
494.9065997093114
497.383318891761
499.7437647732874
486.9028210416326
490.1468749188211
496.1585678648414
499.6333153652142
474.8232158751827
485.7167945921055
495.0260657105306
499.4915897137728
460.9970313515443
481.5667399845488
494.0730969997624
499.3715452937095
499.3297792186766
492.6937601910698
472.2403472174063
466.3382164564047
499.3104940856127
492.8179017151084
473.5739339807656
460.7946354661667
499.2927968565076
492.986620210756
475.875694039115
454.6687789557683
499.2939835205323
493.4568134833132
478.6156787383231
453.3836898000756
499.3715452936726
499.4915897136654
499.6333153654019
499.7437647733481
494.0730969996308
495.0260657104162
496.1585678646736
497.3833188918386
481.5667399845826
485.7167945922368
490.1468749190835
494.9065997095497
460.9970313513959
474.8232158750239
486.9028210415814
497.0670653571248
)
;

boundaryField
{
    back
    {
        type            empty;
    }
    inlet
    {
        type            zeroGradient;
    }
    front
    {
        type            empty;
    }
    top
    {
        type            zeroGradient;
    }
    outlet
    {
        type            fixedValue;
        value           uniform 500;
    }
    bottom
    {
        type            zeroGradient;
    }
    wall
    {
        type            zeroGradient;
    }
}


// ************************************************************************* //
