/*--------------------------------*- C++ -*----------------------------------*\
  =========                 |
  \\      /  F ield         | OpenFOAM: The Open Source CFD Toolbox
   \\    /   O peration     | Website:  https://openfoam.org
    \\  /    A nd           | Version:  11
     \\/     M anipulation  |
\*---------------------------------------------------------------------------*/
FoamFile
{
    format      ascii;
    class       surfaceScalarField;
    location    "5.675";
    object      phi;
}
// * * * * * * * * * * * * * * * * * * * * * * * * * * * * * * * * * * * * * //

dimensions      [0 3 -1 0 0 0 0];

internalField   nonuniform List<scalar> 
8667
(
15.887134
1.8791754
0.011468008
13.985118
1.902166
-0.00014936248
12.077454
1.927264
-0.019599947
10.156967
2.0253021
-0.10481562
8.2342646
2.1235338
-0.20083123
6.3014347
2.3038744
-0.37104446
4.3672494
2.51119
-0.57700465
2.4221646
2.8133203
-0.86823552
3.1842875
-1.3437439
0.58162096
15.888227
3.768727
13.986804
3.8035883
12.076178
3.8378902
10.155175
3.946305
8.232081
4.0466281
6.2930609
4.2428944
4.3682083
4.4360426
2.4093792
4.7721494
5.0522427
0.54142405
15.888942
5.6575632
13.987045
5.7054847
12.076208
5.7487275
10.153496
5.8690172
8.2345634
5.9655605
6.2881154
6.1893424
4.3587016
6.3654564
2.3935928
6.7372582
6.9250723
0.52076316
15.889439
7.5459018
13.98663
7.6082947
12.079706
7.6556509
10.155792
7.7929312
8.2353707
7.8859819
6.2915128
8.1332003
4.3471702
8.309799
2.3611643
8.7232642
8.7999355
0.48630112
15.89173
9.4319478
13.986852
9.5131726
12.081528
9.5609747
10.163513
9.7109464
8.2349239
9.814571
6.2921708
10.075953
4.3469376
10.255032
2.3439815
10.72622
10.678138
0.46577914
15.891465
11.318261
13.991823
11.412815
12.084476
11.468321
10.169205
11.626218
8.2422028
11.741573
6.2917218
12.026434
4.3339494
12.212805
2.3116407
12.748529
12.562767
0.42701167
15.889901
13.206138
13.995245
13.30747
12.093281
13.370285
10.17466
13.54484
8.2466567
13.669576
6.2999955
13.973096
4.3346184
14.178182
2.291676
14.791471
14.455335
0.39910831
15.890573
15.093343
13.997929
15.200114
12.098146
15.270069
10.183264
15.459722
8.2509693
15.601871
6.2959692
15.928096
4.3268401
16.147311
2.2616592
16.856652
16.378563
0.33843078
15.891312
16.979808
14.001431
17.089995
12.1044
17.1671
10.191071
17.373051
8.2604055
17.532536
6.3038761
17.884625
4.3294779
18.121709
2.2454465
18.940684
18.333278
0.29073168
18.802717
15.954869
20.62173
15.958765
22.439549
15.959964
24.260778
15.956551
26.080597
15.957941
27.899148
15.959229
29.715937
15.960991
31.523875
15.969843
15.974272
33.327383
18.916722
14.128142
20.743429
14.132058
22.567143
14.136251
24.383199
14.140495
26.198052
14.143088
28.007041
14.15024
29.818382
14.14965
31.634199
14.154026
14.145454
33.463017
19.009885
12.285357
20.846829
12.295115
22.683496
12.299584
24.514569
12.309421
26.344169
12.313489
28.168817
12.325592
29.984764
12.333702
31.789283
12.349508
12.356671
33.578066
19.233637
10.424771
21.092697
10.436054
22.948001
10.444281
24.800367
10.457055
26.649745
10.46411
28.501863
10.473475
30.365813
10.469752
32.227865
10.487456
10.481843
34.102693
19.427445
8.5298609
21.319483
8.544017
23.214619
8.5491449
25.103439
8.5682348
26.990142
8.5774076
28.861688
8.6019282
30.720256
8.611184
32.576206
8.6315058
8.6425309
34.415518
19.82129
6.5931958
21.766716
6.5985909
23.719316
6.5965449
25.680687
6.6068637
27.648389
6.6097058
29.629364
6.6209533
31.609568
6.6309801
33.588322
6.6527515
6.6574368
35.573416
20.098032
4.6168729
22.094276
4.6023469
24.093651
4.5971703
26.101845
4.5986696
28.10013
4.6114207
30.103153
4.6179304
32.096394
4.6377391
34.097392
4.6517533
4.6808593
36.073969
21.100468
2.457089
23.277837
2.4249774
25.452136
2.4228715
27.622294
2.4285118
29.795083
2.4386315
31.974041
2.4389727
34.144672
2.4671074
36.310142
2.4862833
2.5080843
38.482917
20.396594
0.39377301
22.702678
0.11889339
25.12956
-0.0040106383
27.557984
8.8042067e-05
29.983238
0.013377043
32.39416
0.028051244
34.845767
0.015500164
37.333379
-0.0013291109
39.850416
-0.008952782
33.213147
0.11423516
33.104682
0.10846521
32.998249
0.10643351
32.899183
0.099065349
32.801911
0.097272189
32.713775
0.088136121
32.626811
0.086963897
32.55148
0.075331395
0.074830173
32.47665
33.372814
0.20443832
33.289556
0.19172257
33.207985
0.18800504
33.135872
0.17117828
33.065155
0.16798839
33.005743
0.14754848
32.947692
0.14501519
32.902183
0.12084071
0.11978315
32.85723
33.515062
0.26744195
33.460885
0.24589956
33.411817
0.2370735
33.371165
0.21182991
33.335682
0.20347178
33.308886
0.17434467
33.286913
0.16698778
33.273028
0.13472602
0.12912041
33.263691
34.069807
0.30032789
34.043581
0.27212563
34.018823
0.2618309
33.999201
0.23145235
33.980145
0.222528
33.965405
0.18908464
33.950757
0.18163554
33.939128
0.14635502
0.14142376
33.926824
34.409027
0.30681915
34.409426
0.2717268
34.4119
0.25935687
34.418939
0.22441376
34.428291
0.21317555
34.439925
0.17745087
34.454002
0.16755825
34.468999
0.13135782
0.12288366
34.487539
35.585503
0.2947323
35.597032
0.26019759
35.60966
0.24672904
35.617848
0.2162258
35.626218
0.2048062
35.627406
0.17626212
35.627309
0.16765513
35.618796
0.13987158
0.13393924
35.60774
36.127538
0.24116364
36.172349
0.21538705
36.217784
0.20129397
36.254924
0.17908512
36.291642
0.16808847
36.318047
0.14985748
36.342024
0.14367812
36.349126
0.13276893
0.13285862
36.350207
38.52536
0.19872133
38.573472
0.16727454
38.621665
0.15310104
38.646593
0.15415741
38.644204
0.17047689
38.604311
0.1897512
38.536216
0.21177272
38.429053
0.23993162
0.27405813
38.287854
40.062589
-0.01345158
40.215331
0.014532556
40.23034
0.13809189
40.110425
0.27407283
39.932314
0.34858806
39.724599
0.39746609
39.507272
0.4290992
39.250927
0.49627684
38.960447
0.56453831
38.793015
0.77260974
-0.60517783
38.514029
0.72928014
-0.45029429
38.154164
0.69902659
-0.33916184
37.783289
0.6724166
-0.30154072
37.386333
0.65722316
-0.26026723
36.992471
0.63936029
-0.24549896
36.573582
0.62041272
-0.2015235
36.146917
0.60279964
-0.17613489
0.5816339
35.696595
-0.13131128
38.280107
0.78035682
38.224641
0.78474626
38.13569
0.78797727
38.018367
0.7897394
37.885057
0.79053332
37.733009
0.79140807
37.562032
0.79138968
37.371982
0.79285031
0.79402299
37.159593
36.460288
0.67027548
36.555074
0.68996021
36.629829
0.71322261
36.688262
0.73130648
36.726287
0.75250856
36.748617
0.76907787
36.751243
0.78876365
36.741653
0.80244065
0.82189618
36.713779
35.732164
0.54585197
35.86049
0.56163351
35.975083
0.59862975
36.091136
0.6152532
36.190935
0.65271033
36.291154
0.66885857
36.372925
0.706993
36.453006
0.72235898
0.76108327
36.513819
34.62839
0.40500171
34.773541
0.41648222
34.919245
0.45292584
35.066562
0.46793594
35.214179
0.50509295
35.361158
0.52187977
35.508026
0.56012474
35.649668
0.58071723
0.61841174
35.79234
34.050002
0.28182467
34.175319
0.29116508
34.304503
0.32374155
34.434338
0.33810105
34.571455
0.367976
34.708474
0.38486039
34.854165
0.41443354
35.000817
0.43406517
0.46466828
35.154561
33.385295
0.16022047
33.514677
0.16178329
33.643795
0.19462278
33.783151
0.19874535
33.922387
0.22873997
34.068635
0.238612
34.216643
0.26642641
34.374165
0.27654278
0.30672789
34.532105
32.952804
0.064645763
33.051187
0.063400913
33.16231
0.083499092
33.277309
0.08374709
33.404269
0.10177967
33.537106
0.10577516
33.681543
0.12198906
33.831275
0.12681098
0.14179496
33.996208
32.541295
32.604696
32.688195
32.771942
32.873722
32.979497
33.101486
33.228297
33.370092
33.520927
-0.15083447
33.687587
-0.16665985
33.860072
-0.17248516
34.053075
-0.19300325
34.25478
-0.20170477
34.473943
-0.21916316
34.703195
-0.22925224
34.955268
-0.2520726
-0.26058657
35.215854
34.162403
-0.31702936
34.344829
-0.34908571
34.531761
-0.35941756
34.732716
-0.39395852
34.940364
-0.4093529
35.161759
-0.44055761
35.394076
-0.46156903
35.636145
-0.49414186
-0.51853518
35.894093
34.699122
-0.48404596
34.87031
-0.52027416
35.049707
-0.5388141
35.234077
-0.57832823
35.424625
-0.59990095
35.625952
-0.64188494
35.830799
-0.66641587
36.046602
-0.70994455
-0.74013801
36.268204
35.311235
-0.64072032
35.474921
-0.68396006
35.639085
-0.70297846
35.812873
-0.75211604
35.984607
-0.77163499
36.166513
-0.82379078
36.344769
-0.84467138
36.537824
-0.90299954
-0.92679219
36.724478
35.929109
-0.77749005
36.062451
-0.81730114
36.19293
-0.83345751
36.316409
-0.87559522
36.436458
-0.89168468
36.55055
-0.93788245
36.663675
-0.95779671
36.77027
-1.0095936
-1.0348648
36.878342
36.574683
-0.8383544
36.616894
-0.85951128
36.661506
-0.87806942
36.687411
-0.90150061
36.71864
-0.92291405
36.732515
-0.95175737
36.753908
-0.97918996
36.760356
-1.0160416
-1.0513406
36.776832
36.675637
-0.80021162
36.622807
-0.80668208
36.563788
-0.8190498
36.49283
-0.83054255
36.419259
-0.84934374
36.334534
-0.8670323
36.248538
-0.89319369
36.152339
-0.91984255
-0.95412637
36.055125
36.931931
-0.5725505
36.691537
-0.56628743
36.44517
-0.57268276
36.188843
-0.57421591
35.926125
-0.58662607
35.650818
-0.59172441
35.364767
-0.60714282
35.057892
-0.612968
-0.6412772
34.745043
35.257704
-0.13366009
34.817574
-0.12615661
34.400867
-0.15597629
33.97705
-0.15039869
33.56535
-0.17492608
33.116021
-0.14239558
32.671734
-0.16285557
32.204803
-0.14603762
31.76358
-0.20005407
0.66693441
31.306068
-0.20942187
0.99874195
34.413235
1.1029396
35.950927
1.0948906
36.784881
0.98810513
36.985128
0.78380032
36.928783
0.55093848
36.501066
0.2839931
36.161039
35.499847
0.72357016
30.856239
-0.27374107
1.0443296
34.092476
1.1465066
35.84875
1.1248196
36.806568
1.0172731
37.092674
0.82214379
37.123912
0.58329906
36.739911
0.29737817
36.44696
35.797226
0.78217384
30.344879
-0.27081402
1.1138941
33.760756
1.2191612
35.743483
1.1980823
36.827647
1.0838209
37.206936
0.86343219
37.344301
0.61262039
36.990723
0.32166367
36.737916
36.118889
0.84502628
29.872421
-0.37256897
1.1708249
33.434957
1.2708599
35.643448
1.2333839
36.865123
1.1171036
37.323216
0.91085325
37.550551
0.65286199
37.248714
0.33527381
37.055505
36.454163
0.92198836
29.336445
-0.38601145
1.2552963
33.101649
1.3612195
35.537525
1.3212372
36.905105
1.1947976
37.449655
0.95476397
37.790585
0.6840723
37.519406
0.36358893
37.375988
36.817752
0.98824118
28.849555
-0.50135177
1.3190632
32.770827
1.4188839
35.437704
1.3601457
36.963844
1.2313437
37.578457
1.0045991
38.017329
0.72262786
37.801377
0.37582375
37.722792
37.193576
1.0803838
28.319062
-0.54989109
1.4157528
32.435458
1.5231664
35.330291
1.4621332
37.024877
1.318775
37.721816
1.0540185
38.282086
0.76336973
38.092026
0.41022414
38.075938
37.6038
1.1692912
27.895667
-0.74589583
1.4862946
32.118455
1.5854345
35.231151
1.5060413
37.10427
1.3616821
37.866175
1.1062444
38.537523
0.79923821
38.399032
0.42110747
38.454068
38.024907
1.3242798
27.398027
-0.82664017
1.6112204
31.831514
1.7124676
35.129904
1.6213779
37.19536
1.4536282
38.033925
1.1595517
38.8316
0.84434087
38.714243
0.4554055
38.843004
38.480313
-0.079765951
38.560079
-0.081882525
38.84512
-0.057614991
38.689975
0.052227574
38.721757
0.19215302
37.893999
0.39898139
36.988531
0.62069548
34.908189
0.89363008
31.55858
27.553348
0.73830971
-0.096154936
38.656234
-0.097541975
38.846507
-0.067227977
38.659661
0.018029511
38.6365
0.11228195
37.799747
0.2787693
36.822044
0.45261427
34.734344
0.64563994
31.365554
27.529654
0.66933391
-0.10160034
38.757834
-0.12458108
38.869488
-0.11773447
38.652815
-0.027187376
38.545953
0.083567491
37.688992
0.25910345
36.646508
0.43151209
34.561936
0.60884801
31.188218
27.560474
0.57802728
-0.11096218
38.868796
-0.13299954
38.891526
-0.12303243
38.642847
-0.067307734
38.490228
-0.0040725078
37.625757
0.1379363
36.504499
0.27548827
34.424384
0.42178127
31.041925
27.469256
0.51300004
-0.11663875
38.985435
-0.15613461
38.931021
-0.16398175
38.650695
-0.090372422
38.416619
-0.0066093256
37.541993
0.14004871
36.357841
0.281684
34.282749
0.41737358
30.906235
27.4876
0.39902964
-0.12268242
39.108117
-0.15663986
38.964979
-0.16603448
38.660089
-0.13575557
38.38634
-0.088398725
37.494637
0.024639152
36.244803
0.13254809
34.17484
0.25195705
30.786826
27.371424
0.36813269
-0.12680944
39.234927
-0.17464662
39.012816
-0.19178944
38.677232
-0.13388606
38.328437
-0.06972046
37.430471
0.045845172
36.129238
0.15920634
34.061479
0.27496581
30.671067
27.327664
0.31872557
-0.12670957
39.361636
-0.16451395
39.05062
-0.18638367
38.699102
-0.17607098
38.318124
-0.1484549
37.402855
-0.066259025
36.047042
0.018264171
33.976955
0.13725512
30.552076
27.156427
0.30849216
-0.13107253
39.492709
-0.18069353
39.100241
-0.19971416
38.718122
-0.15599213
38.274402
-0.11174295
37.358606
-0.021948419
35.957247
0.067981498
33.887025
0.18381205
30.436245
27.034854
0.30538471
-0.060843456
26.823816
0.27188179
0.057480072
30.317922
0.12538235
33.819123
0.17468848
35.907941
0.18141322
37.351881
0.1788035
38.277012
0.14901286
38.747913
0.117749
39.131505
39.610458
-0.11905961
26.645845
0.29703038
-0.01065609
30.209518
0.056628517
33.751839
0.12094895
35.843621
0.1464247
37.326405
0.17500642
38.24843
0.15617283
38.766747
0.11614672
39.171531
39.726605
-0.0084653842
26.417672
0.23663916
0.099383056
30.10167
0.14609518
33.705126
0.16455346
35.825162
0.15081129
37.340147
0.13876528
38.260476
0.10830623
38.797206
0.092314334
39.187523
39.818919
-0.082857091
26.215892
0.28463646
0.0094657387
30.009347
0.050069371
33.664523
0.088101892
35.78713
0.096250293
37.331999
0.11770618
38.23902
0.10527411
38.809638
0.081502195
39.211295
39.900421
0.016455845
25.986789
0.21264695
0.1045669
29.921236
0.12025593
33.648834
0.10947075
35.797915
0.077175927
37.364294
0.061460056
38.254736
0.041367218
38.829731
0.043912783
39.20875
39.944334
-0.078077404
25.780745
0.28412135
-0.009391621
29.85255
-0.0027588942
33.642201
0.0080399635
35.787116
-0.0093768165
37.381711
0.013875374
38.231484
0.020814419
38.822792
0.01864332
39.210921
39.962977
0.0060579363
25.564522
0.21016599
0.067480764
29.791128
0.03811489
33.671567
0.0061500452
35.819081
-0.038437285
37.426298
-0.057442371
38.250489
-0.059932428
38.825282
-0.029185285
39.180174
39.933792
-0.10771156
25.382667
0.28956576
-0.076047709
29.759464
-0.10371643
33.699236
-0.13264113
35.848006
-0.16332111
37.456978
-0.13869738
38.225865
-0.10222137
38.788806
-0.067805919
39.145758
39.865986
-0.038583801
25.211706
0.20954488
-0.019182668
29.740063
-0.10045459
33.780508
-0.16730429
35.914855
-0.21086241
37.500536
-0.2235499
38.238552
-0.20121535
38.766471
-0.12558498
39.070128
39.740401
0.30582154
39.43458
0.52493513
38.851014
0.71312642
38.57828
0.83859185
38.113087
0.86389671
37.475231
0.80829233
35.97046
0.68702283
33.901777
0.52711484
29.899971
25.248307
0.49051378
0.37653247
39.058047
0.64867738
38.578869
0.83412755
38.39283
0.94515426
38.00206
0.97610594
37.444279
0.88848126
36.058084
0.69748539
34.092773
0.48474152
30.112714
25.343255
0.3897941
0.43061759
38.62743
0.7325582
38.276929
0.98830525
38.137083
1.1611544
37.829211
1.2144968
37.390937
1.1635826
36.108999
0.99525556
34.2611
0.76158142
30.346388
25.545504
0.55933219
0.50651489
38.120915
0.86354485
37.919899
1.1193156
37.881312
1.2934888
37.655038
1.3588654
37.32556
1.2878931
36.179971
1.0740758
34.474917
0.77996336
30.640501
25.846195
0.47927214
0.55833863
37.562576
0.95586776
37.52237
1.2931342
37.544045
1.5306393
37.417533
1.6392462
37.216954
1.6071911
36.212026
1.421475
34.660633
1.1216671
30.940309
26.318805
0.64905687
0.61837986
36.944196
1.0831402
37.057609
1.4274709
37.199715
1.6812556
37.163748
1.8070893
37.09112
1.7676427
36.251473
1.5670014
34.861275
1.2426303
31.26468
26.99787
0.56356579
0.68221049
36.261986
1.1812111
36.558609
1.6006669
36.780259
1.9130821
36.851333
2.1147824
36.889419
2.1273737
36.238881
1.9512943
35.037354
1.7169112
31.499063
27.926561
0.78822001
0.74623597
35.51575
1.296279
36.008566
1.7376831
36.338855
2.0654765
36.52354
2.2930869
36.661809
2.3314048
36.200563
2.1250134
35.243745
1.9364498
31.687627
28.93136
0.93165109
0.80914258
34.706607
1.3913332
35.426375
1.9201559
35.810032
2.3298356
36.11386
2.6698371
36.321807
2.838951
36.03145
2.6315455
35.451151
2.5721132
31.747059
29.677172
1.8263006
-0.88252015
35.589127
-2.0982395
36.642094
-3.4304071
37.1422
-4.9626447
37.646098
-6.4994443
37.858607
-8.1125235
37.644529
-9.6241993
36.962827
-10.256216
32.379075
29.438792
-10.017835
-0.83516639
36.424294
-2.0365769
37.843505
-3.3393204
38.444943
-4.9033156
39.210093
-6.504135
39.459426
-8.2005486
39.340942
-9.8058859
38.568164
-10.113688
32.686878
27.28404
-7.9589362
-0.75478516
37.179079
-1.9381724
39.026892
-3.2516898
39.75846
-4.8739419
40.832345
-6.5441988
41.129683
-8.2954667
41.09221
-9.9240984
40.196796
-9.6771554
32.439935
20.362792
-2.7559077
-0.70436003
37.883439
-1.862877
40.185409
-3.1566205
41.052204
-4.800732
42.476456
-6.5304758
42.859427
-8.3725312
42.934266
-9.9515147
41.775779
-9.2066065
31.695026
11.953727
-0.79754107
-0.61788197
38.501321
-1.7417961
41.309323
-3.0389253
42.349333
-4.7433921
44.180923
-6.5753312
44.691366
-8.4442567
44.803191
-9.9903549
43.321877
-8.3743082
30.07898
3.9731751
-0.39375672
-0.55969327
39.061014
-1.6473645
42.396995
-2.9191766
43.621145
-4.6280045
45.889751
-6.5241884
46.58755
-8.5200259
46.799029
-9.8651839
44.667035
-6.1282165
26.342012
-2.0935996
-0.061441892
-0.47487244
39.535887
-1.5177934
43.439916
-2.7824334
44.885785
-4.5616423
47.66896
-6.5432867
48.569195
-8.5190915
48.774834
-9.3515833
45.499527
-4.5622732
21.552702
-7.1971371
0.54126432
-0.41816602
39.954053
-1.413295
44.435045
-2.6607891
46.133279
-4.4254867
49.433658
-6.454864
50.598572
-8.4406074
50.760577
-8.7546241
45.813544
-3.7169683
16.515046
-11.524934
0.61082892
-0.34026516
40.294318
-1.2806901
45.37547
-2.4996128
47.352202
-4.324393
51.258438
-6.4188256
52.693004
-8.2966793
52.638431
-8.0183606
45.535225
-2.7447192
11.241405
-15.346748
1.0770945
1.3918536
-17.393702
0.65510031
4.3812853
8.2519733
4.5112248
45.405286
3.2226188
53.927037
1.8579602
54.057663
0.77549157
52.340906
0.13804335
47.98965
-0.17892582
45.692439
40.115392
1.181371
-19.296305
0.72123148
4.1381292
5.295215
4.3879097
45.155505
3.0920373
55.222909
1.7026487
55.447052
0.61387693
53.429678
0.01051745
48.59301
-0.2487781
45.951734
39.866614
0.93914295
-21.063159
0.82771127
3.883108
2.35125
4.2922328
44.746381
2.9705216
56.54462
1.5671709
56.850402
0.50310638
54.493743
-0.073884096
49.17
-0.27448361
46.152334
39.59213
0.71026625
-22.658469
0.88504389
3.5936785
-0.53216227
4.1383057
44.201753
2.8309115
57.852015
1.405579
58.275735
0.34766888
55.551653
-0.18002203
49.697691
-0.34637999
46.318692
39.24575
0.45702907
-24.066559
0.95106094
3.3111005
-3.3862336
4.0429885
43.469865
2.7036036
59.1914
1.2712527
59.708086
0.24150024
56.581405
-0.26099679
50.200188
-0.36090325
46.418598
38.884847
0.26242069
-25.265273
0.93629327
2.9984448
-6.1222578
3.8693211
42.598989
2.5562573
60.504463
1.1103322
61.154011
0.090646466
57.601091
-0.35664411
50.647479
-0.43648473
46.498439
38.448362
0.035736012
-26.159416
0.85840739
2.6974184
-8.7839402
3.7656668
41.530741
2.4239244
61.846206
0.97235116
62.605584
-0.0074292353
58.580871
-0.43220032
51.07225
-0.44802112
46.51426
38.000341
-0.019429924
-27.135975
0.99598812
2.5177569
-11.321127
3.565917
40.482581
2.250722
63.161401
0.80588923
64.050417
-0.16608695
59.552847
-0.524906
51.431069
-0.52179243
46.511146
37.478549
0.055307823
-27.473406
0.28212309
2.4598608
-13.72568
3.4517885
39.490653
2.1406051
64.472584
0.66549614
65.525526
-0.25950174
60.477845
-0.58269049
51.754258
-0.52463873
46.453094
36.95391
3.5883226
-30.459039
-0.60268977
2.603441
-12.740798
-0.84993827
42.944032
-3.9494228
67.572069
-5.3759178
66.952021
-5.4155288
60.517456
-4.2508012
50.58953
-2.5829923
44.785285
34.370918
3.884827
-34.442669
0.098803998
2.0408332
-10.896805
-1.9574891
46.942354
-5.2040574
70.818637
-6.4922009
68.240164
-5.7723537
59.797609
-4.1858761
49.003052
-2.484998
43.084407
31.88592
3.9588627
-37.689791
-0.71174158
1.376417
-8.314359
-3.2136349
51.532406
-5.8987375
73.50374
-6.6430935
68.98452
-5.9779465
59.132462
-4.5519495
47.577055
-2.5413713
41.073829
29.344548
3.9092746
-39.355154
-2.2439111
0.89374996
-5.2988344
-3.9971777
56.423334
-6.8372182
76.34378
-7.429445
69.576747
-6.1207552
57.823772
-4.2467627
45.703063
-1.7976617
38.624728
27.546887
3.7296243
-39.675263
-3.4095153
0.094640308
-1.6638504
-5.0675422
61.585517
-7.2780232
78.554261
-7.3037337
69.602458
-5.8128188
56.332857
-4.0428696
43.933114
-1.451672
36.03353
26.095215
3.6067879
-39.084039
-4.1980124
-0.24778735
2.1907249
-5.7308568
67.068586
-7.9576149
80.781019
-7.910497
69.55534
-5.9570319
54.379392
-3.8788769
41.854959
-0.7301135
32.884767
25.365101
3.1609846
-37.747627
-4.4973957
-1.0799179
6.4316273
-6.7830662
72.771734
-8.2427875
82.240741
-7.5021656
68.814718
-5.4533044
52.330531
-3.6085202
40.010175
-0.38715888
29.663406
24.977942
2.9927687
-36.173466
-4.5669301
-1.3242556
10.748652
-7.3282934
78.775772
-8.5802728
83.49272
-7.9955504
68.229995
-5.6067909
49.941772
-2.9294619
37.332846
0.54994867
26.183995
25.527891
2.3096346
-4.2895243
-34.193576
-2.5295463
15.587833
-8.5431902
84.789416
-8.8772449
83.826775
-7.4126431
66.765394
-4.4508718
46.98
-1.2786576
34.160632
1.5248711
23.380466
27.052762
-0.82972844
39.966944
0.43360501
-39.570821
0.52277889
38.589714
-39.942222
2.9611211
-21.243446
18.805104
4.8153372
-51.029406
49.175189
5.5216292
-62.664433
61.958141
5.5469646
-59.408626
59.383291
7.0170524
-36.019665
34.549577
8.6126748
8.1401272
-9.7357496
25.386046
-26.529416
-0.75528074
40.300827
0.42139745
0.71729745
37.117136
3.262396
-23.788544
5.1799542
-52.946964
5.8634728
-63.347952
5.7367244
-59.281878
6.8198793
-37.10282
8.0491186
6.9108879
24.301578
-0.69679434
40.589618
0.40800317
0.89236255
35.527979
3.6054324
-26.501614
5.6268296
-54.968361
6.2841794
-64.005302
6.0087019
-59.0064
6.7646748
-37.858792
7.7046786
5.9708841
23.179356
-0.61048801
40.805927
0.39417891
1.1234123
33.794079
3.9664988
-29.344701
6.0511899
-57.053052
6.6977811
-64.651893
6.2849712
-58.59359
6.7714155
-38.345237
7.5596224
5.1826772
21.945346
-0.53412926
40.957573
0.38248279
1.3556309
31.904318
4.3370321
-32.326102
6.4281268
-59.144147
7.0480109
-65.271777
6.5305572
-58.076136
6.8694976
-38.684177
7.6024117
4.4497631
20.622553
-0.43165682
41.023468
0.36576137
1.6284036
29.844258
4.7258874
-35.423586
6.8296263
-61.247886
7.4086031
-65.850754
6.8335159
-57.501049
7.0483294
-38.898991
7.7309348
3.7671577
19.126626
-0.34364562
41.011589
0.35552376
1.8948186
27.605794
5.1299185
-38.658686
7.2359797
-63.353947
7.7631073
-66.377882
7.1870965
-56.925038
7.2724295
-38.984324
7.8760876
3.1634995
17.341732
-0.26481094
40.9322
0.34420035
2.147487
25.193496
5.5021886
-42.013387
7.5964993
-65.448257
8.0742475
-66.85563
7.4960632
-56.346854
7.4441396
-38.9324
7.9781252
2.629514
15.194546
-0.19442588
0.32752851
40.799097
2.3777192
22.621351
5.9034983
-45.539166
8.0043852
-67.549144
8.4312426
-67.282487
7.7750206
-55.690632
7.5982959
-38.755675
8.2634214
1.9643885
12.59726
-6.5678845
-22.201714
1.8766982
26.8929
-7.36725
-56.524027
57.323394
0.27562094
-31.777449
24.134576
6.9555758
11.396474
-18.076429
7.4239278
2.6637355
-3.1320879
3.1615688
-37.575394
41.837753
-1.2737759
-60.572424
65.007768
-1.7761174
-64.470225
64.972567
-59.089797
57.31368
-5.5977354
-17.38886
0.78488196
-7.4915649
-54.630197
-1.2001502
-38.068864
6.4953062
3.7010177
8.3890662
0.76997541
4.9254733
-34.111801
0.50663747
-56.153588
-1.3490726
-62.614515
-60.43887
-5.4562767
-12.036309
0.10372627
-7.6573386
-52.429135
-2.3520441
-43.374158
5.1884137
-3.8394402
8.4159526
-2.4575635
5.6478337
-31.343683
1.4704532
-51.976207
-0.71468742
-60.429375
-61.153557
-4.5613558
-6.9729392
-0.50201445
-7.1747411
-49.81575
-3.1524808
-47.396419
4.3022339
-11.294155
8.495493
-6.6508225
6.7067243
-29.554914
2.709346
-47.978829
-0.2689812
-57.451047
-61.422538
-4.1846194
-2.0877928
-0.70052658
-7.298749
-46.70162
-4.0885563
-50.606611
3.6142087
-18.99692
8.2781104
-11.314724
6.8746444
-28.151448
3.5579976
-44.662182
0.61635578
-54.509406
-60.806183
-3.3718548
2.1056441
-0.82158155
-6.9615035
-43.111971
-4.7139623
-52.854152
3.0284789
-26.739361
7.9745625
-16.260808
7.3474071
-27.524293
4.3551077
-41.669883
1.1422044
-51.296502
-59.663978
-2.8432132
6.0895613
-1.1407029
-6.4876026
-39.467581
-5.2963237
-54.045432
1.4057418
-33.441427
6.6722769
-21.527343
6.7260883
-27.578104
4.7303853
-39.67418
1.910687
-48.476804
-57.753291
-1.9014832
10.010759
-2.0197136
-5.9467059
-35.422358
-5.8584208
-54.133717
-0.58791879
-38.711929
5.0842384
-27.1995
6.3899939
-28.883859
4.8074592
-38.091645
2.1130067
-45.782352
-55.640284
-1.2378069
13.082619
-1.8340525
-5.2823556
-31.377809
-5.699117
-53.716956
-1.5096549
-42.901391
3.3040551
-32.01321
5.1083548
-30.688159
4.6392119
-37.622503
2.5697582
-43.712898
-53.070526
-1.1520589
41.428447
-40.276388
-1.6708412
37.077721
-36.558939
-1.8787786
35.517755
-35.309818
-1.6908346
34.248662
-34.436606
-1.6447836
37.490321
-37.536372
-2.0835657
43.821051
-43.382269
-2.7744882
50.148478
-49.457556
-1.3084797
40.456941
-41.922949
-4.946473
3.0764159
0.56157774
-1.2656248
42.694072
-1.823879
37.635975
-1.9925491
35.686425
-1.7615054
34.017618
-1.6016713
37.330487
-1.877425
44.096804
-2.516945
50.787998
-1.1894873
39.129483
-6.4753553
0.33939499
-1.2886327
43.982705
-1.9321303
38.279473
-2.1358452
35.89014
-1.805817
33.68759
-1.5116438
37.036314
-1.7253041
44.310465
-2.3283862
51.39108
-0.99075933
37.791857
-8.1246666
0.65855217
-1.403447
45.386152
-2.0930366
38.969063
-2.2764185
36.073522
-1.9172715
33.328443
-1.4922803
36.611323
-1.5458152
44.364
-2.0823177
51.927582
-0.76743463
36.476974
-9.7344721
0.84237121
-1.4390222
46.825174
-2.2049845
39.735025
-2.4470939
36.315632
-1.9927171
32.874066
-1.4115218
36.030127
-1.3977256
44.350203
-1.8781806
52.408037
-0.58402235
35.182816
-11.246909
0.9284147
-1.5250631
48.350237
-2.3730064
40.582968
-2.6058692
36.548494
-2.1433218
32.411518
-1.3974401
35.284245
-1.2050139
44.157777
-1.6196822
52.822705
-0.49282753
34.055962
-12.582655
0.84291923
-1.5297211
49.879958
-2.4815194
41.534767
-2.7972395
36.864214
-2.2422415
31.856521
-1.3333667
34.37537
-1.0729472
43.897358
-1.4394677
53.189225
-0.38977143
33.006266
-13.507843
0.53541721
-1.6007934
51.480751
-2.6356294
42.569603
-2.9652704
37.193855
-2.4303895
31.32164
-1.3351965
33.280177
-0.8659295
43.428091
-1.1764354
53.49973
-0.31236202
32.142193
-13.301658
-0.51854521
-1.589775
-2.7330705
-3.161718
-2.5282376
-1.2612708
-0.73457
-0.95179566
-0.18741155
-0.4064503
3.0499902
-1.1629125
1.1893381
6.3088154
-45.181774
5.1163885
-48.265129
3.9497815
-42.215662
3.3584348
-36.945025
3.0547204
-34.132891
2.4579169
-34.713014
1.5685978
-35.66962
-38.707791
6.0443413
-7.6023178
0.39506409
6.9319958
-46.069429
5.3879284
-46.721061
4.0318424
-40.859576
3.3533388
-36.266522
2.9740564
-33.753609
2.3220364
-34.060994
1.4345138
-34.782097
-37.273277
7.5734736
-15.07302
-0.10277176
7.1969579
-45.692913
5.5386247
-45.062728
4.137844
-39.458795
3.3854123
-35.51409
2.8963277
-33.264524
2.2402085
-33.404875
1.3864115
-33.9283
-35.886865
8.1683266
-23.243809
0.0024630647
7.4477626
-44.972349
5.6924725
-43.307438
4.2233708
-37.989694
3.3993394
-34.690059
2.846006
-32.711191
2.1332115
-32.692081
1.2793341
-33.074423
-34.607531
8.8872787
-32.11312
-0.017967788
7.6315366
-43.716607
5.752682
-41.428583
4.3125389
-36.54955
3.435262
-33.812782
2.7968102
-32.072739
2.0780987
-31.973369
1.2391979
-32.235522
-33.368333
9.4676742
-40.817889
-0.76290573
7.8603188
-42.109252
5.8364799
-39.404745
4.388848
-35.101918
3.4623348
-32.886269
2.7695237
-31.379928
2.0075945
-31.21144
1.1365398
-31.364467
-32.231794
9.9811522
-44.478838
-6.3202035
7.9154544
-40.043554
5.8596057
-37.348896
4.4425022
-33.684815
3.5008023
-31.944569
2.7469104
-30.626036
1.9723667
-30.436896
1.1063878
-30.498488
-31.125406
10.228497
-42.965395
-11.741939
7.7438348
-37.558892
5.8404312
-35.445492
4.4811104
-32.325494
3.5291571
-30.992616
2.7335092
-29.830388
1.9209715
-29.624359
1.0346097
-29.612127
-30.090796
10.080705
-40.1268
-12.919301
7.5821864
-35.060373
5.8530381
-33.716344
4.543105
-31.015561
3.5530664
-30.002577
2.7124213
-28.989743
1.8903924
-28.80233
1.0177266
-28.739461
-29.073069
0.47021143
33.101047
-33.571258
0.91836577
32.994684
-33.442838
1.3412241
33.275017
-33.697875
1.7464762
33.688164
-34.093416
2.0496826
34.471514
-34.77472
2.2248774
35.140831
-35.316026
1.9706641
35.740538
-35.486324
1.4366949
33.816224
-33.282255
28.418207
-27.629796
0.64828374
0.4864801
32.614567
0.95442416
32.526739
1.4176277
32.811813
1.8710106
33.234781
2.2220324
34.120492
2.4609775
34.901886
2.2087536
35.992762
1.6193771
34.405601
29.182841
0.85474332
0.50899241
32.105574
1.0026018
32.03313
1.495318
32.319097
1.9885578
32.741542
2.4124775
33.696572
2.7253586
34.589005
2.6237826
36.094337
1.9653043
35.064079
30.493027
0.65511818
0.51811322
31.587461
1.0324825
31.518761
1.5590784
31.792501
2.0933651
32.207255
2.5536491
33.236288
2.9558806
34.186774
2.9399586
36.11026
2.3888305
35.615207
32.026143
0.85571496
0.52199517
31.065466
1.0577801
30.982976
1.6095221
31.240759
2.1859482
31.630829
2.7247085
32.697528
3.2237495
33.687733
3.4050992
35.92891
2.907296
36.11301
33.997877
0.93556133
0.5154145
30.550051
1.070337
30.428053
1.6533174
30.657779
2.2604187
31.023727
2.8385278
32.119419
3.4143527
33.111908
3.7284071
35.614855
3.4822778
36.35914
36.132035
1.3481204
0.50537913
30.044672
1.0716877
29.861745
1.6753263
30.05414
2.3226689
30.376385
2.9907356
31.451352
3.6270581
32.475585
4.1494219
35.092492
4.1206023
36.387959
37.791053
2.461584
0.48672414
29.557948
1.0573843
29.291085
1.6804503
29.431074
2.3471614
29.709674
3.0406164
30.757897
3.7353564
31.780845
4.3053509
34.522497
4.7131411
35.980169
39.18465
3.3195436
0.48487866
1.0365025
1.6652468
2.3851774
3.1404977
3.9057822
4.711935
5.6317314
4.6895823
-0.75622529
-27.390764
0.51719348
-1.055661
-32.982819
-1.3521379
-35.189847
-1.310049
-35.358115
-1.1643682
-34.920401
-0.90465612
-34.353129
-0.61855375
-33.983978
-0.318241
-33.743151
-33.889499
-0.69720275
-27.122555
0.42899411
-0.96158875
-32.718433
-1.2056497
-34.945787
-1.1830132
-35.380751
-1.0591576
-35.044257