/*--------------------------------*- C++ -*----------------------------------*\
  =========                 |
  \\      /  F ield         | OpenFOAM: The Open Source CFD Toolbox
   \\    /   O peration     | Website:  https://openfoam.org
    \\  /    A nd           | Version:  11
     \\/     M anipulation  |
\*---------------------------------------------------------------------------*/
FoamFile
{
    format      ascii;
    class       volScalarField;
    location    "0.0505";
    object      Ma;
}
// * * * * * * * * * * * * * * * * * * * * * * * * * * * * * * * * * * * * * //

dimensions      [0 0 0 0 0 0 0];

internalField   nonuniform List<scalar> 
880
(
1.443353270571932
1.443353270571932
1.443353270571932
1.443353269586495
1.443353270571932
1.443353270571932
1.443353270571934
1.443353438074712
1.443353270571932
1.443353270571933
1.443353270571932
1.44335194835325
1.443353270571932
1.443353270571932
1.443353270572095
1.443317860581149
1.443353270571932
1.443353270571932
1.443353270571933
1.443353270571932
1.443353270571932
1.443353270571932
1.443353270571935
1.443353270571932
1.443353270656978
1.443353269511914
1.443353979763677
1.44335252322513
1.441800399820337
1.435277738065265
1.429882512518743
1.429262171481504
1.443353270063418
1.443353269778148
1.443353269637711
1.443353270301831
1.443353254912279
1.443353253171092
1.443353251942192
1.4433532491482
1.44332837435911
1.443325069587662
1.443323995158143
1.443315195654735
1.428517170879955
1.428077894701552
1.428322236664217
1.423661754922642
1.433725252501346
1.442567106094138
1.44624078013893
1.44475228321086
1.443306010235624
1.443326928122888
1.443352085230557
1.443357006204076
1.443353220592603
1.443353240182837
1.443353266632468
1.44335327325515
1.443353267386045
1.443353267551739
1.44335326882453
1.443353270124623
1.443353270539995
1.443353270572006
1.443353270571932
1.443353270571932
1.443353271087002
1.443353270584658
1.443353270571041
1.44335327057201
1.44335396469436
1.443353290429628
1.443353270764588
1.443353270564486
1.4435465976101
1.443359503172107
1.443353309273604
1.443353262130522
1.443353265536343
1.443353270551457
1.443353270571932
1.443353270571932
1.443353265590906
1.44335327065678
1.44335327058204
1.443353270571932
1.443350822424532
1.443353119813289
1.44335326695781
1.443353270499423
1.444958968603056
1.443397840970521
1.443353318010708
1.443353270598695
1.443353270567006
1.443353168119526
1.443321534509469
1.402113420511791
1.44335326878969
1.443353148664846
1.443160835877979
1.341791029549372
1.443353266272349
1.443353096910572
1.443067220371719
1.326404469164018
1.44335326494944
1.443353052894511
1.443016140309444
1.322289987607265
1.316798784703968
1.442960520804123
1.443352997678302
1.443353263390224
1.311452810623124
1.442893300867492
1.443352926887575
1.443353261077846
1.303993284933865
1.442804231731125
1.443352823303356
1.443353258616491
1.297330853518611
1.442687078012578
1.443352684092573
1.443353252506959
1.443353254973553
1.443352774916161
1.442694244184042
1.290617980858195
1.443353252938903
1.443352668127151
1.442621440559429
1.289418731132618
1.44335324955951
1.443352573509284
1.442585889510274
1.298928377723111
1.443353253220702
1.443352852737659
1.442908342365831
1.355522228727927
1.443353250489135
1.443356039805793
1.443674322180756
1.44262212352018
1.44335333204994
1.443354705377516
1.442458510958038
1.418048094137548
1.443353264795012
1.443345049358205
1.440654986223213
1.348167096036536
1.443353261988039
1.443338104659508
1.438105673653437
1.284303552046063
1.29481760749774
1.44038723987448
1.4433477351718
1.443353267323416
1.316366517471706
1.440763611983561
1.44334800775055
1.443353267068486
1.337223778830565
1.441714682993243
1.443350743958743
1.443353269226685
1.318942996181713
1.441111832553805
1.443349416712302
1.443353268310402
1.38157767276308
1.442683895417745
1.443352318413723
1.443353269975651
1.428637780757247
1.443282127406798
1.443353206909537
1.443353270536422
1.442794984626207
1.443353648496904
1.443353273540689
1.443353270575553
1.44573277824538
1.443367581128068
1.443353300894302
1.443353270570648
1.427861963163681
1.443158347743428
1.443352518248504
1.443353269614451
1.427910431596866
1.443158742251601
1.443352519007658
1.443353269601471
1.427968931939799
1.443159061739683
1.443352516173336
1.443353269523548
1.427328181304461
1.443158241567978
1.443352514938041
1.443353269380653
1.445732778249898
1.443367581131118
1.443353300898584
1.44335327056799
1.442794984630881
1.443353648500532
1.443353273549217
1.443353270574864
1.428637780757293
1.443282127405453
1.443353206909062
1.443353270536633
1.381577672757547
1.442683895409226
1.443352318412981
1.443353269977749
1.443353267317788
1.443347735160454
1.440387239871127
1.294817607494175
1.443353267064315
1.443348007749705
1.440763611979476
1.316366517470537
1.443353269231455
1.443350743953511
1.44171468299303
1.33722377882219
1.443353268309797
1.443349416709934
1.441111832547163
1.318942996184507
1.284303552051816
1.438105673659092
1.443338104665927
1.443353261990066
1.34816709604189
1.440654986228382
1.443345049366922
1.44335326480501
1.41804809413773
1.442458510964576
1.443354705377596
1.443353332056451
1.442622123518476
1.443674322183176
1.4433560398083
1.443353250477571
1.443353254976121
1.44335277491042
1.442694244181525
1.290617980852517
1.443353252937734
1.443352668124352
1.442621440558849
1.289418731132493
1.443353249554029
1.443352573509464
1.44258588951482
1.298928377723447
1.443353253211232
1.443352852737881
1.442908342368967
1.355522228728557
1.297330853508614
1.442687078017964
1.443352684084396
1.443353252508019
1.303993284925967
1.442804231718131
1.443352823302524
1.443353258614934
1.31145281062706
1.442893300858034
1.44335292687955
1.44335326107915
1.316798784696798
1.442960520815843
1.443352997678942
1.443353263391733
1.443353270563111
1.443353168113323
1.443321534510584
1.402113420518854
1.44335326879381
1.443353148670863
1.44316083587418
1.341791029551647
1.443353266274478
1.443353096910233
1.443067220370231
1.326404469158797
1.44335326495204
1.443353052892998
1.443016140311302
1.322289987608772
1.443353270599604
1.443353270498287
1.443353270571932
1.443353270571932
1.443353318018118
1.443353266958788
1.443353270577818
1.443353270571932
1.443397840968491
1.443353119809833
1.44335327065987
1.443353270552834
1.444958968602883
1.443350822424183
1.443353265590667
1.443353265536099
1.443353270571934
1.443353270571989
1.443353270562564
1.443353262128855
1.443353270571932
1.443353270571803
1.443353270756244
1.443353309273331
1.443353270572005
1.443353270584633
1.443353290434516
1.443359503171318
1.443353270539363
1.443353271087478
1.443353964688156
1.443546597612386
1.443353267392019
1.44335322059817
1.443306010239836
1.433725252502544
1.443353267556837
1.443353240182392
1.443326928123756
1.442567106098836
1.4433532688261
1.443353266625136
1.443352085232172
1.446240780140136
1.443353270125829
1.44335327325179
1.443357006204154
1.444752283215863
1.423661754920349
1.443315195642678
1.4433532491516
1.443353270304532
1.428322236666278
1.443323995144316
1.443353251943476
1.443353269636224
1.428077894692826
1.443325069582662
1.443353253170454
1.443353269779772
1.428517170882376
1.443328374382665
1.443353254913699
1.443353270061968
1.429262171478574
1.443352523220873
1.443353270571932
1.443353270571932
1.429882512520415
1.443353979771699
1.443353270571932
1.443353270571933
1.435277738061974
1.443353269514321
1.443353270571932
1.443353270571933
1.441800399821076
1.443353270656181
1.443353270571932
1.443353270571934
1.443353270571932
1.443353270571933
1.443353270571932
1.443353269446564
1.443353270571931
1.443353270571932
1.443353270571932
1.443353438096744
1.443353270571932
1.443353270571932
1.443353270571932
1.443351948371235
1.443353270571932
1.443353270571932
1.443353270571993
1.443317860584843
1.443353831646408
1.443355189789173
1.443356279918687
1.44304412499187
1.443355189726733
1.443361267358319
1.443370570865727
1.440767431401331
1.443356279925101
1.443370570867099
1.442631939700101
1.415633108413987
1.44304412496769
1.440767431416125
1.415633108423881
1.257575064229892
1.103079124453677
1.202027050624211
1.347855099486007
1.410461948177842
1.156499962434314
1.183032116425104
1.25463132119377
1.314922468782729
1.216500728467177
1.24520040437414
1.269596799644173
1.296355348608467
1.241068914723568
1.292491417048628
1.297851513938377
1.307961425555041
1.312006910026866
1.313471060201877
1.314078220522826
1.295858884517638
1.308118646604969
1.31086074894306
1.311662333686048
1.308957029430991
1.310689666576993
1.314951241309637
1.315871220867907
1.366734800169117
1.242914638790757
1.243565308869164
1.243939927179439
1.464221912867219
1.423109375877622
1.50092897952886
1.484423105726509
1.455717317266667
1.521212444481528
1.620395713920934
1.515770583857525
1.464982157564125
1.65011388303461
1.627787054215461
1.541512077052698
1.481032139333635
1.25052905202755
1.273377444685258
1.349610451895843
1.407669126756159
1.444724967099038
1.443406078760317
1.443354074911566
1.443353284806013
1.446094178396035
1.443473900899247
1.443356270723651
1.443353378462755
1.449370921571435
1.44365471024465
1.443360223037087
1.443353488991915
1.436769007511681
1.44297392710453
1.443340847047039
1.443352902218512
1.443353255295671
1.443353279627393
1.443351150707228
1.41892744007415
1.443353264908592
1.443353272142699
1.44335246245889
1.323511527597822
1.443353270925681
1.443353270790478
1.44335319308222
1.217155984934855
1.443353266607519
1.44335327011158
1.443352927620192
1.083200252460317
0.9294148280333685
0.9751264227162839
1.015700167744751
1.028720613454319
0.7845074263058458
0.9344919705689005
1.016242841904051
1.038874801009346
0.6915031668089796
0.8991113298835399
1.009976239810006
1.038400514745227
0.6301192691314778
0.8014363237105023
0.8830283131819966
0.9112783693960811
1.029653142727336
1.02942107901569
1.028453217131937
1.029190815150429
1.04129054996451
1.041613739955803
1.041756735249426
1.043286897672297
1.041168813308976
1.041256503215272
1.041343505954317
1.042286884797203
0.916776854938513
0.9167459568258737
0.9166119840527305
0.9141305869979485
1.024375511788126
1.027391942640809
1.052730762689202
1.107857679044251
1.041420562409338
1.044545622403775
1.072640752040863
1.154309944412537
1.042589718135377
1.04717357494901
1.08941037528619
1.416807937387457
0.9219415987042503
0.9283054218468559
1.038212632434328
1.86640050363145
1.381573222616756
1.227594547934374
0.4795471567290321
0.2032082104658841
1.328016839817626
1.055830793647213
0.3480919796375559
0.2891262217241839
1.413302955984888
0.9524863491598914
0.3720625107088396
0.2836815031798126
1.077175233770542
0.5301882771494166
0.2862359339264142
0.2074942144728012
0.225403734865572
0.2551420094363109
0.2981057729257161
0.3073830891990172
0.2975463439728583
0.2851115708430877
0.2551367884737142
0.4743905526327282
0.3040439123956
0.2991904526703995
0.368498888835504
0.6267563441606299
0.2057716646742508
0.2294040708291505
0.3791857669162305
0.7579954107737209
1.235601571141744
1.361727020461584
1.442417791072457
1.483460526466713
0.8647600065404109
1.203739405765503
1.39742342070932
1.519453029777051
0.4044100643836719
0.879151596942627
1.257821251827347
1.632045001796537
0.3956588478048585
0.7015916688285528
1.055725870617088
2.01070947130778
1.593233017773876
1.649649303566102
1.318439359695673
1.028896288819083
1.855347887294463
2.481438916977589
1.838576098666465
1.163977490540382
2.076856762894589
2.555137058231559
1.847950432778516
1.234542576409255
1.515454646191186
1.907126165498607
1.339407737112004
0.8046353736083007
0.6189505611362169
0.5750419222106846
0.4144118989129014
0.1029775791673209
1.001944096920348
0.9141767574386113
0.6707515708901892
0.1540636392449815
0.910876700486085
0.666636756781064
0.309057738709635
0.1273730177541431
0.7871078536341399
0.6521676997621509
0.5895218150186964
0.5813288417916092
0.1029775791687391
0.1540636392454507
0.1273730177553494
0.5813288417887128
0.4144118989141509
0.6707515708910586
0.3090577387098731
0.589521815020543
0.5750419222109563
0.9141767574384875
0.6666367567822831
0.6521676997637254
0.6189505611354658
1.001944096919495
0.9108767004877062
0.7871078536351879
1.028896288819943
1.318439359698065
1.649649303569889
1.59323301778275
1.163977490542358
1.838576098660388
2.481438916974708
1.85534788729893
1.234542576408198
1.847950432775675
2.555137058233206
2.076856762896488
0.8046353736068829
1.339407737111729
1.907126165498487
1.515454646190725
2.010709471309223
1.055725870616674
0.7015916688282486
0.3956588478032811
1.632045001799395
1.257821251830708
0.8791515969429551
0.4044100643835131
1.51945302978018
1.397423420714359
1.203739405765739
0.8647600065389269
1.483460526470066
1.442417791076523
1.36172702046186
1.235601571137834
0.3073830891973933
0.2981057729216363
0.2551420094352727
0.2254037348653092
0.4743905526303286
0.2551367884734378
0.2851115708422806
0.2975463439714437
0.6267563441595739
0.3684988888351983
0.2991904526680172
0.3040439123919914
0.7579954107736852
0.3791857669179036
0.2294040708288219
0.2057716646728294
0.2032082104678263
0.4795471567290698
1.227594547925597
1.381573222616533
0.2891262217166046
0.3480919796370676
1.055830793642845
1.328016839821427
0.2836815031690754
0.3720625107068516
0.952486349154727
1.413302955988988
0.2074942144677923
0.2862359339266717
0.5301882771456882
1.077175233772156
1.107857679045377
1.05273076268891
1.02739194263988
1.024375511784381
1.154309944414449
1.072640752040708
1.044545622402338
1.041420562406257
1.416807937389821
1.089410375286373
1.047173574948068
1.042589718134098
1.866400503635134
1.038212632436372
0.9283054218502194
0.9219415987097601
1.029190815146045
1.028453217128887
1.02942107901699
1.029653142723692
1.043286897670283
1.041756735246782
1.041613739955325
1.04129054996307
1.042286884797102
1.041343505952635
1.0412565032147
1.041168813309004
0.914130587003482
0.9166119840540871
0.9167459568262546
0.9167768549414615
1.028720613455653
1.015700167742065
0.9751264227178107
0.9294148280348732
1.038874801010512
1.016242841901858
0.9344919705707097
0.7845074263062911
1.038400514746165
1.009976239808323
0.8991113298848428
0.6915031668091999
0.9112783693964409
0.8830283131829169
0.8014363237110439
0.6301192691307524
1.41892744007382
1.443351150708815
1.443353279628526
1.443353255295154
1.323511527597385
1.443352462459529
1.443353272143266
1.443353264908267
1.217155984934376
1.443353193082333
1.443353270790692
1.443353270925606
1.083200252459591
1.443352927620621
1.443353270111632
1.443353266607341
1.443353284804733
1.44335407490966
1.443406078759983
1.444724967101991
1.44335337846173
1.443356270719008
1.443473900903467
1.446094178393484
1.443353488991083
1.443360223030335
1.443654710252445
1.449370921565793
1.443352902219028
1.443340847046735
1.442973927106432
1.436769007515933
1.455717317272083
1.484423105727214
1.500928979532711
1.423109375878494
1.464982157568554
1.515770583857243
1.62039571392317
1.521212444481779
1.481032139338029
1.541512077052193
1.627787054217606
1.650113883035827
1.407669126751542
1.349610451897183
1.27337744468656
1.250529052028445
1.295858884517198
1.314078220523041
1.31347106019912
1.312006910025687
1.308957029433594
1.311662333685812
1.310860748941943
1.308118646602396
1.36673480017349
1.31587122086844
1.314951241311168
1.310689666576073
1.46422191287315
1.243939927186089
1.243565308875322
1.242914638786957
1.307961425553176
1.296355348610001
1.314922468780148
1.41046194817839
1.297851513937761
1.269596799645084
1.254631321193363
1.347855099485994
1.292491417046311
1.245200404376645
1.183032116425903
1.20202705062404
1.241068914728272
1.216500728473621
1.156499962434861
1.10307912445476
1.442345174251691
1.443332558005449
1.443353192385977
1.443353270471627
1.437749085977953
1.443289827671919
1.443353038959471
1.443353270265107
1.429014979431628
1.443213907127261
1.443352769151761
1.443353269788072
1.421336121031977
1.44312626426137
1.443352469074251
1.44335326928332
1.443353269611241
1.443352518250224
1.443158347743087
1.427861963162889
1.443353269598967
1.443352519003632
1.4431587422563
1.427910431593636
1.44335326952659
1.443352516168652
1.443159061741241
1.427968931945511
1.443353269390267
1.443352514932742
1.443158241586584
1.427328181307454
1.443353269284351
1.443353269789789
1.443353270275154
1.443353270482683
1.443352469073528
1.443352769151767
1.443353038961607
1.443353192391919
1.443126264256223
1.443213907132394
1.443289827665866
1.443332558010544
1.421336121038763
1.429014979436689
1.437749085975668
1.442345174251724
)
;

boundaryField
{
    back
    {
        type            empty;
    }
    inlet
    {
        type            calculated;
        value           nonuniform List<scalar> 
16
(
1.443353270571932
1.443353270571932
1.443353270571932
1.443353270571932
1.443353270571932
1.443353270571932
1.443353270571932
1.443353270571932
1.443353270571932
1.443353270571932
1.443353270571932
1.443353270571933
1.443353270571932
1.443353270571932
1.443353270571932
1.443353270571932
)
;
    }
    front
    {
        type            empty;
    }
    top
    {
        type            calculated;
        value           uniform 0;
    }
    outlet
    {
        type            calculated;
        value           nonuniform List<scalar> 
16
(
1.44335326929194
1.443353269276049
1.443353269162021
1.44335326896441
1.443353270431621
1.44335327015508
1.443353269506364
1.443353268825184
1.443353269289859
1.443353269274389
1.443353269163965
1.443353268970686
1.443353268825847
1.443353269507377
1.443353270161523
1.443353270438826
)
;
    }
    bottom
    {
        type            calculated;
        value           uniform 0;
    }
    wall
    {
        type            calculated;
        value           uniform 0;
    }
}


// ************************************************************************* //
