/*--------------------------------*- C++ -*----------------------------------*\
  =========                 |
  \\      /  F ield         | OpenFOAM: The Open Source CFD Toolbox
   \\    /   O peration     | Website:  https://openfoam.org
    \\  /    A nd           | Version:  11
     \\/     M anipulation  |
\*---------------------------------------------------------------------------*/
FoamFile
{
    format      ascii;
    class       surfaceScalarField;
    location    "0.0505";
    object      phi;
}
// * * * * * * * * * * * * * * * * * * * * * * * * * * * * * * * * * * * * * //

dimensions      [0 3 -1 0 0 0 0];

internalField   nonuniform List<scalar> 
1652
(
2.843686947071611
0.8895636090847481
0
1.954123337988149
0.8895636090834618
0
1.064559728903287
0.8895636090848515
-4.440892098500626e-16
0.8895635129962418
-5.174505268712437e-11
0.1749961782044366
2.843686947076741
1.779127218162428
1.954123337998014
1.779127218162189
1.064559728910184
1.779127218172566
1.779125866593961
0.1749965937992791
2.843686947090741
2.668690827246526
1.954123338008367
2.668690827244562
1.064559728914337
2.668690827269318
2.668663125556928
0.1749988761747653
2.843686947092868
3.558254436328659
1.954123338013008
3.558254436324421
1.064559728916308
3.558254436356031
3.558288191763624
0.1749223552507554
4.418652025448567
2.872852967045247
5.279049614570545
2.872852967043177
6.139447203693206
2.872852967042502
2.872852967040008
6.99984479280396
4.41865202543751
2.012455377932159
5.279049614550978
2.012455377929712
6.139447203664234
2.012455377929244
2.012455377926213
6.999844792778029
4.418652025544078
1.152057788920667
5.279049623584513
1.152057787294704
6.139277531612047
1.152061121707646
1.152046138436697
7.000359905060412
4.427651114412645
0.2683433721819122
5.343298937332424
0.1632173423624442
6.284399743310828
0.06186082965822148
7.202013345158607
0.01314226861956602
6.941512751265478
0.05833201982759784
6.88318071104166
0.05833201054525139
6.82484867123883
0.05833200594245935
0.05833202552419259
6.766516632758559
6.941513156739119
0.1166626303996373
6.883181181042904
0.1166624523223198
6.82484912909876
0.1166622511923041
0.1166627436691796
6.76651763890795
6.942015829083162
0.1738724666693001
6.883728139955157
0.1736993427987095
6.825381849935708
0.1735990243129331
0.1735367452018721
6.767507762553985
7.17750888975355
-0.00417620074927727
7.130000511176259
-0.006588338108797331
7.066043779693419
-0.006541824739987212
7.024616254555879
-0.03026950969384778
7.043407835125147
0.002761564065721811
-0.2137288804186329
6.958983813155303
0.00274400016074039
-0.08196323712194908
6.846251798138229
0.001705835630679553
-0.02279274009770593
0.0004708782504611597
6.780630948293787
-0.005389446060462322
6.767680953614022
5.692750758790055e-06
6.767581729853959
5.315746521405984e-06
6.767019449838926
3.246227119224621e-06
9.359368290384751e-07
6.766599747399409
6.766518056286538
1.109706083690654e-07
6.766517945351808
1.025172753355008e-07
6.766517222088443
6.022814957873379e-08
1.63373251593768e-08
6.766516721724632
6.766516629547051
6.766516628705646
6.766516630640162
6.766516632606834
6.766516633033539
-1.44028622361958e-09
6.766516633047132
-2.650435426687636e-11
6.766516633048259
-1.104116797989718e-12
-1.076361222374089e-12
6.766516633049343
6.766516635776288
-9.037399861799855e-08
6.76651663305214
-1.808703742334217e-09
6.766516633044271
6.451061906886935e-11
1.606204058646199e-11
6.766516633048996
6.766519609072679
-4.426885686736881e-05
6.766516638137421
-8.627579947684261e-07
6.766516626326383
3.938869030939429e-08
8.303784049257246e-09
6.766516631146332
6.767147889026291
-0.0005873154812645054
6.766520034074908
-6.445290894330213e-07
6.76651624852616
4.348582721691585e-07
6.766516256476971
1.066556525874951e-07
-2.671888377214771e-09
6.766516526123623
8.027292275336606e-09
-3.381406266100839e-12
6.766516632303267
-2.109423746787797e-15
6.766516633049195
6.766516633049344
-1.979541713881261e-08
6.766516632665193
-1.059163323713364e-08
-1.201688082375085e-09
6.766516628172576
-5.891287457870931e-12
6.766516632774046
6.766516633049434
5.464223458762074e-06
6.766548539073293
4.725204338362765e-06
4.071967171226376e-07
6.766519173870859
5.352772558531171e-09
6.766516678604309
6.766516633109027
-0.001044792041118403
6.762200862350404
-0.03149632037905126
-8.035116098592532e-06
6.766131726299153
-5.61752866445886e-09
6.766516061592787
6.766516632588593
0.1555520712548198
6.610964565328308
0.3111061214212739
6.610964044174855
0.4658824156244386
6.611244974124471
6.69704625904161
0.2474068475287676
0.1555519834490582
6.455412501882032
0.31109928046075
6.455413566525509
0.4631192722724822
6.456323182729919
6.648698482022658
0.08321135430078874
0.1555518828014558
6.299860435873701
0.3110949195671366
6.299861774869074
0.4608137281065253
6.300962654889583
6.548948623606841
-0.004722272689574702
0.1555518304125015
6.144308370522163
0.3110925133015927
6.144309895184349
0.4596973862190273
6.145458844865995
6.377306279050744
-0.02797431375755777
-0.4588308184192836
6.201665063669272
-0.03051373128013324
-0.311090258196707
5.990003654570847
-0.1555518876914167
5.988757999633278
5.988756189624271
-0.4577110791460586
6.00938088293487
-0.0297492711064653
-0.3110867987780852
5.834420747188419
-0.1555518032609489
5.833205958588695
5.833204009943032
-0.4565355662530228
5.824834026346344
-0.03004720772795844
-0.3110829337433517
5.679062996206429
-0.1555517088202956
5.677654458983735
5.677651832999258
-0.454685710567324
5.630668848789116
-0.02910707176312988
-0.3110755043063669
5.523299149626489
-0.1555514988847627
5.52210198106649
5.522099653576713
0.1993005150385263
5.322798557841255
0.3985771701687795
5.322800410856982
0.5849763175124101
5.32382357260158
5.393557141964067
-0.007666759609266327
0.1993004228338264
5.123497468577288
0.3985728967340693
5.123499395617536
0.5838378363219756
5.124410473956789
5.147069399645144
0.005010617775277337
0.1993002889834606
4.924196356521657
0.3985685044766258
4.924197945783959
0.5836031305795883
4.924861115759707
4.914328814206629
0.1001953967019116
0.1993005528795765
4.724895261451008
0.3985803114636353
4.724896234854962
0.5896918314367839
4.728016571643114
4.709122517199273
0.3672670723216042
-0.3353917725622629
5.060304294672056
-0.670859169800481
5.06025125652132
-1.017167192103019
5.060430673806419
4.980076832012823
-1.420643552965233
-0.3354079427693172
5.395713591249986
-0.6706036507816755
5.395628379990548
-0.9869900893259361
5.384771667864775
4.717105406340249
-0.5067590828929885
-0.3354084731784068
5.731122819201548
-0.670438323536249
5.731005895353362
-0.948245418471734
5.69976700022357
4.220905087020725
-0.05965334074561382
-0.3354083593510446
6.066532086222866
-0.6702048739392839
6.06646580559744
-0.9061002089815577
6.028735605747474
4.09718250144332
-0.001314880639170832
0.4727968615852312
4.369506611467535
0.005877862146866177
0.3497067079136558
6.209911627797416
0.1749955377414968
6.241465437629072
6.241528217370345
0.4819221294368689
4.699939608523991
0.003621420460254515
0.3497675558420212
6.394311195852121
0.1749956714589139
6.416490432445722
6.416524367001855
0.4926149056775536
4.948587212492868
-0.0001241976403533462
0.3498524964241163
6.57147392458501
0.1749958597435685
6.591488640396313
6.591520487943326
0.4876002868824371
5.190345992924952
0.01329086360564548
0.3498242998333062
6.750739339821597
0.1749958191336791
6.766493026818162
6.766516613926626
-0.01581312212888408
6.153071038407452
0.2164609584661255
-7.679571105789762e-05
6.764613362507415
-1.59295255652836e-07
6.766514726174653
6.766516631663004
-0.003130270106022404
6.654546275160146
0.134696784754159
-9.412924499851982e-06
6.7664231122466
-1.429388540863386e-08
6.766516575422007
6.766516633040411
-0.0007640917723883422
6.769011309771499
0.08835970620776107
-1.780047606425583e-06
6.766519744917328
-2.405030397056862e-09
6.766516654101315
6.766516633113621
-0.0009544829953866962
0.0809805512130834
6.772068161796556
-3.273122537672535e-06
6.766425682149881
-5.960564708473726e-09
6.766516008729724
6.766516632925603
1.098536179100886
-0.8416337804252372
-0.0264809163209303
-1.920774650443491e-11
1.983205205634793
-0.8745923549826884
-1.747402222918026e-11
2.858269667140725
-0.8749790713902112
1.98774330328888e-12
-0.8749805971367151
-1.436184504655103e-12
1.098537041695369
-1.683521481902593
-0.02850091069228315
1.983205258226658
-1.749173475075474
2.858269667159447
-1.749958094265258
-1.749961193696481
1.098480334476346
-2.524296320186649
-0.03758486159060137
1.983204911442657
-2.623724763394872
2.858269665027784
-2.624937004815711
-2.624941789281561
1.098495919529485
-0.05213335363333002
-3.368339547571085
1.983205052756382
-3.49836503050375
2.858269663803851
-3.499916245203834
-3.499922385957342
-0.0009544829958376688
-6.76901130978086
0.08098055121276942
6.772068161789642
-3.273122828106878e-06
-6.766519744918287
6.766425682148543
-5.961533933174223e-09
-6.766516654105744
6.766516008730439
-6.76651663311115
6.766516632929952
-0.0007640917724903717
-6.654546275169277
0.08835970620724659
-1.780049504240822e-06
-6.766423112247475
-2.405265098204268e-09
-6.766516575427914
-6.766516633040218
-0.003130270109016786
-6.153071038414888
0.1346967847560696
-9.412927179930364e-06
-6.764613362511462
-1.429381413231567e-08
-6.766514726175227
-6.766516631665193
-0.01581312212921226
-5.190345992910658
0.2164609584664537
-7.679571036778299e-05
-6.750739339818863
-1.592949210316164e-07
-6.766493026817046
-6.766516613926381
-0.1749955377324015
6.241528217410147
-6.066532086266811
-0.3497067078911041
6.241465437666076
-6.066465805647989
-0.472796861576315
6.209911627766743
-6.028735605694287
4.369506611436051
-4.097182501390228
0.005877862146834681
-0.1749956714458103
6.416524367026264
-0.3497675558208798
6.41649043246687
-0.4819221294273234
6.394311195831919
4.699939608494793
0.003621420460235406
-0.1749958597314314
6.591520487955735
-0.3498524964016893
6.59148864040561
-0.4926149056672794
6.571473924575803
4.94858721247908
-0.000124197639479226
-0.1749958191219816
-0.3498242998072573
-0.487600286870055
0.01329086360465025
0.90610020898961
-4.22090508698578
-0.001314880639901247
0.6702048739679798
-5.699767000191965
0.3354083593654826
-5.731005895387767
-5.731122819234023
0.9482454184800709
-4.717105406317718
-0.05965334074484153
0.6704383235586637
-5.38477166784703
0.3354084731911194
-5.395628380018502
-5.395713591270778
0.9869900893380057
-4.980076832005606
-0.5067590828912624
0.6706036508041497
-5.060430673800393
0.3354079427773741
-5.060251256532665
-5.060304294682315
1.01716719211526
-4.709122517199195
-1.420643552969709
0.6708591698196182
-4.728016571644074
0.335391772567159
-4.724896234857056
-4.724895261451374
0.1993005150445597
5.322798557859194
-5.522099653601277
0.398577170183086
5.322800410875081
-5.522101981095116
0.5849763175202798
5.323823572579888
-5.523299149598568
5.393557141942169
-5.630668848760475
-0.007666759606931084
0.1993004228398526
5.123497468588598
0.3985728967479021
5.12349939563243
0.5838378363296677
5.124410473942866
5.147069399629719
0.005010617776114223
0.1993002889895412
4.924196356527365
0.398568504489822
4.924197945792157
0.5836031305854326
4.92486111575294
4.914328814199452
0.1001953967022426
0.1993005528853836
0.3985803114762786
0.5896918314417827
0.3672670723230823
-0.454685710560622
-5.824834026324322
-0.02910707175854355
-0.3110755042934492
-5.679062996183245
-0.1555514988786935
-5.677654459005842
-5.677651833017885
-0.4565355662450618
-6.00938088292592
-0.03004720772687897
-0.311082933730242
-5.834420747159876
-0.1555517088144027
-5.833205958609213
-5.833204009955243
-0.4577110791403783
-6.201665063679426
-0.02974927110469117
-0.3110867987641562
-5.990003654572414
-0.1555518032545439
-5.988757999636286
-5.988756189629944
-0.4588308184146569
-6.377306279020401
-0.03051373128199264
-0.3110902581826884
-6.145458844886322
-0.1555518876849548
-6.144309895189346
-6.144308370521547
0.1555520712541613
6.610964565328259
-6.76651663258894
0.3111061214216636
6.610964044174314
-6.766516061591822
0.4658824156257637
6.61124497412145
-6.766131726298184
6.697046259042895
-6.762200862349569
0.2474068475260521
0.1555519834490616
6.455412501879469
0.31109928046099
6.455413566524203
0.4631192722722423
6.456323182739247
6.648698482020382
0.08321135430247883
0.1555518828012412
6.29986043587326
0.3110949195665588
6.299861774869276
0.4608137281062106
6.300962654863492
6.548948623623366
-0.00472227269036396
0.155551830412276
0.3110925133014137
0.4596973862167548
-0.02797431375410642
-6.766516633109739
5.617674214697388e-09
-6.766516633049437
-5.352795651170084e-09
-6.766516633049343
5.413447468072263e-12
8.881784197001252e-16
-6.766516633049345
-6.76651667860247
8.035116219828886e-06
-6.766516632777519
-4.071983303877147e-07
-6.766516633049213
1.20415533100271e-09
3.394617920093879e-12
-6.766516633048997
-6.766519173873917
0.001044792041162645
-6.766516628169767
-5.464222365136884e-06
-6.766516632303275
1.979446834221577e-08
2.671733889680894e-09
-6.766516631145186
-6.766548539074586
-0.03149632037937966
-6.766516632665478
4.725201140920454e-06
-6.766516526122875
-1.059279086668141e-08
-6.766516256476538
8.027757514295075e-09
-1.094013768465629e-12
-6.766516633048242
1.602462607053212e-11
-6.766516633044674
8.30313817701267e-09
-6.766516626329082
-6.766516248525688
1.066561842177904e-07
-1.08124620368244e-12
-6.766516633047131
6.422840037600963e-11
-6.766516633052512
3.939073089931355e-08
-6.766516638140064
-6.766520034074369
4.348581467139567e-07
-2.649824804024092e-11
-6.766516633033592
-1.808636684863529e-09
-6.76651663577518
-8.627574276665051e-07
-6.766519609073208
-6.767147889026853
-6.445290002266013e-07
-1.440379149286741e-09
-6.766516632606971
-9.037432424641167e-08
-6.766516721724887
-4.426885758579413e-05
-6.766599747397908
-6.780630948293498
-0.0005873154823904936
-1.10976008826924e-07
6.76651662953187
-6.766516632739084
-5.692760981834688e-06
6.766518056268021
-6.766517638884705
-0.002761564071854405
6.767680953630788
-6.767507762576828
7.043407835139561
-7.024616254571253
-0.213728880418158
-1.025214535488317e-07
6.766516628694832
-5.315754927792682e-06
6.766517945347281
-0.002744000164795313
6.767581729866251
6.958983813165057
-0.08196323712469056
-6.023299325974563e-08
6.766516630634469
-3.246236941256697e-06
6.766517222090822
-0.001705835635789354
6.767019449841093
6.846251798145116
-0.02279274009780358
-1.634319146681662e-08
-9.359480286352806e-07
-0.0004708782539628031
-0.005389446062263326
-0.173536745205196
-7.066043779704963
-0.03026950969151865
-0.1166627436879776
-6.825381849947049
-0.05833202552785377
-6.824849129091585
-6.824848671223478
-0.1735990243198107
-7.130000511184806
-0.00654182473833631
-0.1166622512121721
-6.883728139952214
-0.05833200594693277
-6.883181181051904
-6.883180711030579
-0.1736993428091109
-7.177508889761955
-0.006588338106420899
-0.1166624523417065
-6.942015829036668
-0.05833201054906534
-6.941513156774182
-6.941512751257334
-0.1738724666880325
-7.202013345149508
-0.004176200751269454
-0.1166626304213048
-7.000359904961101
-0.05833201983247893
-6.999844792821206
-6.999844792801171
-1.15204613843089
-6.284399743303756
0.01314226862067658
-2.012455377910966
-6.139277531671751
-2.872852967039931
-6.139447203692224
-6.139447203690349
-1.152061121702597
-5.343298937325041
0.06186082965881945
-2.01245537791648
-5.279049623578108
-2.872852967042259
-5.279049614566445
-5.279049614567443
-1.152057787294486
-4.427651114393149
0.1632173423627818
-2.012455377921992
-4.418652025542802
-2.872852967044603
-4.418652025443834
-4.418652025446892
-1.152057788919448
-3.558288191727675
0.2683433721835887
-2.012455377927508
-3.558254436354586
-2.872852967046921
-3.558254436324422
-3.55825443632866
2.843686947076677
0.8895636090796828
1.954123337995112
0.8895636090815646
1.064559728908975
0.889563609086127
0.889563512786185
0.1749961782712702
2.843686947077599
1.7791272181565
1.954123337999196
1.779127218159969
1.064559728911148
1.779127218174082
1.779125866615544
0.1749965938014249
2.843686947089469
2.668690827241873
1.95412333800662
2.668690827242819
1.064559728912902
2.668690827269779
2.668663125550969
0.1749988762076698
2.843686947088214
1.954123338006611
1.064559728911156
0.1749223552564183
0.1749962060098814
0.1749962061203213
0.1749957978318147
0.1749966889706121
0.1749949524366794
0.1749979514618824
0.174831781209388
0.1750769661054767
0.1749966890078913
0.1749957978469365
0.1749959791731998
0.1749959791642687
0.1749984575439404
0.1749944699590258
0.1745519472230239
0.1748643575255255
0.1749979514477128
0.1749949524482607
0.1749944699525531
0.1749984575421296
0.1749430691556556
0.1749430691595611
0.1721506763833528
0.176044891689713
0.174831781209235
0.1750769661099355
0.1745519472268591
0.1748643575205805
0.1721506763874754
0.1760448916914638
0.1709608055668139
0.170960805571512
-0.08516469401932242
0.2519959082666738
-0.1584154189022127
0.2410910991916859
-0.2277350289614823
0.2360573676314859
0.2097386593280813
-0.01945493243890484
0.2715039343304647
-0.05187944616828954
0.2708144833517071
-0.09818390935693316
0.2760221748927484
0.2624967092684702
-0.005462301188601915
0.2810187792854792
-0.01686447211123965
0.2912766987509605
-0.02959523683887944
0.2947296733373277
0.291717232578304
0.001027783609209187
0.2875009534407038
0.0028351350916207
0.305011352120465
0.001408492753094626
0.3067628937688475
0.3026350634263785
0.3046172500471195
-0.01210431216401175
0.30511233924887
-0.01360720449264446
0.3052915243271696
-0.01333818415796262
-0.0351543777592761
0.3065475963585681
0.3098898769006683
-0.01038859457757191
0.3103768583487335
-0.01115528976515529
0.3106173221938172
-0.01080983789039636
-0.03171040073423081
0.3190839986760868
0.3084354528436787
-0.001054506827477486
0.3088906596283426
-0.0003206453576223289
0.3091492245495857
1.260325760910064e-05
-0.04084440422379626
0.3318845288735726
0.2885681108496568
0.2886792578604406
0.2888614846970785
0.2464000642250317
0.2883257282414474
-0.1975270944421078
0.2616850458413899
-0.04091993263884819
0.2434036647158624
-0.001219829233199132
-0.001148614920373769
0.235364004668258
0.2820959533794036
-0.1322790144825395
0.2523600271563612
0.009912170911320406
0.241679953541939
0.01645654298477378
0.00362750419827873
0.2359394560384324
0.2597600802749934
-0.06008793612729896
0.2508538194531751
0.02047748260478954
0.2490192836953798
0.02274941868044511
0.0113561481754802
0.2391789991926555
0.1873993248548643
0.207404645905106
0.2249615958322288
0.2309882066530951
0.2334395336798554
-0.0003179715185950283
0.2333289907360634
2.677742284240558e-06
0.2333281322593852
6.850100785493751e-07
6.616493036792903e-08
0.2333281461215503
0.2335195238005623
0.0004008844415337443
0.2333300228163099
3.817596916955157e-05
0.2333281751114674
2.040986590845506e-06
6.495806553763472e-08
0.2333281587073588
0.233794716424481
0.002779466563099686
0.233333230258458
0.0001886866530548814
0.2333281856339712
4.939991027741453e-06
1.245103904423672e-07
0.2333281593991208
0.2329896911279594
0.2333153809486465
0.2333279031773811
0.2333281551859143
0.2333281580392337
3.094046130414085e-10
0.2333281605977654
-5.021192517329354e-09
0.2333290299311522
2.65253637143914e-06
-0.06994878001912075
0.242764633411019
0.2333281580855222
3.009280602483955e-10
0.2333281590517518
-1.714405339914293e-09
0.2333286579196432
1.100727739344887e-06
-0.08443656833018615
0.2264200356376891
0.2333281592339034
1.321258213948795e-09
0.2333281592356027
-4.466577108175329e-11
0.2333283612143632
3.853294281985775e-07
-0.04922591494730644
0.1993684011334199
0.2333281593900974
0.2333281604261588
0.2333282152109402
0.1712047943229012
0.2777533369187608
0.1830140293284328
0.2982456101465089
0.08692875809338241
0.3110856289834807
0.01177171089824036
-0.009167587449363301
0.3135940533649209
0.2642908077494572
0.1277570485396431
0.294967859531294
0.07037220679884892
0.3190364999610936
0.02583732865325816
0.01151310300013897
0.3249204661678721
0.2388110691519599
0.07836982387900548
0.2852384823810756
0.0258005516094203
0.315891614125058
0.01274886911708584
0.0121398074484721
0.3240489231513411
0.2369030268384711
0.2567255987694612
0.2779222541055092
0.2892894410608638
0.3139076931554408
-0.01177811932437145
0.3139007545674009
-0.01119777706692404
0.3138791575981464
-0.01116157875441792
-0.009801340553877491
0.3139309820023746
0.3254051773318867
0.009216799409608067
0.3254659152616255
0.00958726128826326
0.3255404702275236
0.009606089141355745
0.01105643909271437
0.3257496887967721
0.3245313882483009
0.01044980320623523
0.3245350613206751
0.01035053972909838
0.3245379403046611
0.0100679698232331
0.01094140261261112
0.3246311984744878
0.2902971837631103
0.2903032028879193
0.2901326943366807
0.2908902192458129
0.3229131684971039
0.006994098630245249
0.3347902796971126
0.01642059739837576
0.3600983263950028
0.09977631499973938
0.3052075092338585
0.4346675926965396
0.3330729070210717
0.02622151464869149
0.3433889450608958
0.03630010944233419
0.3661564777269112
0.1112532491598391
0.2333812250897346
0.4779754584138268
0.333789649715808
0.01962245220129477
0.3477486026145059
0.03193675796911355
0.3807783174807653
0.09868829222292863
0.0941504244187753
0.5361571570628049
0.2993510698377363
0.321974975677269
0.4167600270959935
0.4839309445210822
0.2307507903227874
-1.235962653419302
0.03483566491115522
-0.2843389758888968
0.003780354223289753
-0.01342306013416598
0.01520515309141515
-7.832279324023264e-06
0.1598147283041795
-0.9073488029802304
0.01537301883508784
-0.1308635145396382
-0.0001927493526943727
0.008926859001296014
0.01976464767588314
0.0001770027926982333
0.09888073769867706
-0.4488765764508393
0.009451264431260681
-0.03381559138517164
0.0005958259520479556
0.01842116553334074
0.01619559438564178
0.0006096219866754387
0.03099222464349844
-0.006824767871509154
0.0002138728790524475
0.0009338627765729992
0.001221299050362485
0.009757776835607353
0.001786813657583751
0.008097706264958114
0.003206412623993267
0.002813863927351428
-0.001074014056493239
0.02055810362412887
-0.001304016468173626
0.01495158901536412
-0.004812457622639062
0.01417077659071246
-0.006920744875304065
0.005807855810525647
-0.00102281203770371
-0.001817078584210988
-0.001819420861194451
0.01422245544668227
-0.007175308892430033
0.01415454303466568
-0.009930911267461451
0.007327240639667672
0.00287269830478841
-0.01029165093731567
-0.001923236768432297
-0.007533297511307451
-0.009360717940757443
-0.009152808832043797
0.1539505692907622
0.1139432127219886
0.2074445194650024
0.1250923300630609
0.2335462248643388
0.1085010127001944
0.0852343206558403
0.248881118440979
0.1000513787998742
0.04065467805263046
0.1788547299557405
0.07853232323071549
0.2195860236443396
0.1118576662908958
0.07205844031022979
0.255341178291081
0.0399868695641205
0.005263225293799675
0.1319893206206198
0.009150201585749806
0.2020057058346991
0.07622038712935664
0.04320309117908944
0.2648861574992439
-0.007473798830420413
0.02166396575176865
0.1325328914109611
0.2052583943713349
0.2099238892976626
-0.3025952189324944
0.3793361984483102
0.1763170008909381
-0.2131468061581799
0.3216656530516898
0.1328294785821685
-0.1648245928087701
0.2469041397532341
-0.1052489559852097
0.07334455846340099
0.1605124973585038
0.1968192022608228
-0.2370086005674055
0.1518334561575252
-0.1467158963324343
0.1431423810090954
-0.05353580298630377
-0.0432232758922252
0.1196366888267898
0.1818272407861136
-0.1350410519762391
0.08512528453303207
-0.0477264847358317
0.06122472306555939
-0.01421100405741097
-0.00885980654672916
0.08085162017669112
0.07325980688615606
0.05346179192510456
0.0453564912512972
0.02913899913958543
0.02635045882469422
0.001443033669681041
0.02291997609597479
-0.002854984291752943
0.008975448349897112
-0.00538139482695167
-0.00255536672703429
-2.682576383250534e-14
0.08760661852686269
0.01924076346360502
0.0773186220276753
0.008432611458658468
0.03001414439000649
0.00470762242845676
0.0005371072167998439
-1.766989332629976e-14
0.08992916763015521
0.03509784698327725
0.03894720212172482
0.02336627104922614
0.006063548098673384
0.01269419735828953
0.00815486801172516
2.465042059363043e-14
0.04073429974188119
0.01281714654338315
0.001802226071072381
1.454114606502799e-13
-0.002555366727034701
-0.008975448349950487
0.0005371072168496877
-0.03001414439004478
0.008154868011747295
-0.006063548098589899
-0.001802226070770283
0.02648091632059124
-0.005381394826932593
-0.02291997609600281
0.004707622428539003
-0.07731862202763166
0.01269419735836609
-0.03894720212164478
-0.01281714654349206
0.02850091069225721
-0.002854984291749076
-0.02635045882472131
0.008432611458669657
-0.0876066185267933
0.02336627104925792
-0.08992916763017504
-0.04073429974169769
0.03758486159064761
0.001443033669692166
-0.02913899913958887
0.01924076346365812
-0.08085162017664729
0.03509784698333911
-0.1196366888267973
-0.07334455846321886
0.05213335363337838
-0.1328294785815717
-0.1052489559849054
0.1605124973582646
-0.1763170008902392
-0.1648245928084923
0.2469041397527866
-0.2099238892973561
-0.2131468061582378
0.3216656530517182
-0.3025952189324314
-0.2488811184412589
0.3793361984482692
-0.1431423810090927
-0.04322327589219954
-0.1518334561573536
-0.05353580298620764
-0.1968192022603241
-0.146715896332273
-0.237008600567227
-0.2553411782910136
-0.0612247230655101
-0.008859806546714725
-0.0851252845328256
-0.01421100405740698
-0.1818272407858293
-0.04772648473579923
-0.135041051975969
-0.2648861574990208
-0.04535649125127431
-0.05346179192511288
-0.07325980688606866
-0.2052583943710492
-0.1325328914111115
-0.04320309117906485
-0.0216639657521994
-0.07622038712961104
0.007473798830356589
-0.009150201586423934
-0.005263225294006704
0.009152808832088312
-0.2020057058348988
-0.07205844030971115
-0.1319893206210472
-0.11185766629106
-0.03998686956430497
-0.07853232323187648
-0.04065467805289974
0.01029165093726848
-0.2195860236444277
-0.08523432065520453
-0.1788547299561398
-0.1085010127002953
-0.1000513788000222
-0.1250923300646159
-0.1139432127221559
0.001817078584111592
-0.2335462248643687
-0.207444519465354
-0.1539505692909767
-0.02055810362395897
-0.003206412624206787
-0.001074014056660636
-0.001786813657507895
0.002813863927622347
-0.001221299050364194
0.008097706265026747
0.009757776835594461
7.832279463436051e-06
0.006920744875205465
-0.001022812037811537
0.004812457622695491
0.005807855810558506
0.001304016468185098
0.01417077659063762
0.01495158901522392
-0.0001770027926839722
0.009930911267425912
0.002872698304786765
0.007175308892456546
0.00732724063956755
0.001819420861194285
0.01415454303456297
0.01422245544653277
-0.0006096219866720074
0.009360717940790114
0.007533297511360578
0.001923236768458778
-0.0009338627765482638
-0.003780354223135506
0.01520515309071808
-0.03483566491034978
-0.01342306013381967
-0.2307507903211436
-0.2843389758874851
-1.235962653421483
-0.4346675926970481
0.0001927493526486593
0.0197646476748569
-0.01537301883479208
0.00892685900130593
-0.1598147283030045
-0.1308635145389446
-0.9073488029807105
-0.477975458413933
-0.000595825952094356
0.01619559438482601
-0.009451264431055085
0.01842116553346749
-0.09888073769796749
-0.03381559138486025
-0.4488765764508983
-0.5361571570627681
-0.0002138728789963761
0.006824767871592577
-0.0309922246433094
-0.4839309445210187
-0.3600983263951626
0.3052075092357037
-0.334790279696638
0.09977631500007766
-0.3229131684964681
0.01642059739893731
0.006994098632238988
-0.3139309820016368
-0.366156477727065
0.2333812250904135
-0.3433889450606399
0.111253249160076
-0.3330729070208845
0.03630010944273232
0.02622151465003353
-0.3257496887966162
-0.3807783174808439
0.09415042441876453
-0.3477486026148742
0.09868829222307685
-0.3337896497160247
0.03193675796926321
0.01962245220149605
-0.3246311984746643
-0.4167600270963431
-0.3219749756784268
-0.2993510698402126
-0.2908902192478936
-0.3138791575976713
-0.009801340549467241
-0.3139007545679039
-0.011161578753075
-0.3139076931553506
-0.01119777706653013
-0.0117781193249068
-0.3135940533639548
-0.3255404702273735
0.0110564390959349
-0.3254659152615919
0.009606089143094021
-0.3254051773319644
0.009587261289135118
0.009216799408853338
-0.3249204661674465
-0.3245379403049448
0.01094140261437559
-0.3245350613209402
0.0100679698250814
-0.3245313882485427
0.01035053972991684
0.01044980320504751
-0.324048923151219
-0.2901326943380199
-0.290303202888319
-0.2902971837635023
-0.2892894410615034
-0.3110856289838771
-0.009167587446870074
-0.2982456101464939
0.01177171089751949
-0.2777533369192156
0.08692875809554312
0.183014029326374
-0.2427646334109395
-0.3190364999613128
0.01151310300230779
-0.2949678595314075
0.02583732865268717
-0.2642908077496797
0.0703722068000312
0.1277570485384739
-0.2264200356375978
-0.3158916141252512
0.01213980744977894
-0.2852384823811515
0.01274886911694806
-0.2388110691518603
0.0258005516105545
0.07836982387822344
-0.1993684011332453
-0.2779222541058923
-0.2567255987696452
-0.2369030268384336
-0.171204794322673
-0.233329029930525
-0.06994878001986876
-0.2333281605974184
2.652534240976667e-06
-0.233328158039156
-5.021852989006703e-09
3.097856970946111e-10
-0.2333281461215204
-0.2333286579192092
-0.08443656833094704
-0.2333281590515564
1.100726640779204e-06
-0.233328158085572
-1.71455305508772e-09
3.011772498062726e-10
-0.233328158707397
-0.2333283612141396
-0.04922591494776757
-0.2333281592355782
3.853289908817281e-07
-0.2333281592338799
-4.470546155488364e-11
1.321454001779188e-09
-0.2333281593991454
-0.2333282152108449
-0.2333281604261068
-0.2333281593900751
-0.2333281551859428
-0.2333281322592842
6.616522474356401e-08
-0.2333289907359928
6.850100852107133e-07
-0.2334395336800253
2.677742176937503e-06
-0.0003179715194519539
-0.2353640046685898
-0.2333281751113332
6.49583709599888e-08
-0.2333300228156807
2.040986482987339e-06
-0.2335195238010231
3.817596916161348e-05
0.0004008844411093615
-0.2359394560381607
-0.2333281856338338
1.245103719571539e-07
-0.2333332302574121
4.939990405794514e-06
-0.2337947164252552
0.0001886866537417209
0.002779466562769284
-0.2391789991924055
-0.2333279031775097