/*--------------------------------*- C++ -*----------------------------------*\
  =========                 |
  \\      /  F ield         | OpenFOAM: The Open Source CFD Toolbox
   \\    /   O peration     | Website:  https://openfoam.org
    \\  /    A nd           | Version:  11
     \\/     M anipulation  |
\*---------------------------------------------------------------------------*/
FoamFile
{
    format      ascii;
    class       volScalarField;
    location    "8.975";
    object      p;
}
// * * * * * * * * * * * * * * * * * * * * * * * * * * * * * * * * * * * * * //

dimensions      [0 2 -2 0 0 0 0];

internalField   nonuniform List<scalar> 
4455
(
5955.9246
5963.0929
5980.9186
6009.9155
6053.4471
6109.7781
6185.415
6290.1952
6428.2155
5960.9694
5968.6981
5988.8326
6020.1342
6065.8186
6128.7045
6215.3134
6336.2579
6499.7452
5960.5079
5970.6347
5992.5003
6025.8875
6074.8403
6142.4263
6235.6001
6365.6513
6526.2393
5954.8493
5968.3721
5991.6423
6027.8086
6079.6932
6153.1195
6253.7782
6398.8413
6575.8706
5943.8753
5960.6834
5987.1235
6026.5835
6080.8242
6161.3116
6270.7207
6434.6688
6625.0251
5929.093
5948.9231
5978.8449
6021.712
6078.3447
6165.7337
6286.3002
6470.8568
6680.6743
5911.3084
5933.8551
5967.1681
6013.0864
6072.2023
6165.8691
6297.3937
6507.1909
6736.4566
5891.0545
5916.4814
5952.4394
6000.6923
6063.4387
6162.0101
6303.1963
6543.9689
6795.3461
5869.1082
5897.1733
5935.0471
5984.8027
6051.7973
6155.0274
6303.6395
6581.3619
6867.5694
5846.3486
5823.6418
5801.8615
5781.6936
5763.6634
5748.1557
5735.5125
5725.9987
5719.9453
5876.3319
5854.4834
5832.5341
5810.9554
5790.3883
5771.2854
5754.0359
5738.8282
5725.4977
5915.5527
5894.197
5871.6453
5848.4248
5824.9665
5801.7668
5779.2843
5757.8526
5737.537
5965.9045
5944.1889
5920.29
5894.7086
5867.877
5840.9366
5814.1711
5788.4253
5764.1087
6036.2308
6016.2799
5993.0637
5966.9664
5938.0582
5907.5777
5875.601
5842.8199
5810.0241
6145.844
6132.0857
6114.3225
6091.8511
6064.6285
6033.9304
6000.7113
5966.6792
5933.1459
6301.2926
6294.4269
6285.2516
6271.3254
6249.1393
6219.1591
6181.6347
6138.834
6093.5915
6625.7216
6664.1692
6682.6533
6682.3169
6663.1313
6629.4983
6585.7669
6535.1058
6479.3531
6981.6362
7151.2096
7254.0101
7238.4222
7164.9939
7072.0279
6962.6704
6841.0357
6712.2307
5718.6181
5716.2841
5711.88
5705.9955
5698.6928
5689.7764
5679.3811
5666.8849
5652.7877
5717.0961
5709.4096
5700.2967
5689.2772
5676.5816
5662.2034
5646.0484
5627.5567
5606.7105
5722.6354
5711.51
5700.3813
5688.4718
5674.9614
5659.7548
5642.5594
5623.5067
5602.6011
5744.9116
5731.6463
5719.7162
5707.6667
5694.5779
5679.6398
5661.2941
5640.7968
5618.7912
5783.8864
5770.5785
5761.3233
5752.3037
5741.0168
5726.4516
5708.3955
5687.3869
5663.9703
5906.0911
5892.3736
5882.3326
5871.5556
5857.4215
5839.2872
5817.1027
5791.4573
5762.8476
6057.3314
6040.8077
6029.6415
6016.3052
5997.501
5972.7405
5942.5885
5908.4312
5871.9227
6425.6646
6379.4818
6334.3031
6285.9376
6232.2161
6173.3271
6110.3339
6044.5221
5978.8475
6599.4431
6500.7394
6401.8484
6301.3143
6198.8672
6095.8854
5995.4583
5901.5169
5814.774
5749.3637
5690.6775
5645.4695
5629.026
5641.0352
5670.674
5713.7566
5761.4698
5814.1156
5920.9279
5870.1492
5823.3908
5782.6371
5748.0274
5719.8555
5698.0529
5681.0843
5669.5008
5835.3435
5799.8764
5764.469
5729.9224
5696.4122
5663.5327
5631.076
5599.4491
5568.9599
5732.7592
5702.6293
5671.4583
5639.3586
5606.1215
5571.5364
5535.6925
5498.7683
5460.8126
5638.8344
5612.5714
5584.6103
5555.0886
5523.7705
5490.3424
5454.7573
5416.9135
5376.8276
5594.9189
5568.7151
5540.372
5510.0269
5477.5403
5442.8953
5405.9606
5366.6016
5324.2473
5580.1624
5556.0276
5529.8133
5501.1507
5470.5047
5436.7438
5400.5051
5362.3904
5320.6173
5583.8841
5558.8705
5531.5765
5502.1442
5470.2946
5435.8746
5398.8372
5358.6111
5315.7653
5634.4967
5613.8012
5591.1956
5566.6261
5539.8306
5510.2539
5477.7178
5441.8427
5402.6363
5360.3207
5314.3135
5264.4661
5211.1163
5152.953
5090.4002
5023.3048
4951.9901
4875.5414
5269.2671
5219.9996
5167.3301
5111.3144
5051.3103
4987.946
4921.4109
4850.1187
4774.5523
5275.746
5228.7167
5178.6225
5124.6055
5068.3415
5008.3527
4943.7703
4876.5021
4805.382
5279.423
5232.1295
5182.1621
5129.1175
5073.3987
5014.8907
4953.3146
4888.2921
4819.8113
5334.7496
5290.7716
5245.1442
5197.4892
5147.9394
5096.1497
5041.8778
4984.5899
4924.0273
5422.0206
5382.3705
5342.1806
5301.1195
5259.2876
5216.2828
5172.0787
5125.9135
5077.2463
5540.49
5513.5389
5488.4253
5465.5827
5443.3226
5420.6951
5398.9233
5375.2256
5349.7914
5663.5318
5661.7682
5665.003
5673.5849
5684.6239
5698.0598
5715.6518
5731.3883
5747.2953
5871.9906
5927.7626
5989.4812
6055.9916
6119.1321
6188.724
6262.9559
6335.4444
6412.9856
6494.0839
5764.711
5322.7957
5025.0146
4859.6519
4747.3737
4729.103
4695.8481
4794.6425
6567.4649
5779.5768
5293.0288
4969.0001
4791.1749
4670.4922
4648.7475
4612.3941
4708.205
6642.5304
5789.0682
5258.2883
4908.0828
4717.8348
4588.8074
4564.7347
4524.0488
4616.2886
6719.7458
5797.8726
5217.9346
4841.569
4639.279
4502.0988
4475.2468
4431.2567
4518.6396
6762.6894
5793.3792
5171.0687
4768.1453
4554.4415
4409.535
4379.8919
4333.9963
4415.3411
6807.5165
5772.5513
5114.8126
4686.8976
4462.8903
4310.8632
4279.6439
4231.3416
4306.6853
6814.089
5739.8373
5047.6774
4595.3978
4363.5883
4205.6409
4174.3956
4123.9019
4192.9352
6737.4325
5684.2669
4967.8441
4493.5683
4256.0378
4093.4556
4062.6058
4011.5862
4074.4725
6602.5839
5587.674
4873.6414
4380.3233
4139.2388
3973.9618
3944.8353
3894.5839
3952.3539
3832.3828
3772.6765
3819.2667
3845.2258
4008.4651
4249.0905
4754.0596
5455.3005
6492.7374
3713.9704
3645.3527
3685.8226
3706.8786
3862.4212
4095.8083
4601.9264
5296.6219
6409.8878
3574.3539
3512.6863
3545.3712
3559.1084
3702.3115
3921.5987
4423.1435
5121.7256
6325.6685
3426.2769
3375.8272
3398.9675
3403.0293
3529.8302
3728.1079
4221.2251
4921.4204
6198.684
3272.9644
3233.326
3247.2728
3239.2254
3346.6303
3521.0795
3999.6035
4693.0437
6022.5562
3120.6386
3087.2677
3091.6982
3069.5376
3152.5586
3300.6799
3760.6973
4438.8509
5805.6804
2965.6995
2940.5794
2931.9222
2894.6418
2950.6759
3065.4543
3503.2672
4161.9342
5571.6814
2813.2075
2791.7053
2769.7997
2713.4786
2741.8303
2820.201
3229.5413
3860.2223
5315.666
2659.0895
2642.738
2607.917
2533.391
2526.7433
2562.8778
2931.4578
3531.7975
5040.7401
4746.8615
3173.503
2618.4708
2293.803
2306.0844
2350.216
2446.3455
2496.591
2510.9786
4431.9834
2788.0411
2285.7093
2018.3099
2084.3695
2167.9451
2288.6991
2353.2765
2364.922
4073.2926
2379.2727
1937.3969
1735.0092
1864.6891
1990.6723
2134.425
2214.7953
2229.6078
3679.4121
1939.9881
1571.5477
1450.6098
1643.8646
1817.6642
1989.343
2084.8823
2098.8492
3254.2654
1472.4846
1193.5544
1165.8684
1431.5895
1653.9368
1851.6812
1964.0535
1984.7203
2796.4124
979.05614
806.48412
887.88755
1231.8438
1501.4058
1726.0842
1853.2397
1878.1166
2298.0883
455.68681
414.87811
624.17553
1042.9127
1363.13
1613.2778
1756.4628
1791.7574
1763.8213
-95.483077
24.337236
376.32094
872.36597
1241.9492
1515.5093
1674.1197
1716.7918
1178.6125
-672.87142
-353.1178
154.97152
727.59714
1139.632
1436.4521
1608.7239
1663.3371
1623.6387
1559.275
1375.3134
1057.9199
605.5411
-42.819114
-728.94978
-1309.5796
479.66437
1604.5251
1528.784
1335.4895
1003.3356
518.88031
-198.31028
-1063.5491
-2005.6089
-417.15216
1598.1373
1516.8017
1318.0158
978.38806
475.79031
-300.86195
-1327.8212
-2678.4205
-1460.2883
1610.9668
1520.4559
1322.4178
981.52912
473.69397
-345.69438
-1499.3462
-3280.5377
-2696.5924
1634.0795
1540.684
1347.4339
1009.8751
507.40853
-331.17762
-1554.2451
-3727.4629
-4199.9543
1670.6133
1575.7073
1391.6719
1064.1761
572.8919
-264.32657
-1476.4146
-3962.4012
-5984.7738
1711.1312
1620.2234
1449.4936
1141.8
661.88669
-154.86481
-1294.1493
-3914.2774
-8000.9711
1759.5051
1668.7107
1515.7105
1232.9988
778.57943
-11.878185
-1046.0502
-3535.049
-9691.0663
1789.6736
1722.8312
1590.6666
1333.0281
911.53095
146.49976
-819.92773
-2737.1352
-10772.501
1799.1497
1774.3174
1658.4719
1424.2994
1026.7233
288.99434
-682.30357
-1872.574
-11856.443
1805.772
1823.7471
1720.2029
1496.9563
1085.6917
306.79594
-804.30651
-2598.6741
-13916.105
1817.4895
1866.9114
1767.9441
1565.6341
1119.6426
273.31868
-1090.1565
-3698.5515
-16614.028
1824.7979
1909.5331
1809.4541
1643.1555
1157.0384
237.00149
-1420.4877
-4839.8392
-16497.199
1822.0208
1949.1679
1853.6387
1735.5641
1217.223
234.99898
-1691.065
-6128.7347
-13109.23
1800.6146
1986.4661
1906.1133
1837.643
1302.6673
261.88753
-1878.3866
-7460.5779
-12254.088
1760.8379
2015.5127
1958.4008
1947.5137
1405.7715
321.76326
-2079.4034
-8703.8
-13299.696
1699.6354
2034.1284
2010.7304
2063.3874
1525.6015
448.98641
-2393.368
-9725.3582
-14293.378
1621.8492
2035.9166
2054.5328
2181.6205
1665.8517
638.84094
-2778.1543
-10275.225
-14803.05
-14653.198
-10156.255
-3017.6272
841.39388
1814.4344
2296.0351
2089.6899
2016.9403
1526.9849
-14615.343
-10030.183
-3095.9824
1046.6246
1966.3381
2400.2164
2113.8182
1976.5535
1420.6459
-14499.919
-10010.993
-3099.1794
1280.4505
2133.6081
2491.5857
2125.1691
1915.826
1296.4984
-14411.099
-10047.824
-3071.4906
1511.8189
2311.5268
2575.6205
2120.421
1833.2279
1160.1055
-14294.339
-10092.535
-3038.8696
1746.4765
2482.4245
2646.5418
2095.4819
1729.2106
1010.8883
-14176.788
-10087.815
-3000.6293
1974.7723
2641.5065
2704.4843
2046.6676
1604.4302
852.67719
-14117.742
-10011.967
-2945.3302
2200.912
2791.0568
2744.7572
1975.6995
1462.7711
688.98772
-13917.616
-9877.4563
-2879.6665
2417.8447
2935.2474
2763.6827
1880.8084
1306.0472
523.75183
-13640.832
-9778.8562
-2770.501
2624.1846
3069.3811
2755.9306
1763.0944
1134.8924
359.87568
-13393.731
-9222.7198
-2300.8793
2976.0984
3257.014
2692.8528
1516.5199
822.94124
90.183816
-12998.22
-8342.1754
-1326.7207
3501.0912
3389.3687
2398.5751
1054.8893
342.74779
-263.19145
-12689.857
-7551.1973
-127.09878
3870.7633
3351.6035
1902.7716
454.39062
-150.87869
-525.6028
-12495.608
-6852.6538
908.6166
3884.7643
3126.6346
1215.0106
-173.00566
-572.87435
-694.70111
-11861.324
-6193.2207
1660.7147
3586.4669
2812.4313
420.41242
-781.96806
-890.52061
-756.44601
-11223.025
-5554.746
2143.4903
3149.6411
2400.9155
-461.04828
-1296.7887
-1060.2217
-717.68992
-10631.908
-4932.7139
2304.4989
2532.2468
1962.1552
-1386.9432
-1684.883
-1088.1181
-621.19623
-10129.449
-4381.1995
2225.5049
2066.5727
1319.8014
-2332.3935
-1899.4989
-987.15249
-516.94815
-9699.8905
-3887.2572
2102.58
1841.2537
743.9754
-3137.1936
-1907.3347
-828.99493
-440.59345
-9459.795
-8290.7301
-8165.2791
-4468.4239
-3494.8118
-3589.1674
-3486.4118
-2662.3214
-541.31678
-9463.1528
-8128.2807
-7850.2552
-4302.0057
-3562.6819
-3924.848
-3989.1229
-2939.5362
-674.22701
-9471.516
-7952.7394
-7501.7747
-4102.074
-3602.8598
-4251.7924
-4483.295
-3174.2664
-783.14525
-9480.4024
-7765.0934
-7120.9414
-3873.6977
-3608.4698
-4542.3986
-4959.4701
-3342.035
-865.06462
-9487.805
-7565.5696
-6711.873
-3611.4527
-3574.2687
-4768.0075
-5379.2388
-3439.3467
-918.35466
-9491.1322
-7360.3746
-6280.2839
-3323.1602
-3506.9387
-4889.0331
-5751.635
-3471.9858
-944.71156
-9483.7298
-7152.2158
-5827.548
-3010.252
-3397.7239
-4911.8811
-6037.5497
-3439.42
-950.56795
-9464.563
-6919.8363
-5343.2541
-2662.1768
-3243.8065
-4867.1786
-6183.523
-3323.8342
-941.97956
-9448.0423
-6671.3038
-4832.2778
-2279.5037
-3053.9574
-4750.3223
-6170.1861
-3127.9945
-937.46506
-8385.7887
-11152.523
-8196.1089
-1535.9273
183.01982
1128.9976
1478.4171
1833.0889
1269.478
-8278.4414
-11676.224
-8410.7624
-2255.2486
4.3465676
1060.9313
1351.77
1862.1661
1410.7491
-8186.4594
-12040.076
-8674.3627
-2971.0572
-284.98826
956.30019
1272.2209
1824.9642
1453.6283
-8110.2428
-12244.54
-8987.6413
-3623.8991
-665.46839
782.92315
1226.7234
1734.1023
1528.2566
-8198.1209
-12224.458
-9335.0196
-4241.5168
-1134.1696
528.71337
1135.2746
1619.9412
1578.169
-8507.2097
-12074.088
-9694.5968
-4798.6228
-1620.0746
216.89801
975.06146
1466.0569
1605.4217
-8792.1685
-11700.002
-10016.118
-5276.8324
-2137.7671
-150.13151
789.71602
1273.132
1589.0721
-8814.3241
-11627.825
-10253.992
-5627.4301
-2604.1345
-546.56835
561.30927
1068.6742
1534.7084
-8706.2628
-11130.186
-10374.156
-5846.7396
-2967.1665
-917.67411
309.7992
846.6376
1428.614
435.56687
-358.28076
-669.38665
-1904.465
-3158.2558
-5211.3391
-9171.5684
-9235.4314
-6936.4135
590.46369
-243.25595
-592.93741
-1868.4687
-3235.609
-5375.0211
-9504.8064
-9573.4187
-7089.565
732.11623
-116.62121
-505.09679
-1808.4901
-3284.929
-5500.0251
-9810.7937
-9867.6061
-7246.5985
854.61753
16.282592
-407.73371
-1725.0064
-3305.9431
-5601.6437
-10071.111
-10132.499
-7416.4334
965.17814
149.21676
-303.97169
-1625.0681
-3311.4246
-5691.4035
-10289.456
-10392.945
-7598.5713
1064.7199
279.03853
-197.65536
-1515.6392
-3305.9153
-5775.749
-10456.067
-10601.947
-7796.5372
1159.2456
404.87996
-89.770358
-1404.2656
-3281.2802
-5851.644
-10575.205
-10840.929
-8038.2861
1244.299
526.79253
16.458611
-1289.3834
-3237.8197
-5913.2262
-10627.829
-10918.992
-8462.8574
1319.3962
645.93173
122.9574
-1166.8175
-3169.8527
-5945.075
-10630.051
-11111.544
-8700.5385
-6706.6862
-8720.8589
-8703.2689
-4969.9501
-3048.6245
-1917.7517
-743.3144
-460.8205
275.65148
-6456.7441
-8092.4524
-7998.9576
-4673.5809
-2896.5644
-1902.0692
-809.09665
-547.59582
131.75467
-6244.7647
-7856.2578
-7260.8212
-4365.9384
-2738.0071
-1863.7539
-864.20558
-621.86815
8.8015621
-5828.1992
-7418.7568
-6526.9257
-4053.3609
-2577.8362
-1802.2058
-905.34176
-680.54047
-107.3216
-4515.4474
-6565.7781
-5800.932
-3739.2887
-2409.8002
-1719.3334
-927.76639
-720.01887
-218.32683
-4994.2486
-5719.5388
-5077.8483
-3411.897
-2228.7321
-1619.2255
-935.77315
-741.88973
-316.06044
-6336.0652
-4992.2348
-4388.7218
-3086.4645
-2042.4832
-1509.8006
-930.09853
-749.41738
-404.88465
-6319.204
-4392.8823
-3774.3175
-2777.9469
-1883.7121
-1411.6854
-927.5701
-748.84024
-468.9664
-5578.8028
-3919.2598
-3286.1182
-2529.9305
-1774.1203
-1324.4084
-923.98561
-738.20572
-511.06184
117.57692
226.6127
184.29255
100.43828
43.184325
-5.8398121
260.16091
848.4012
2493.3475
-63.674652
27.184689
-36.792122
-154.96515
-269.09543
-386.38822
-229.83164
239.87559
1906.5392
-218.03657
-153.01215
-240.34171
-392.90852
-562.15483
-757.47111
-719.65815
-401.00485
1250.6981
-347.00102
-311.63476
-419.96521
-610.18244
-839.22541
-1105.8163
-1190.058
-1051.2551
527.96206
-449.33344
-442.57
-575.01656
-797.96535
-1086.7192
-1432.9146
-1636.9227
-1700.202
-273.57694
-512.39867
-546.05421
-700.893
-958.41494
-1300.7822
-1727.9134
-2044.0226
-2315.0299
-1166.5779
-550.3757
-621.23164
-800.81878
-1083.9211
-1475.9862
-1982.0998
-2405.6029
-2875.2305
-2185.2817
-557.5679
-676.00531
-869.72344
-1182.5032
-1606.7789
-2194.1709
-2709.3763
-3323.462
-3340.6603
-536.49924
-715.73586
-910.00524
-1262.6984
-1696.8572
-2355.1154
-2950.867
-3614.6148
-4456.8867
2965.1984
1377.6871
720.55234
370.32768
357.411
364.3715
417.41773
440.24028
316.32162
3369.5661
1846.5923
1146.0809
732.0635
668.9578
631.66811
657.87359
664.10322
535.45088
3747.082
2287.2159
1561.1755
1090.6454
982.60163
902.14918
906.4808
895.143
767.20628
4105.8474
2703.1994
1959.409
1439.0511
1291.2367
1174.8085
1158.4868
1132.9233
1011.9039
4443.4985
3095.2761
2342.2559
1778.0211
1600.9166
1446.0847
1411.4811
1371.936
1255.9736
4770.115
3465.3562
2706.9947
2104.26
1899.047
1711.6319
1662.8454
1611.406
1500.0524
5079.5887
3814.4108
3054.7644
2418.7893
2189.6729
1973.3125
1914.2046
1847.7697
1744.0191
5381.5112
4143.4471
3383.0712
2716.1689
2470.2181
2224.1047
2158.2084
2079.4148
1989.3794
5673.5552
4453.5897
3693.0866
2998.6794
2737.9513
2467.5613
2395.2244
2305.2749
2232.3007
3971.1405
3919.5266
4061.9363
4110.6043
4496.597
4775.5439
5626.6567
6437.0635
8135.0145
3838.9493
3784.2596
3925.68
3982.3875
4373.5143
4659.7168
5516.4959
6335.0661
7877.5589
3691.7471
3637.5877
3775.5984
3840.9374
4224.637
4515.5429
5361.0476
6163.1743
7584.0204
3521.0584
3480.5745
3612.8237
3684.9129
4058.5162
4348.3239
5176.0447
5961.5724
7316.5137
3328.6769
3311.0826
3438.961
3514.5876
3874.6012
4160.9173
4969.7836
5746.4063
7064.3435
3125.0694
3129.8815
3250.9245
3329.8586
3673.6041
3960.8783
4748.1999
5520.5234
6799.4064
2913.5334
2937.9299
3053.1498
3132.8867
3459.9158
3743.8399
4511.2112
5279.1522
6527.9916
2694.971
2735.547
2844.6964
2922.9883
3232.9539
3512.4358
4256.8625
5021.1071
6246.7929
2468.0574
2524.0445
2625.0775
2699.4888
2992.8958
3263.806
3984.3845
4745.8034
5962.7006
4102.8366
4227.9987
4345.0349
4453.8306
4554.5397
4647.3003
4732.8199
4811.373
4883.7453
4046.1823
4164.5042
4274.5881
4377.3798
4472.6282
4561.1326
4642.8052
4718.662
4789.0714
4183.4022
4294.0632
4394.8614
4487.0399
4573.213
4650.9143
4724.2938
4791.3716
4853.4853
4227.7376
4334.3609
4432.038
4520.3564
4601.1782
4673.7236
4740.283
4800.5431
4857.1655
4597.8639
4679.7261
4752.2114
4815.736
4871.7472
4921.2965
4965.0241
5004.7679
5039.2657
4866.5047
4940.2088
5000.5619
5050.2201
5090.3582
5120.7197
5145.2068
5164.3763
5176.9435
5687.5261
5722.7342
5741.3045
5747.1568
5742.9583
5731.1544
5713.9967
5692.0775
5665.5471
6466.2681
6463.2811
6436.223
6393.4892
6336.6336
6269.7144
6195.1132
6117.8985
6039.2376
8156.0208
8098.9008
7995.9693
7869.6009
7733.8545
7590.1623
7434.934
7281.5821
7131.7281
4950.2402
4854.254
4912.0354
4908.8052
5072.8747
5187.568
5637.5745
5957.5591
6985.474
5011.5472
4914.8697
4966.0548
4955.7847
5102.9069
5196.3452
5611.7017
5872.5479
6842.8855
5067.8927
4971.5273
5014.5356
5000.791
5130.5768
5203.3438
5587.8722
5787.2275
6700.3028
5119.5538
5023.8727
5061.8907
5042.9798
5158.499
5210.5695
5563.3017
5704.9926
6558.1706
5167.0091
5072.9913
5106.0877
5082.5532
5184.3782
5217.5182
5539.5374
5626.087
6418.2211
5211.3815
5118.8
5146.4485
5119.9737
5209.4957
5224.5728
5517.2924
5550.2498
6281.8057
5252.2342
5161.6126
5186.2083
5155.8462
5234.125
5232.7418
5497.9141
5479.2347
6148.988
5290.0568
5202.2523
5222.3592
5189.5225
5258.097
5242.3887
5480.5051
5413.2969
6015.7432
5325.3812
5239.4029
5255.8127
5221.9059
5282.1052
5254.085
5466.3545
5354.8257
5882.3146
5535.5992
5482.7227
5489.6015
5457.8343
5492.506
5439.4118
5515.9887
5226.9273
5127.9516
5516.5817
5463.1041
5469.318
5437.6508
5469.832
5416.6238
5497.2726
5209.4909
5130.6248
5496.9972
5441.7639
5447.7701
5414.7323
5447.0022
5393.3443
5480.2486
5195.7347
5154.2725
5477.2914
5418.6185
5424.5842
5390.1788
5423.6738
5369.684
5465.7906
5189.8104
5204.0946
5457.1935
5393.5921
5400.3431
5365.0727
5400.5201
5346.1615
5455.2547
5192.7689
5279.9743
5435.8108
5366.5015
5375.2692
5337.9445
5377.4548
5323.601
5449.1615
5204.05
5379.9791
5412.3949
5337.309
5347.0822
5310.4079
5353.6322
5302.3846
5447.5701
5225.9996
5498.2981
5386.3604
5307.1813
5318.6062
5281.7134
5329.7209
5283.676
5449.7988
5259.6374
5625.4215
5357.2105
5274.3591
5288.9986
5253.0567
5306.1401
5267.747
5455.8676
5303.4415
5752.5681
5133.4359
5248.5808
5538.1446
5462.2368
5514.0456
5478.0618
5508.6208
5500.8177
5550.5924
5163.7864
5276.5197
5565.0531
5484.6346
5535.1056
5497.6154
5526.1138
5517.6493
5561.9705
5207.9406
5308.7221
5593.7084
5506.0979
5555.1365
5515.6627
5541.9554
5533.0961
5571.2387
5250.7856
5344.5465
5623.7919
5526.6929
5574.1573
5532.4103
5556.7629
5547.0826
5579.7269
5294.3171
5383.1752
5655.9185
5545.1935
5594.5017
5547.3709
5570.968
5559.0289
5586.4864
5346.1219
5422.669
5690.0461
5561.0626
5614.5856
5560.4881
5584.6378
5568.842
5592.6327
5417.287
5458.9493
5726.0018
5575.7755
5633.2608
5571.9229
5597.289
5576.8625
5597.6783
5506.1273
5492.1835
5760.9148
5591.2484
5649.6072
5583.2418
5607.8121
5584.1511
5601.9397
5599.9637
5526.3421
5790.5811
5611.1741
5662.0313
5596.8263
5615.2186
5591.4774
5603.6043
5702.0468
5569.3828
5814.1717
5644.1841
5672.5126
5618.0268
5621.1749
5601.4522
5601.8039
5798.4116
5628.0442
5833.1441
5689.4567
5688.8013
5647.7955
5633.269
5615.004
5605.0614
5882.4765
5692.9084
5850.5682
5728.6762
5707.7667
5674.44
5649.2592
5629.1143
5613.0221
5979.2625
5760.9803
5870.8302
5766.6069
5730.7462
5699.4317
5668.8228
5644.9003
5624.3646
6092.2934
5828.7935
5894.8137
5802.4406
5756.8642
5723.9525
5690.5187
5662.7246
5638.4804
6221.2735
5897.2944
5922.1857
5836.3568
5784.7093
5748.9155
5713.2465
5682.6388
5655.2291
6375.7071
5965.5573
5951.2949
5868.8579
5813.4013
5774.6704
5737.4638
5704.4488
5674.1776
6537.5769
6030.6583
5981.6349
5900.0911
5842.1795
5801.2142
5762.376
5727.7146
5695.9568
6626.608
6091.5801
6011.1327
5930.0504
5870.6189
5827.8356
5787.9544
5752.0021
5720.3475
5944.8843
5952.6862
5970.9534
6001.9212
6045.2752
6099.5945
6175.9399
6278.9785
6412.7172
5928.6595
5938.2324
5958.9777
5991.494
6036.3374
6091.4996
6172.086
6282.1824
6461.8399
5908.496
5920.4205
5943.6339
5978.2664
6024.1509
6079.2758
6162.2637
6275.6971
6489.6249
5884.8179
5899.6089
5925.8573
5962.6907
6008.2086
6063.939
6147.9917
6266.0909
6515.1302
5858.3678
5876.9947
5906.3367
5944.1105
5989.5507
6045.7867
6129.6854
6252.6262
6545.351
5830.66
5853.0568
5884.4528
5923.5411
5968.8509
6025.6465
6108.9182
6232.8649
6575.072
5802.252
5827.9397
5861.3926
5901.3442
5946.1531
6003.5485
6086.0629
6207.8707
6601.0365
5773.9695
5802.2715
5837.7326
5877.741
5921.7916
5980.2697
6061.8326
6175.6045
6621.9913
5746.5673
5776.8502
5813.2289
5853.3547
5896.8409
5956.29
6037.128
6137.9412
6633.1204
6666.9534
6707.9313
6748.3729
6789.9014
6833.2248
6866.6649
6878.3794
6855.0634
6765.839
6726.8368
6763.4354
6801.7201
6842.939
6885.2549
6917.0406
6923.7837
6893.7939
6796.5536
6782.502
6825.1638
6865.9177
6908.3025
6949.1957
6980.681
6984.2814
6943.0851
6831.6312
6860.3498
6906.8674
6948.6843
6991.5401
7032.2658
7060.3046
7062.7605
7004.6085
6876.5409
6947.7753
6998.2272
7046.5803
7092.9005
7135.7242
7160.8941
7161.8407
7086.7081
6925.7753
7048.9173
7103.5399
7160.2003
7215.2006
7264.8655
7292.105
7286.3853
7216.6801
7056.4854
7190.0736
7251.7755
7317.9746
7382.0114
7438.4895
7466.4669
7437.7086
7311.2595
7045.3952
7395.2584
7461.1793
7538.0392
7615.9237
7687.868
7744.8135
7772.9768
7741.9572
7656.1328
7676.0771
7742.5837
7829.6554
7925.3021
8014.157
8086.9162
8111.9266
8029.3049
7726.0203
10602.571
10108.907
9723.9763
9297.8426
8954.9215
8657.0794
8430.936
8265.9682
8155.5055
9062.7545
9211.8618
9168.0675
9108.0788
9001.0658
8871.6104
8724.3969
8573.168
8450.3799
8673.4055
8700.492
8681.9086
8658.2732
8612.2482
8554.7246
8484.1333
8399.6718
8310.6401
8263.7519
8313.2471
8289.6951
8288.9284
8267.2998
8243.9359
8214.0874
8175.0079
8119.3187
7938.1013
7975.1691
7962.0929
7971.3612
7959.2925
7948.0651
7933.3834
7915.87
7882.7196
7667.0736
7688.425
7674.6216
7684.8127
7673.4024
7667.3772
7655.4546
7647.2461
7625.4493
7442.9123
7448.1871
7436.7997
7436.4156
7427.0058
7420.5268
7408.7306
7402.4586
7387.0897
7238.4257
7238.4374
7222.9085
7223.1195
7208.6468
7203.3044
7189.2458
7181.9641
7168.0412
7056.9752
7046.9721
7035.1512
7026.2527
7013.7176
7003.5854
6990.0642
6980.08
6966.4217
6784.1168
6612.4475
6434.3086
6235.439
6017.2102
5749.8056
5433.1445
5053.4707
4770.8395
6798.8578
6625.1214
6444.9011
6242.9203
6017.1844
5746.8014
5421.8255
5049.1912
4714.8954
6806.8358
6632.221
6447.4038
6243.1293
6007.7566
5734.4085
5397.9391
5024.4241
4637.2277
6820.2554
6642.6218
6456.1616
6247.3725
6008.6073
5725.9112
5381.4875
4985.0815
4542.7906
6828.3994
6651.4955
6461.5031
6252.9563
6008.5825
5721.2436
5364.9356
4938.2169
4442.7989
6843.287
6662.268
6472.8987
6260.3718
6013.8361
5720.3199
5353.3861
4892.4718
4343.5364
6849.7397
6672.5584
6479.9399
6271.0913
6020.5667
5728.2653
5349.0884
4865.4645
4263.0752
6864.2514
6682.2868
6490.6492
6276.8084
6030.1426
5729.3412
5352.6178
4837.6868
4237.8142
6877.5891
6699.8776
6507.1763
6298.5024
6050.2221
5760.2868
5375.3513
4869.9348
4164.6546
4759.3526
4909.3154
5150.1609
5343.132
5457.7939
5545.3212
5633.1342
5718.9531
5812.5532
4667.7855
4828.6098
5114.4459
5328.2942
5446.2777
5535.9454
5627.3835
5717.2293
5812.7724
4551.749
4742.5012
5086.1962
5317.7468
5434.3273
5526.1817
5619.8223
5713.6636
5810.9176
4411.8975
4652.0973
5057.3525
5305.4483
5423.8064
5521.6777
5621.9303
5717.9013
5815.8048
4239.7741
4562.6389
5025.3347
5277.7118
5396.9185
5500.9432
5606.6312
5708.3112
5808.2963
3984.139
4515.2705
5040.2576
5287.2952
5405.5019
5511.9193
5619.0507
5719.9494
5819.0181
3606.4986
4349.9583
4981.6372
5236.9923
5366.5286
5484.6677
5600.3126
5705.6678
5807.2726
3267.885
4417.2008
5037.6041
5255.6119
5384.8979
5501.0164
5613.5103
5717.4815
5817.419
2248.8019
4255.9102
5003.263
5220.7579
5362.8567
5488.3413
5605.6291
5711.1308
5812.3605
5904.0488
5992.1658
6084.1292
6181.6515
6282.7922
6396.5878
6526.9309
6668.1196
6818.772
5907.3897
5995.8222
6089.5975
6189.6392
6290.7296
6407.5291
6539.7982
6681.489
6837.3238
5907.5614
5998.0233
6092.8527
6195.6085
6297.7749
6416.6889
6552.101
6694.652
6855.9101
5913.1765
6003.3523
6099.505
6203.4036
6306.5511
6426.9722
6563.9726
6708.1252
6873.2317
5909.1931
6000.401
6098.1485
6204.9669
6308.8247
6432.9538
6570.2174
6716.3207
6886.4888
5917.7185
6010.4788
6106.968
6214.7652
6319.2672
6443.8218
6583.3243
6727.0571
6903.4837
5909.7843
6002.1701
6103.3444
6210.4325
6316.7746
6443.7579
6582.2136
6731.8735
6903.9813
5917.8631
6011.1172
6109.5003
6218.7196
6323.6846
6450.9698
6591.3862
6737.9621
6916.2961
5914.1445
6007.74
6108.0791
6216.5494
6323.2966
6450.4869
6591.103
6739.1625
6915.7411
6990.9152
7172.434
7357.7365
7544.9639
7714.7818
7871.0547
7860.4654
7480.7054
6315.7868
7011.1434
7197.7578
7389.69
7588.7062
7775.9998
7933.1322
7942.082
7560.4166
6325.879
7032.0929
7221.9851
7423.2778
7633.2011
7837.0229
7994.9909
8019.5539
7652.4869
6375.0872
7052.2529
7245.6048
7454.0465
7672.6687
7886.054
8054.4558
8101.8828
7758.6048
6468.2368
7067.2434
7266.0125
7476.9306
7705.6656
7927.0545
8107.0459
8181.4441
7862.353
6601.2894
7085.4764
7283.9516
7504.5169
7735.8493
7962.7803
8148.3867
8249.7096
7952.5044
6776.2069
7093.6607
7295.6922
7517.1476
7753.5841
7980.2391
8168.8357
8291.178
8021.8064
6971.1631
7104.3024
7306.1882
7531.0619
7769.536
7997.9994
8191.7053
8329.8981
8077.6025
7070.5684
7106.9786
7308.3768
7534.1021
7773.1807
7998.611
8190.0602
8343.0829
8102.1199
7278.8873
6177.8519
6247.5274
6611.7337
6710.3753
6620.2759
6466.8637
6278.392
6044.3925
5770.0299
6161.8461
6219.1629
6631.2532
6754.7143
6671.3758
6521.7662
6339.5491
6103.1357
5827.0196
6140.0293
6171.3713
6615.8186
6775.1214
6703.2624
6567.2272
6391.9868
6157.7073
5882.8311
6103.5297
6141.3092
6609.0306
6802.9309
6738.546
6615.4143
6444.8437
6212.4497
5939.2625
6112.8028
6111.5992
6591.8883
6827.1882
6772.4487
6663.5665
6495.7781
6266.8567
5995.8314
6191.7188
6110.7187
6571.6545
6846.0271
6801.9119
6709.1096
6543.5613
6316.6216
6044.473
6264.1565
6116.5485
6551.0659
6856.7815
6825.9944
6750.782
6588.3605
6368.9881
6100.2351
6353.4513
6140.9853
6532.9362
6861.9451
6845.1117
6783.6801
6618.7163
6400.9223
6131.0777
6458.6034
6151.8972
6497.9156
6840.8702
6852.8526
6810.8529
6659.7803
6453.2712
6189.515
5465.3558
5136.705
4787.4741
4402.8126
3985.263
3542.0165
3074.9573
2583.1809
2071.3917
5523.9573
5195.5511
4844.435
4455.7545
4036.8008
3590.7023
3124.4007
2627.8309
2117.7229
5584.4428
5255.5798
4903.2234
4513.9055
4096.2997
3650.377
3186.7884
2692.6009
2186.8239
5644.5583
5312.7004
4959.6593
4569.2845
4152.8822
3705.8776
3244.2758
2749.7633
2247.2
5704.2912
5373.1404
5017.6366
4625.6976
4209.5121
3764.2366
3304.6215
2812.8946
2312.849
5753.2906
5422.83
5066.8649
4674.9776
4257.7271
3810.8232
3350.2975
2860.7419
2359.807
5812.7723
5481.2497
5130.3432
4741.8637
4329.8318
3887.5363
3428.568
2944.2146
2442.1583
5844.3176
5512.2706
5157.4653
4766.9942
4351.7213
3909.9206
3448.4527
2967.8332
2464.56
5908.7255
5585.134
5237.6226
4854.8974
4443.6525
4008.0528
3549.0103
3074.8817
2569.7786
1468.5659
787.17262
25.21387
-636.52804
-1336.6336
-2029.9752
-3137.4639
-5246.7733
-8368.4
1514.7193
861.39868
117.69777
-513.5473
-1187.0014
-1816.843
-2758.5365
-4781.5055
-7954.389
1593.2862
960.2188
240.91461
-418.49829
-1116.6411
-1822.8061
-2667.0401
-4509.2349
-7373.6079
1663.5459
1048.8358
355.78347
-314.44655
-1009.1502
-1720.2216
-2538.0562
-4187.8219
-6632.436
1737.9683
1135.3477
471.74054
-191.46005
-876.37317
-1582.2513
-2374.6816
-3794.8769
-5702.2962
1802.1435
1210.9182
577.44663
-79.121923
-758.39536
-1470.1848
-2236.459
-3439.1896
-4648.454
1896.1435
1316.0863
718.19122
74.373895
-582.47041
-1316.4364
-2004.7798
-3207.3075
-3370.5429
1934.4133
1361.5637
780.03818
150.7077
-496.33936
-1216.1479
-2005.7945
-2870.8173
-3689.3049
2056.8872
1508.1082
968.65334
366.72106
-227.46832
-911.23232
-1568.4712
-3240.08
1160.2857
-11222.436
-14048.915
-16377.555
-15230.928
-15236.08
-15223.323
-15329.563
-15682.847
-13781.113
-11074.499
-14278.16
-16297.713
-15096.563
-15047.382
-14995.457
-15055.617
-15487.709
-13723.886
-11057.967
-14614.071
-16058.329
-14947.896
-15172.889
-15202.786
-15259.286
-15404.499
-13617.522
-11202.653
-14920.333
-15756.71
-14882.349
-15111.271
-15002.423
-15054.22
-15237.231
-13511.108
-11425.621
-15120.326
-15281.931
-14846.035
-15152.658
-15145.158
-15176.51
-15114.385
-13390.954
-11144.835
-14994.328
-15020.066
-14894.347
-15094.981
-15021.345
-15049.305
-14957.184
-13224.423
-10038.96
-14697.498
-14842.151
-14893.032
-15105.403
-15092.077
-15061.579
-14781.293
-13028.972
-10851.895
-15207.873
-14646.658
-14981.388
-15062.589
-15032.978
-15005.29
-14660.87
-12873.493
-23204.364
-12920.985
-15063.801
-14992.36
-15067.499
-15017.917
-14957.412
-14502.305
-12758.686
-11530.71
-11222.927
-10806.44
-10521.03
-10249.498
-10226.296
-10405.017
-11030.871
-9452.5843
-11661.564
-11185.536
-10734.911
-10415.902
-10114.658
-10101.87
-10166.66
-10855.353
-9480.8653
-11696.159
-11153.55
-10712.886
-10386.207
-10093.407
-10090.465
-10109.669
-10602.397
-9439.0316
-11674.673
-11095.046
-10654.756
-10323.708
-10049.032
-10049.762
-10081.387
-10379.904
-9528.6187
-11630.306
-11039.54
-10575.977
-10247.577
-9995.2196
-9991.0076
-10046.041
-10171.918
-9544.6085
-11570.935
-11000.632
-10495.403
-10175.24
-9946.5811
-9945.4276
-10031.695
-10017.6
-9643.0523
-11516.563
-10966.394
-10419.631
-10108.62
-9907.0843
-9919.8803
-10011.292
-9911.1735
-9671.9084