/*--------------------------------*- C++ -*----------------------------------*\
  =========                 |
  \\      /  F ield         | OpenFOAM: The Open Source CFD Toolbox
   \\    /   O peration     | Website:  https://openfoam.org
    \\  /    A nd           | Version:  11
     \\/     M anipulation  |
\*---------------------------------------------------------------------------*/
FoamFile
{
    format      ascii;
    class       volScalarField;
    location    "0.035";
    object      rho;
}
// * * * * * * * * * * * * * * * * * * * * * * * * * * * * * * * * * * * * * //

dimensions      [0 0 0 0 0 0 0];

internalField   nonuniform List<scalar> 
880
(
0.2239950333699092
0.2239950333699093
0.223995033372963
0.2239950328024454
0.2239950333699093
0.2239950333699093
0.2239950333824655
0.2239950316960655
0.2239950333699093
0.2239950333699093
0.2239950345449058
0.2239960086205383
0.2239950333699091
0.2239950333699093
0.2239950294013873
0.2240233612503021
0.2239950333699093
0.2239950333699093
0.2239950333699092
0.22399503337033
0.2239950333699093
0.2239950333699093
0.2239950333704268
0.2239950333795404
0.2239952032752751
0.2239955080812602
0.2239958349262895
0.2239944776055008
0.2244692480481464
0.2256790401983775
0.226542464899398
0.2266968087442099
0.223995033404111
0.2239950334148791
0.223995033418896
0.2239950334147589
0.2239950360791626
0.2239950370982138
0.2239950374240679
0.2239950366889758
0.2239997772528164
0.2240002885053976
0.2240004644835427
0.2240004450225087
0.226828057510539
0.2270562097118389
0.2270398275096155
0.2274307967473736
0.2267375726830153
0.2256641030921736
0.224576546616685
0.2240729756782371
0.224004182413824
0.2240014405241235
0.2239974759463889
0.2239953713696717
0.2239950428304005
0.2239950402354136
0.2239950359455768
0.2239950337037515
0.2239950334880079
0.2239950334480345
0.2239950333922082
0.2239950333717594
0.2239950333699335
0.2239950333699093
0.2239950333699092
0.2239950333699093
0.2239950333789919
0.2239950333699273
0.2239950333699092
0.2239950333699092
0.2239950435140349
0.223995033405064
0.2239950333688607
0.2239950333694235
0.2239975968358917
0.2239950456540929
0.2239950329236345
0.2239950331672643
0.223995033349928
0.2239950333699042
0.2239950333699093
0.2239950333699092
0.2239950292436473
0.2239950332458247
0.223995033369165
0.2239950333699092
0.2239979593209334
0.2239950507913984
0.2239950334099635
0.2239950333707332
0.2239249336963092
0.22398757070304
0.223995016344481
0.223995033362767
0.2239950334217888
0.2239950375935361
0.2240017645409332
0.2299688620578814
0.223995033568754
0.2239950500122734
0.2240163966898288
0.234156324982842
0.2239950336485436
0.2239950565862269
0.2240232406634631
0.236055543766553
0.2239950337252812
0.2239950622535909
0.2240278582065943
0.2368538021794475
0.2375808174319639
0.2240332637504849
0.2239950695034142
0.2239950338266287
0.2384475247306608
0.224040181524241
0.2239950793477926
0.2239950339655177
0.2393069196532449
0.2240481398088212
0.2239950916018596
0.2239950341483313
0.2403834341318751
0.2240600439722017
0.2239951121361899
0.2239950344622087
0.2239950343103312
0.2239951010417051
0.2240592076041859
0.241373641787464
0.223995034502659
0.2239951139193194
0.2240658956064298
0.2415356725254498
0.2239950347632169
0.2239951254916087
0.2240677729454684
0.2399378281281944
0.223995033936595
0.2239950770611344
0.2240291830243254
0.2317485236696697
0.2239950313394298
0.2239944900780974
0.2239916328798511
0.2236406886422979
0.2239950323218173
0.2239942165034397
0.2237519022934311
0.2093235019741032
0.2239950324597865
0.2239941141953957
0.2235744286723209
0.1943509887221154
0.2239950326875644
0.2239940675981978
0.2234311141765903
0.1869314408161537
0.1944675082619021
0.2237123162965985
0.2239944642079248
0.2239950326957426
0.1960739362504676
0.2237390859591287
0.2239945676343198
0.223995032872851
0.1996333699002349
0.2238139087154429
0.2239947310249508
0.223995033060241
0.1962542035188908
0.223769385149402
0.2239946859279344
0.223995033042536
0.2128259686135171
0.2239483749785667
0.2239949650095821
0.2239950333006868
0.2220551308955407
0.2239913625507429
0.2239950292286362
0.2239950333667136
0.2235422340411087
0.2239938041249807
0.2239950316174039
0.2239950333682871
0.2232588773366736
0.2239927223344912
0.223995029706035
0.2239950333658917
0.221447780940932
0.2239784541097518
0.2239949910517979
0.2239950333156068
0.2214524286169239
0.2239784813728672
0.2239949911035177
0.2239950333156041
0.2214578107091371
0.2239785386538081
0.223994991189686
0.2239950333146455
0.2215255060008578
0.2239788725343337
0.2239949918644453
0.2239950333132889
0.2232588773366774
0.2239927223344471
0.2239950297059811
0.2239950333658305
0.2235422340411223
0.2239938041249
0.2239950316173209
0.223995033368269
0.2220551308954835
0.2239913625506865
0.223995029228632
0.2239950333666982
0.212825968613578
0.2239483749785091
0.2239949650096091
0.2239950333006898
0.2239950326957779
0.2239944642079463
0.22371231629662
0.1944675082615767
0.2239950328728421
0.2239945676343278
0.2237390859592616
0.1960739362503149
0.2239950330602507
0.2239947310249286
0.2238139087153682
0.1996333699000899
0.2239950330425452
0.2239946859279956
0.2237693851494109
0.1962542035188895
0.1869314408159823
0.2234311141765533
0.2239940675981554
0.2239950326875824
0.1943509887219754
0.2235744286723171
0.2239941141954408
0.2239950324597721
0.209323501973996
0.2237519022934357
0.2239942165034111
0.2239950323218541
0.2236406886422748
0.2239916328797945
0.2239944900780304
0.2239950313394801
0.2239950343103133
0.2239951010417541
0.2240592076042629
0.2413736417874698
0.2239950345026704
0.2239951139192925
0.2240658956064792
0.2415356725255756
0.2239950347631735
0.2239951254916328
0.2240677729454685
0.2399378281281895
0.2239950339366161
0.2239950770611108
0.2240291830243209
0.2317485236696654
0.2403834341319469
0.2240600439721322
0.2239951121362091
0.223995034462291
0.2393069196533133
0.2240481398088333
0.2239950916018631
0.2239950341483339
0.2384475247306515
0.2240401815242527
0.2239950793477959
0.2239950339655215
0.2375808174319285
0.2240332637505257
0.223995069503436
0.2239950338266456
0.2239950334218008
0.2239950375935562
0.2240017645409068
0.2299688620578534
0.2239950335688101
0.2239950500123304
0.2240163966898128
0.2341563249828693
0.2239950336486085
0.2239950565862565
0.2240232406634544
0.2360555437665019
0.2239950337252719
0.2239950622535795
0.2240278582066099
0.2368538021794404
0.2239950333627703
0.2239950333707279
0.2239950333699093
0.2239950333699092
0.2239950163444007
0.2239950334099351
0.2239950333691444
0.2239950333699093
0.2239875707029942
0.2239950507914224
0.2239950332458011
0.2239950333698999
0.2239249336962836
0.2239979593209358
0.2239950292436734
0.223995033349928
0.2239950333699092
0.2239950333699092
0.2239950333694313
0.223995033167279
0.2239950333699092
0.2239950333699092
0.2239950333688671
0.2239950329236512
0.2239950333699093
0.223995033369932
0.2239950334050332
0.2239950456540387
0.2239950333699241
0.2239950333789829
0.2239950435140499
0.2239975968358782
0.2239950334880114
0.2239950428303451
0.2240041824138282
0.2267375726830524
0.2239950334479762
0.2239950402354506
0.2240014405241473
0.2256641030921935
0.2239950333922208
0.2239950359455406
0.2239974759463562
0.2245765466166466
0.2239950333717544
0.2239950337037429
0.2239953713696964
0.2240729756781845
0.2274307967473423
0.2240004450224897
0.2239950366889389
0.2239950334148396
0.2270398275095727
0.2240004644835924
0.2239950374239851
0.2239950334190651
0.2270562097118748
0.2240002885054574
0.223995037098136
0.2239950334146167
0.2268280575104835
0.2239997772527425
0.2239950360791323
0.2239950334042045
0.2266968087441903
0.2239944776055637
0.2239950333795442
0.2239950333703442
0.2265424648993845
0.2239958349262577
0.2239950333703791
0.2239950333699093
0.2256790401983583
0.2239955080812482
0.2239950333699093
0.2239950333699092
0.2244692480481167
0.2239952032752446
0.2239950333699093
0.2239950333699093
0.2239950333699092
0.2239950333699093
0.2239950333729807
0.2239950328024375
0.2239950333699093
0.2239950333699093
0.2239950333824651
0.2239950316960707
0.2239950333699093
0.2239950333699093
0.2239950345449024
0.2239960086205471
0.2239950333699093
0.2239950333699092
0.2239950294013726
0.2240233612502477
0.2239950349798818
0.2239950313874724
0.2240034674068854
0.2243713932682932
0.2239950313874701
0.2239949982610674
0.2240687800065676
0.2262092022628743
0.2240034674068904
0.2240687800065748
0.2254120290637137
0.2337801704798362
0.2243713932683527
0.2262092022629429
0.2337801704799566
0.2557978322260576
0.2829867803330998
0.2597418608181553
0.2494874071368107
0.2357304342702558
0.2836705439898911
0.277643695596845
0.2748712661328461
0.2618438815605757
0.2857175695873637
0.286854493082226
0.2863137951230136
0.2791110140372285
0.2891016421498767
0.2924464654993393
0.2918173309169885
0.284572189746258
0.2861978448707016
0.2864506636158713
0.2866363410261746
0.2896711840268532
0.2930068600957444
0.2929758094533689
0.2930166526722541
0.2985745065755532
0.2933344884583025
0.2931690000236167
0.2931144579800208
0.2975150096341335
0.2893712711430793
0.2891388004331988
0.288966612585946
0.2873378239521406
0.2576037896443117
0.2388880225237728
0.228199871437085
0.2244994942917157
0.2477799882150774
0.2321834715331136
0.2274667546456047
0.224633909620206
0.226194589252974
0.2271491499705499
0.2277100480208964
0.2248457506008167
0.21059636610139
0.2220922942840823
0.2250259876006696
0.224120973834845
0.2240122767590997
0.2239951179520307
0.2239950238942179
0.2239950300279826
0.224022345375901
0.2239951699795159
0.2239950238449103
0.2239950296509878
0.2240349821389619
0.2239952742022026
0.223995026092722
0.2239950306236018
0.2239952950542703
0.2239949741816631
0.2239950294312727
0.2239950319378499
0.2239950328629423
0.2239950332676011
0.2240795362406859
0.2369234764853227
0.223995032891236
0.2239950333716092
0.2241393628079101
0.2487297328089727
0.2239950330301845
0.2239950333934315
0.2241831474508904
0.2566360022640399
0.2239950332128673
0.2239950333970718
0.2241948057645078
0.2546576390593591
0.3432278096708894
0.3662618481477159
0.3780502179735186
0.3800478543643853
0.3687905945492499
0.3762898281861861
0.3910879693728983
0.3944267157958123
0.3669939332252101
0.3682897149875649
0.3825790964219185
0.3875302615171557
0.3777211753802565
0.3697983903448372
0.3793663557222892
0.3847609030805808
0.3803798863886713
0.3806899185265178
0.3808986156687603
0.3810700528055197
0.3946138264905814
0.3946605714767212
0.3946210735115163
0.3944653783647626
0.3878605961108547
0.3878808395681613
0.3878431959880336
0.3876911274745383
0.3853161547985397
0.3853602826693114
0.3853612431697133
0.3850397255563978
0.3802280226105115
0.3776967289102837
0.362278195294555
0.3099424494847072
0.3949471749418964
0.3927466830003428
0.3760835831756645
0.3285515583633339
0.3891099329238619
0.3886362391297655
0.3729884033023818
0.329795668083759
0.3852861256944078
0.3843748303872013
0.3692997612573009
0.3590796519030415
0.2172001532748648
0.1236362213752077
0.07397832791188541
0.06208112906675086
0.1967839828582225
0.08934197697609714
0.06070732433964324
0.05208283701721763
0.147366353133932
0.07583493981494956
0.06407480070474218
0.05807944851109432
0.08922719372691575
0.05330851097845819
0.06648984377908798
0.06734818903421197
0.06136754374068731
0.06237274017002607
0.06574274415282381
0.06086591040046906
0.05013784442428193
0.05186006693405945
0.05776683528625534
0.05401472578080047
0.05734490673679291
0.05990848858521172
0.06474076940586664
0.05855618304602252
0.06807411924937061
0.07140941079744582
0.07305235219130428
0.05589810913037387
0.1362203369051376
0.191549569059421
0.2088210245512271
0.203278347181711
0.1112411956426151
0.1662261251360543
0.1910467963164626
0.1963548576955809
0.09417484145250155
0.1494865461290804
0.1771113187911428
0.1938072291552704
0.06477234109990446
0.1196480118974545
0.1635315542247268
0.1906833203607662
0.2031520661829674
0.1850644780429592
0.1659676812508496
0.1416429479464247
0.1709626761552691
0.1551365675142025
0.1465004913792315
0.1240306055625707
0.1195152949071863
0.09419799224631685
0.120160671281775
0.1233931410506137
0.09718313196618565
0.05172507292654942
0.05661501125030036
0.07060278896849051
0.07553591695636991
0.07140317115402969
0.05621824100119723
0.04689200011841382
0.1091902761387229
0.08605037004231221
0.06866403111910872
0.06442753545208954
0.099749275625321
0.08302595277570245
0.07668153400225779
0.0756485467491346
0.1232663738037592
0.1154659589033637
0.1133453921608634
0.1129643514576554
0.04689200011841713
0.06442753545208883
0.07564854674912834
0.1129643514576207
0.05621824100120212
0.06866403111910939
0.07668153400225552
0.1133453921608512
0.07140317115403266
0.08605037004230584
0.08302595277570474
0.1154659589033856
0.07553591695638034
0.1091902761387227
0.09974927562531929
0.1232663738037715
0.1416429479464549
0.1659676812508818
0.1850644780429837
0.2031520661829691
0.1240306055625821
0.1465004913792317
0.1551365675141931
0.170962676155258
0.1233931410506249
0.1201606712817755
0.09419799224633178
0.1195152949071871
0.07060278896850443
0.05661501125031003
0.05172507292655593
0.09718313196618275
0.1906833203607623
0.1635315542247216
0.1196480118974381
0.06477234109989254
0.193807229155266
0.1771113187911338
0.1494865461290684
0.09417484145249609
0.1963548576955782
0.1910467963164584
0.1662261251360335
0.1112411956426136
0.2032783471817099
0.2088210245512267
0.1915495690593824
0.1362203369051515
0.06086591040045861
0.06574274415280362
0.06237274017000521
0.06136754374064898
0.0540147257807977
0.05776683528626219
0.05186006693407135
0.05013784442428258
0.0585561830460144
0.06474076940587525
0.05990848858522994
0.05734490673679803
0.05589810913035032
0.07305235219129726
0.07140941079748239
0.06807411924938284
0.06208112906673886
0.07397832791164717
0.1236362213748512
0.217200153274744
0.05208283701722686
0.06070732433957191
0.08934197697598206
0.1967839828580741
0.05807944851110003
0.06407480070470115
0.075834939814879
0.14736635313388
0.06734818903421312
0.06648984377908979
0.05330851097845597
0.08922719372688431
0.3099424494846153
0.3622781952944901
0.3776967289102981
0.3802280226105139
0.3285515583632412
0.3760835831756166
0.3927466830003279
0.3949471749418898
0.3297956680837143
0.3729884033023412
0.3886362391297455
0.3891099329238701
0.3590796519030061
0.3692997612572798
0.384374830387183
0.3852861256944303
0.3810700528055238
0.3808986156688043
0.380689918526476
0.3803798863886425
0.3944653783647704
0.3946210735115617
0.3946605714767029
0.3946138264905469
0.3876911274745554
0.3878431959880581
0.387880839568129
0.3878605961108111
0.3850397255564137
0.3853612431697355
0.3853602826692665
0.38531615479849
0.3800478543643931
0.3780502179734939
0.3662618481477753
0.3432278096708987
0.3944267157958051
0.3910879693729077
0.3762898281862492
0.3687905945492456
0.3875302615171538
0.3825790964219282
0.3682897149876164
0.3669939332252278
0.3847609030805782
0.3793663557223086
0.3697983903448729
0.3777211753802548
0.2369234764853032
0.2240795362406821
0.2239950332674607
0.2239950328629493
0.2487297328089545
0.2241393628079
0.2239950333715423
0.2239950328912469
0.2566360022640311
0.224183147450877
0.2239950333934029
0.2239950330301971
0.2546576390593591
0.2241948057644951
0.2239950333970539
0.2239950332128726
0.2239950300279871
0.2239950238942284
0.2239951179520158
0.2240122767591091
0.223995029650992
0.2239950238449036
0.2239951699794963
0.2240223453759203
0.2239950306236061
0.2239950260927126
0.2239952742021806
0.2240349821389873
0.2239950319378527
0.2239950294312715
0.2239949741816287
0.2239952950543019
0.224499494291671
0.2281998714370565
0.2388880225237744
0.2576037896443459
0.2246339096201669
0.2274667546455872
0.2321834715331101
0.2477799882150942
0.2248457506007881
0.2277100480208895
0.2271491499705739
0.2261945892529776
0.2241209738348102
0.2250259876006605
0.2220922942840916
0.2105963661013949
0.2896711840268381
0.2866363410261774
0.2864506636158987
0.2861978448706806
0.2985745065755239
0.2930166526722895
0.2929758094534039
0.2930068600957332
0.2975150096340928
0.2931144579800728
0.2931690000236595
0.2933344884583077
0.2873378239521063
0.2889666125859959
0.2891388004332494
0.2893712711430824
0.2845721897462318
0.2791110140372023
0.2618438815606439
0.2357304342702877
0.2918173309169834
0.2863137951230433
0.2748712661328555
0.2494874071367667
0.2924464654993246
0.286854493082263
0.2776436955968442
0.2597418608180053
0.2891016421498869
0.2857175695874571
0.2836705439899161
0.282986780333021
0.22349634740345
0.2239924278579243
0.2239950275175897
0.223995033362614
0.222803268261066
0.223988500704736
0.2239950178255007
0.2239950333489374
0.2218327459501391
0.2239823127401064
0.2239950027111544
0.2239950333283581
0.220639697064517
0.2239757925899941
0.2239949890196949
0.2239950333121552
0.2239950333156641
0.2239949910518017
0.2239784541097471
0.2214477809409238
0.2239950333155742
0.2239949911035461
0.2239784813728815
0.2214524286169223
0.2239950333146478
0.2239949911896347
0.2239785386538093
0.2214578107090993
0.2239950333133124
0.2239949918644284
0.2239788725343738
0.22152550600082
0.2239950333120877
0.2239950333283919
0.2239950333489599
0.2239950333625703
0.2239949890196368
0.2239950027111506
0.223995017825516
0.2239950275176232
0.223975792589978
0.223982312740097
0.223988500704781
0.2239924278578999
0.2206396970644831
0.2218327459501279
0.2228032682611088
0.2234963474034599
)
;

boundaryField
{
    back
    {
        type            empty;
    }
    inlet
    {
        type            calculated;
        value           nonuniform List<scalar> 
16
(
0.2239950333699092
0.2239950333699093
0.2239950333699093
0.2239950333699091
0.2239950333699093
0.2239950333699093
0.2239950333699092
0.22399503337033
0.2239950333703442
0.2239950333699093
0.2239950333699092
0.2239950333699093
0.2239950333699092
0.2239950333699093
0.2239950333699093
0.2239950333699093
)
;
    }
    front
    {
        type            empty;
    }
    top
    {
        type            calculated;
        value           nonuniform List<scalar> 
40
(
0.223995033404111
0.2239950334148791
0.223995033418896
0.2239950334147589
0.2239950334880079
0.2239950334480345
0.2239950333922082
0.2239950333717594
0.2239950333699335
0.2239950333699093
0.2239950333699092
0.2239950333699093
0.2239950333699092
0.2239950333699092
0.2239950333707332
0.223995033362767
0.2239950334217888
0.2239950335687541
0.2239950336485436
0.2239950337252812
0.2239950338266287
0.2239950339655177
0.2239950341483313
0.2239950344622087
0.2239950343103312
0.223995034502659
0.2239950347632169
0.223995033936595
0.2239950313394299
0.2239950323218173
0.2239950324597865
0.2239950326875644
0.2239950326957426
0.2239950328728509
0.223995033060241
0.2239950330425359
0.2239950333006868
0.2239950333667136
0.2239950333682871
0.2239950333658917
)
;
    }
    outlet
    {
        type            calculated;
        value           uniform 0.2239950333699093;
    }
    bottom
    {
        type            calculated;
        value           nonuniform List<scalar> 
40
(
0.2239950333658305
0.223995033368269
0.2239950333666982
0.2239950333006898
0.2239950326957779
0.2239950328728421
0.2239950330602507
0.2239950330425452
0.2239950326875824
0.2239950324597721
0.2239950323218541
0.2239950313394801
0.2239950343103133
0.2239950345026704
0.2239950347631736
0.2239950339366161
0.223995034462291
0.2239950341483339
0.2239950339655215
0.2239950338266456
0.2239950334218008
0.2239950335688101
0.2239950336486085
0.2239950337252719
0.2239950333627703
0.2239950333707279
0.2239950333699093
0.2239950333699092
0.2239950333699092
0.2239950333699092
0.2239950333699093
0.2239950333699241
0.2239950334880114
0.2239950334479762
0.2239950333922208
0.2239950333717544
0.2239950334148396
0.2239950334190651
0.2239950334146167
0.2239950334042045
)
;
    }
    wall
    {
        type            calculated;
        value           nonuniform List<scalar> 
104
(
0.2829867803330998
0.2836705439898911
0.2857175695873637
0.2891016421498767
0.2893712711430793
0.2891388004331988
0.288966612585946
0.2873378239521406
0.21059636610139
0.2220922942840823
0.2250259876006696
0.224120973834845
0.2239952950542703
0.223994974181663
0.2239950294312727
0.2239950319378499
0.2239950332128673
0.2239950333970718
0.2241948057645078
0.2546576390593591
0.3777211753802565
0.3697983903448372
0.3793663557222892
0.3847609030805808
0.3853161547985397
0.3853602826693114
0.3853612431697133
0.3850397255563978
0.3852861256944078
0.3843748303872013
0.3692997612573009
0.3590796519030415
0.08922719372691575
0.05330851097845819
0.06648984377908798
0.06734818903421197
0.06807411924937061
0.07140941079744582
0.07305235219130428
0.05589810913037387
0.06477234109990446
0.1196480118974545
0.1635315542247268
0.1906833203607662
0.09718313196618565
0.05172507292654942
0.05661501125030036
0.07060278896849051
0.07553591695636991
0.07140317115402969
0.05621824100119723
0.04689200011841382
0.04689200011841713
0.05621824100120211
0.07140317115403266
0.07553591695638034
0.07060278896850443
0.05661501125031003
0.05172507292655593
0.09718313196618275
0.1906833203607623
0.1635315542247216
0.1196480118974381
0.06477234109989254
0.05589810913035032
0.07305235219129726
0.07140941079748239
0.06807411924938284
0.06734818903421312
0.06648984377908979
0.05330851097845597
0.08922719372688431
0.3590796519030061
0.3692997612572798
0.384374830387183
0.3852861256944303
0.3850397255564137
0.3853612431697355
0.3853602826692665
0.38531615479849
0.3847609030805782
0.3793663557223086
0.3697983903448729
0.3777211753802548
0.2546576390593591
0.224194805764495
0.2239950333970539
0.2239950332128726
0.2239950319378527
0.2239950294312715
0.2239949741816287
0.2239952950543019
0.2241209738348102
0.2250259876006605
0.2220922942840916
0.2105963661013949
0.2873378239521063
0.2889666125859959
0.2891388004332494
0.2893712711430824
0.2891016421498869
0.2857175695874571
0.2836705439899161
0.282986780333021
)
;
    }
}


// ************************************************************************* //
