/*--------------------------------*- C++ -*----------------------------------*\
  =========                 |
  \\      /  F ield         | OpenFOAM: The Open Source CFD Toolbox
   \\    /   O peration     | Website:  https://openfoam.org
    \\  /    A nd           | Version:  11
     \\/     M anipulation  |
\*---------------------------------------------------------------------------*/
FoamFile
{
    format      ascii;
    class       volScalarField;
    location    "0.035";
    object      T;
}
// * * * * * * * * * * * * * * * * * * * * * * * * * * * * * * * * * * * * * //

dimensions      [0 0 0 1 0 0 0];

internalField   nonuniform List<scalar> 
880
(
500
500
500.0000000027385
499.9999994997209
500.0000000000001
500
500.0000000112369
499.9999986649148
500
500
500.0000010393305
500.0008729723335
500.0000000000001
500
499.9999966092139
500.022497326475
500
500
500.0000000000001
500.0000000003976
500
500.0000000000001
500.0000000005177
500.0000000089892
500.0001582993438
500.0004743586768
500.0008112613218
499.9995175916931
500.4625144723528
501.8239048798713
502.9186469602626
503.1291218089805
500.000000030579
500.0000000401863
500.0000000437827
500.0000000400424
500.0000025984534
500.0000035583258
500.0000038556732
500.0000032643074
500.0049846124914
500.0055371644077
500.005680605998
500.005953764447
503.3009070713845
503.5497121237281
503.5359706340555
504.0519764613451
503.0834070256647
501.6592063922506
500.5247626787913
500.0677628807554
500.0092997734578
500.0060737101558
500.0021658420637
500.0002937066332
500.000008872257
500.0000062734025
500.0000022922299
500.0000002945251
500.0000001056308
500.0000000697912
500.000000019919
500.0000000016448
500.0000000000131
500
500.0000000000001
500
500.0000000080345
500.0000000000279
500.0000000000001
500.0000000000001
500.0000089060428
500.0000000313332
499.9999999990438
499.9999999995455
500.0022345224517
500.00001087949
499.9999996035996
499.9999998194671
499.999999982158
499.9999999999905
500
500.0000000000001
499.9999963185659
499.9999998890285
499.99999999933
500.0000000000001
500.002603430875
500.0000156895754
500.0000000360034
500.0000000007497
499.971259730294
499.993340359409
499.9999834110591
499.9999999934176
500.0000000463623
500.0000042029569
500.0079465738248
508.3370918589389
500.0000001783706
500.0000181426814
500.0296701430689
516.4412162536114
500.0000002500082
500.000025643521
500.0404475989907
520.1250815069947
500.0000003188589
500.0000318783038
500.0470465763925
521.4017737109245
522.4829016785159
500.0546295344521
500.0000398147341
500.0000004098218
523.7196790425286
500.0642401042382
500.0000505520841
500.0000005345472
524.9749367680855
500.0752806962711
500.0000638787953
500.000000698481
526.5830920264475
500.0924910386126
500.0000866519217
500.0000009811391
500.0000008438035
500.0000747161141
500.0917126751912
527.7503399826726
500.0000010164123
500.0000880654328
500.0998690024489
527.6383983183206
500.0000012500769
500.000098928361
500.0989125658156
524.5014012058509
500.0000004831527
500.0000424198116
500.0458016816234
512.0838772555574
499.9999802748043
499.9986089005982
500.0404154896687
505.540016281858
499.9999987849008
499.9989828092656
499.8371247423506
498.3747102831537
499.999999249918
499.9993078899036
499.7795732973932
491.1526058888638
499.9999994407611
499.9992791665184
499.6949456708962
486.1171413162269
490.6542130943374
499.8639704466758
499.9996097784683
499.9999994630692
490.2971889966747
499.8720556399844
499.9996784592213
499.9999996056427
492.7588119702241
499.9149564661574
499.9997946876853
499.9999997553425
491.1546233169173
499.8949295945905
499.9997713000449
499.9999997470258
494.4939654452314
499.9756997884493
499.9999549581435
499.9999999466583
498.590056032428
499.9972710461029
499.9999967400523
499.9999999973596
499.6165315557685
499.9989214339084
499.9999984444905
499.9999999985371
499.3889649270317
499.9980048643034
499.9999967644794
499.9999999963896
498.8064895010922
499.9887057753937
499.9999659285534
499.9999999538195
498.8056287799853
499.9887142518459
499.9999659573821
499.999999953784
498.794457887127
499.9887136576285
499.9999659794761
499.9999999529157
498.8245675814135
499.9888960289329
499.9999664519314
499.9999999516457
499.3889649270341
499.998004864293
499.9999967644701
499.9999999963752
499.6165315557771
499.9989214338807
499.9999984444617
499.9999999985447
498.5900560324138
499.997271046079
499.99999674004
499.9999999973518
494.4939654452394
499.9756997884206
499.9999549581459
499.9999999466582
499.9999994630859
499.9996097784849
499.8639704467378
490.6542130942128
499.999999605637
499.9996784592192
499.8720556399639
490.2971889965499
499.9999997553488
499.9997946876784
499.9149564661247
492.7588119701581
499.9999997470288
499.99977130008
499.8949295946067
491.1546233169678
486.1171413161366
499.6949456708768
499.9992791665046
499.999999440766
491.152605888819
499.779573297388
499.9993078899172
499.9999992499189
498.3747102831067
499.8371247423685
499.9989828092581
499.9999987849097
505.5400162818463
500.0404154896282
499.9986089005636
499.9999802748309
500.0000008437843
500.0000747161215
500.0917126752503
527.7503399827742
500.0000010164138
500.0000880654408
500.0998690024551
527.6383983184365
500.0000012500571
500.0000989283713
500.0989125658145
524.5014012058581
500.0000004831687
500.0000424197942
500.0458016816171
512.0838772555528
526.5830920265515
500.0924910385872
500.0000866519396
500.0000009811812
524.974936768168
500.0752806962312
500.0000638788019
500.0000006984888
523.7196790425796
500.0642401042816
500.0000505520792
500.0000005345478
522.4829016785297
500.0546295344304
500.0000398147363
500.000000409822
500.0000000463658
500.0000042029686
500.0079465738058
508.3370918589504
500.0000001783936
500.0000181427133
500.029670143078
516.4412162536187
500.0000002500191
500.0000256435113
500.0404475989696
520.1250815069843
500.0000003188587
500.0000318783174
500.0470465764358
521.4017737109216
499.9999999934167
500.0000000007471
499.9999999999999
500.0000000000001
499.9999834110312
500.0000000359893
499.9999999993245
500
499.9933403593786
500.0000156895947
499.9999998890216
500.000000000003
499.971259730276
500.0026034308699
499.999996318585
499.9999999821571
500
500.0000000000001
499.9999999995477
499.9999998194754
500.0000000000001
500.0000000000001
499.9999999990512
499.9999996036163
500
500.0000000000287
500.0000000313236
500.0000108794726
500.000000000004
500.0000000080354
500.0000089060465
500.0022345224437
500.0000001056212
500.0000088722288
500.0092997734614
503.0834070256906
500.0000000697578
500.0000062734304
500.006073710167
501.6592063922373
500.000000019929
500.0000022922068
500.0021658420528
500.5247626787541
500.0000000016463
500.000000294522
500.0002937066395
500.0677628807572
504.0519764613323
500.0059537644253
500.0000032643006
500.0000000400989
503.5359706340352
500.0056806060203
500.0000038556568
500.0000000439306
503.5497121237286
500.0055371644326
500.0000035583078
500.0000000399736
503.300907071381
500.0049846124976
500.000002598427
500.000000030632
503.1291218089704
499.9995175917002
500.0000000089937
500.0000000004062
502.9186469602542
500.0008112613095
500.0000000004883
500
501.8239048798704
500.0004743586737
500
500
500.4625144723457
500.0001582993259
500.0000000000001
499.9999999999999
500.0000000000001
500
500.0000000027464
499.9999994997213
500
500
500.0000000112419
499.9999986649247
500
500
500.0000010393349
500.0008729723396
500
500.0000000000001
499.9999966092046
500.0224973264324
500.0000013418978
499.9999973779916
500.0074636407586
500.3367200282603
499.9999973779837
499.999959061625
500.065837082524
502.045756064577
500.0074636407628
500.0658370825277
501.3086355361855
509.4928071258173
500.3367200283066
502.0457560646355
509.492807125924
531.1682144798862
556.5704275718336
535.2339680214202
523.4697061477331
510.6578197867062
554.848480188695
549.3334293593539
545.3767991699605
534.0014772670979
554.8499681130036
555.4910601256573
554.5465836450803
548.615061404992
556.7153446937557
559.2412849668847
558.6478750341091
553.1080168462623
554.4704653129455
554.6969681815707
554.8487438612939
557.5801407979442
559.6365065377169
559.7172481016762
559.792473061147
564.1939991210061
560.0312758027894
560.0632993758397
560.107146281102
562.9157725252908
557.0561307226429
557.0135189449842
556.9805685588858
553.4402245047222
531.7154605489511
514.4373498779768
503.9823576484854
500.4569000108444
526.2682548570369
509.5664003667052
503.4822006783526
500.5668430820317
508.2213564261629
505.0317181827391
503.73681870783
500.7017817975806
489.6854263549506
500.0905738152446
501.1615132541345
500.1492644143115
500.015111366584
500.0000748406789
499.9999916396305
499.9999970430138
500.0228153583934
500.0001018550847
499.9999910039431
499.9999967411438
500.0318583417055
500.0001209039877
499.9999901574623
499.999997689367
499.999532295904
499.9996848985599
499.999986395562
499.9999990790941
499.9999995472382
499.9999999128971
500.0748892163117
514.1402459242119
499.9999995896652
500.0000000043162
500.1268602878581
529.3912907836025
499.9999997498279
500.000000026067
500.1659389041013
541.1261665934317
499.9999999110073
500.000000028963
500.1875428059173
540.7834654543663
611.4681226006404
632.7970171295627
642.8410522738976
644.4469785155567
630.6781480020624
637.4952261217938
647.8371035799397
650.0083725353525
631.5703168389846
630.6801424819989
639.4442524846397
642.5941437059805
640.3950395311294
630.7919700643473
635.6965352630128
638.9710490801965
644.6959321604471
644.9200248573271
645.0728377361537
645.1956924808171
650.079306577506
650.0577775597353
649.9759770472375
649.7724558195683
642.7946661947672
642.7929335578432
642.7544394398917
642.5948721676098
639.3472802410556
639.3806378766736
639.3904125232818
639.1457005362898
644.7089284857184
641.6770084164765
628.0114082046331
586.3328762042795
649.7229479560604
647.2455352136055
634.8775667422584
615.6345551100624
643.0890010628813
641.6973252656654
632.0048243383112
631.3918780323727
638.8269456057614
637.7282023777192
632.3922605811994
626.4923186812506
539.9402981567323
495.3530698315164
389.8683381182
355.9740841848413
553.8126605670803
460.62334322707
345.7527197376007
305.7039850539074
532.7643764413002
434.353315244048
323.3808074306654
285.5645284752818
403.2056201864816
351.9264263239771
308.0766210307286
288.4024491923149
357.8021493835723
358.6058701945932
360.6778686595765
347.1370186082142
301.2446941228766
304.3989674919304
316.1820998787578
312.6907038585361
283.1745762570704
287.2011204054318
302.3897661796558
318.8655351560325
287.7140165466433
292.4978168406088
305.8062986188025
310.2263155335589
452.5311677201499
479.5752829897367
486.9398490676516
481.1311099120064
437.0184826501774
463.9232111061988
471.8606574902748
476.4477062155843
406.3949634464495
458.1639617558797
462.9821253260544
480.9676329933792
348.7042755952834
426.6960184846238
454.7045864742093
467.2689577821077
485.0142978144284
470.978531410522
457.6302120463063
438.9368915232427
455.7319423659525
443.4931395955227
429.9399812324193
401.0039632647705
387.2665759733748
353.0591398353592
393.8131982899778
390.3662045270044
343.9944583420424
236.1796255805566
246.7148936070001
285.7084295923988
299.0336819010738
290.8940205622817
260.5105097271559
237.9294518005385
366.4224676375431
331.2128112403099
300.3284247757146
292.4510972590523
369.0962236683508
343.6708623606756
333.1096954972865
331.4643879936821
422.3718749095538
414.9637923277037
412.3727698925343
411.8699433268439
237.9294518005422
292.4510972590484
331.4643879936741
411.8699433267882
260.5105097271563
300.3284247757063
333.1096954972819
412.3727698925135
290.8940205622945
331.2128112402947
343.6708623606786
414.9637923277391
299.0336819010979
366.4224676375424
369.0962236683548
422.3718749095641
438.9368915232669
457.6302120463297
470.978531410545
485.0142978144314
401.0039632647847
429.9399812324174
443.4931395955037
455.7319423659349
390.36620452701
393.8131982899712
353.0591398353916
387.266575973374
285.7084295924246
246.7148936070302
236.179625580586
343.9944583420377
467.2689577821031
454.7045864741946
426.696018484609
348.7042755953231
480.9676329933714
462.9821253260424
458.1639617558687
406.3949634464919
476.4477062155775
471.8606574902677
463.9232111061899
437.0184826501863
481.131109912005
486.9398490676511
479.5752829897257
452.5311677201345
347.1370186082368
360.6778686595285
358.6058701944806
357.8021493834496
312.6907038586086
316.1820998787778
304.3989674919238
301.2446941228474
318.8655351561237
302.3897661797147
287.2011204054675
283.1745762570791
310.2263155336504
305.8062986188772
292.4978168406782
287.7140165466663
355.9740841847707
389.8683381174721
495.3530698310442
539.9402981567699
305.7039850538725
345.7527197371912
460.6233432267916
553.8126605670899
285.5645284752669
323.3808074303746
434.3533152438053
532.7643764413889
288.4024491922947
308.0766210305738
351.9264263239252
403.2056201866098
586.332876204232
628.0114082045951
641.6770084165022
644.7089284857857
615.6345551100408
634.8775667422292
647.2455352135801
649.7229479560528
631.3918780323883
632.004824338286
641.6973252656317
643.0890010628399
626.4923186812993
632.3922605811832
637.7282023776922
638.8269456057212
645.1956924808326
645.0728377361851
644.9200248573345
644.6959321604504
649.772455819557
649.9759770472516
650.0577775597313
650.0793065775018
642.5948721675987
642.7544394399124
642.7929335578649
642.7946661947731
639.1457005362845
639.3904125232937
639.3806378767166
639.3472802410796
644.4469785155852
642.8410522739025
632.7970171295947
611.4681226007248
650.0083725353742
647.8371035799262
637.4952261218235
630.6781480021091
642.594143705967
639.4442524846261
630.6801424820053
631.5703168389441
638.9710490801872
635.6965352629898
630.7919700643415
640.3950395310486
514.1402459242004
500.074889216309
499.9999999127797
499.99999954724
529.3912907835929
500.1268602878507
500.0000000042579
499.9999995896745
541.1261665934175
500.1659389040898
500.0000000260418
499.9999997498412
540.783465454345
500.1875428059048
500.0000000289465
499.9999999110145
499.9999970430171
499.9999916396424
500.0000748406731
500.015111366588
499.9999967411497
499.9999910039439
500.0001018550697
500.0228153584067
499.9999976893741
499.999990157457
500.0001209039638
500.0318583417263
499.9999990790981
499.9999863955615
499.9996848985206
499.9995322959257
500.4569000108619
503.98235764844
514.4373498779612
531.7154605489798
500.5668430820211
503.482200678331
509.5664003666949
526.2682548570508
500.7017817975623
503.7368187078235
505.0317181827604
508.2213564261672
500.1492644142902
501.1615132541281
500.0905738152526
489.6854263549573
557.5801407979416
554.848743861309
554.69696818159
554.4704653129651
564.1939991209845
559.7924730611587
559.7172481017011
559.6365065377295
562.9157725252446
560.1071462810934
560.0632993758505
560.0312758027992
553.4402245046755
556.9805685588682
557.0135189449954
557.0561307226553
553.1080168462125
548.6150614049532
534.0014772671706
510.6578197867497
558.6478750340905
554.5465836450916
545.376799169989
523.4697061477035
559.2412849669001
555.4910601256975
549.333429359357
535.2339680213159
556.7153446937938
554.8499681130876
554.84848018873
556.5704275718048
499.6653421016952
499.9979496141671
499.9999950597031
499.9999999936535
499.254338842992
499.9950464955142
499.9999870173979
499.9999999818311
498.8365916900877
499.9908523297406
499.9999747849873
499.9999999642002
498.2533582832606
499.9864156723731
499.9999637602756
499.9999999503398
499.9999999538377
499.9999659285549
499.9887057753941
498.806489501073
499.9999999537714
499.9999659573886
499.9887142518549
498.8056287799687
499.9999999529216
499.9999659794618
499.9887136576284
498.7944578871247
499.9999999516642
499.9999664519258
499.9888960289513
498.8245675814111
499.9999999503106
499.9999999642148
499.9999999818418
499.9999999936461
499.9999637602576
499.9999747849886
499.9999870174
499.999995059714
499.9864156723646
499.9908523297321
499.9950464955359
499.9979496141606
498.253358283238
498.8365916900727
499.2543388430133
499.6653421017035
)
;

boundaryField
{
    back
    {
        type            empty;
    }
    inlet
    {
        type            zeroGradient;
    }
    front
    {
        type            empty;
    }
    top
    {
        type            zeroGradient;
    }
    outlet
    {
        type            fixedValue;
        value           uniform 500;
    }
    bottom
    {
        type            zeroGradient;
    }
    wall
    {
        type            zeroGradient;
    }
}


// ************************************************************************* //
