/*--------------------------------*- C++ -*----------------------------------*\
  =========                 |
  \\      /  F ield         | OpenFOAM: The Open Source CFD Toolbox
   \\    /   O peration     | Website:  https://openfoam.org
    \\  /    A nd           | Version:  11
     \\/     M anipulation  |
\*---------------------------------------------------------------------------*/
FoamFile
{
    format      ascii;
    class       volScalarField;
    location    "0.2025";
    object      rho;
}
// * * * * * * * * * * * * * * * * * * * * * * * * * * * * * * * * * * * * * //

dimensions      [0 0 0 0 0 0 0];

internalField   nonuniform List<scalar> 
880
(
0.2239950333699092
0.223995033384568
0.2239962279774781
0.224581622812451
0.2239950333699093
0.2239950333929633
0.22399760294106
0.225195041794606
0.2239950333699093
0.2239950335700621
0.2240023280471473
0.2264121995757208
0.2239950333699091
0.223995033314317
0.2240170581334552
0.2284938990157937
0.2239950333682203
0.2239950333687587
0.22399503326595
0.2239950619186715
0.2239950338300234
0.2239950412395101
0.2239953510770755
0.2239951289235184
0.2240631595598191
0.2241223806794329
0.2242559943858353
0.224157425052744
0.2331356505559561
0.2377885998338727
0.2411910139016689
0.2427571347705373
0.2239951438227054
0.2239954601776828
0.2239972426928753
0.224000095373494
0.224000158171919
0.2240093432817233
0.2240270693137266
0.2240482672994853
0.224832272113576
0.2254025284640645
0.2260412237857646
0.2268204725186665
0.2447738093567952
0.247737898382822
0.2499055718290651
0.2503923031267949
0.2416358034587453
0.2370061903427267
0.2356018342361354
0.2345835118380393
0.2293390539542209
0.2301833472979993
0.2308598693206261
0.2312213105253439
0.2242024692795715
0.2244035233742489
0.2246141346086462
0.2248307647302752
0.2240131813178618
0.2240436643571425
0.2240967679758137
0.2241513840730427
0.2241815883779107
0.2241819487351768
0.224156073914112
0.2241181334402805
0.2250320624845394
0.2251848830434254
0.2251663413934054
0.2250555646614403
0.2312623423246496
0.2312096016993835
0.2308936710775291
0.2303792917957273
0.2336381177917304
0.2331889365996332
0.2334845289227307
0.233882344088739
0.2337457443305544
0.2298253462564869
0.2249025459415072
0.2240762237039168
0.2328870403153616
0.2289087788878789
0.2247047337012638
0.2240413067946248
0.2395686203481608
0.2279575764279668
0.2244217090306983
0.2240087892456789
0.2755653821319143
0.2286919809936268
0.2242222817799198
0.2239976064408383
0.2239981546930087
0.2241306305958525
0.2324143980772952
0.3291375771939795
0.2240073553999402
0.224238852333751
0.2367338553845497
0.3348409528879481
0.2240313173743196
0.2245363771804516
0.24402056560465
0.3438937900091539
0.2240918476653654
0.2252085106911584
0.2534520594228736
0.3493275539769763
0.3541444962650994
0.265108475757309
0.2263667052252163
0.2242077179588556
0.3552095441692123
0.2779697482388147
0.228392438815554
0.224431425976953
0.3552330330333732
0.291642552924206
0.2314233874277703
0.2247840688216816
0.3528588343142545
0.3012127353504933
0.2358457774853842
0.2253902929370032
0.2262993611569758
0.2405846198582633
0.305742067176617
0.3425666212901605
0.2269668130220965
0.2404266066793345
0.2896454780263539
0.3189180706311015
0.2272537987249286
0.2362878588155019
0.271244485109141
0.2909964871851262
0.225840738657147
0.2315639939563827
0.2516108478770929
0.2573958119226732
0.2261980900178542
0.2313790425114557
0.2361349155197769
0.2097553893725296
0.2257819350819168
0.2276830616462307
0.2245942272977653
0.1555523913393441
0.2249707680753749
0.2258264651194526
0.2177613055538703
0.1211869487930366
0.2243637106497373
0.2246374360015054
0.2098006220011516
0.1080270840024606
0.1080051415714224
0.2050061313041523
0.2237624988174673
0.223978384788174
0.1065789114736971
0.2027263847534066
0.222954266903456
0.2239613275965539
0.1097118342473344
0.2020978083292922
0.2224013762799414
0.2239481009422707
0.1078580329834851
0.1994893212307907
0.221868106477548
0.2239406272132101
0.1229835609363751
0.2024788318959417
0.2221003746903286
0.2239495844821098
0.1392754101678586
0.2063897296703787
0.2227374691825411
0.2239723861758674
0.1493106184106433
0.2099366511916876
0.2232320027578857
0.2239854689508809
0.1604932218771405
0.2145892189417328
0.2237356936747074
0.2239915804210547
0.1744969802721347
0.2154644392057498
0.2233253374157683
0.2239747876900763
0.1712322331843057
0.2148257380332763
0.2233198153387199
0.2239765624034315
0.1681451710770459
0.2137102107260718
0.2232964820475397
0.2239784190892054
0.1655320978523411
0.2127118483122765
0.2232782613152947
0.2239804420341243
0.16049322187697
0.2145892189414753
0.2237356936747481
0.2239915804202681
0.1493106184106227
0.2099366511913405
0.2232320027574397
0.2239854689503649
0.1392754101677025
0.2063897296700997
0.2227374691821413
0.2239723861754517
0.122983560936378
0.2024788318955588
0.2221003746903591
0.223949584482067
0.2239783847884949
0.2237624988176029
0.2050061313041766
0.1080051415709303
0.2239613275964498
0.2229542669035177
0.2027263847532602
0.1065789114732799
0.2239481009425562
0.2224013762801356
0.2020978083286494
0.1097118342470286
0.2239406272133823
0.2218681064781744
0.1994893212305222
0.1078580329834662
0.1080270840020667
0.2098006220009655
0.2246374360012569
0.2243637106500823
0.1211869487927663
0.2177613055537423
0.2258264651192948
0.224970768075671
0.1555523913389531
0.2245942272977952
0.2276830616462216
0.2257819350824364
0.2097553893725203
0.2361349155195023
0.2313790425105629
0.2261980900174926
0.2262993611567309
0.2405846198590073
0.3057420671779568
0.3425666212903783
0.2269668130220062
0.2404266066792297
0.2896454780269381
0.3189180706313489
0.2272537987245253
0.2362878588162806
0.2712444851091191
0.2909964871850811
0.225840738656541
0.2315639939556464
0.2516108478773177
0.2573958119227286
0.3528588343143249
0.3012127353507443
0.235845777485174
0.225390292938201
0.355233033033464
0.2916425529249613
0.2314233874298243
0.224784068821361
0.3552095441689643
0.2779697482393979
0.2283924388153747
0.2244314259774685
0.3541444962650746
0.2651084757564921
0.2263667052246379
0.224207717959032
0.2239981546931376
0.2241306305958419
0.2324143980770891
0.329137577193682
0.2240073554006909
0.2242388523344308
0.2367338553843189
0.3348409528874687
0.2240313173753586
0.2245363771803217
0.2440205656041578
0.3438937900082732
0.2240918476655935
0.2252085106922807
0.2534520594238533
0.3493275539771613
0.2239976064408603
0.2240087892456148
0.224041306795093
0.2240762237039397
0.2242222817789824
0.2244217090304073
0.2247047337011123
0.2249025459413424
0.228691980993295
0.2279575764281008
0.2289087788875235
0.2298253462561828
0.2755653821316206
0.2395686203482038
0.2328870403154142
0.2337457443305039
0.2241181334405083
0.2250555646617608
0.2303792917960268
0.2338823440889791
0.2241560739138889
0.2251663413937836
0.2308936710778208
0.2334845289227014
0.2241819487351122
0.225184883043563
0.2312096016991946
0.2331889365990026
0.2241815883775652
0.2250320624843185
0.2312623423249245
0.2336381177917859
0.2240131813178205
0.2242024692789263
0.2293390539543838
0.2416358034589784
0.2240436643565705
0.2244035233742298
0.2301833472983704
0.2370061903426919
0.2240967679760849
0.22461413460817
0.2308598693205467
0.2356018342357273
0.2241513840727915
0.2248307647300302
0.2312213105256621
0.2345835118374142
0.2503923031265541
0.226820472518507
0.2240482672989693
0.2240000953739411
0.2499055718288581
0.2260412237859688
0.2240270693131048
0.223997242692746
0.2477378983828628
0.2254025284643743
0.2240093432806367
0.2239954601774618
0.2447738093565919
0.224832272113368
0.2240001581716503
0.2239951438233992
0.2427571347703571
0.2241574250530315
0.2239951289236096
0.2239950619192005
0.2411910139015472
0.2242559943856588
0.2239953510767085
0.2239950332660113
0.237788599833789
0.2241223806792721
0.2239950412392439
0.2239950333687753
0.2331356505558272
0.2240631595595531
0.2239950338299141
0.2239950333686777
0.2239950333699092
0.2239950333845767
0.2239962279775798
0.2245816228117018
0.2239950333699093
0.2239950333926648
0.2239976029410177
0.2251950417945882
0.2239950333699093
0.2239950335697932
0.2240023280470237
0.2264121995755845
0.2239950333699099
0.2239950333139324
0.2240170581333065
0.2284938990155512
0.2252828315523738
0.2265411757957002
0.229007541783747
0.2360931861918129
0.2265411757958565
0.2282977395012213
0.2334132178307627
0.2452856425550375
0.229007541783836
0.2334132178307689
0.2435112059111661
0.2597957646587012
0.2360931861919376
0.2452856425551315
0.2597957646588861
0.2789660725731571
0.2984089757923117
0.2819010415645605
0.2747304260342536
0.2597641910175422
0.2939095103340802
0.2894644343060415
0.2902550543693146
0.2824307301962988
0.2941247474321557
0.2927687283992848
0.2925632318698286
0.289419346698283
0.2925031777215686
0.2919066409134086
0.2918049913805658
0.2895503228873096
0.2863900541773003
0.2854773869606795
0.283383563266327
0.2784811066582954
0.2879364270658035
0.2861819211920779
0.2840108089979171
0.2791012070612303
0.2882807378473704
0.2864687584712521
0.2843990597633577
0.2798426612713886
0.2889863029692222
0.2867258155400622
0.2844847822933264
0.2757766046379339
0.2309793753743327
0.2111065958062694
0.2121262858509374
0.2147543169805954
0.2157822612164803
0.2053430292109376
0.2103406403744839
0.2134385629118029
0.2030025624556719
0.2053777165557262
0.2114799076508515
0.2143116842773919
0.1848367117113565
0.2010006306238301
0.2093783129771288
0.2125059417106986
0.2168293536420947
0.218935601771627
0.2215740818164285
0.2239653906541417
0.2156003919269241
0.2179632363433076
0.2207237963586574
0.2234190189401309
0.2160096941554822
0.2179772405030616
0.2200350488603247
0.2229229269409844
0.2145219049303216
0.217165704797179
0.2199564073273114
0.2228113985406719
0.2257412987066434
0.2299499574316757
0.2824632114693471
0.3444432736547302
0.2253389513513793
0.2319389299105933
0.2935398882897646
0.3369980262305511
0.2251045569418808
0.2335355333917669
0.2982504938711815
0.3290122324796392
0.225041095627066
0.2340434698192788
0.3044120907448158
0.3318667303575902
0.4220546922808311
0.4066231194436412
0.3977509004908544
0.389208620787086
0.4204597798312686
0.4080397511738187
0.39865537102273
0.3898387030166335
0.4164486365244334
0.4078578199522168
0.3987957893840363
0.389759042146922
0.4111044619113303
0.4090721729275581
0.400392284741732
0.3909058979433907
0.3890402089320523
0.3904669545024924
0.3876895402724859
0.3819353362623431
0.3892318891645224
0.3915751073531932
0.3916147772987872
0.3860203440271168
0.3880911539095226
0.3913244581335301
0.3937467231824203
0.3900330854912414
0.3888042523004584
0.3934534586999056
0.3956888359199165
0.3909592666321411
0.3612917423326041
0.335040128247196
0.3078918589672373
0.2714684178745235
0.3646912080813967
0.3383184288586946
0.308337106148414
0.2770539651299108
0.3709123818565642
0.3434482226985276
0.3090390696511141
0.274557664483724
0.3718957772404206
0.3497462367797315
0.3103374498367604
0.3143329201033059
0.1773771341855229
0.04844613946248415
0.0175023129437283
0.02065970661369433
0.1408979711736845
0.03478643185920582
0.02091649535122215
0.02534788314088357
0.1063154293629427
0.02536196351359279
0.02366959700694904
0.03072328258109745
0.07531115909916558
0.01807555516687696
0.0256059315780964
0.03297644375085999
0.02942634888388965
0.03791192030853453
0.04741226317587637
0.05625987355299524
0.03506667626982122
0.04517627779141485
0.05430924277480149
0.06285998117794511
0.04076095257256229
0.05115119312377038
0.05952265035411838
0.06969220806764601
0.04316410900948963
0.05500500191796864
0.06489418460424196
0.07578385494855351
0.08020802701434732
0.09392529933403811
0.1016486966254081
0.1093677969078357
0.08142617479701096
0.09615287153028954
0.1030151897110198
0.1109646152076276
0.08259458633423371
0.09627470675035993
0.1020159876531717
0.1080006974442358
0.07934347478241668
0.09343122192282788
0.1002633226580112
0.1089284914427559
0.09831360669336636
0.09528689834933318
0.09976818176407412
0.09835794120019944
0.08812391582985674
0.0800190075723919
0.08373222127083302
0.08396992972750586
0.07697210388331953
0.07194144293988788
0.07714643821690889
0.07975783504077361
0.06084221028374822
0.06411750459711905
0.07126872402773846
0.07599440358006723
0.08135537343413103
0.08425615752322102
0.08588046801278541
0.08657950153239224
0.08351844669191313
0.08540678552531071
0.0860012571534919
0.08640170664817237
0.08416812564950195
0.08460493749435823
0.08411792258937464
0.08384482318601656
0.09517885833676215
0.09164234097869892
0.08823298286214108
0.08634003671595232
0.08657950153239286
0.08640170664816596
0.08384482318600818
0.08634003671593807
0.0858804680127897
0.08600125715349434
0.08411792258936843
0.08823298286210252
0.08425615752323765
0.0854067855253285
0.08460493749437019
0.09164234097865584
0.08135537343416958
0.08351844669193996
0.08416812564952257
0.09517885833675931
0.09835794120025292
0.09976818176411312
0.09528689834935819
0.09831360669338203
0.08396992972753253
0.08373222127086312
0.0800190075724232
0.08812391582986086
0.07975783504080179
0.0771464382169155
0.07194144293988701
0.07697210388333715
0.07599440358009775
0.07126872402773964
0.06411750459709943
0.06084221028373874
0.1089284914427477
0.100263322657998
0.09343122192283482
0.07934347478257872
0.108000697444245
0.102015987653162
0.09627470675034122
0.08259458633434773
0.1109646152076235
0.1030151897110198
0.09615287153027194
0.08142617479713234
0.109367796907827
0.1016486966254155
0.0939252993339989
0.08020802701444872
0.05625987355331865
0.0474122631760579
0.03791192030858799
0.02942634888385111
0.06285998117825906
0.05430924277501603
0.04517627779157733
0.03506667626985286
0.0696922080679232
0.05952265035432128
0.05115119312395179
0.04076095257259595
0.07578385494876166
0.06489418460446483
0.05500500191819123
0.04316410900958124
0.02065970661374105
0.01750231294369372
0.04844613946212768
0.1773771341853163
0.0253478831409665
0.02091649535124633
0.03478643185910435
0.1408979711735052
0.03072328258117275
0.02366959700697386
0.02536196351357723
0.1063154293628229
0.03297644375091582
0.02560593157813046
0.01807555516687795
0.07531115909909324
0.2714684178744445
0.3078918589671191
0.3350401282471018
0.3612917423324506
0.2770539651298394
0.3083371061482757
0.3383184288585908
0.3646912080812704
0.2745576644836465
0.3090390696510025
0.343448222698419
0.3709123818565337
0.3143329201031421
0.3103374498366216
0.3497462367796039
0.3718957772405869
0.3819353362624012
0.3876895402723019
0.3904669545020867
0.389040208932569
0.3860203440272655
0.3916147772987257
0.3915751073529946
0.3892318891651286
0.3900330854914615
0.3937467231824477
0.3913244581332939
0.3880911539100903
0.3909592666326176
0.3956888359201831
0.3934534586999572
0.3888042523009327
0.3892086207863028
0.3977509004900958
0.406623119442809
0.4220546922804162
0.3898387030158083
0.3986553710221001
0.4080397511730263
0.4204597798309368
0.3897590421461022
0.3987957893835846
0.4078578199515289
0.4164486365242644
0.3909058979424528
0.4003922847413459
0.4090721729269063
0.4111044619112198
0.3444432736544135
0.2824632114691554
0.2299499574317079
0.2257412987067221
0.3369980262302935
0.2935398882895794
0.2319389299106064
0.2253389513515187
0.3290122324794716
0.2982504938709596
0.2335355333917714
0.2251045569420207
0.3318667303574229
0.304412090744607
0.2340434698192736
0.225041095627206
0.2239653906545351
0.2215740818163886
0.218935601771102
0.2168293536420865
0.2234190189405598
0.2207237963585421
0.2179632363427727
0.215600391926928
0.2229229269413984
0.2200350488601726
0.2179772405025419
0.2160096941555091
0.2228113985410947
0.2199564073271262
0.2171657047966287
0.2145219049303781
0.2147543169801318
0.2121262858505473
0.2111065958064339
0.2309793753745256
0.2134385629113377
0.2103406403740776
0.2053430292112124
0.2157822612166617
0.2143116842769816
0.2114799076504369
0.205377716556034
0.2030025624558713
0.2125059417102941
0.2093783129766571
0.2010006306242091
0.1848367117115893
0.2784811066581613
0.2833835632660922
0.2854773869607986
0.2863900541772268
0.2791012070610492
0.2840108089978343
0.2861819211922743
0.2879364270657012
0.2798426612712244
0.2843990597633085
0.286468758471439
0.2882807378472427
0.2757766046377779
0.2844847822933266
0.2867258155402675
0.2889863029690527
0.289550322886932
0.2894193466981383
0.2824307301962615
0.2597641910176286
0.2918049913803034
0.2925632318696839
0.2902550543691905
0.2747304260342098
0.2919066409131511
0.292768728399072
0.2894644343059656
0.2819010415643803
0.2925031777213825
0.2941247474319601
0.2939095103339361
0.2984089757920168
0.1666824553251917
0.2150539730481265
0.2235463117336346
0.2239890080433308
0.1634256322006762
0.2139073929105309
0.2233744803434211
0.2239849550161472
0.1633554731888272
0.2129376750098991
0.2233033775854643
0.2239831596384746
0.1614997333918969
0.2124058865828491
0.2232826762343984
0.2239819642931799
0.2239747876904003
0.2233253374155952
0.2154644392057401
0.1744969802718515
0.2239765624034586
0.223319815338435
0.2148257380333021
0.1712322331841455
0.2239784190894546
0.2232964820472073
0.2137102107260775
0.168145171077013
0.22398044203417
0.223278261315056
0.2127118483122863
0.1655320978523989
0.2239819642928661
0.2239831596384851
0.223984955016126
0.2239890080428324
0.2232826762340546
0.2233033775853044
0.2233744803431505
0.223546311733563
0.2124058865827995
0.2129376750098656
0.2139073929106373
0.2150539730480676
0.1614997333918245
0.1633554731887017
0.1634256322005457
0.1666824553249866
)
;

boundaryField
{
    back
    {
        type            empty;
    }
    inlet
    {
        type            calculated;
        value           nonuniform List<scalar> 
16
(
0.2239950333699092
0.2239950333699093
0.2239950333699092
0.2239950333699091
0.2239950333682203
0.2239950333687587
0.22399503326595
0.2239950619186715
0.2239950619192005
0.2239950332660113
0.2239950333687753
0.2239950333686777
0.2239950333699092
0.2239950333699093
0.2239950333699093
0.2239950333699099
)
;
    }
    front
    {
        type            empty;
    }
    top
    {
        type            calculated;
        value           nonuniform List<scalar> 
40
(
0.2239951438227054
0.2239954601776828
0.2239972426928753
0.224000095373494
0.2240131813178618
0.2240436643571425
0.2240967679758138
0.2241513840730427
0.2241815883779107
0.2241819487351768
0.224156073914112
0.2241181334402805
0.2240762237039167
0.2240413067946248
0.2240087892456789
0.2239976064408382
0.2239981546930087
0.2240073553999402
0.2240313173743196
0.2240918476653654
0.2242077179588556
0.224431425976953
0.2247840688216816
0.2253902929370032
0.2262993611569758
0.2269668130220965
0.2272537987249286
0.225840738657147
0.2261980900178542
0.2257819350819168
0.2249707680753749
0.2243637106497373
0.223978384788174
0.2239613275965539
0.2239481009422707
0.2239406272132101
0.2239495844821098
0.2239723861758674
0.2239854689508809
0.2239915804210547
)
;
    }
    outlet
    {
        type            calculated;
        value           uniform 0.2239950333699093;
    }
    bottom
    {
        type            calculated;
        value           nonuniform List<scalar> 
40
(
0.2239915804202681
0.2239854689503649
0.2239723861754517
0.223949584482067
0.2239783847884949
0.2239613275964498
0.2239481009425562
0.2239406272133823
0.2243637106500823
0.224970768075671
0.2257819350824364
0.2261980900174926
0.2262993611567309
0.2269668130220062
0.2272537987245253
0.225840738656541
0.225390292938201
0.224784068821361
0.2244314259774685
0.224207717959032
0.2239981546931376
0.2240073554006909
0.2240313173753586
0.2240918476655935
0.2239976064408603
0.2240087892456148
0.224041306795093
0.2240762237039396
0.2241181334405083
0.2241560739138889
0.2241819487351122
0.2241815883775652
0.2240131813178205
0.2240436643565705
0.2240967679760849
0.2241513840727915
0.2240000953739411
0.223997242692746
0.2239954601774617
0.2239951438233992
)
;
    }
    wall
    {
        type            calculated;
        value           nonuniform List<scalar> 
104
(
0.2984089757923117
0.2939095103340802
0.2941247474321557
0.2925031777215686
0.2889863029692222
0.2867258155400622
0.2844847822933264
0.2757766046379339
0.1848367117113565
0.2010006306238301
0.2093783129771288
0.2125059417106986
0.2145219049303216
0.217165704797179
0.2199564073273113
0.2228113985406719
0.225041095627066
0.2340434698192788
0.3044120907448158
0.3318667303575902
0.4111044619113303
0.4090721729275581
0.400392284741732
0.3909058979433907
0.3888042523004584
0.3934534586999056
0.3956888359199165
0.3909592666321411
0.3718957772404206
0.3497462367797315
0.3103374498367604
0.3143329201033059
0.07531115909916558
0.01807555516687696
0.0256059315780964
0.03297644375085999
0.04316410900948963
0.05500500191796864
0.06489418460424196
0.07578385494855351
0.07934347478241668
0.09343122192282788
0.1002633226580112
0.1089284914427559
0.06084221028374822
0.06411750459711905
0.07126872402773846
0.07599440358006723
0.08135537343413103
0.08425615752322102
0.08588046801278541
0.08657950153239224
0.08657950153239286
0.0858804680127897
0.08425615752323765
0.08135537343416958
0.07599440358009775
0.07126872402773964
0.06411750459709943
0.06084221028373873
0.1089284914427477
0.100263322657998
0.09343122192283482
0.07934347478257872
0.07578385494876166
0.06489418460446483
0.05500500191819123
0.04316410900958124
0.03297644375091582
0.02560593157813046
0.01807555516687795
0.07531115909909324
0.3143329201031421
0.3103374498366216
0.349746236779604
0.3718957772405869
0.3909592666326177
0.3956888359201831
0.3934534586999572
0.3888042523009327
0.3909058979424528
0.4003922847413459
0.4090721729269063
0.4111044619112198
0.3318667303574229
0.304412090744607
0.2340434698192736
0.225041095627206
0.2228113985410947
0.2199564073271262
0.2171657047966287
0.214521904930378
0.2125059417102941
0.2093783129766571
0.2010006306242091
0.1848367117115893
0.2757766046377779
0.2844847822933266
0.2867258155402675
0.2889863029690527
0.2925031777213825
0.2941247474319601
0.2939095103339361
0.2984089757920168
)
;
    }
}


// ************************************************************************* //
