/*--------------------------------*- C++ -*----------------------------------*\
  =========                 |
  \\      /  F ield         | OpenFOAM: The Open Source CFD Toolbox
   \\    /   O peration     | Website:  https://openfoam.org
    \\  /    A nd           | Version:  11
     \\/     M anipulation  |
\*---------------------------------------------------------------------------*/
FoamFile
{
    format      ascii;
    class       volVectorField;
    location    "0.2025";
    object      U;
}
// * * * * * * * * * * * * * * * * * * * * * * * * * * * * * * * * * * * * * //

dimensions      [0 1 -1 0 0 0 0];

internalField   nonuniform List<vector> 
880
(
(25 -1.947691025924248e-14 0)
(24.99999999939607 -4.545664847986327e-10 0)
(24.99993661653829 -4.325687204473274e-05 0)
(24.97166742460092 -0.005530657383314853 0)
(25 -2.163078323516028e-13 0)
(24.99999999391409 -4.737213815615119e-09 0)
(24.99983400308881 -0.0001775980641329459 0)
(24.94428891154904 -0.08232157762056015 0)
(25 1.836092904007492e-12 0)
(24.9999999950447 1.208178326279772e-08 0)
(24.99944735329612 -0.0004953573848581161 0)
(24.89822020260965 -0.1692467292891345 0)
(25.00000000000002 -6.631647838300049e-12 0)
(25.00000001370233 -7.655401926531779e-09 0)
(24.9980409742356 -0.001261279105524619 0)
(24.65950955003467 -0.3112020813023456 0)
(25.00000000012724 -1.601872249784844e-10 0)
(24.9999999993868 1.431067164674125e-09 0)
(25.00000000478327 1.466021168867264e-08 0)
(24.99999796850566 1.123065133612443e-06 0)
(25.00000017222816 -2.028171295473834e-07 0)
(24.99999810759252 7.586501190558054e-07 0)
(24.99998108518623 4.012130070350071e-05 0)
(25.00003728457551 -0.0001587748025472317 0)
(24.99260080163178 -0.002178230701457508 0)
(24.98561055042548 0.001282432799476079 0)
(24.97624145833138 0.01897518457996661 0)
(24.98775387389612 -0.02809503748261227 0)
(24.07452725927786 -0.07454338373649842 0)
(23.51089999017418 0.5518496629345577 0)
(23.25515003314664 1.144300224800692 0)
(23.19562248689219 1.505056565118569 0)
(24.99999514735846 -1.521668949493053e-05 0)
(24.99997266333486 -4.311163620042272e-05 0)
(24.99987932206882 -0.0001722128447780227 0)
(24.99974641940522 -0.0004932243491118152 0)
(24.99946228040337 5.239478633341956e-05 0)
(24.9984207720611 0.0004457811006103065 0)
(24.99654747741654 0.002509447722871387 0)
(24.99527870357159 0.003348583168687822 0)
(24.92314437388146 0.007944849823581216 0)
(24.85927432449333 0.06903521522119765 0)
(24.79288615417359 0.1738802114203737 0)
(24.75753377915189 0.2226398503056572 0)
(23.16165324756288 1.933461163604145 0)
(22.97981587805386 2.353535313720824 0)
(23.06240776110736 2.700421619167294 0)
(23.16264109871735 3.158305565679893 0)
(24.16086839489747 3.54842860938343 0)
(24.72613336594522 3.311044719439534 0)
(25.00990466327512 2.864744271617627 0)
(25.25025596020096 2.427447804981221 0)
(24.61914048289277 0.4644199426874707 0)
(24.6457614740851 0.7425080048043566 0)
(24.73781430104561 0.9280191900420548 0)
(24.88195564708176 1.004849576086028 0)
(24.98073693434816 0.01294975996461718 0)
(24.96384989119558 0.03682139004583908 0)
(24.9527784784841 0.07603951782906893 0)
(24.95668337068389 0.1191578089303034 0)
(24.99888143038875 -0.001416169889338776 0)
(24.99714056924423 -0.003972395748892291 0)
(24.99503165222155 -0.008102431457263078 0)
(24.9923005281922 -0.01234898268264756 0)
(24.98849343027275 -0.01358781403771924 0)
(24.98650028285416 -0.01289463663134438 0)
(24.98601211791344 -0.01098330779851989 0)
(24.98695192074795 -0.00867355514523579 0)
(24.97970175058321 0.1513064670457366 0)
(25.01475804913641 0.1600099310946449 0)
(25.03734285998873 0.1484659230167117 0)
(25.04842092806079 0.1292844216066943 0)
(25.04712532263823 0.9783654226718898 0)
(25.20141638202333 0.9027159124350662 0)
(25.29786639384643 0.810352166314015 0)
(25.3499637539022 0.7012179097272688 0)
(25.44054702231566 2.004308757289309 0)
(25.61149128571562 1.5866589877968 0)
(25.79277647931476 1.20630281780514 0)
(25.93075656763451 0.8512421598372446 0)
(25.93920245636877 0.6698163698602801 0)
(25.3614942241399 0.577876288909575 0)
(25.05104480304858 0.1026894958940441 0)
(24.98903183949944 -0.006138844031077952 0)
(25.84338852043974 0.4910706622758683 0)
(25.34591986624397 0.46938326490244 0)
(25.04733269048793 0.07488188303717343 0)
(24.99190010058296 -0.003950362789163679 0)
(25.23477103470263 0.676692669944142 0)
(25.30769519281206 0.2654407876519133 0)
(25.03948598234532 0.03786964333419927 0)
(24.99529472473006 -0.001734072526801433 0)
(21.75772447622603 1.318831503178162 0)
(25.03723868744014 0.2342153456699695 0)
(25.01973383310887 0.01404892930131573 0)
(24.99802844586469 -0.0006580536369179379 0)
(24.99916685156203 -0.0006147906909369233 0)
(24.99797457449152 0.01034822905936548 0)
(24.43748332441109 0.3422214168762275 0)
(17.03732617077435 2.531536099959346 0)
(24.99891584351477 -0.001092077460322729 0)
(24.98418108808484 0.01524208684914195 0)
(23.9454960757747 0.6285902215313286 0)
(16.70030544600422 4.372402057178615 0)
(24.99815959140258 -0.003160047731234958 0)
(24.95196581362408 0.04135304237195466 0)
(23.25871274266541 1.186190941659503 0)
(15.85768145584381 6.039046979003593 0)
(24.99418838054049 -0.007503309841293972 0)
(24.90762669563936 0.09629326769333527 0)
(22.61289392566306 1.979602843834782 0)
(15.60485558999176 7.459733546298581 0)
(15.55439595852194 8.716421745489635 0)
(21.9081950313279 3.04748060076334 0)
(24.81704289996068 0.2178820537663639 0)
(24.98853261949196 -0.01688735918178145 0)
(15.47294590024041 9.815231792346054 0)
(21.34692355586444 4.260645391167079 0)
(24.70584599141494 0.4156298365964962 0)
(24.97432433225392 -0.03188006189335358 0)
(15.81951038245544 10.5614902478167 0)
(20.91077706225392 5.446427646481813 0)
(24.52554269022698 0.7500761616744658 0)
(24.95505467725838 -0.05559945839431574 0)
(16.27416935672036 11.12725474154277 0)
(20.60115238244852 6.655913183839355 0)
(24.34563447168346 1.20757385406969 0)
(24.91712658368675 -0.08597215624919916 0)
(24.86796081621169 -0.132895425161228 0)
(24.13968257318222 1.871859324893467 0)
(21.25935876597444 7.333975901939658 0)
(17.61313351739549 11.1704480802173 0)
(24.82469293752986 -0.1673865540955236 0)
(24.51825368831766 2.000081776033232 0)
(22.71125240303044 6.809889522696194 0)
(19.736097982508 10.57136340438827 0)
(24.95626163296921 -0.1551261084636216 0)
(24.89481264940173 1.679706885369379 0)
(24.52293225272789 5.715197573684371 0)
(22.62715711388805 9.60805929886204 0)
(24.80292105227368 -0.2601035707095297 0)
(25.0964535625806 1.16116547342364 0)
(25.60316568063361 4.078805429688102 0)
(25.67970760565694 7.30630186593569 0)
(24.86749104365831 -0.06613188869526937 0)
(25.31237716691527 1.097677128381894 0)
(26.81215060733151 2.885571775017588 0)
(29.93412533640866 4.506337193451679 0)
(24.91150477278778 -0.02744557070882873 0)
(25.64480975382309 0.7255428336731986 0)
(27.32209307740248 1.656607557424108 0)
(32.61370935874722 0.8637934054191626 0)
(24.97249047970662 -0.0349210227639754 0)
(25.65989049194097 0.3553088587294195 0)
(27.29063929479112 0.508861811219492 0)
(32.56295141296416 -2.130644141624959 0)
(25.02021600399306 -0.02374940326836982 0)
(25.45009001544483 0.1045720730694559 0)
(26.8476642307829 -0.4107192470061337 0)
(27.85467773349537 -1.72734906250045 0)
(24.03675154727949 -3.028651427124227 0)
(26.22794246580134 -1.379790247698259 0)
(25.27307096135097 -0.1498365641812104 0)
(25.01978915542507 -0.01150009850555493 0)
(20.50390170780862 -4.12344653315706 0)
(25.41030796238287 -2.162458587302805 0)
(25.10926436188266 -0.2723082562101271 0)
(25.00569445760639 -0.008348040358269315 0)
(17.0222387981433 -6.928876175686224 0)
(24.50848446143786 -2.578320689334549 0)
(24.98831637938965 -0.2612238611636429 0)
(24.99973717599397 -0.008374425991943185 0)
(13.63170628955124 -7.903804219942972 0)
(23.65239467802186 -2.793793251718385 0)
(24.88578292936347 -0.2718851332217195 0)
(24.996215880555 -0.008984438903010299 0)
(14.11538275702405 -7.433884445612792 0)
(23.30606943585693 -2.21192805364729 0)
(24.857791722099 -0.1857246148364647 0)
(24.99699748423089 -0.003794874788722196 0)
(16.23406900532776 -6.285306972255785 0)
(23.43652538670563 -1.432541767742261 0)
(24.88787360496832 -0.09696834991926008 0)
(24.99845644610393 -0.001499239524541377 0)
(17.77243000236975 -3.437904797210212 0)
(23.75376853575836 -0.71878122385558 0)
(24.93119702309421 -0.04092473880971564 0)
(24.99929088032562 -0.0005822282271844236 0)
(19.93174656858328 -2.309730422169106 0)
(24.19986731047063 -0.5160599445999459 0)
(24.97736585536921 -0.03587091127039958 0)
(24.99976488391986 -0.0003288503007943698 0)
(19.93962759817069 0.42187994515064 0)
(24.17833919475708 -0.009714905473177049 0)
(24.92760531859669 -0.00284209482263535 0)
(24.99765467029911 -7.351537997523643e-05 0)
(19.65371852572369 1.427271896759243 0)
(24.12764878342471 0.009265212303233215 0)
(24.93061946187342 -0.006650164296250473 0)
(24.99797958932954 -0.0002123720553047068 0)
(19.21812138612048 1.609416950613204 0)
(24.03071009652122 0.01370988803253438 0)
(24.93086857243448 -0.007493674743701949 0)
(24.99829420799423 -0.0002219106606959916 0)
(18.92521753164063 1.520387578239243 0)
(23.95433236951752 -0.006039067971815892 0)
(24.93072527593264 -0.007999963667730915 0)
(24.99854213881486 -0.0002306522628687553 0)
(19.93174656860728 2.309730422149406 0)
(24.19986731053954 0.5160599445829279 0)
(24.97736585548683 0.0358709112073708 0)
(24.99976488401224 0.0003288502900497125 0)
(17.77243000239216 3.437904797174082 0)
(23.7537685358158 0.7187812238629158 0)
(24.93119702312445 0.04092473882926875 0)
(24.99929088036703 0.0005822282689673358 0)
(16.23406900534665 6.285306972251548 0)
(23.43652538674001 1.432541767776707 0)
(24.88787360497195 0.09696834997193761 0)
(24.99845644612093 0.001499239533398584 0)
(14.1153827569883 7.433884445590128 0)
(23.30606943588396 2.211928053705416 0)
(24.85779172209626 0.1857246148548825 0)
(24.99699748423287 0.00379487480903711 0)
(25.01978915540266 0.01150009851538124 0)
(25.27307096133705 0.1498365641554875 0)
(26.22794246578725 1.379790247687159 0)
(24.0367515472435 3.028651427177792 0)
(25.0056944576086 0.008348040381387336 0)
(25.10926436187175 0.2723082562154811 0)
(25.41030796237586 2.162458587281123 0)
(20.50390170773287 4.123446533185172 0)
(24.99973717596571 0.008374425994282501 0)
(24.98831637938173 0.2612238611663789 0)
(24.50848446147696 2.57832068940799 0)
(17.02223879806752 6.928876175736078 0)
(24.99621588053803 0.008984438893943712 0)
(24.88578292932187 0.2718851331870815 0)
(23.65239467803686 2.793793251777307 0)
(13.63170628949729 7.903804219950437 0)
(27.85467773345183 1.727349062526603 0)
(26.84766423078692 0.4107192469844335 0)
(25.45009001546031 -0.1045720730322706 0)
(25.02021600399122 0.02374940326871887 0)
(32.56295141293736 2.130644141667794 0)
(27.29063929479444 -0.5088618112239124 0)
(25.6598904918953 -0.3553088587548866 0)
(24.97249047972894 0.03492102279127713 0)
(32.61370935876849 -0.8637934054032724 0)
(27.32209307739352 -1.656607557426848 0)
(25.64480975376453 -0.7255428336460734 0)
(24.91150477281509 0.02744557075202819 0)
(29.93412533641232 -4.506337193435911 0)
(26.81215060735128 -2.885571774999361 0)
(25.31237716690987 -1.09767712834271 0)
(24.86749104384232 0.06613188824256766 0)
(24.86796081622066 0.1328954251967796 0)
(24.13968257304436 -1.87185932486893 0)
(21.25935876587739 -7.333975901951498 0)
(17.61313351741502 -11.17044808022009 0)
(24.82469293751682 0.1673865541150355 0)
(24.51825368830671 -2.000081775993853 0)
(22.71125240299002 -6.809889522674878 0)
(19.73609798252098 -10.57136340438398 0)
(24.95626163277546 0.1551261089456135 0)
(24.89481264935042 -1.679706885359626 0)
(24.52293225274843 -5.715197573671034 0)
(22.62715711391218 -9.608059298854087 0)
(24.8029210522097 0.2601035705470164 0)
(25.09645356264384 -1.16116547338122 0)
(25.60316568061679 -4.078805429680456 0)
(25.67970760566228 -7.306301865927177 0)
(16.27416935674434 -11.12725474153707 0)
(20.60115238244659 -6.655913183919077 0)
(24.34563447167553 -1.207573854101874 0)
(24.91712658356637 0.08597215624176308 0)
(15.81951038247041 -10.56149024779259 0)
(20.91077706230155 -5.446427646420354 0)
(24.52554269026093 -0.7500761617067011 0)
(24.95505467725566 0.05559945840730264 0)
(15.47294590022097 -9.815231792350147 0)
(21.34692355584512 -4.260645391141126 0)
(24.70584599164092 -0.4156298364558729 0)
(24.97432433217053 0.03188006186601793 0)
(15.55439595852111 -8.716421745499884 0)
(21.90819503124832 -3.047480600860463 0)
(24.81704289970689 -0.217882054003032 0)
(24.98853261950414 0.01688735918963118 0)
(24.99916685155052 0.0006147906915215345 0)
(24.99797457448558 -0.01034822905958578 0)
(24.43748332440938 -0.3422214168930278 0)
(17.03732617078857 -2.531536099979161 0)
(24.9989158434413 0.001092077463930057 0)
(24.98418108805688 -0.01524208682808877 0)
(23.94549607582603 -0.6285902215288268 0)
(16.70030544603448 -4.372402057212259 0)
(24.99815959131102 0.00316004773981568 0)
(24.95196581347059 -0.04135304244336519 0)
(23.25871274259367 -1.186190941695391 0)
(15.85768145581889 -6.039046979018256 0)
(24.99418838048393 0.007503309838844464 0)
(24.90762669590806 -0.09629326758332393 0)
(22.61289392577999 -1.979602843747163 0)
(15.60485559005644 -7.459733546283179 0)
(24.99802844586182 0.0006580536333005167 0)
(24.99529472474139 0.001734072523428065 0)
(24.99190010054739 0.003950362801731514 0)
(24.9890318395013 0.006138844040035476 0)
(25.01973383320466 -0.0140489292515042 0)
(25.03948598237173 -0.03786964334195827 0)
(25.04733269051244 -0.07488188303138192 0)
(25.05104480304724 -0.1026894959344463 0)
(25.03723868748392 -0.2342153456720201 0)
(25.30769519279844 -0.2654407876678208 0)
(25.34591986628054 -0.4693832649094556 0)
(25.36149422416383 -0.577876288921075 0)
(21.75772447625608 -1.318831503183715 0)
(25.23477103469709 -0.676692669938998 0)
(25.84338852043641 -0.4910706622740212 0)
(25.93920245636845 -0.6698163698588411 0)
(24.98695192072609 0.008673555159258262 0)
(25.04842092803219 -0.1292844216033655 0)
(25.34996375389689 -0.7012179096957564 0)
(25.93075656762852 -0.8512421597980878 0)
(24.986012117928 0.01098330779727695 0)
(25.03734285996016 -0.1484659230026535 0)
(25.29786639384038 -0.8103521662960932 0)
(25.79277647931015 -1.206302817798247 0)
(24.98650028285212 0.0128946366352142 0)
(25.01475804912009 -0.1600099310850135 0)
(25.20141638204432 -0.9027159124578434 0)
(25.6114912857699 -1.586658987809388 0)
(24.98849343030238 0.01358781402322592 0)
(24.97970175060182 -0.1513064670484182 0)
(25.04712532265163 -0.9783654226688445 0)
(25.4405470223313 -2.004308757284694 0)
(24.9988814303857 0.001416169868885841 0)
(24.98073693439926 -0.01294975991202723 0)
(24.61914048287547 -0.4644199427029195 0)
(24.16086839487508 -3.5484286093593 0)
(24.99714056928828 0.003972395701011084 0)
(24.96384989120658 -0.03682138998170868 0)
(24.64576147407322 -0.7425080048032203 0)
(24.72613336592663 -3.311044719432487 0)
(24.99503165219435 0.008102431469819493 0)
(24.95277847851148 -0.07603951781128701 0)
(24.73781430107866 -0.9280191900872924 0)
(25.00990466332975 -2.86474427164454 0)
(24.99230052820744 0.01234898266483048 0)
(24.95668337070376 -0.1191578089045529 0)
(24.88195564708197 -1.00484957609113 0)
(25.25025596021865 -2.427447804993714 0)
(23.16264109872646 -3.158305565677451 0)
(24.75753377913703 -0.2226398503381849 0)
(24.99527870363684 -0.003348583099373075 0)
(24.99974641937671 0.0004932243623505516 0)
(23.06240776113713 -2.700421619149932 0)
(24.79288615414379 -0.1738802114201491 0)
(24.99654747748602 -0.002509447659113224 0)
(24.99987932208873 0.00017221279843315 0)
(22.9798158780506 -2.353535313702377 0)
(24.85927432446207 -0.06903521522300829 0)
(24.99842077214599 -0.0004457811041783171 0)
(24.99997266334313 4.311157307360338e-05 0)
(23.16165324756804 -1.933461163603862 0)
(24.92314437387884 -0.007944849839635454 0)
(24.99946228045184 -5.239477990389594e-05 0)
(24.9999951473002 1.521670496119073e-05 0)
(23.19562248693421 -1.505056565107751 0)
(24.98775387390436 0.02809503749676953 0)
(25.00003728458143 0.0001587748113080143 0)
(24.99999796847824 -1.123042872028825e-06 0)
(23.2551500331751 -1.144300224801404 0)
(24.9762414583635 -0.0189751845650224 0)
(24.99998108524354 -4.012131588265213e-05 0)
(25.00000000478031 -1.465969097318759e-08 0)
(23.51089999019796 -0.55184966294549 0)
(24.98561055044706 -0.00128243279498818 0)
(24.99999810762446 -7.586535376330312e-07 0)
(24.99999999938352 -1.442609268140096e-09 0)
(24.07452725929685 0.07454338371398041 0)
(24.992600801648 0.002178230690457475 0)
(25.00000017222846 2.028211691184527e-07 0)
(25.00000000010235 1.723629475758927e-10 0)
(25.00000000000001 1.971492377262356e-14 0)
(24.99999999939721 4.452451054712321e-10 0)
(24.99993661652482 4.325686988091055e-05 0)
(24.97166742421068 0.005530657425086807 0)
(25 2.473748898870101e-13 0)
(24.99999999392988 4.734281432477313e-09 0)
(24.9998340030844 0.0001775980533521687 0)
(24.94428891146249 0.08232157758912395 0)
(25 -2.536891132248101e-12 0)
(24.99999999504537 -1.2084047506799e-08 0)
(24.99944735329474 0.0004953573746367589 0)
(24.89822020260015 0.1692467292592511 0)
(24.99999999999996 9.813322285049982e-12 0)
(25.00000001375922 7.650321048020937e-09 0)
(24.99804097425276 0.001261279096896228 0)
(24.65950955005269 0.3112020812740118 0)
(24.94431042604061 -1.156380616459938e-11 0)
(24.89430676771635 0.08921853585627298 0)
(24.74090909763489 0.1684825529774256 0)
(24.10102139158486 0.1029605516295817 0)
(24.89430676784047 -0.0892185359234537 0)
(24.78056371853863 -4.649680379308154e-11 0)
(24.37051704298566 -0.008374546043825253 0)
(23.18965659249563 -0.3638742928379036 0)
(24.74090909770463 -0.1684825530307599 0)
(24.37051704303719 0.008374545981310122 0)
(23.28123087520953 -2.126650708621488e-11 0)
(21.26540061146417 -0.5408942500311242 0)
(24.1010213915759 -0.1029605516802165 0)
(23.18965659249999 0.3638742927837259 0)
(21.26540061146359 0.5408942499797416 0)
(18.88841259942427 -2.871326884708497e-11 0)
(18.20300329594428 2.621409366387767 0)
(18.91334985905704 3.067853684925075 0)
(20.71276779923291 2.700358225230855 0)
(22.27220761158824 1.76156683262141 0)
(19.17214208436967 4.381769350079135 0)
(19.30057141911352 4.373042529554511 0)
(20.13163123175315 4.304228498076752 0)
(21.28108219747493 4.01817004553007 0)
(19.06420242820968 5.486576610720286 0)
(19.87171316497349 4.641679332213116 0)
(20.62311662646938 4.833574886639559 0)
(21.31096845255281 4.688712469310417 0)
(19.63209376858426 5.948200704423593 0)
(20.5397499522204 4.902609452137161 0)
(21.11039675471599 5.062980834120133 0)
(21.53476071076946 4.971671460806915 0)
(21.83758473305491 5.14185607713081 0)
(21.95951347192604 5.234535808172448 0)
(22.22547598095018 5.282570409697807 0)
(22.72542059935927 5.416429776218665 0)
(21.60209435299904 5.182924045247423 0)
(21.85099716989007 5.308535054442729 0)
(22.14017123058295 5.344386616611193 0)
(23.21011799245881 5.650491592484417 0)
(21.22605554935789 5.052100486512254 0)
(21.62522332301149 5.244613555062556 0)
(21.96784707883771 5.312366186842172 0)
(24.57888844268894 6.055493391686149 0)
(20.32289954211402 5.950740651703836 0)
(20.83474309555962 6.086635763182348 0)
(21.24383790480544 6.180111939546786 0)
(26.18497190590545 7.372407860836237 0)
(26.34693571098907 3.178222035935149 0)
(26.77576180809043 0.7184023047420107 0)
(26.04790064092544 0.4348586902859459 0)
(25.83526957701979 0.4264118437332637 0)
(28.66561646850253 2.16646710537445 0)
(28.70353988892446 0.3139375455445584 0)
(27.52958183696643 0.2941717860641983 0)
(26.82878158576224 0.3926361575740304 0)
(31.76736749670215 1.857143797085815 0)
(29.95057925756683 0.06848576347440306 0)
(28.43139200148436 0.09348324889161776 0)
(27.46406848650707 0.1512344681727696 0)
(25.59634081275046 1.547102651839653 0)
(24.0289212824413 0.712221426446202 0)
(23.62086285148553 0.3132796864735695 0)
(23.3939498675485 -0.06960771070653989 0)
(25.7655146206817 0.3394050798273086 0)
(25.75426917462757 0.1959555373051516 0)
(25.77330633074042 0.06367016631951576 0)
(25.86891888547051 -0.09347417378288712 0)
(26.3734662525166 0.3422205100248361 0)
(26.04074698471389 0.1996769944659701 0)
(25.87968251999159 0.05954693820834147 0)
(25.858339792434 -0.06221575008037759 0)
(26.75869970858433 0.1350263567977418 0)
(26.15321861003605 0.05648476019675458 0)
(25.90361804860782 -0.008796128948684341 0)
(25.73264076496721 -0.02373809176808554 0)
(23.25257661972292 -0.5005781399071565 0)
(23.24074054297089 -0.5672199956335368 0)
(23.3309802112375 -0.5740216376460906 0)
(23.43671083592514 -0.6573713766489752 0)
(25.89557775109902 -0.1054357338894053 0)
(25.71116416943357 0.1642464808134417 0)
(22.00701608856316 3.690606800253301 0)
(15.97558598780224 3.790371832454452 0)
(25.88105475960695 -0.1087147224813194 0)
(25.51163538120175 0.3489917590667455 0)
(19.14369702359469 4.065631587383645 0)
(11.90551460842819 2.403978470435267 0)
(25.77508790849508 -0.05416007527895472 0)
(25.0900345988881 0.3887319821724369 0)
(16.02692466736743 3.220483107782032 0)
(6.575604074274695 2.553720515730725 0)
(24.01921720322071 -0.7650071479538058 0)
(22.89496264237759 -0.7197988573603947 0)
(12.67711501686605 -1.080369466797641 0)
(2.575541322444952 0.06894949148960512 0)
(12.20702875080943 5.17393789772529 0)
(13.46803829936672 6.621537837439796 0)
(13.97423366893456 7.849908932953501 0)
(14.58104653678885 8.757483625061191 0)
(10.50670855501206 4.883849025775976 0)
(12.90013659954404 6.582461996196364 0)
(13.80729676045493 7.993495825578467 0)
(14.45870594111992 8.901525326411807 0)
(7.54041141238537 3.19825656013814 0)
(11.14564444056604 5.810448716089457 0)
(12.9801176969067 7.891113510503386 0)
(13.93381271641066 8.93339750729521 0)
(2.627875691126756 2.284927665935894 0)
(6.240267619613316 4.084028526941402 0)
(9.96000652493311 5.34920330297801 0)
(12.12327251933274 6.619269296140613 0)
(15.2606847685648 9.041328880520679 0)
(15.10691031665967 9.280885162754279 0)
(15.1761945036124 9.95357841343565 0)
(15.60705999436192 10.74304984374865 0)
(15.14156747837247 9.247775548202437 0)
(15.34373017155792 9.501374634739419 0)
(15.41033834327628 10.06145872484399 0)
(15.57631150398828 10.60709108193448 0)
(14.70442165363765 9.418787390724455 0)
(15.23173315236572 9.682613956710194 0)
(15.42951618152046 10.20329670425154 0)
(15.56783736463928 10.48773034213794 0)
(13.2540330374702 7.732581073213125 0)
(14.15936737441772 8.97792812650083 0)
(14.8755121040988 10.04576496069109 0)
(15.08736869184244 10.50255534931344 0)
(16.10775274044159 11.43503071661385 0)
(17.80928506705784 11.86731955102207 0)
(20.61432918502484 11.76433123704181 0)
(24.69819369345919 10.47698823492257 0)
(16.13567338012978 11.24976182471966 0)
(17.68362279933758 11.76362684277349 0)
(20.26782454604171 11.77616262510313 0)
(24.67063148978527 12.46689281123813 0)
(16.23268090010792 10.98252243803651 0)
(17.49543257171173 11.54883463503931 0)
(20.3867378556433 12.60816987655019 0)
(30.80581322565706 18.17237968124457 0)
(16.02508418261584 10.63995845253654 0)
(17.53397412613208 11.10790494500217 0)
(21.28698066659981 12.96725941828369 0)
(42.04672647229735 24.93453753226582 0)
(30.44007203796531 5.451268369239539 0)
(32.93252825317997 -4.702343229156975 0)
(11.37024361073855 0.826747913267191 0)
(6.996493397723641 5.980109600534401 0)
(31.77475434454364 4.755523550122287 0)
(26.66002033918886 -3.50281415649317 0)
(7.751461172185645 7.119957584711882 0)
(4.301429934469236 11.50797650919985 0)
(31.58886290488728 2.85946081107749 0)
(17.21020361289371 -6.857670531682373 0)
(3.567590712108139 9.191793176778672 0)
(2.903777169092418 12.18738961806126 0)
(20.17424462817771 -8.565599199363534 0)
(5.788848745705189 -3.945929041510052 0)
(1.075364546479847 10.74591314803106 0)
(1.192132359632557 11.62860006957939 0)
(3.850998486545024 5.329945116823123 0)
(1.16260612757788 3.272381985202434 0)
(-0.02931469040076717 0.984713067840284 0)
(-0.3254965167571472 1.136718523933251 0)
(2.434274643764191 9.875313643004304 0)
(0.8875972179271365 7.142605142155124 0)
(0.04694040272281844 4.539935460656578 0)
(0.3734146812389165 3.07817539246485 0)
(1.852575553697825 10.81547614470769 0)
(1.267956067794908 8.594857056421684 0)
(0.659000778403144 6.327720176669718 0)
(-0.05158238906921576 3.320184169372249 0)
(0.6685613008316881 10.64043802889605 0)
(-0.01728991322427727 8.748554348806664 0)
(-0.6901685042379352 6.575473007483907 0)
(-0.8935007069275274 2.997715082034768 0)
(3.010270449612321 -1.377815075721967 0)
(7.12261349679792 -6.85553203910002 0)
(11.15948568220474 -7.521083033642381 0)
(15.71761912187568 -8.458211414900363 0)
(-0.3180707418113705 -0.2082677028613455 0)
(4.971455140767066 -4.361928331913895 0)
(10.39872354368382 -5.622686106451125 0)
(15.44855791383296 -7.155092982159978 0)
(-2.26468843780926 0.2506643788110994 0)
(1.740357518732571 -2.519976936290554 0)
(8.117370193822214 -4.131428936208279 0)
(14.72262946576653 -5.210957101314876 0)
(-2.492500133491615 1.20094536703094 0)
(0.03303493795721588 -0.3502399326662745 0)
(6.611910861094654 -0.3960761779596042 0)
(15.8403122162712 -3.629727160849765 0)
(16.39611419242614 -10.29404497036202 0)
(15.48613166574715 -10.50652570555269 0)
(13.44117400526986 -8.456180208289998 0)
(9.899988634151333 -6.752515836559798 0)
(17.04730023495668 -11.19772648216063 0)
(16.26336932730575 -12.18007412642496 0)
(13.04405633019979 -9.43824916675123 0)
(8.161405678122231 -7.583292637685559 0)
(16.79694904456171 -11.47093902774607 0)
(14.24463169002737 -12.14760334273698 0)
(10.06267588211054 -7.885552454277261 0)
(4.869054231158208 -5.492278815707807 0)
(14.01517533196677 -14.44181968231404 0)
(9.170239638929989 -9.882770943881148 0)
(4.72766171574346 -3.471173249810474 0)
(1.52784150015716 -1.482628342956936 0)
(0.1266182940546214 -0.5648664249321481 0)
(-0.4906267180483985 -0.246303623212476 0)
(-0.8493609529088505 -0.2124520362895698 0)
(-1.009957656967291 -0.09308324641318383 0)
(1.321055385690905 -3.517774864991418 0)
(-0.3552667543816755 -2.288432423470859 0)
(-1.319442251916033 -1.436568893644038 0)
(-1.486181171450023 -0.4693192917877699 0)
(3.915975149758721 -5.96312232332999 0)
(1.387286775363331 -4.480946305537804 0)
(0.02377947143451089 -2.806445393637652 0)
(-0.2512486143002175 -0.9216176675201855 0)
(6.625338810977546 -5.244347629129157 0)
(5.054732298092017 -3.803414386370103 0)
(4.384900490277265 -2.161529797252552 0)
(4.332010841111307 -0.6068147221162195 0)
(-1.009957656968621 0.09308324642193108 0)
(-1.486181171457152 0.4693192917985273 0)
(-0.2512486143114742 0.9216176675318035 0)
(4.332010841092536 0.6068147221080327 0)
(-0.849360952909347 0.2124520362947372 0)
(-1.31944225192137 1.436568893655184 0)
(0.02377947143302389 2.806445393649626 0)
(4.38490049028475 2.161529797250842 0)
(-0.4906267180472498 0.2463036232152582 0)
(-0.3552667543831469 2.288432423476396 0)
(1.387286775365387 4.480946305547218 0)
(5.054732298109424 3.803414386366717 0)
(0.1266182940570117 0.5648664249374769 0)
(1.32105538569133 3.517774864999194 0)
(3.91597514975839 5.963122323343161 0)
(6.625338810999815 5.244347629126819 0)
(9.899988634150986 6.752515836577941 0)
(13.44117400527091 8.456180208296757 0)
(15.48613166575267 10.50652570555367 0)
(16.3961141924263 10.29404497035614 0)
(8.16140567811985 7.58329263769698 0)
(13.04405633019896 9.438249166758006 0)
(16.26336932731323 12.18007412642124 0)
(17.04730023496336 11.19772648215988 0)
(4.869054231160248 5.492278815709494 0)
(10.06267588211358 7.88555245428409 0)
(14.24463169003362 12.14760334274714 0)
(16.79694904457035 11.47093902774848 0)
(1.527841500156568 1.482628342961459 0)
(4.727661715740179 3.471173249814017 0)
(9.170239638918847 9.882770943897414 0)
(14.01517533198688 14.44181968232042 0)
(15.84031221627823 3.629727160845474 0)
(6.611910861101219 0.3960761779535292 0)
(0.03303493796937734 0.3502399326571528 0)
(-2.492500133472831 -1.200945367021381 0)
(14.72262946577259 5.210957101312562 0)
(8.117370193825687 4.131428936201122 0)
(1.740357518736309 2.519976936272161 0)
(-2.264688437795624 -0.2506643788137377 0)
(15.44855791383667 7.155092982154638 0)
(10.39872354368792 5.622686106445238 0)
(4.971455140759693 4.361928331885759 0)
(-0.3180707418284213 0.2082677028411217 0)
(15.71761912187586 8.458211414892718 0)
(11.15948568221159 7.521083033637378 0)
(7.122613496782052 6.855532039081218 0)
(3.010270449543412 1.377815075721206 0)
(-0.3254965168136017 -1.136718523960936 0)
(-0.02931469046253451 -0.9847130678890256 0)
(1.162606127523917 -3.27238198529421 0)
(3.850998486523447 -5.32994511690997 0)
(0.3734146811909593 -3.078175392453562 0)
(0.04694040268445084 -4.539935460682182 0)
(0.8875972179207268 -7.142605142216912 0)
(2.434274643794835 -9.875313643063755 0)
(-0.05158238908670603 -3.320184169358317 0)
(0.6590007783717922 -6.327720176685462 0)
(1.26795606778467 -8.594857056472222 0)
(1.85257555371475 -10.81547614475883 0)
(-0.8935007069265125 -2.99771508202169 0)
(-0.6901685042552815 -6.575473007495193 0)
(-0.01728991323917306 -8.748554348847449 0)
(0.6685613008263633 -10.64043802894625 0)
(6.996493397684469 -5.980109600578423 0)
(11.37024361059986 -0.8267479133773609 0)
(32.9325282531052 4.702343229200685 0)
(30.44007203796889 -5.451268369229607 0)
(4.301429934475173 -11.50797650922709 0)
(7.751461172161098 -7.119957584774332 0)
(26.66002033912263 3.502814156477352 0)
(31.77475434454241 -4.75552355011471 0)
(2.903777169101634 -12.18738961808371 0)
(3.567590712101613 -9.19179317682331 0)
(17.21020361284884 6.857670531645796 0)
(31.58886290488538 -2.859460811075306 0)
(1.192132359648584 -11.62860006960448 0)
(1.075364546480051 -10.74591314807066 0)
(5.788848745710289 3.945929041438972 0)
(20.17424462819388 8.565599199340991 0)
(24.69819369347359 -10.47698823491185 0)
(20.61432918504717 -11.76433123703185 0)
(17.80928506707935 -11.86731955100566 0)
(16.10775274047179 -11.43503071659152 0)
(24.67063148979596 -12.46689281123042 0)
(20.26782454606074 -11.77616262509681 0)