/*--------------------------------*- C++ -*----------------------------------*\
  =========                 |
  \\      /  F ield         | OpenFOAM: The Open Source CFD Toolbox
   \\    /   O peration     | Website:  https://openfoam.org
    \\  /    A nd           | Version:  11
     \\/     M anipulation  |
\*---------------------------------------------------------------------------*/
FoamFile
{
    format      ascii;
    class       volVectorField;
    location    "11.5";
    object      U;
}
// * * * * * * * * * * * * * * * * * * * * * * * * * * * * * * * * * * * * * //

dimensions      [0 1 -1 0 0 0 0];

internalField   nonuniform List<vector> 
5472
(
(10.032936 2.4934257 1.7325939e-18)
(10.211946 2.5070424 -1.8041303e-18)
(10.402956 2.5253331 -1.8271786e-18)
(10.58062 2.4704173 -1.8633204e-18)
(10.752097 2.4764928 5.7857297e-18)
(10.938848 2.4068988 -3.2551597e-20)
(11.094189 2.3661763 -3.062597e-18)
(11.259673 2.2749832 1.0659294e-18)
(11.440037 2.2027191 0)
(11.563225 2.0927416 0)
(11.718588 1.998296 0)
(11.837058 1.868777 -3.3728531e-18)
(11.946116 1.7480471 1.7335552e-18)
(12.07808 1.6108582 -2.0257392e-20)
(12.14167 1.4615643 1.1786897e-18)
(12.253124 1.3221438 -6.0531732e-19)
(12.306201 1.1579094 -9.0894359e-19)
(12.368161 1.0245812 3.1065799e-19)
(12.420011 0.87314146 0)
(10.049568 2.3091889 -1.5823349e-18)
(10.191375 2.3081354 3.2682622e-18)
(10.379596 2.318038 -1.68814e-18)
(10.547174 2.2906393 -1.7038652e-18)
(10.719306 2.2847906 2.1098383e-20)
(10.867984 2.2222989 0)
(11.018145 2.1998062 1.8376989e-18)
(11.227148 2.1098842 -3.7570394e-18)
(11.340914 2.0558737 4.8541489e-18)
(11.490252 1.9621051 9.9246277e-19)
(11.635108 1.8659857 0)
(11.74569 1.7613086 2.0676925e-18)
(11.885021 1.638687 0)
(11.976621 1.523337 5.2688813e-19)
(12.086579 1.3875 -5.4250767e-19)
(12.169499 1.2575076 0)
(12.232069 1.1288953 0)
(12.296852 0.99108144 -2.742043e-19)
(12.324613 0.85257851 0)
(10.035596 2.1350531 0)
(10.188212 2.1717208 1.4858226e-18)
(10.338196 2.1775443 1.5246382e-18)
(10.500435 2.1641475 0)
(10.638661 2.1770339 -1.7204006e-20)
(10.795198 2.1361098 -2.3843769e-20)
(10.983805 2.1079009 -1.6888605e-18)
(11.11577 2.0426919 0)
(11.24496 2.0060817 -1.7434712e-18)
(11.410983 1.9111351 -4.4687534e-18)
(11.530831 1.8358041 1.143611e-20)
(11.677561 1.7289224 -9.1257808e-19)
(11.791199 1.6176255 -9.404003e-19)
(11.898522 1.5091341 1.9277905e-18)
(12.007721 1.3784148 1.4569028e-18)
(12.068351 1.2640394 4.9192544e-19)
(12.159692 1.1310065 2.4633e-19)
(12.203064 0.99301477 -3.7235552e-19)
(12.251383 0.86875301 1.2422124e-19)
(10.032371 1.9812925 0)
(10.176528 1.9816954 -1.3410843e-18)
(10.356691 1.9961151 -1.3746402e-18)
(10.459577 2.0202488 2.8067651e-18)
(10.621742 2.0134141 -1.4727237e-18)
(10.789223 1.9701963 0)
(10.901432 1.9704492 -1.5244815e-18)
(11.052497 1.9012595 1.5417117e-18)
(11.196764 1.873473 -1.596383e-18)
(11.3376 1.7823552 -1.6909828e-20)
(11.475467 1.7219392 -1.6564994e-18)
(11.597235 1.6192112 0)
(11.703579 1.5253936 0)
(11.803808 1.419612 -8.5795761e-19)
(11.892906 1.304447 -8.6761424e-19)
(11.971043 1.1923161 0)
(12.052723 1.0652844 -2.2120121e-19)
(12.10356 0.93874954 1.1193144e-19)
(12.159346 0.81059897 2.2323186e-19)
(10.02037 1.8005035 0)
(10.197598 1.8444969 0)
(10.273866 1.8866828 0)
(10.415729 1.8943626 -2.5395776e-18)
(10.565458 1.8877527 1.3215948e-18)
(10.661808 1.893616 -4.0101126e-18)
(10.813642 1.862482 5.4905276e-18)
(10.965871 1.8221964 -2.8037859e-18)
(11.102952 1.8026555 3.1554814e-21)
(11.248014 1.723189 1.4510095e-18)
(11.370919 1.6769298 1.476752e-18)
(11.489114 1.5799345 -3.0179077e-18)
(11.603266 1.5132927 2.3016032e-18)
(11.711021 1.3950976 -7.792302e-19)
(11.816914 1.2978647 0)
(11.90356 1.1768564 7.942251e-19)
(11.979735 1.0680382 -3.9942542e-19)
(12.041124 0.93950348 1.9912552e-19)
(12.092025 0.82343184 -1.984558e-19)
(10.051212 1.6545538 0)
(10.175538 1.695841 -4.3747069e-18)
(10.271083 1.725857 2.2599489e-18)
(10.432563 1.7521219 2.3097053e-18)
(10.51086 1.7623421 1.1778495e-18)
(10.65737 1.7389418 -1.1993412e-18)
(10.807643 1.7327521 2.4889708e-18)
(10.925331 1.7138771 1.2552801e-18)
(11.069933 1.6789117 2.5602084e-18)
(11.171631 1.6283482 -2.6253515e-18)
(11.309318 1.5784799 1.5454307e-20)
(11.418394 1.4931812 2.7120375e-18)
(11.554127 1.4181591 0)
(11.645549 1.3102817 -6.9876256e-19)
(11.753971 1.2292864 6.995741e-19)
(11.820157 1.1056189 -1.7663461e-18)
(11.903496 1.0154672 7.1033437e-19)
(11.958993 0.87653934 -1.7808299e-19)
(12.012558 0.77414954 3.262186e-22)
(10.032043 1.525582 3.8666476e-18)
(10.166209 1.5571391 3.9477758e-18)
(10.247303 1.6056134 0)
(10.371391 1.617213 -5.8846199e-21)
(10.453331 1.6262424 -4.2533284e-18)
(10.616152 1.644145 4.3709481e-18)
(10.697968 1.6343572 0)
(10.836814 1.6150945 -1.1395747e-18)
(10.954297 1.597799 -4.6166498e-18)
(11.084319 1.5562068 2.370694e-18)
(11.2335 1.5025393 1.1912665e-18)
(11.330478 1.4391365 -1.2220521e-18)
(11.468134 1.3634215 0)
(11.541714 1.286403 6.1908452e-19)
(11.670571 1.1909725 0)
(11.72837 1.0950234 -6.3026428e-19)
(11.836677 0.99370856 9.5402218e-19)
(11.877167 0.87184319 7.6646323e-22)
(11.956841 0.76672472 -7.8666814e-22)
(10.080013 1.3816945 1.7305039e-18)
(10.183999 1.4295247 -3.5489424e-18)
(10.253808 1.4809818 -3.6222176e-18)
(10.382532 1.4894604 3.7354268e-18)
(10.454815 1.5262107 -1.919026e-18)
(10.586316 1.5215896 -1.9495445e-18)
(10.662761 1.5213984 0)
(10.823022 1.5215098 3.0393774e-18)
(10.91642 1.4811676 -1.2240051e-20)
(11.072075 1.4641184 -3.160116e-18)
(11.159774 1.4157458 3.2332234e-18)
(11.281877 1.3644181 0)
(11.389594 1.2949328 0)
(11.471544 1.2161271 1.1072716e-18)
(11.590705 1.1217439 -5.6731953e-19)
(11.645354 1.0410235 -1.128435e-18)
(11.756958 0.93136026 2.8561264e-19)
(11.780083 0.83138829 2.8723975e-19)
(11.883776 0.71453436 7.0413582e-20)
(10.05571 1.260472 -1.5529839e-18)
(10.13363 1.2876474 4.7645923e-18)
(10.206784 1.3354468 -4.9086019e-18)
(10.315534 1.371159 3.344198e-18)
(10.383689 1.3979672 0)
(10.52388 1.3999433 1.7432519e-18)
(10.601791 1.4219256 -1.7974571e-18)
(10.746363 1.4020242 0)
(10.822686 1.4006186 9.2214929e-19)
(10.975466 1.375906 -1.9045878e-18)
(11.055941 1.3361807 -9.5420964e-19)
(11.209637 1.3006276 -8.3365218e-21)
(11.289144 1.2262085 -2.9501721e-18)
(11.421245 1.1720527 5.0630935e-19)
(11.502613 1.0756206 -4.9367121e-19)
(11.60302 1.0003147 1.0078821e-18)
(11.674726 0.89646989 -5.0286245e-19)
(11.73904 0.80395647 2.5643118e-19)
(11.802671 0.68613012 2.5217534e-19)
(10.095914 1.1388686 -2.7899068e-18)
(10.170353 1.1847781 0)
(10.258578 1.2374536 1.4603614e-18)
(10.347755 1.2446837 -4.4774809e-18)
(10.422462 1.2849759 1.5407749e-18)
(10.52254 1.2969808 -1.567971e-18)
(10.589741 1.3193238 1.5907159e-18)
(10.726461 1.3152145 -1.6363097e-18)
(10.801309 1.3154853 0)
(10.941949 1.2827852 8.3930553e-19)
(11.010096 1.2561522 0)
(11.150908 1.2106203 8.6132306e-19)
(11.208105 1.1607478 2.8238238e-23)
(11.341544 1.1054845 -4.3864747e-19)
(11.385598 1.0228678 4.4209632e-19)
(11.506083 0.96420218 4.4510666e-19)
(11.544536 0.85184675 -2.4062891e-21)
(11.648812 0.77449931 -6.7281955e-19)
(11.677052 0.65793736 0)
(10.080702 1.0046027 0)
(10.127973 1.0596136 1.2753066e-18)
(10.208312 1.104743 0)
(10.265156 1.1515094 1.3272614e-18)
(10.343515 1.1774691 -4.1032302e-18)
(10.435036 1.1838807 4.1985385e-18)
(10.517994 1.2121855 -1.411562e-18)
(10.632385 1.2084495 4.3734478e-18)
(10.70797 1.2243968 0)
(10.844724 1.194703 7.5209788e-19)
(10.919592 1.1866892 0)
(11.060845 1.1399229 -1.5316734e-18)
(11.128548 1.1029918 3.1070179e-18)
(11.270477 1.0315985 -6.9233996e-21)
(11.331046 0.96924241 -3.9560663e-19)
(11.46729 0.88709635 0)
(11.510632 0.80261898 0)
(11.621152 0.71850964 0)
(11.641194 0.62233216 -4.9709682e-20)
(10.102598 0.91730926 4.4349821e-18)
(10.156271 0.97149728 -5.7021542e-18)
(10.235205 1.0073848 2.3236845e-18)
(10.292192 1.0328748 -6.7361177e-21)
(10.379277 1.0686958 0)
(10.439935 1.0961423 -2.4807263e-18)
(10.533446 1.1139603 1.2807723e-18)
(10.608738 1.1244042 -1.2894291e-18)
(10.708022 1.1310564 0)
(10.814534 1.1190553 -6.6452474e-19)
(10.888962 1.1080269 1.3445889e-18)
(11.009259 1.0663282 -1.1640801e-20)
(11.072492 1.0420556 -1.3840338e-18)
(11.18957 0.9748308 -2.7718058e-18)
(11.243822 0.93077986 2.4452266e-18)
(11.357334 0.8418641 -1.4025384e-18)
(11.399162 0.7804826 8.8139348e-19)
(11.506273 0.67790915 1.7653782e-19)
(11.528217 0.60483568 4.3630424e-20)
(10.075082 0.79991943 -6.9296268e-18)
(10.130518 0.85282623 4.0655481e-18)
(10.18866 0.88177386 0)
(10.236796 0.93090655 -5.294399e-18)
(10.307865 0.95736013 4.3485611e-18)
(10.37317 0.99029439 1.1075858e-18)
(10.464007 1.0180242 3.3764313e-18)
(10.533255 1.0286902 -2.3028866e-18)
(10.647544 1.0314388 -2.905695e-18)
(10.726579 1.0276574 1.7810193e-18)
(10.834515 1.0157097 2.3837458e-18)
(10.935725 0.99507114 -3.6333681e-18)
(11.032927 0.96483001 2.4404832e-18)
(11.13512 0.9124333 -6.2129344e-19)
(11.211642 0.86203976 3.0587056e-19)
(11.311012 0.77948406 -3.7250765e-21)
(11.358889 0.72175915 -7.7782617e-19)
(11.452287 0.62282645 -1.5482824e-19)
(11.479709 0.56446837 -3.881758e-20)
(10.103001 0.71305415 2.6485027e-18)
(10.157275 0.76023946 3.6010024e-18)
(10.202292 0.8042003 -3.6976086e-18)
(10.2552 0.83886895 9.4311631e-19)
(10.315705 0.86411213 -2.8773068e-18)
(10.375261 0.89853843 2.9565465e-18)
(10.452106 0.92534938 9.9485224e-19)
(10.516185 0.95450018 -5.0846869e-18)
(10.608287 0.95949367 3.6099673e-18)
(10.668599 0.96107687 -1.5783421e-18)
(10.768802 0.94005691 0)
(10.84888 0.92333453 -5.3601086e-19)
(10.952401 0.8964665 -1.6149092e-18)
(11.035267 0.86463216 5.5201016e-19)
(11.142927 0.8116104 1.6395376e-18)
(11.214254 0.75176468 5.4563688e-19)
(11.297677 0.67918016 -1.0965265e-18)
(11.365951 0.59647049 2.758906e-19)
(11.416612 0.52549844 3.0754048e-19)
(10.062984 0.600833 -3.9092226e-18)
(10.104137 0.65132272 3.2105957e-18)
(10.149453 0.70310046 0)
(10.207034 0.73743478 -8.3599152e-19)
(10.265413 0.76479442 3.4059837e-18)
(10.335388 0.78729081 -6.955444e-18)
(10.405173 0.81776081 9.0567668e-19)
(10.485997 0.84949725 3.6131254e-18)
(10.577806 0.86640247 2.7414012e-18)
(10.654956 0.87805212 -4.6296799e-19)
(10.748964 0.86149179 0)
(10.819653 0.85115524 2.3515122e-18)
(10.910186 0.81727076 -9.582063e-19)
(10.989513 0.78705818 9.5640966e-19)
(11.089091 0.7349618 -1.4448369e-18)
(11.148825 0.68778858 -2.4168643e-19)
(11.243054 0.61710249 0)
(11.286613 0.55669316 0)
(11.355278 0.47813866 -3.0141764e-20)
(10.102798 0.51713211 6.7910985e-19)
(10.14471 0.56431597 -6.4021986e-18)
(10.180782 0.61333402 2.8979258e-18)
(10.219101 0.65360518 -3.7075714e-18)
(10.25896 0.69399566 -7.5470824e-19)
(10.307649 0.71776685 0)
(10.364633 0.74175439 -3.900903e-18)
(10.435397 0.76027985 2.3919927e-18)
(10.507189 0.78487031 -8.0622737e-19)
(10.590332 0.80205437 -1.3966569e-21)
(10.677042 0.79800218 0)
(10.763735 0.79281118 0)
(10.850397 0.76455101 -4.1765798e-19)
(10.932995 0.73657551 -4.1990422e-19)
(11.0176 0.69108878 2.1078427e-19)
(11.085099 0.64661322 1.2695175e-18)
(11.170336 0.575762 -8.5111481e-19)
(11.220029 0.52266213 1.063972e-19)
(11.291506 0.43903832 2.6332916e-20)
(10.061928 0.42720518 4.3096671e-18)
(10.094853 0.47187315 -4.4114485e-18)
(10.138688 0.50857601 0)
(10.189809 0.54843926 6.5463529e-19)
(10.240767 0.58849418 0)
(10.298171 0.6216673 6.790609e-19)
(10.36123 0.65222248 6.9018243e-19)
(10.420878 0.67308546 0)
(10.48515 0.69257029 3.5379776e-18)
(10.557654 0.70328324 -2.5208229e-18)
(10.629956 0.70836937 1.8089306e-18)
(10.714474 0.70823095 -1.4671491e-18)
(10.792484 0.69318988 1.4677285e-18)
(10.882115 0.66516469 -9.1358754e-21)
(10.955261 0.62685995 -1.4899225e-18)
(11.034299 0.58336333 -1.8560243e-19)
(11.098358 0.52418559 -1.8676544e-19)
(11.159322 0.47397769 -9.2859943e-20)
(11.213793 0.39823847 0)
(10.100961 0.34704113 4.9080175e-18)
(10.108405 0.40696159 0)
(10.146236 0.43508068 0)
(10.161089 0.47975955 5.7814076e-19)
(10.205314 0.50598129 0)
(10.250481 0.54597939 -5.9795321e-19)
(10.308194 0.57937626 -6.0703501e-19)
(10.369886 0.60535358 -2.4582231e-18)
(10.436002 0.62593821 2.5013902e-18)
(10.502299 0.63885791 0)
(10.574833 0.64503501 -2.8587016e-18)
(10.655127 0.64498774 2.2542659e-18)
(10.73474 0.63438569 1.2884463e-18)
(10.821549 0.61104007 -2.5970478e-18)
(10.894357 0.57966656 2.6058559e-18)
(10.977993 0.53877578 -1.9600816e-18)
(11.036826 0.48739465 6.5401402e-19)
(11.108114 0.43516788 0)
(11.158047 0.36646881 0)
(10.063364 0.2758401 7.7109259e-18)
(10.092983 0.31584616 -3.9349581e-18)
(10.127375 0.35173237 4.0003145e-18)
(10.151118 0.39037062 -4.5908239e-18)
(10.201236 0.42008316 -4.1399227e-18)
(10.229582 0.45746191 4.2187993e-18)
(10.286976 0.48175655 2.1327954e-18)
(10.33942 0.51755181 -9.0778598e-21)
(10.402189 0.5342072 -2.1964737e-18)
(10.468928 0.55372126 0)
(10.539903 0.55782692 0)
(10.615079 0.56122134 2.8098583e-19)
(10.690769 0.55668323 0)
(10.769279 0.53837269 1.1343245e-18)
(10.844002 0.51242683 -1.1439437e-18)
(10.916981 0.4784373 -5.7010988e-19)
(10.979119 0.43527676 7.1566054e-19)
(11.044756 0.38631052 -3.5680378e-19)
(11.088892 0.32565593 2.8497827e-19)
(10.050781 0.21392539 0)
(10.081693 0.25221321 0)
(10.100032 0.28414544 3.5256353e-18)
(10.13509 0.32262381 -3.5929192e-18)
(10.171101 0.35610054 4.0980221e-18)
(10.208468 0.39331039 -4.1701614e-18)
(10.265587 0.42138494 0)
(10.311039 0.4509563 4.7536286e-19)
(10.370056 0.47086556 1.917937e-18)
(10.423946 0.49272376 -1.9454821e-18)
(10.493129 0.50038684 1.9527104e-18)
(10.561386 0.50784046 -1.0333992e-20)
(10.640555 0.49850334 -3.9632773e-18)
(10.714993 0.48342494 1.9948341e-18)
(10.790832 0.46033049 0)
(10.862922 0.42890122 -9.9676288e-19)
(10.927971 0.38928771 1.5628098e-18)
(10.995226 0.34580323 -6.8724878e-19)
(11.045101 0.28828187 2.4900856e-19)
(10.050566 0.15388889 1.1633024e-17)
(10.073314 0.18269373 -6.1135034e-18)
(10.084492 0.21198944 0)
(10.117435 0.23842579 -3.9456444e-19)
(10.140379 0.27081029 -4.0042924e-19)
(10.188215 0.30326753 4.0605492e-19)
(10.229682 0.33789115 0)
(10.286689 0.36644051 -4.1608527e-19)
(10.338284 0.38987048 3.3596843e-18)
(10.399921 0.40885731 -3.4046529e-18)
(10.460868 0.42056362 0)
(10.525721 0.42917801 0)
(10.600934 0.42799667 2.1673939e-19)
(10.6667 0.41753529 1.0877195e-19)
(10.741761 0.39951765 -1.090343e-19)
(10.805254 0.37395464 0)
(10.868664 0.34061332 -4.8969085e-19)
(10.925893 0.30234793 4.3658126e-19)
(10.975549 0.25423184 0)
(10.03684 0.10616919 -1.0563554e-17)
(10.051545 0.13538812 1.1084427e-17)
(10.073301 0.16036713 -8.3786438e-21)
(10.096282 0.1903464 -5.20121e-18)
(10.121873 0.2146124 0)
(10.15668 0.24474122 2.8450328e-18)
(10.194952 0.27278338 -5.9474498e-18)
(10.242876 0.29934101 2.9203704e-18)
(10.292037 0.32595994 0)
(10.355117 0.34450887 -2.9637998e-18)
(10.411584 0.36103201 2.9976977e-18)
(10.488797 0.36447477 1.5008769e-18)
(10.551748 0.36738963 -1.5142446e-18)
(10.629526 0.3568646 1.3230031e-18)
(10.696322 0.3412853 -1.4279246e-18)
(10.768736 0.31792095 0)
(10.832028 0.28825074 -4.7578416e-20)
(10.891933 0.25224796 -1.4200516e-19)
(10.943798 0.20710284 2.0118854e-19)
(10.036302 0.067627533 2.9042425e-19)
(10.050506 0.083440122 -5.9039294e-19)
(10.066366 0.10045837 4.7903213e-18)
(10.085313 0.12397664 2.9590612e-19)
(10.109607 0.1505529 -3.1792182e-19)
(10.137561 0.17571831 -4.9949047e-18)
(10.178245 0.20422791 1.576285e-19)
(10.213834 0.22871185 2.7048936e-18)
(10.266073 0.24881775 -2.5771314e-18)
(10.315135 0.27162559 -1.6220486e-19)
(10.373949 0.28580868 0)
(10.440987 0.29821188 2.7836419e-18)
(10.501985 0.30192203 -2.8062766e-18)
(10.578828 0.29852646 -1.2359862e-18)
(10.640834 0.28931189 8.8812709e-20)
(10.713979 0.27085645 1.988102e-18)
(10.771435 0.25273631 -6.2200191e-19)
(10.834851 0.2217304 -6.193338e-20)
(10.884307 0.1919602 -1.0270436e-20)
(10.015863 0.046587711 0)
(10.028547 0.057953643 2.5908942e-19)
(10.038695 0.069984593 4.2013383e-18)
(10.05466 0.085203982 -4.6631443e-18)
(10.075196 0.10339272 4.4448747e-18)
(10.1064 0.12439953 -4.3691845e-18)
(10.142818 0.14582763 1.3792864e-19)
(10.18711 0.16690096 -1.3908029e-19)
(10.236911 0.18563788 2.1009685e-18)
(10.288234 0.2028522 -2.1241186e-18)
(10.351916 0.21638469 2.1279836e-18)
(10.414166 0.22464395 -2.3616714e-18)
(10.485365 0.22733774 0)
(10.552326 0.22256231 1.1469803e-18)
(10.620131 0.21200999 -1.2974614e-18)
(10.685921 0.19645234 5.7446746e-19)
(10.744482 0.17480198 -5.4047585e-19)
(10.801763 0.14790576 -2.5088772e-19)
(10.848555 0.11741387 2.9099768e-19)
(10.018404 0.023994578 -5.2093277e-21)
(10.028059 0.031077139 -7.2733966e-18)
(10.041177 0.037876636 1.1513207e-19)
(10.054308 0.049398106 -7.6577477e-23)
(10.070058 0.057404204 1.1787826e-19)
(10.092849 0.074562614 0)
(10.11667 0.090330413 3.8480517e-18)
(10.155042 0.10973706 -4.0133005e-18)
(10.192834 0.12699832 1.2230239e-19)
(10.24057 0.14413051 -1.9070005e-18)
(10.296433 0.15922533 4.0274358e-18)
(10.355566 0.17118974 -3.9825365e-18)
(10.426953 0.18049556 2.0016476e-18)
(10.497319 0.18390672 0)
(10.570273 0.18347384 -9.6758507e-19)
(10.639374 0.17590984 1.0030008e-18)
(10.701738 0.16693124 -1.5574858e-20)
(10.760734 0.14724487 2.634279e-23)
(10.810179 0.12731077 -3.8776337e-21)
(10.005948 0.011670386 6.3359862e-18)
(10.012724 0.015106131 -6.364882e-18)
(10.021375 0.020748207 6.3492555e-18)
(10.033468 0.025720279 1.0187472e-19)
(10.049678 0.030465863 0)
(10.069215 0.037201825 0)
(10.096952 0.044090712 -5.2396596e-20)
(10.132028 0.051572672 -3.3293199e-18)
(10.173918 0.059309099 3.4687583e-18)
(10.225954 0.065383376 3.3975153e-18)
(10.281633 0.071644527 -1.6519279e-18)
(10.345915 0.074863451 -1.8139452e-18)
(10.414245 0.074660228 0)
(10.48451 0.072878886 2.7167639e-20)
(10.558141 0.069603373 2.7122769e-20)
(10.625794 0.064960572 8.5241105e-19)
(10.689825 0.056996052 -8.8202968e-19)
(10.744968 0.043315873 1.9566881e-19)
(10.792916 0.029364793 -2.1574308e-19)
(10.005382 0.0028296085 -4.2672178e-20)
(10.009374 0.004379476 5.5081546e-18)
(10.016241 0.0068375782 -3.7280928e-21)
(10.026261 0.010372857 -5.3068469e-21)
(10.039864 0.014768483 -5.698704e-18)
(10.058111 0.019720874 0)
(10.082383 0.02508262 2.8512866e-18)
(10.113706 0.030496664 -2.8789511e-18)
(10.152678 0.035664487 -4.5865951e-20)
(10.199215 0.040264913 -2.3051514e-20)
(10.253026 0.043999607 -2.3145669e-20)
(10.313803 0.047352988 2.3214377e-20)
(10.374724 0.051361414 0)
(10.438584 0.057207238 1.4715085e-18)
(10.504679 0.06214881 -1.5073076e-18)
(10.5699 0.065567213 -7.3888585e-19)
(10.647825 0.073559339 7.5302708e-19)
(10.701762 0.061105223 3.8015033e-19)
(10.759975 0.066665668 -3.7395492e-19)
(12.445972 0.73830953 -1.4932745e-19)
(12.48557 0.61658492 -5.9726222e-19)
(12.485566 0.48556427 5.8464516e-19)
(12.484793 0.36342701 0)
(12.460503 0.25741892 -1.0943107e-18)
(12.45931 0.16261117 -2.1081347e-18)
(12.414159 0.066042252 0)
(12.386528 -0.017234309 -1.9711053e-20)
(12.320502 -0.1038089 3.5817826e-18)
(12.279596 -0.1694048 1.7189134e-18)
(12.207217 -0.23076915 -1.6148777e-18)
(12.162389 -0.27271691 3.082913e-18)
(12.101038 -0.30382339 -2.876845e-18)
(12.061308 -0.32851346 0)
(12.014727 -0.32679977 1.3060363e-18)
(11.946449 -0.31976055 -1.224833e-18)
(11.901051 -0.28444896 -2.3664169e-18)
(11.816586 -0.2129583 2.2224001e-18)
(11.77006 -0.14451694 -1.0692316e-18)
(12.37297 0.70938466 -1.2887772e-19)
(12.374176 0.56789375 7.7063029e-19)
(12.392095 0.43006309 -5.0470435e-19)
(12.393722 0.31323105 0)
(12.368923 0.18387512 -9.580634e-19)
(12.369756 0.098204113 2.7503503e-18)
(12.34792 0.00018156418 0)
(12.323012 -0.06798323 0)
(12.280284 -0.14482098 0)
(12.237693 -0.19710451 0)
(12.175031 -0.24726593 2.8844119e-18)
(12.117908 -0.27934937 -4.104583e-18)
(12.057497 -0.29680066 -3.9288858e-18)
(12.004496 -0.29839496 2.453048e-18)
(11.972535 -0.27496248 -2.3470618e-18)
(11.943514 -0.24525847 2.2498978e-18)
(11.926246 -0.18025242 4.9180563e-21)
(11.921123 -0.10975272 -2.0216725e-18)
(11.904793 -0.0085338461 1.9535716e-18)
(12.29581 0.72659712 0)
(12.297954 0.5804074 -4.4715976e-19)
(12.325217 0.46017189 -8.7696907e-19)
(12.307601 0.31596981 -4.5392539e-21)
(12.289915 0.2051349 -6.899465e-21)
(12.280114 0.091574742 1.6257385e-18)
(12.23668 0.00050110327 -3.0980554e-18)
(12.233644 -0.083508782 1.4766918e-18)
(12.184219 -0.15116214 1.6824235e-20)
(12.150399 -0.21255541 0)
(12.11763 -0.25344015 3.8797567e-18)
(12.082337 -0.27877966 1.3519719e-20)
(12.040311 -0.28687744 2.3357288e-18)
(12.004779 -0.28228151 2.2414938e-18)
(11.985461 -0.25666877 3.1852121e-18)
(11.990641 -0.22091318 -4.0204395e-18)
(11.99728 -0.14529563 -3.0978845e-20)
(12.042396 -0.084448947 3.6617441e-18)
(12.134228 0.056901236 1.7874403e-18)
(12.200201 0.67374628 3.8747897e-19)
(12.21596 0.53529651 -7.7263144e-19)
(12.246668 0.40497673 1.1381301e-18)
(12.218632 0.27334257 0)
(12.224111 0.16597358 2.1762319e-18)
(12.170048 0.051012771 -3.5130984e-18)
(12.160051 -0.035321671 2.7186881e-18)
(12.112421 -0.1140015 -1.7894135e-21)
(12.08301 -0.18022326 1.5612002e-20)
(12.042701 -0.23229791 -1.2097953e-18)
(12.022493 -0.26523775 0)
(11.999101 -0.28821795 -1.0907268e-18)
(11.998391 -0.28973482 1.0479158e-18)
(12.002107 -0.28077457 -1.9368383e-18)
(12.019342 -0.25643606 0)
(12.047878 -0.22302902 0)
(12.11698 -0.18889258 -1.7304119e-18)
(12.201982 -0.1259239 0)
(12.356029 -0.060759908 1.5974711e-18)
(12.137414 0.6852525 3.3479705e-19)
(12.163653 0.54633336 -3.3275149e-19)
(12.187138 0.40927611 3.4034253e-21)
(12.172034 0.2804261 -6.4672566e-19)
(12.177131 0.16341795 6.2321929e-19)
(12.123415 0.05293533 -3.9943562e-22)
(12.117264 -0.02827309 -1.1843047e-18)
(12.057255 -0.10409263 0)
(12.040297 -0.16862006 -2.2156912e-18)
(12.005665 -0.2084436 1.0586443e-18)
(11.984185 -0.24814607 0)
(11.9761 -0.26629596 0)
(11.989917 -0.28782122 -1.8327173e-18)
(12.014967 -0.27688839 -1.7523412e-18)
(12.061559 -0.28524933 1.7059697e-18)
(12.145206 -0.26099264 3.2627231e-18)
(12.250434 -0.28194492 1.5628018e-18)
(12.395178 -0.2575951 -1.4737014e-18)
(12.586518 -0.30692052 1.8460463e-20)
(12.055471 0.6258077 0)
(12.090678 0.50513084 2.8920472e-19)
(12.09063 0.35621205 -1.4243377e-18)
(12.101683 0.25054413 5.6038304e-19)
(12.07894 0.12013392 1.6477724e-18)
(12.064105 0.030958548 -1.0780471e-18)
(12.034768 -0.06266595 -2.0940574e-18)
(11.998801 -0.12617722 2.0092461e-18)
(11.975104 -0.19673534 -9.9173224e-19)
(11.962697 -0.22051489 1.8668778e-18)
(11.942997 -0.2766937 0)
(11.958795 -0.28344685 0)
(11.979805 -0.31800087 -1.6410269e-18)
(12.035053 -0.31018068 4.709569e-18)
(12.084894 -0.36523363 -6.0306779e-18)
(12.207734 -0.36370111 2.8751233e-18)
(12.288958 -0.47022493 -5.4900175e-18)
(12.501723 -0.5021044 1.2962457e-18)
(12.599933 -0.69536862 2.4715149e-18)
(11.986464 0.6260498 6.2779415e-20)
(12.039507 0.50154849 2.5091996e-19)
(12.0429 0.3492985 -4.9187316e-19)
(12.059609 0.23835667 0)
(12.031319 0.1023423 -9.5861098e-19)
(12.027936 0.027907813 2.8040143e-18)
(11.976529 -0.072372239 -1.8123336e-18)
(11.972708 -0.12769882 8.8762568e-19)
(11.934476 -0.20272559 -1.723211e-18)
(11.945424 -0.23604377 4.9638742e-18)
(11.9288 -0.29767805 -3.1525597e-18)
(11.96404 -0.31416429 0)
(11.982607 -0.37259615 1.4587524e-18)
(12.071143 -0.393152 2.8068668e-18)
(12.104277 -0.48731327 -4.0108233e-18)
(12.254849 -0.5437066 3.8254222e-18)
(12.282177 -0.70040766 -3.6334703e-18)
(12.489048 -0.82381049 -2.2823788e-18)
(12.483585 -1.094164 -1.0671855e-18)
(11.866141 0.59734908 1.6230226e-19)
(11.968573 0.45412268 2.1585613e-19)
(11.920833 0.32469143 -4.2571747e-19)
(11.977879 0.19824483 0)
(11.918047 0.08273908 1.656993e-18)
(11.946398 -0.0059199331 -8.1583869e-19)
(11.887815 -0.099008999 0)
(11.914304 -0.1650201 -1.5441743e-18)
(11.866497 -0.23478256 7.5343742e-19)
(11.897857 -0.27596283 0)
(11.880255 -0.34684152 -1.3991549e-18)
(11.937268 -0.38165248 1.3449136e-18)
(11.94118 -0.46706118 1.2926105e-18)
(12.048316 -0.52901835 -2.4799597e-18)
(12.050599 -0.65310563 2.3656849e-18)
(12.198164 -0.77473523 -1.1304409e-18)
(12.164305 -0.95266465 -1.0734111e-18)
(12.309129 -1.1590234 -1.0178782e-18)
(12.175919 -1.4404197 -9.6742304e-19)
(11.828546 0.5849581 3.7320059e-19)
(11.900773 0.42370437 -1.8514747e-19)
(11.88835 0.31222174 0)
(11.934843 0.16721797 0)
(11.87822 0.078334557 -1.437872e-18)
(11.91119 -0.033219242 1.412673e-18)
(11.844148 -0.11668199 0)
(11.880608 -0.1895493 6.7206229e-19)
(11.833015 -0.26361847 -6.5321059e-19)
(11.876752 -0.31946818 0)
(11.849332 -0.39741546 1.2249505e-18)
(11.917643 -0.46438806 3.5802612e-21)
(11.894274 -0.56910398 1.6531445e-21)
(11.994868 -0.67420685 0)
(11.955692 -0.82506921 -4.1811611e-18)
(12.054237 -0.98240813 3.9950913e-18)
(11.975784 -1.1936717 4.7553798e-18)
(12.012486 -1.3874751 -6.3346746e-18)
(11.813249 -1.6686791 4.3187599e-18)
(11.758876 0.55937089 0)
(11.773902 0.38410378 1.3495822e-21)
(11.820777 0.28988784 0)
(11.82062 0.13268182 0)
(11.818308 0.056453964 6.2085168e-19)
(11.813102 -0.078921238 4.7807765e-21)
(11.782414 -0.13679408 -6.045223e-19)
(11.79322 -0.24078587 -1.7756166e-18)
(11.76526 -0.30026848 2.2840125e-18)
(11.808515 -0.38703011 0)
(11.78047 -0.46713213 -1.0798112e-18)
(11.852354 -0.57352568 -6.2501621e-18)
(11.802604 -0.68391363 3.0012238e-18)
(11.882704 -0.83393012 0)
(11.800471 -0.97760615 -3.6893783e-18)
(11.83466 -1.1785969 4.4163031e-18)
(11.686727 -1.349761 -3.3762361e-18)
(11.662293 -1.5520343 4.0364178e-18)
(11.401112 -1.7513161 0)
(11.733931 0.52277748 -2.7815334e-19)
(11.731423 0.36417294 1.3936757e-19)
(11.788805 0.25975728 0)
(11.766105 0.10685491 -1.0964862e-18)
(11.792442 0.030298375 1.6186246e-18)
(11.768642 -0.1070357 -5.3077331e-19)
(11.761947 -0.16615283 -1.5807665e-18)
(11.75047 -0.28654808 3.5918023e-18)
(11.742071 -0.34410973 -1.9942324e-18)
(11.755155 -0.46688706 0)
(11.730396 -0.54030351 9.4231498e-19)
(11.764897 -0.69049508 5.4786718e-18)
(11.698227 -0.78764551 -3.5153336e-18)
(11.731103 -0.97522379 0)
(11.591696 -1.0990377 0)
(11.56445 -1.3055041 -1.5626988e-18)
(11.362015 -1.4251872 7.5121379e-19)
(11.269037 -1.6062177 -2.1584405e-18)
(10.961085 -1.6985139 0)
(11.636686 0.47916608 -2.4004781e-19)
(11.633526 0.35112377 7.1919753e-19)
(11.70457 0.22312917 -7.1438764e-19)
(11.66276 0.083234546 0)
(11.711179 -0.010465549 1.4116961e-18)
(11.662574 -0.1339791 -1.8406842e-18)
(11.68794 -0.20734848 0)
(11.655577 -0.33324465 8.9422005e-19)
(11.670029 -0.40216869 8.736608e-19)
(11.649991 -0.53689608 0)
(11.638741 -0.6137655 0)
(11.613928 -0.78385084 -7.9801305e-19)
(11.548325 -0.8690036 -2.3159768e-18)
(11.491047 -1.0844043 -3.2186862e-21)
(11.359402 -1.1491749 2.1509174e-18)
(11.256862 -1.3575656 1.3822706e-18)
(11.032903 -1.4033438 -6.6399561e-19)
(10.89985 -1.5451133 1.2767709e-18)
(10.585879 -1.557768 0)
(11.581461 0.43633124 0)
(11.58584 0.33861906 -8.2764038e-19)
(11.666721 0.17664674 1.6439153e-18)
(11.618511 0.062701964 -1.2242718e-18)
(11.676551 -0.055248144 0)
(11.614925 -0.16854356 0)
(11.645856 -0.26328797 0)
(11.585109 -0.37944891 -7.7286875e-19)
(11.604567 -0.46816774 -7.5684107e-19)
(11.540848 -0.59714253 0)
(11.531453 -0.69151965 -7.2071602e-19)
(11.441568 -0.85567159 -6.9944829e-19)
(11.377286 -0.94361819 -6.7570443e-19)
(11.231533 -1.1267913 2.6191692e-18)
(11.100099 -1.1604863 -2.5291554e-18)
(10.910864 -1.3345878 -6.093884e-19)
(10.704123 -1.2966581 3.5415169e-18)
(10.514286 -1.4182835 -5.6905978e-18)
(10.212633 -1.3232637 3.2974608e-18)
(11.494437 0.40827313 -4.4817158e-20)
(11.523305 0.30561647 8.9425056e-20)
(11.580955 0.13440114 8.8804195e-19)
(11.557144 0.050747113 -2.1195233e-18)
(11.596955 -0.10139834 1.0439467e-18)
(11.542382 -0.18083772 0)
(11.573191 -0.30580514 0)
(11.494714 -0.4119913 6.7326595e-19)
(11.509033 -0.51678869 -2.6411765e-18)
(11.419441 -0.63924815 -6.5459504e-19)
(11.39325 -0.74452864 6.1940565e-19)
(11.254991 -0.88594223 3.048067e-18)
(11.16856 -0.95589367 5.9341102e-19)
(10.981038 -1.0995738 0)
(10.850598 -1.1025588 1.6714802e-18)
(10.633844 -1.2124276 0)
(10.451609 -1.121215 -3.1397128e-18)
(10.212952 -1.1951956 9.0918775e-18)
(9.9673676 -1.013649 -7.8215665e-18)
(11.401107 0.38359371 7.7017326e-20)
(11.471686 0.253371 -7.6615452e-20)
(11.491492 0.11241688 0)
(11.498083 0.0091678832 -9.172655e-19)
(11.503856 -0.14467895 2.9443949e-19)
(11.467584 -0.21441093 1.1924654e-18)
(11.471834 -0.36919316 0)
(11.390537 -0.44007466 -2.9161425e-18)
(11.389331 -0.579721 1.7094411e-18)
(11.268068 -0.67448617 -1.5435305e-21)
(11.219295 -0.78105415 0)
(11.044286 -0.87977779 0)
(10.943345 -0.95045117 -5.1788889e-19)
(10.707756 -1.0308932 0)
(10.582885 -1.0028657 3.2312565e-21)
(10.336886 -1.0374161 9.5231657e-19)
(10.209274 -0.90939952 -2.7700278e-18)
(9.9750119 -0.91648278 7.148037e-18)
(9.8149492 -0.6756004 -3.4625319e-18)
(11.337639 0.35452487 2.3238009e-19)
(11.422879 0.21407091 -1.9873184e-19)
(11.427007 0.10158062 0)
(11.467154 -0.032632124 0)
(11.435772 -0.15483185 0)
(11.4289 -0.24974976 0)
(11.383135 -0.39056641 -2.0507921e-18)
(11.323135 -0.45872729 2.0123928e-18)
(11.26617 -0.61434894 2.4822128e-18)
(11.148958 -0.65887049 -9.6950757e-19)
(11.077087 -0.78203515 0)
(10.879494 -0.83242171 3.723659e-18)
(10.763493 -0.88107605 -6.8005147e-18)
(10.51921 -0.88448884 3.5301894e-18)
(10.39428 -0.84156727 -4.3030811e-18)
(10.125269 -0.79984426 2.5077236e-18)
(10.039876 -0.66605798 -8.1215612e-19)
(9.8225686 -0.60728865 -7.8985032e-19)
(9.7496758 -0.34430171 7.646998e-19)
(11.269104 0.31412614 2.2867617e-19)
(11.334042 0.17470531 -7.4231792e-19)
(11.342523 0.069063428 4.5448743e-19)
(11.36753 -0.075912202 -9.074263e-19)
(11.32752 -0.17281319 8.9797803e-19)
(11.332845 -0.29653953 0)
(11.252062 -0.40375957 -4.4264674e-19)
(11.204403 -0.49805976 1.7487697e-18)
(11.088042 -0.61227516 -1.7154272e-18)
(10.986555 -0.65325312 -4.2151365e-19)
(10.847595 -0.76471819 -3.3159532e-18)
(10.67757 -0.7439693 3.2372189e-18)
(10.547498 -0.77853199 -3.9545364e-19)
(10.325738 -0.7105356 2.3223945e-18)
(10.223208 -0.65299918 -2.2582402e-18)
(9.9975591 -0.54948596 0)
(9.9527182 -0.41047533 -5.727449e-18)
(9.7593177 -0.2824373 6.2556827e-18)
(9.7764057 -0.0099457223 0)
(11.230833 0.27901456 -3.9379149e-19)
(11.281752 0.15069663 3.9348162e-19)
(11.308677 0.042127715 -7.8463672e-19)