/*--------------------------------*- C++ -*----------------------------------*\
  =========                 |
  \\      /  F ield         | OpenFOAM: The Open Source CFD Toolbox
   \\    /   O peration     | Website:  https://openfoam.org
    \\  /    A nd           | Version:  11
     \\/     M anipulation  |
\*---------------------------------------------------------------------------*/
FoamFile
{
    format      ascii;
    class       volScalarField;
    location    "0.315";
    object      rho;
}
// * * * * * * * * * * * * * * * * * * * * * * * * * * * * * * * * * * * * * //

dimensions      [0 0 0 0 0 0 0];

internalField   nonuniform List<scalar> 
880
(
0.2239950333699092
0.2239950334884625
0.2240081864575949
0.2268006628643815
0.2239950333699283
0.2239950336518479
0.2240145182693181
0.2282959044829932
0.2239950333700029
0.22399503443249
0.2240339041752361
0.2301587683598249
0.2239950333790122
0.2239950386620462
0.2240816261496586
0.2329981384440488
0.2239950332902938
0.2239950332703882
0.2239950395946558
0.2239952455749321
0.2239950662274859
0.2239951151340603
0.2239964554402555
0.2239967816105782
0.2241988308390385
0.2243359304782469
0.2245698988751373
0.2247349126466087
0.2382642161540584
0.243444169088479
0.2476821617943578
0.2494868765085429
0.2239953996523678
0.2239976504514194
0.2240022300973157
0.2240234625031546
0.2240145376694246
0.2240650436520085
0.2241365185089423
0.2242841765005596
0.2259719825457986
0.2270035043145392
0.2282380225739856
0.2299313012112084
0.2515147887685139
0.2546702324042712
0.2554603738637887
0.2547890320053203
0.242952554346267
0.2365919128780792
0.2338686396850529
0.231457819782505
0.2332680291881444
0.2343071863279664
0.234998299943113
0.2351033202363997
0.2248879934816414
0.2255576789462573
0.2263401597397179
0.2269587553610762
0.2240963381536228
0.2242534131413322
0.2245044466437813
0.2248485285271775
0.2252197179652971
0.2255837748455279
0.2258953682657029
0.2260222458843297
0.2273905174444163
0.2276887803176576
0.2278915006529478
0.2279777706892375
0.2347308789559368
0.2342083792232042
0.2332341942146573
0.2324067081653088
0.2294041712419278
0.2286370757613365
0.2273270482827889
0.2273071554431233
0.2270803348059265
0.2317608328305352
0.2280175275546904
0.2260269489461927
0.2318479786747185
0.2311776207932676
0.2280345345813423
0.2258885186204455
0.266336488301996
0.2326489371222096
0.2274296462800564
0.2254703100866105
0.3374468247501924
0.2419191044493786
0.2278035267616364
0.2253470270445871
0.2247172580879732
0.2282973242214834
0.2563112472121724
0.3775053925303645
0.2245080756361623
0.2293615330251705
0.2709026891720658
0.3797944021247475
0.2247266610389946
0.2320869619077099
0.2916606541399187
0.3859245293237696
0.2254747177292396
0.2373939366464563
0.3124092030403679
0.3856498768606759
0.3800787009052692
0.3312748407065449
0.2469181668060881
0.2271308925436901
0.3700266115909114
0.3418260513664562
0.2603214481408639
0.2303283494284616
0.3556383922468351
0.3396744444636337
0.2751323926358708
0.2354631264021015
0.3388630724051235
0.3313061186116112
0.2843469028361157
0.2427572762080149
0.2514886424733675
0.2843437105433083
0.3104967866203757
0.3203177072873005
0.2521224763227547
0.2715595020585375
0.2867117660466984
0.2968736296530733
0.250153658791417
0.259521964459789
0.2637411080703276
0.2683006331201041
0.2470162504317355
0.2489104805114575
0.2415786330983191
0.2352544570757999
0.2444199423467476
0.2393294243256254
0.2219885790896143
0.1902231330821298
0.2392569807887368
0.2302512121694099
0.2078402485759603
0.1333525241660632
0.2348950356240795
0.2262912253740429
0.1974893411297991
0.0868265003645933
0.231316869937877
0.2245798226357379
0.1879340203168105
0.06152098077231748
0.07581894204596974
0.1867283836162645
0.2229938580767326
0.2282324548495339
0.08217944943326083
0.1853109618190436
0.2215737617585335
0.2262370563634725
0.07997656296927413
0.1826834840812062
0.2202281183061616
0.22496772159291
0.07530849140386986
0.1783995293664096
0.2191501312770512
0.2244244926274931
0.08808638953107768
0.1827751641920061
0.2186073434080024
0.2237976947232621
0.1051656936238258
0.1896142451511586
0.2186452191113151
0.2236019955601194
0.1240059331866707
0.1983216203034567
0.2195840074162768
0.2237272818105573
0.1458828586797317
0.2041487193361285
0.2207884350481576
0.223811609771953
0.1406502583073819
0.1845855224806219
0.2164480884749856
0.223496895171733
0.1401556740891876
0.1861161045765131
0.2163894989058783
0.2234642003543394
0.1403080971725918
0.1892822288245054
0.2163983369686749
0.2234315408604721
0.1445802530829706
0.193454977227609
0.216855778835171
0.2234214181158592
0.1458828586795823
0.2041487193358571
0.2207884350481933
0.2238116097710979
0.1240059331866245
0.1983216203029711
0.2195840074160527
0.2237272818097476
0.1051656936237741
0.1896142451507553
0.2186452191108066
0.2236019955592852
0.08808638953115537
0.1827751641915668
0.2186073434077796
0.2237976947230661
0.2282324548494304
0.222993858076892
0.1867283836162935
0.07581894204539065
0.2262370563632896
0.2215737617585084
0.1853109618188532
0.0821794494329314
0.2249677215930307
0.2202281183061477
0.1826834840804049
0.07997656296907556
0.224424492627501
0.2191501312773328
0.1783995293660583
0.07530849140389159
0.0615209807718991
0.1879340203165938
0.2245798226355668
0.2313168699376817
0.08682650036430468
0.197489341129785
0.2262912253742377
0.2348950356238545
0.133352524165903
0.2078402485762839
0.2302512121697533
0.239256980788978
0.1902231330823287
0.2219885790897462
0.239329424325366
0.2444199423471289
0.2514886424738593
0.2843437105443389
0.3104967866210779
0.3203177072870691
0.2521224763227006
0.2715595020586277
0.2867117660468801
0.2968736296531292
0.2501536587905838
0.2595219644603555
0.2637411080705261
0.2683006331200973
0.2470162504317034
0.2489104805114383
0.2415786330985659
0.2352544570761109
0.3388630724048592
0.3313061186116625
0.2843469028366279
0.2427572762096889
0.3556383922465279
0.3396744444638647
0.2751323926362653
0.2354631264023325
0.3700266115905487
0.3418260513665449
0.2603214481407062
0.2303283494289342
0.3800787009049486
0.3312748407066609
0.2469181668066823
0.2271308925440098
0.2247172580880849
0.2282973242214086
0.2563112472119463
0.3775053925299662
0.2245080756371776
0.2293615330257401
0.270902689171962
0.3797944021240274
0.224726661040381
0.2320869619091973
0.2916606541404054
0.3859245293231374
0.2254747177297544
0.2373939366456904
0.3124092030402271
0.3856498768603668
0.2253470270444773
0.2254703100865422
0.2258885186209416
0.2260269489462753
0.2278035267605745
0.2274296462798323
0.2280345345811586
0.2280175275545392
0.2419191044486736
0.2326489371221519
0.231177620792707
0.2317608328302634
0.3374468247495201
0.2663364883016114
0.2318479786748219
0.2270803348059964
0.2260222458846887
0.2279777706895696
0.2324067081657503
0.2273071554435072
0.2258953682654544
0.2278915006531858
0.2332341942150123
0.2273270482827932
0.2255837748454469
0.2276887803176161
0.2342083792230903
0.2286370757604541
0.2252197179647697
0.2273905174438652
0.2347308789563064
0.2294041712418874
0.2240963381533863
0.2248879934810823
0.2332680291885934
0.2429525543465548
0.2242534131406834
0.2255576789457573
0.2343071863286899
0.2365919128782216
0.2245044466440862
0.2263401597392648
0.2349982999430862
0.2338686396840657
0.2248485285267714
0.2269587553606054
0.2351033202370445
0.2314578197816473
0.2547890320051631
0.229931301211405
0.224284176500146
0.2240234625037059
0.2554603738636457
0.2282380225741813
0.2241365185083075
0.2240022300972754
0.2546702324045263
0.2270035043144682
0.2240650436507411
0.2239976504509701
0.2515147887684774
0.2259719825454348
0.2240145376689995
0.2239953996533419
0.2494868765083931
0.2247349126467758
0.2239967816106622
0.2239952455756943
0.2476821617942934
0.2245698988749135
0.2239964554395606
0.2239950395949173
0.243444169088549
0.2243359304780327
0.2239951151337334
0.2239950332702073
0.2382642161536842
0.2241988308389153
0.2239950662273841
0.2239950332915876
0.2239950333699092
0.2239950334889907
0.2240081864576528
0.2268006628634243
0.2239950333699094
0.2239950336512839
0.2240145182692724
0.2282959044809478
0.2239950333704309
0.2239950344321196
0.2240339041751686
0.2301587683557981
0.2239950333796535
0.2239950386616437
0.2240816261495052
0.2329981384432521
0.2293530628380128
0.2319926689530901
0.2363643650907361
0.2455898760377503
0.2319926689486621
0.2353904744899117
0.2425473481686733
0.2563011501989185
0.2363643650888561
0.2425473481687145
0.2541541774626543
0.2711004141837087
0.2455898760355138
0.256301150198014
0.2711004141852676
0.2893519573512464
0.307477297262133
0.2919892361054812
0.2855219688185141
0.2708227178934992
0.3039772299577227
0.2995748377571034
0.3001744965003142
0.2929115045086701
0.3044646891568549
0.3030120031956099
0.302313017173417
0.2996349602200944
0.3005213109209285
0.2997477210032821
0.2994403549866723
0.2976072536089444
0.2928006837887946
0.2906142337434897
0.2846622616907417
0.2770113324687904
0.2936911645820179
0.2910415599882549
0.2851664249528706
0.2777326482781657
0.2943807788679667
0.2915829814992433
0.2853569332735348
0.2784997787534385
0.2948076699248022
0.2913857283405368
0.2854078721999961
0.2755114633798815
0.2270079906053311
0.2055668563858247
0.2037610489701183
0.2048744175672918
0.2120046456955164
0.1991399372513666
0.2012279454657558
0.2029574424132725
0.1996558682209195
0.1987778807976222
0.2022092363154087
0.2038015622396941
0.1812314710078282
0.1940345202107567
0.2001996145782829
0.2021753386370291
0.2059353611413172
0.2070461259342065
0.2085613778313359
0.2108159954441659
0.2044107948003242
0.2059623436563685
0.2078313401667723
0.2103383541285678
0.2049669460315184
0.2063506530830747
0.2081709122377049
0.2100336883149709
0.2036811121105887
0.2053992551544773
0.2074200237947334
0.2101723332410558
0.2147089486622251
0.2593300821553405
0.3328989849419058
0.3800268209192474
0.2157590483722211
0.2710243758956461
0.3360140866907117
0.3607491199101793
0.2169382345983994
0.2745478940530816
0.3351482776997281
0.3556535917722917
0.2177007723163101
0.2818318225905486
0.339157139461442
0.3526077953957625
0.4417275116279883
0.4316113507071057
0.4283015124912731
0.4175801891310362
0.4377975030247018
0.431219069617287
0.4292435344652112
0.4188980244589741
0.4318261567279523
0.4288564074899267
0.4276904025357179
0.4189331409889949
0.4227992162046585
0.4298766029330148
0.4280039606642032
0.419803320258996
0.4008216538407674
0.3834838605507617
0.3634648107638475
0.3471815315549309
0.4017311441003029
0.3842351304249641
0.364765052438024
0.3473898790449849
0.402606542084917
0.3849213343432517
0.3654608446089785
0.3475806670227669
0.4041143249554923
0.3880402669569113
0.3694136245855686
0.349948015623436
0.3328327395763951
0.316295412780658
0.2958516920385191
0.2614683974347493
0.3336054287973171
0.3189440183575598
0.298566453996908
0.2689544779032499
0.3341297436423219
0.3200811914259516
0.2972734841930366
0.2682419013393137
0.33681713144534
0.3245733220050205
0.2981380744816723
0.3081288481013626
0.1732491714260402
0.05031622306915757
0.01176490047206506
0.007299491030261221
0.1356064712601265
0.03518603018212986
0.01358706447488785
0.01155961938692241
0.1026187150322609
0.02644548033824295
0.01517644578411576
0.01364551019306328
0.07333586136516104
0.01760770275330387
0.01515244206616822
0.01490786409583557
0.01260078780091799
0.01969643501377107
0.02415863433216776
0.03292473639390337
0.01734979519891194
0.02403774926803015
0.02951856805702723
0.03875718398429448
0.02058228930719056
0.02742624034400289
0.03497301233473923
0.04484819240866824
0.02269968301601086
0.03025418975328219
0.04016281827380692
0.0495235410219351
0.04226722225472592
0.05932462926720182
0.07831707075967349
0.1026478599877142
0.04493962393213659
0.05971453533266611
0.07730599006849297
0.09902691084457231
0.0477304778087391
0.05988412102330645
0.07416425581607351
0.09473334297193318
0.04655059850902109
0.05598333638887572
0.06622957950067199
0.09258908202708617
0.1107880750704497
0.1086967423384562
0.1061482478204797
0.1033953888763155
0.09631767425324068
0.09701616780521478
0.09625529690422288
0.09634745428210927
0.08603302929181322
0.09202253719902094
0.09256464490039872
0.09404978638966779
0.071911610500152
0.08180970879750832
0.08646913950833661
0.09242548471568225
0.09931831176489396
0.1054476223885382
0.1096465902628326
0.1111411555700514
0.09808489744547898
0.1027582225977536
0.1067468579492562
0.1091399763025481
0.0991753980549398
0.1024772710846126
0.1063519685079163
0.1084975391905102
0.1034773679138035
0.1056337484754066
0.1084664602671027
0.1101703982828496
0.1111411555700826
0.1091399763025739
0.1084975391905251
0.1101703982828522
0.1096465902629261
0.1067468579493506
0.1063519685079671
0.108466460267115
0.105447622388699
0.1027582225979001
0.1024772710846876
0.1056337484754409
0.09931831176507629
0.09808489744562331
0.09917539805502004
0.1034773679138727
0.1033953888763917
0.1061482478205523
0.1086967423385179
0.1107880750704358
0.09634745428218146
0.0962552969042956
0.09701616780529355
0.09631767425330347
0.09404978638979296
0.0925646449004951
0.09202253719912978
0.08603302929191747
0.09242548471584526
0.08646913950847075
0.08180970879764969
0.07191161050027305
0.09258908202725044
0.06622957950092688
0.0559833363891338
0.04655059850929515
0.09473334297203768
0.07416425581626428
0.05988412102353921
0.04773047780899389
0.09902691084462054
0.07730599006865925
0.05971453533286582
0.04493962393238626
0.1026478599877037
0.07831707075979093
0.05932462926739171
0.04226722225497676
0.03292473639410528
0.02415863433229347
0.01969643501372654
0.01260078780082182
0.03875718398451591
0.02951856805719048
0.024037749268073
0.01734979519888123
0.04484819240890137
0.0349730123349303
0.02742624034408761
0.02058228930718154
0.04952354102218505
0.04016281827403879
0.03025418975341298
0.02269968301603809
0.007299491030257067
0.01176490047192861
0.05031622306892735
0.1732491714261541
0.01155961938690798
0.01358706447484625
0.03518603018208809
0.1356064712602304
0.01364551019303208
0.01517644578404403
0.02644548033823603
0.1026187150323393
0.01490786409580249
0.01515244206612396
0.01760770275330085
0.07333586136521306
0.2614683974349459
0.2958516920384459
0.3162954127805614
0.3328327395759252
0.2689544779034856
0.2985664539969137
0.3189440183575152
0.3336054287969484
0.2682419013395907
0.297273484193089
0.3200811914258841
0.3341297436420792
0.3081288481016035
0.2981380744817456
0.3245733220049093
0.3368171314450595
0.3471815315542996
0.3634648107631276
0.3834838605504299
0.4008216538405683
0.347389879044478
0.3647650524374985
0.3842351304246477
0.4017311441001093
0.3475806670223364
0.3654608446086385
0.384921334342914
0.4026065420847926
0.3499480156230515
0.3694136245853182
0.3880402669565912
0.4041143249553962
0.4175801891308985
0.4283015124909314
0.4316113507064628
0.4417275116276845
0.4188980244589511
0.4292435344652811
0.4312190696166063
0.43779750302454
0.4189331409892983
0.4276904025361182
0.4288564074892234
0.4318261567279248
0.4198033202593917
0.4280039606646099
0.4298766029322824
0.4227992162047947
0.3800268209188611
0.3328989849413575
0.2593300821552712
0.2147089486626581
0.3607491199098547
0.3360140866902706
0.2710243758956145
0.2157590483726493
0.3556535917720002
0.3351482776993768
0.2745478940530571
0.2169382345988178
0.352607795395509
0.3391571394610779
0.2818318225904836
0.2177007723167496
0.2108159954444953
0.2085613778309722
0.2070461259331756
0.2059353611408636
0.2103383541288625
0.2078313401663219
0.2059623436553901
0.2044107948000558
0.2100336883152736
0.2081709122372168
0.2063506530821798
0.2049669460313857
0.2101723332413656
0.2074200237942781
0.20539925515349
0.2036811121106337
0.2048744175663532
0.2037610489693842
0.2055668563860364
0.2270079906056235
0.2029574424122844
0.2012279454649312
0.199139937251728
0.2120046456957302
0.203801562238673
0.2022092363146283
0.198777880798069
0.19965586822104
0.2021753386358892
0.2001996145773378
0.1940345202111567
0.1812314710079382
0.2770113324687615
0.2846622616908745
0.2906142337441567
0.2928006837890645
0.2777326482781251
0.2851664249531257
0.2910415599889406
0.2936911645823322
0.2784997787534035
0.285356933273979
0.2915829814999457
0.294380778868196
0.2755114633798302
0.285407872200454
0.2913857283413238
0.2948076699251047
0.2976072536084582
0.2996349602194978
0.2929115045080352
0.2708227178943565
0.2994403549862588
0.302313017172808
0.3001744964993295
0.2855219688184505
0.2997477210028772
0.3030120031950262
0.2995748377561037
0.2919892361045231
0.3005213109205377
0.3044646891563684
0.3039772299567079
0.3074772972600759
0.161175058485752
0.2045921686386939
0.220594340037122
0.2238059652117257
0.1613323691274904
0.2024182901558464
0.2196423650491991
0.2237094387943612
0.1586109775932435
0.2002913620686994
0.2187548129991823
0.2235937592655139
0.150858721313301
0.1969655503194628
0.2177346729269297
0.2234898231866784
0.223496895171876
0.2164480884751958
0.1845855224806848
0.1406502583073663
0.2234642003543281
0.2163894989061645
0.1861161045765392
0.1401556740891061
0.2234315408604364
0.2163983369684195
0.1892822288244398
0.1403080971724597
0.2234214181159718
0.2168557788347895
0.1934549772275664
0.144580253082863
0.2234898231864151
0.2235937592651771
0.2237094387941603
0.2238059652110213
0.2177346729264204
0.2187548129990101
0.2196423650488485
0.220594340036971
0.1969655503193941
0.2002913620686673
0.2024182901559932
0.2045921686387763
0.1508587213131882
0.1586109775931928
0.1613323691274938
0.1611750584856839
)
;

boundaryField
{
    back
    {
        type            empty;
    }
    inlet
    {
        type            calculated;
        value           nonuniform List<scalar> 
16
(
0.2239950333699092
0.2239950333699283
0.2239950333700029
0.2239950333790122
0.2239950332902938
0.2239950332703882
0.2239950395946558
0.2239952455749321
0.2239952455756943
0.2239950395949174
0.2239950332702073
0.2239950332915876
0.2239950333699092
0.2239950333699094
0.2239950333704309
0.2239950333796535
)
;
    }
    front
    {
        type            empty;
    }
    top
    {
        type            calculated;
        value           nonuniform List<scalar> 
40
(
0.2239953996523678
0.2239976504514194
0.2240022300973157
0.2240234625031546
0.2240963381536228
0.2242534131413322
0.2245044466437813
0.2248485285271775
0.2252197179652971
0.2255837748455279
0.2258953682657029
0.2260222458843298
0.2260269489461927
0.2258885186204455
0.2254703100866104
0.2253470270445871
0.2247172580879732
0.2245080756361623
0.2247266610389946
0.2254747177292396
0.2271308925436901
0.2303283494284616
0.2354631264021015
0.2427572762080149
0.2514886424733675
0.2521224763227547
0.250153658791417
0.2470162504317355
0.2444199423467476
0.2392569807887368
0.2348950356240795
0.231316869937877
0.2282324548495339
0.2262370563634725
0.22496772159291
0.2244244926274931
0.2237976947232621
0.2236019955601194
0.2237272818105573
0.223811609771953
)
;
    }
    outlet
    {
        type            calculated;
        value           uniform 0.2239950333699093;
    }
    bottom
    {
        type            calculated;
        value           nonuniform List<scalar> 
40
(
0.2238116097710979
0.2237272818097476
0.2236019955592852
0.223797694723066
0.2282324548494304
0.2262370563632896
0.2249677215930307
0.224424492627501
0.2313168699376817
0.2348950356238545
0.239256980788978
0.2444199423471289
0.2514886424738593
0.2521224763227006
0.2501536587905838
0.2470162504317034
0.2427572762096889
0.2354631264023325
0.2303283494289342
0.2271308925440098
0.2247172580880849
0.2245080756371776
0.2247266610403809
0.2254747177297544
0.2253470270444772
0.2254703100865422
0.2258885186209416
0.2260269489462753
0.2260222458846887
0.2258953682654544
0.225583774845447
0.2252197179647697
0.2240963381533863
0.2242534131406834
0.2245044466440862
0.2248485285267714
0.2240234625037059
0.2240022300972754
0.2239976504509701
0.2239953996533419
)
;
    }
    wall
    {
        type            calculated;
        value           nonuniform List<scalar> 
104
(
0.307477297262133
0.3039772299577227
0.3044646891568549
0.3005213109209285
0.2948076699248022
0.2913857283405368
0.2854078721999961
0.2755114633798815
0.1812314710078282
0.1940345202107567
0.2001996145782829
0.2021753386370291
0.2036811121105887
0.2053992551544773
0.2074200237947335
0.2101723332410558
0.2177007723163101
0.2818318225905486
0.339157139461442
0.3526077953957625
0.4227992162046585
0.4298766029330148
0.4280039606642032
0.419803320258996
0.4041143249554923
0.3880402669569113
0.3694136245855686
0.349948015623436
0.33681713144534
0.3245733220050205
0.2981380744816723
0.3081288481013626
0.07333586136516104
0.01760770275330387
0.01515244206616822
0.01490786409583557
0.02269968301601086
0.03025418975328219
0.04016281827380692
0.0495235410219351
0.04655059850902109
0.05598333638887573
0.06622957950067199
0.09258908202708617
0.071911610500152
0.08180970879750832
0.08646913950833661
0.09242548471568225
0.09931831176489396
0.1054476223885382
0.1096465902628326
0.1111411555700514
0.1111411555700826
0.1096465902629261
0.105447622388699
0.0993183117650763
0.09242548471584526
0.08646913950847075
0.08180970879764969
0.07191161050027305
0.09258908202725043
0.06622957950092688
0.0559833363891338
0.04655059850929515
0.04952354102218505
0.04016281827403879
0.03025418975341298
0.02269968301603809
0.01490786409580249
0.01515244206612396
0.01760770275330085
0.07333586136521306
0.3081288481016035
0.2981380744817456
0.3245733220049093
0.3368171314450595
0.3499480156230515
0.3694136245853182
0.3880402669565912
0.4041143249553962
0.4198033202593917
0.4280039606646099
0.4298766029322824
0.4227992162047947
0.352607795395509
0.3391571394610779
0.2818318225904836
0.2177007723167496
0.2101723332413656
0.2074200237942781
0.20539925515349
0.2036811121106337
0.2021753386358892
0.2001996145773378
0.1940345202111567
0.1812314710079382
0.2755114633798302
0.285407872200454
0.2913857283413238
0.2948076699251047
0.3005213109205377
0.3044646891563684
0.3039772299567079
0.3074772972600759
)
;
    }
}


// ************************************************************************* //
