/*--------------------------------*- C++ -*----------------------------------*\
  =========                 |
  \\      /  F ield         | OpenFOAM: The Open Source CFD Toolbox
   \\    /   O peration     | Website:  https://openfoam.org
    \\  /    A nd           | Version:  11
     \\/     M anipulation  |
\*---------------------------------------------------------------------------*/
FoamFile
{
    format      ascii;
    class       volScalarField;
    location    "7";
    object      p;
}
// * * * * * * * * * * * * * * * * * * * * * * * * * * * * * * * * * * * * * //

dimensions      [0 2 -2 0 0 0 0];

internalField   nonuniform List<scalar> 
4455
(
5730.7861
5739.1264
5757.0249
5785.2156
5826.9428
5882.2697
5957.7906
6058.9231
6211.1901
5757.9829
5764.7809
5781.7697
5810.4521
5853.7442
5915.6397
6000.7979
6116.2945
6281.055
5779.8351
5785.3379
5802.1761
5831.5957
5877.0302
5943.226
6032.7016
6154.3919
6319.156
5795.715
5800.9493
5818.0102
5848.4778
5896.3337
5968.0665
6063.4624
6200.718
6376.666
5805.9381
5811.891
5829.3948
5860.9644
5912.063
5990.031
6094.0971
6249.3875
6432.6003
5810.6928
5818.2977
5836.7059
5869.2481
5923.9434
6008.3629
6123.8015
6297.9169
6494.0707
5810.1896
5820.2365
5840.1313
5874.1459
5932.1959
6022.1376
6149.0269
6346.7014
6557.2699
5804.9038
5818.0745
5840.2303
5876.0931
5936.4691
6031.6815
6168.6182
6396.8806
6628.1204
5796.1427
5812.3585
5837.027
5874.7763
5936.6712
6037.4283
6182.3714
6448.6602
6713.1035
5785.2717
5773.2152
5761.1485
5749.4821
5738.5174
5728.7797
5720.7031
5714.6377
5710.7853
5803.7423
5792.9394
5780.6699
5767.9218
5755.4202
5743.4748
5732.3217
5722.2631
5713.3049
5830.4979
5820.9246
5808.9546
5795.26
5780.371
5765.1099
5749.655
5734.8187
5721.041
5870.5372
5862.7081
5851.191
5836.6668
5820.0563
5802.3275
5783.7661
5765.2442
5747.064
5934.0057
5927.7336
5917.3731
5903.3922
5886.4521
5867.2672
5846.0664
5823.5429
5800.4297
6041.0213
6040.8278
6036.5126
6027.1357
6012.6066
5993.6825
5971.3917
5947.261
5922.6256
6193.8469
6201.2702
6206.564
6207.4125
6199.8399
6184.2165
6160.5307
6131.1011
6098.7323
6510.5899
6568.7634
6605.1743
6622.1056
6618.1469
6598.5614
6567.185
6528.1897
6484.5598
6845.3663
7050.2805
7190.1387
7202.4333
7153.2713
7082.3388
6991.5498
6887.1715
6773.5309
5709.967
5708.1701
5704.9649
5700.7756
5695.5689
5689.4411
5682.0425
5673.4207
5663.2817
5707.515
5701.9867
5695.314
5687.6966
5679.1804
5669.3349
5657.868
5644.7125
5630.0009
5710.9552
5704.2454
5697.9281
5690.8612
5682.5427
5672.7482
5661.6267
5649.2865
5635.304
5732.7833
5725.0644
5719.4558
5713.7029
5706.3517
5697.1465
5686.1178
5672.9092
5658.2258
5782.2037
5776.043
5773.6717
5771.185
5766.3977
5758.7552
5748.1884
5734.9005
5719.4405
5902.8707
5896.2571
5893.6861
5890.4529
5884.1207
5874.0395
5859.8588
5842.3374
5822.294
6072.7283
6064.9169
6062.4749
6057.8737
6047.9852
6032.589
6012.1304
5987.9
5960.9916
6442.1932
6407.5472
6374.1491
6337.4922
6295.1195
6246.3929
6193.0583
6137.5111
6082.116
6673.4548
6586.6273
6498.9649
6408.9844
6316.2298
6222.7325
6133.2134
6049.4888
5974.1197
5919.0107
5869.3236
5834.2217
5826.0526
5845.5215
5882.7352
5933.0969
5988.7561
6046.8109
6032.6847
5990.4287
5953.2714
5921.5149
5895.541
5875.9326
5861.9989
5852.707
5849.2447
5933.2311
5907.0697
5881.6703
5856.6447
5832.1504
5808.2501
5784.8775
5762.0148
5740.2185
5800.9394
5779.5789
5757.3329
5734.1342
5709.5952
5683.6813
5656.3503
5628.0565
5598.8722
5702.3832
5684.2779
5664.9981
5644.3079
5621.694
5597.0424
5570.0924
5541.0359
5509.9499
5641.0917
5621.8546
5602.1213
5580.1143
5555.7795
5529.7778
5501.6824
5471.0051
5438.1716
5619.7973
5602.7224
5583.8461
5562.7457
5539.5687
5514.0367
5486.1416
5455.5309
5422.7529
5613.5331
5595.6669
5575.7913
5553.5834
5529.594
5503.76
5475.2238
5443.6875
5409.5447
5650.4823
5635.633
5619.0397
5600.8388
5580.6311
5558.1291
5532.9524
5505.0593
5474.5284
5440.859
5404.2734
5364.4674
5320.4787
5272.3475
5220.3925
5164.035
5103.6834
5038.8207
5372.9007
5333.3147
5289.8451
5243.8867
5194.1062
5140.6036
5083.8968
5023.9205
4958.7773
5386.8337
5348.4483
5308.1812
5263.9319
5216.144
5165.8436
5112.0152
5053.7519
4992.9387
5403.0628
5365.1476
5324.7001
5281.4571
5235.7513
5187.3548
5135.8949
5080.806
5022.2612
5477.0251
5442.3532
5405.9322
5367.6569
5327.3967
5284.7327
5239.4871
5191.1159
5139.5842
5568.8051
5537.8603
5506.026
5473.4487
5440.2828
5406.0475
5370.2936
5332.2845
5291.4256
5720.0549
5701.8966
5685.7409
5670.9645
5656.1272
5641.0667
5626.3551
5609.4435
5591.1126
5851.1997
5858.035
5868.9809
5884.607
5903.1834
5922.1543
5944.612
5967.5881
5986.2582
6112.3804
6176.083
6242.3177
6315.5766
6383.8133
6457.7548
6536.5212
6606.0039
6680.7493
6756.2829
6005.7185
5570.5365
5246.8048
5084.3301
4959.5664
4926.8602
4889.8032
4969.3082
6813.0711
6022.3421
5545.6707
5198.3008
5025.2146
4892.7277
4857.8423
4817.4674
4894.2454
6855.7229
6025.162
5515.9778
5144.524
4961.5375
4820.8531
4785.7857
4740.1686
4814.1849
6890.2158
6018.0418
5480.4042
5084.6906
4892.7723
4743.7101
4705.9322
4657.5939
4728.0679
6866.9488
6001.3854
5437.0387
5017.6205
4818.2714
4661.0887
4621.7923
4570.8659
4636.884
6764.6009
5959.2475
5385.6225
4942.2487
4737.337
4572.6995
4533.7053
4479.0373
4540.0282
6652.7818
5877.6513
5323.6341
4857.7114
4649.3337
4477.7639
4439.1305
4382.47
4437.8964
6502.6301
5784.1603
5250.3292
4763.3667
4553.3266
4375.6488
4338.147
4280.94
4331.2914
6396.4094
5714.2188
5167.0676
4659.1779
4448.7147
4266.5641
4232.61
4174.32
4221.1522
4113.0558
4062.3833
4118.9224
4148.9525
4331.0359
4541.1671
5068.6106
5654.2451
6657.9592
4005.9008
3945.8123
3996.4758
4022.1269
4198.3773
4403.6748
4938.3402
5563.1849
6829.381
3877.5016
3823.6097
3866.7777
3886.1059
4052.4117
4245.9734
4781.8071
5426.6731
6849.5867
3738.3341
3695.8073
3731.5391
3741.8338
3894.3
4070.6596
4602.5866
5241.2669
6744.7192
3594.0108
3562.9927
3590.1295
3589.6652
3724.5632
3879.5866
4403.5013
5039.7712
6548.9322
3449.4595
3426.2081
3443.4349
3431.1399
3545.0198
3674.6684
4183.2374
4813.3264
6304.3103
3300.0668
3285.4254
3292.1262
3266.726
3356.199
3458.498
3940.5686
4559.6869
6034.2522
3151.8015
3142.8379
3137.3589
3098.5794
3158.2801
3229.5535
3679.7071
4279.3873
5726.9287
3000.6024
2998.6142
2980.9946
2926.9008
2956.3996
2991.7785
3400.5908
3974.4705
5405.0518
5074.2647
3647.1847
3101.5305
2743.3022
2749.665
2753.4102
2825.1099
2853.7465
2851.768
4730.6052
3294.1757
2785.1212
2485.0159
2538.1853
2580.4705
2669.9485
2711.7394
2703.341
4370.5524
2907.764
2453.6634
2222.5432
2328.6093
2407.8012
2518.4272
2573.1936
2561.6648
3996.7575
2501.5067
2108.8049
1957.5605
2123.0023
2241.8202
2372.495
2438.1993
2422.6732
3599.8761
2069.4116
1754.9594
1693.9171
1918.638
2081.7089
2231.8224
2308.4507
2293.3861
3179.29
1610.2654
1392.357
1434.6949
1725.0041
1931.0955
2100.0725
2187.6957
2170.0429
2724.5469
1121.2655
1031.1934
1188.837
1546.4617
1792.2367
1979.3679
2075.9229
2059.6663
2238.2392
610.78647
671.79419
961.23908
1379.7956
1667.5069
1871.9925
1973.7041
1955.7405
1704.132
77.992801
328.20823
753.43997
1235.1059
1560.7336
1775.4242
1883.026
1868.1876
1786.726
1804.217
1693.4802
1470.1085
1112.4719
570.10275
-12.906047
-508.63593
1066.9928
1720.6438
1735.6073
1626.0042
1402.3024
1019.796
424.58655
-312.14748
-1143.0353
248.89015
1657.6842
1680.3388
1575.1304
1357.979
962.923
326.92464
-544.70458
-1754.7883
-708.13186
1610.1292
1634.2938
1538.0624
1334.1442
941.88948
281.1355
-691.63201
-2289.4612
-1847.9526
1563.5798
1596.6826
1513.3824
1329.6983
951.61087
290.85087
-728.65668
-2676.3879
-3232.7806
1527.2579
1569.2883
1497.8027
1340.9025
989.1049
349.25261
-646.95114
-2860.5388
-4849.709
1486.9359
1539.9549
1489.2601
1361.9061
1051.2868
447.41877
-476.75104
-2784.7257
-6652.6798
1455.1167
1510.8219
1483.2202
1386.6086
1130.9039
578.18306
-251.23025
-2399.2057
-8121.4293
1376.0515
1483.3784
1479.2534
1411.5721
1211.8658
722.20475
-34.724019
-1638.0279
-9035.6445
1274.5308
1452.1975
1464.9826
1430.1809
1266.5037
840.83257
101.41314
-830.74421
-9923.7653
1180.1119
1418.7258
1436.1267
1443.8933
1292.6231
860.73468
3.7783444
-1415.9474
-11752.43
1104.9296
1375.3931
1397.1643
1453.5668
1312.0069
849.27798
-221.69993
-2304.3095
-14231.345
1024.7048
1330.8002
1361.0754
1465.8634
1338.1631
864.67796
-432.06544
-3205.7807
-14224.627
934.63576
1279.5968
1327.1718
1482.0748
1372.6906
915.54972
-581.06267
-4308.8729
-11509.156
828.89692
1221.1
1294.1894
1502.4133
1417.2265
1008.4785
-674.43062
-5439.6349
-10843.21
711.45871
1152.3362
1256.0799
1524.0962
1473.5177
1144.4506
-782.6799
-6486.129
-11807.112
582.30386
1071.6172
1210.7926
1544.0919
1544.5326
1312.6786
-990.94303
-7317.4472
-12571.896
446.07978
976.47808
1153.5141
1556.5315
1635.6143
1519.2727
-1224.8931
-7695.2892
-12985.231
-12843.317
-7536.2897
-1338.9966
1698.8027
1724.768
1546.8197
1089.596
866.23578
305.8237
-12746.161
-7412.7543
-1318.0269
1880.7557
1802.0659
1522.9054
1020.3622
743.17385
166.88442
-12606.152
-7393.1419
-1258.4939
2092.876
1877.4412
1488.3469
938.4724
607.05332
26.00525
-12482.511
-7415.4619
-1186.4372
2294.8695
1942.1992
1438.6196
840.67745
459.9454
-114.82491
-12336.326
-7431.6982
-1119.5083
2486.573
1992.246
1375.3095
727.91552
303.15684
-252.7084
-12202.348
-7451.3209
-1028.7921
2662.2634
2025.6216
1294.0977
601.27201
140.30214
-383.90683
-12083.768
-7456.2854
-939.02044
2829.1369
2043.132
1194.325
462.29263
-24.648463
-508.2798
-11910.193
-7395.0485
-867.14619
2962.3758
2041.9802
1081.7768
311.4523
-189.57467
-622.65825
-11631.757
-7352.2204
-766.15821
3054.0634
2019.7453
946.18489
148.0469
-354.66566
-724.90033
-11374.648
-7000.6807
-388.19891
3263.5348
1956.6385
681.67324
-153.22978
-632.90669
-868.34682
-10713.034
-6308.4719
552.58708
3395.615
1596.5084
151.18705
-597.98868
-987.94645
-1000.7174
-9811.2592
-5712.7302
1199.8977
3248.0545
1049.3221
-463.41236
-1072.4913
-1262.4111
-1052.6368
-9660.2843
-5281.1407
1401.0183
2858.7202
462.44233
-1121.1701
-1479.087
-1433.7907
-998.91662
-9422.0586
-4840.5778
1342.906
2409.0912
-168.45342
-1766.4797
-1802.4506
-1476.3541
-835.85951
-9159.9558
-4345.5677
1142.8378
1928.393
-865.28181
-2393.4969
-2002.4645
-1379.2192
-662.73231
-8966.5496
-3910.7961
690.92085
1432.282
-1556.4016
-2953.5542
-2063.1176
-1176.8599
-523.20948
-8857.6098
-3521.2397
162.94488
1033.2581
-2306.4023
-3419.3
-1967.5633
-928.06078
-390.42628
-8802.5314
-3190.006
-328.46547
862.95857
-2948.1209
-3734.5799
-1732.1472
-698.83149
-319.69803
-10061.745
-9171.5839
-8147.436
-4965.3693
-4427.3965
-4071.1574
-3718.7067
-2413.6316
-296.0697
-10032.636
-8900.2353
-7954.1899
-4859.9096
-4733.3251
-4489.996
-4130.5606
-2599.9008
-422.10935
-9997.8015
-8618.0861
-7734.805
-4719.1685
-5006.3478
-4900.4288
-4501.0859
-2741.2864
-530.38501
-9963.9446
-8324.8449
-7486.2554
-4538.2987
-5247.9654
-5301.5016
-4804.8551
-2827.4904
-621.99615
-9929.7731
-8020.7383
-7208.0816
-4327.05
-5448.7605
-5670.7694
-5010.7928
-2852.7577
-696.08464
-9891.8686
-7709.988
-6901.7053
-4083.9474
-5590.6106
-5989.6464
-5113.2856
-2822.5598
-750.99755
-9837.9764
-7398.4655
-6571.7758
-3800.5227
-5671.848
-6260.8359
-5112.6413
-2736.4766
-797.87331
-9767.3522
-7089.3628
-6225.3006
-3483.5772
-5690.3252
-6471.4511
-5004.8618
-2592.325
-843.59467
-9695.245
-6774.0511
-5859.9771
-3135.3344
-5615.5558
-6624.3287
-4797.1012
-2394.6964
-892.1166
-9554.2963
-13132.429
-6950.7856
-1362.0352
326.08899
1070.1315
1674.2181
2164.8251
2010.2829
-9669.9287
-13640.282
-7445.0456
-1975.4935
161.27971
1028.4319
1521.1461
2091.8007
2134.8053
-9715.0038
-14028.962
-7930.1616
-2656.9713
-114.90997
884.00295
1356.0095
2021.1064
2113.1092
-9761.7786
-14291.421
-8420.0434
-3345.5087
-458.91609
733.02518
1198.261
1816.6671
2045.4039
-10007.166
-14402.322
-8921.212
-4023.3265
-885.8818
543.86157
1092.5441
1649.0191
1928.7767
-10434.526
-14463.579
-9424.8869
-4642.4099
-1390.6083
254.23399
964.38963
1460.8927
1827.0864
-10837.624
-14503.825
-9902.2241
-5206.1963
-1924.872
-90.442929
769.36072
1254.3952
1716.5012
-11019.277
-14458.95
-10320.588
-5668.4404
-2428.2659
-469.32821
542.13534
1020.7259
1596.14
-10975.574
-14016.031
-10659.794
-6013.1988
-2863.2631
-836.50779
298.84683
775.01547
1441.8154
396.07617
-446.20734
-761.67135
-2022.2578
-3425.2178
-5752.8131
-9532.3816
-11861.171
-9301.2576
558.67825
-318.74557
-665.68887
-1953.5508
-3463.8596
-5884.422
-9898.2265
-12233.727
-9460.2604
699.07374
-184.04983
-561.58125
-1860.2991
-3468.9192
-5974.2714
-10205.36
-12563.129
-9621.2137
819.11319
-48.006981
-449.52641
-1747.9574
-3448.8453
-6037.702
-10456.736
-12870.708
-9794.3314
930.03089
85.337638
-333.09416
-1625.7646
-3412.826
-6090.7356
-10660.095
-13190.451
-9972.9861
1035.8784
213.56462
-218.26139
-1498.1988
-3361.112
-6139.5598
-10816.317
-13435.678
-10164.552
1136.9234
337.22011
-105.11207
-1369.7809
-3291.8142
-6177.4644
-10925.561
-13669.242
-10406.215
1228.6886
458.1765
4.8389021
-1238.7393
-3215.0741
-6199.538
-10983.876
-13813.706
-10756.789
1312.751
577.29719
112.06913
-1102.2436
-3115.0938
-6185.9771
-11002.218
-13982.74
-10960.803
-9075.8753
-11357.502
-9038.0647
-5546.5929
-3347.6042
-2064.9984
-853.42144
-563.77143
220.37618
-8797.3571
-10926.135
-8363.6254
-5271.7916
-3255.8424
-2088.1519
-943.13844
-672.46833
62.783033
-8767.4135
-10822.274
-7658.7687
-4957.845
-3143.2883
-2088.3631
-1022.7561
-769.94088
-73.378649
-8146.9303
-9905.4551
-6968.8746
-4633.42
-3028.6713
-2068.6582
-1090.1506
-855.32062
-205.68603
-6719.5135
-8747.5654
-6324.3824
-4306.3859
-2889.4376
-2027.0418
-1143.8138
-925.83796
-337.56242
-7895.4514
-7683.0864
-5692.4393
-3979.1761
-2734.3224
-1964.3407
-1179.5015
-978.71998
-461.63357
-9299.9312
-6724.3123
-5048.7177
-3644.6177
-2574.4903
-1897.7922
-1204.4681
-1016.4437
-579.45463
-9057.9276
-5882.2975
-4449.4069
-3345.5809
-2432.6987
-1829.7541
-1233.9287
-1044.5438
-672.29913
-8071.4944
-5248.9136
-4024.6165
-3133.2712
-2337.7203
-1786.2259
-1269.6397
-1068.7746
-741.12103
-510.08478
-465.03988
-558.39335
-709.37195
-871.27079
-1034.4793
-952.63468
-463.50437
1313.5857
-650.59976
-630.696
-747.21037
-937.181
-1159.1359
-1402.1934
-1453.3872
-1136.6761
652.44459
-767.54255
-772.30139
-913.82896
-1142.8996
-1426.7844
-1748.6008
-1942.3546
-1842.7643
-85.787942
-851.33951
-886.07133
-1053.6467
-1321.2127
-1663.2859
-2066.3618
-2401.0163
-2553.1098
-916.05367
-899.33627
-970.36497
-1166.1157
-1468.8312
-1868.6961
-2350.0186
-2819.685
-3251.9772
-1840.086
-915.98284
-1029.8411
-1246.5224
-1583.6903
-2031.3196
-2590.2723
-3182.7917
-3897.058
-2892.3689
-903.40403
-1068.7729
-1295.8452
-1669.065
-2157.5773
-2781.1021
-3474.7905
-4449.0484
-4111.803
-865.88628
-1088.4893
-1312.3146
-1726.1383
-2241.3988
-2918.4547
-3677.698
-4848.2815
-5513.7497
-803.94594
-1087.1704
-1303.6426
-1761.9615
-2289.7886
-3012.5568
-3801.7184
-5043.136
-6806.518
1834.8439
122.83284
-472.00799
-665.16783
-572.89482
-467.96328
-351.42223
-282.37327
-349.25682
2282.9022
640.95868
-23.829083
-305.08029
-273.18823
-221.03003
-133.77201
-84.656576
-165.88657
2694.5515
1128.3867
415.84226
56.22988
30.735709
37.177952
95.393522
125.54129
35.228536
3090.2565
1587.6603
838.21216
415.1083
339.99295
299.10747
331.92795
343.73256
250.45279
3455.718
2019.2455
1245.4253
768.51916
643.88795
562.98189
574.14009
568.4527
478.03651
3808.6779
2424.3995
1633.7164
1108.4819
946.72533
826.29163
819.45634
796.65792
713.46899
4141.9068
2806.1941
2005.0651
1438.6514
1243.2359
1086.4066
1061.475
1025.94
953.74476
4470.5581
3165.6335
2354.7192
1751.6259
1529.4268
1341.1782
1302.6755
1253.4225
1190.046
4785.4522
3504.7774
2686.2771
2051.1104
1807.3679
1586.7803
1540.2768
1477.2047
1423.8276
3201.2875
3142.1168
3268.5466
3316.4461
3658.4007
3974.6787
4757.5099
5655.7896
7291.8976
3059.1098
2996.1234
3121.8037
3175.9858
3522.7724
3844.1071
4635.7136
5540.8406
7071.1942
2903.0483
2841.6066
2961.9539
3021.7838
3365.3065
3684.7838
4466.4747
5357.6032
6784.5757
2722.9701
2675.6595
2788.5934
2856.1555
3188.3952
3502.1717
4268.1866
5141.2059
6511.2317
2522.591
2499.1486
2605.0356
2673.6275
2994.4741
3299.8658
4047.3053
4908.0667
6240.9436
2313.6049
2311.9796
2411.8151
2479.2599
2785.3386
3081.6884
3810.6224
4662.5959
5966.4984
2098.479
2114.2629
2207.4559
2271.2601
2559.3281
2848.0491
3557.5984
4401.105
5684.0348
1879.7766
1909.2917
1992.7259
2053.3825
2322.571
2598.7267
3287.3014
4122.2495
5393.8081
1653.7146
1696.3328
1770.8697
1824.6735
2069.5859
2332.4797
2996.5483
3823.4903
5095.6272
3343.4991
3481.062
3610.783
3731.9472
3845.4121
3951.183
4049.5989
4141.0174
4226.0193
3278.7247
3407.6756
3529.2966
3643.3462
3749.8813
3849.8893
3943.5251
4031.0567
4112.8002
3402.7283
3522.8523
3635.666
3740.2713
3837.0364
3927.2047
4012.6957
4090.4805
4164.4058
3444.9219
3562.7748
3672.9902
3772.2363
3862.3597
3947.4737
4024.6263
4095.7445
4162.9796
3770.8101
3867.4092
3952.7586
4029.7155
4098.2194
4160.8672
4217.505
4267.9241
4316.1327
4078.942
4164.1191
4235.8921
4296.8956
4345.9771
4387.522
4422.9689
4450.7416
4474.8991
4831.4891
4879.7513
4910.7818
4929.2965
4937.3135
4937.5083
4930.7867
4919.2961
4904.6512
5696.52
5701.3869
5682.093
5645.8268
5596.0816
5536.9858
5470.6714
5399.339
5324.6265
7327.7552
7292.8367
7207.7301
7094.7606
6965.4882
6830.9248
6688.1894
6544.4279
6399.6717
4305.0049
4189.8518
4234.4074
4224.8096
4359.8514
4495.2902
4888.0484
5249.0103
6256.0524
4378.681
4262.0049
4298.4774
4283.4052
4400.2661
4513.1261
4869.3045
5173.9603
6114.0112
4447.087
4329.7228
4360.6521
4339.0116
4440.1951
4529.9453
4850.241
5099.778
5974.5832
4510.7389
4393.8722
4418.101
4391.3309
4478.0377
4546.3306
4832.9
5025.1995
5837.2114
4569.9025
4453.8151
4472.494
4441.2961
4514.1471
4563.3574
4818.432
4951.6521
5702.2141
4624.675
4510.7037
4525.6627
4489.9609
4550.8391
4580.8917
4806.6046
4881.5812
5567.1945
4676.525
4564.2699
4574.0664
4535.5409
4585.9258
4599.1215
4797.5328
4817.3143
5433.507
4724.5691
4614.5698
4620.8467
4580.3867
4620.4272
4617.5795
4791.5104
4758.6148
5305.222
4769.5832
4662.9732
4665.7704
4622.7308
4655.2323
4636.951
4788.9263
4705.2612
5179.2808
5047.4152
4982.4239
4974.1289
4944.516
4956.174
4898.592
4934.0334
4638.4063
4475.4969
5022.0973
4955.7747
4946.9475
4915.1936
4924.6104
4867.5352
4903.4054
4614.0581
4465.1718
4996.3674
4927.0341
4918.2096
4883.9099
4892.2341
4835.1883
4875.4825
4591.0761
4477.5669
4970.3617
4896.0762
4887.7443
4850.4796
4859.6596
4802.4912
4851.1054
4574.5802
4523.0886
4943.7404
4862.7641
4855.2616
4814.9196
4826.125
4770.1587
4830.876
4568.9922
4598.0673
4915.1072
4827.2259
4821.0432
4779.0966
4792.2287
4739.3653
4814.7061
4574.5293
4695.4459
4883.7492
4789.924
4785.1644
4742.0777
4758.2615
4710.4364
4802.0923
4591.0341
4807.2737
4849.2451
4750.313
4746.915
4703.7609
4723.443
4683.2702
4793.7158
4617.8685
4931.5536
4811.1634
4707.8874
4706.7607
4664.0327
4689.2459
4658.5092
4789.6394
4656.6352
5056.0596
4488.8883
4665.2845
4967.8622
4929.4759
4987.852
4971.8748
5000.0057
5006.9816
5067.7167
4526.6362
4701.8545
5004.444
4960.7889
5018.4429
4998.0928
5024.2897
5029.7897
5083.3953
4585.2187
4745.3256
5042.7597
4991.5469
5046.8233
5022.9935
5046.504
5050.7247
5096.3218
4650.9088
4792.3124
5082.7803
5020.6946
5074.1044
5046.5572
5066.8345
5069.8211
5108.1229
4707.6873
4841.0781
5123.7887
5048.186
5100.2318
5068.3779
5085.5886
5086.8452
5117.5443
4761.0686
4890.1983
5166.1269
5074.4648
5126.0151
5088.2399
5103.179
5101.7381
5125.9727
4818.1646
4938.532
5210.3237
5098.8659
5151.2577
5106.3112
5119.6538
5114.15
5132.4756
4890.9503
4986.8435
5254.0465
5122.5731
5174.8637
5123.4401
5134.6998
5124.4623
5137.3502
4971.6762
5032.5895
5292.7993
5150.0052
5194.6552
5141.1337
5147.521
5133.2915
5139.1768
5067.5439
5083.1307
5327.9495
5190.2871
5213.155
5166.0227
5160.8521
5143.8508
5139.4939
5190.457
5146.3906
5361.2495
5244.093
5239.7025
5200.7627
5182.9747
5160.7437
5145.8334
5325.098
5213.3765
5393.3537
5291.8466
5269.0814
5234.2421
5208.0367
5180.0765
5157.6169
5473.7343
5286.0015
5429.4669
5339.3044
5302.7916
5268.0024
5235.7828
5202.2365
5173.8045
5629.0955
5366.1073
5468.7833
5385.6734
5340.0969
5302.7253
5266.1405
5227.6752
5193.8485
5783.3187
5451.3779
5512.182
5431.5586
5379.0051
5338.7864
5298.3317
5256.2031
5217.8263
5961.9805
5537.7011
5557.5859
5476.9668
5419.1098
5375.9084
5332.3049
5287.8433
5245.6884
6189.3065
5623.6043
5603.6127
5521.8748
5460.0188
5414.2314
5368.3903
5322.0758
5277.5594
6323.9782
5707.423
5648.6481
5566.0037
5501.3911
5453.4789
5406.1187
5358.4357
5313.2856
5698.3056
5709.0874
5730.1618
5761.2451
5803.9818
5858.9394
5936.6917
6037.1548
6189.3235
5661.0191
5675.5055
5699.9406
5734.9525
5780.2499
5836.9888
5920.2044
6028.7272
6228.7829
5619.9205
5638.1517
5667.3007
5706.0612
5752.8784
5811.0476
5896.631
6009.6047
6252.3278
5575.6995
5598.7974
5632.9211
5674.3607
5721.9195
5782.0622
5868.2703
5986.5927
6273.6087
5529.7403
5558.6509
5596.482
5640.3231
5688.7501
5749.7428
5836.0749
5958.599
6297.9642
5483.601
5517.5176
5558.8259
5604.8136
5653.3987
5715.544
5801.5066
5923.2035
6320.6041
5437.975
5476.3505
5520.7935
5567.7378
5616.386
5679.8621
5764.9183
5881.4059
6339.9148
5393.9664
5435.7546
5482.5273
5529.8689
5578.6371
5643.3569
5726.8275
5831.3985
6353.9355
5352.274
5396.3747
5444.2145
5491.998
5540.8206
5606.02
5689.0078
5775.0322
6350.7161
6436.3482
6471.5608
6504.9451
6537.0665
6567.5294
6585.5435
6574.0181
6517.3657
6375.5267
6497.896
6528.54
6558.5808
6589.472
6617.6906
6632.9855
6616.5821
6551.3408
6401.3936
6555.813
6591.7138
6622.0984
6652.9776
6680.8746
6693.6872
6674.6332
6594.793
6428.1598
6631.2266
6670.666
6703.4669
6735.3572
6763.9095
6773.2452
6751.593
6654.0681
6468.4511
6716.6948
6760.8069
6801.8508
6838.6825
6868.9183
6875.4891
6848.084
6735.9402
6514.1106
6823.2898
6872.9666
6924.3028
6969.857
7005.5492
7014.3721
6977.1116
6862.5642
6643.3339
6978.1908
7034.2506
7094.3455
7149.5225
7190.2121
7198.7002
7144.9464
6991.6068
6709.8335
7198.6565
7259.8292
7331.4632
7404.7453
7471.1567
7517.4858
7527.3628
7440.2425
7222.7191
7506.6434
7568.0796
7649.7082
7741.3792
7826.2309
7893.4981
7919.6238
7853.9048
7483.722
10593.232
10072.236
9701.924
9257.3093
8897.3627
8582.3242
8344.5736
8170.5281
8056.1711
9173.7704
9292.3328
9232.1885
9154.2497
9030.3042
8886.8334
8726.5581
8567.1408
8438.5422
8780.2006
8801.876
8777.3335
8741.7727
8685.2604
8617.4741
8536.718
8442.545
8346.4633
8347.6687
8399.0376
8376.7411
8373.2247
8347.7169
8319.8498
8284.8026
8239.8155
8178.1883
8014.1276
8052.3205
8038.6857
8048.363
8035.9268
8023.6258
8007.4954
7988.1224
7951.4008
7743.0989
7764.5331
7750.4676
7760.5053
7749.1088
7742.8857
7730.4017
7722.2827
7698.9237
7525.7131
7531.4745
7519.7841
7519.5599
7509.7331
7503.0691
7490.4875
7484.125
7467.3042
7328.5034
7328.5219
7313.3927
7313.255
7298.7823
7293.4123
7278.785
7271.6374
7257.3251
7152.7365
7143.4278
7131.9639
7123.6476
7111.4634
7101.8299
7088.462
7078.6426
7064.7273
6891.0053
6728.6083
6559.8229
6371.9932
6164.5096
5910.6921
5612.4858
5248.8755
4974.9184
6905.3259
6740.9076
6569.8906
6378.9887
6165.031
5907.4055
5600.1675
5243.9248
4920.1525
6913.4889
6748.0889
6572.4164
6379.0997
6155.8572
5894.8391
5575.1683
5218.4862
4843.2535
6926.9643
6758.3387
6580.8312
6382.9518
6156.43
5886.1273
5558.0684
5178.7687
4750.5747
6935.0339
6767.0692
6585.7817
6388.1459
6156.2993
5881.2723
5540.6745
5131.5611
4653.1986
6949.4219
6777.5511
6596.8092
6395.2278
6161.1768
5879.9345
5528.2847
5085.505
4557.1903
6955.7922
6787.6444
6603.0613
6405.5348
6167.017
5887.8357
5523.2149
5058.7129
4479.4407
6969.6383
6797.0119
6613.4652
6410.7832
6176.4603
5887.886
5526.5877
5030.991
4463.4561
6982.3545
6813.7123
6629.0358
6431.5495
6195.1987
5918.2313
5546.2981
5061.9903
4370.9623
4968.2149
5120.2941
5361.381
5559.9317
5682.1447
5775.6837
5871.7995
5969.1158
6076.2229
4879.2175
5041.6354
5327.1805
5545.9546
5671.4865
5767.3646
5867.0351
5968.0058
6076.7947
4766.0963
4957.8313
5300.2337
5535.8871
5660.2218
5758.9901
5861.1066
5966.154
6076.4439
4629.59
4870.0308
5272.5398
5522.852
5648.9886
5753.9183
5863.8348
5970.5214
6080.9556
4458.7921
4784.2158
5243.392
5498.1992
5624.2268
5734.5674
5850.1807
5962.6576
6074.7715
4206.7111
4732.8131
5255.7245
5504.7475
5631.5346
5745.1576
5862.7475
5974.2366
6084.339
3837.5499
4580.7533
5201.7839
5458.3649
5593.8232
5718.2349
5844.9862
5960.9962
6074.1783
3489.6589
4636.4175
5254.3704
5474.3278
5610.5802
5733.6935
5858.0796
5972.5509
6082.3163
2534.5283
4485.4852
5222.2591
5441.9296
5591.3323
5722.7487
5850.6429
5966.7869
6078.2511
6180.8037
6282.4875
6393.4617
6512.1149
6641.3326
6789.2387
6950.8488
7122.6066
7316.7392
6184.7727
6288.4766
6401.5415
6522.7043
6653.2002
6803.2212
6968.9062
7142.7575
7342.5183
6186.8857
6293.0409
6407.6965
6532.2887
6664.7345
6816.4747
6987.1326
7164.016
7368.6163
6193.2319
6299.7665
6416.4239
6542.6714
6676.8453
6830.4645
7003.2745
7184.9891
7395.2798
6190.1137
6298.848
6417.1391
6546.8466
6681.8691
6840.5801
7014.9525
7199.2321
7415.9433
6199.5515
6309.5123
6427.7663
6558.6364
6694.0464
6853.6082
7029.9838
7216.6137
7435.9716
6191.8902
6303.2586
6424.5541
6555.7195
6693.7934
6855.1396
7033.0552
7222.0267
7446.8367
6200.0782
6311.1169
6431.475
6563.9688
6701.57
6863.6008
7042.1013
7232.1474
7456.4692
6196.6452
6308.7553
6429.8643
6562.884
6701.4275
6863.5946
7042.6043
7233.3815
7459.3344
7520.5589
7709.7376
7874.8658
7980.5055
7895.1357
7294.2095
6554.8647
5403.0009
3894.6693
7554.666
7759.9072
7941.5242
8069.887
7968.994
7366.3857
6591.92
5424.8734
3786.8282
7589.3001
7810.8986
8008.966
8170.1905
8044.4683
7444.215
6656.4679
5514.0094
3845.6462
7620.6027
7854.894
8062.0281
8268.7744
8139.3705
7523.5344
6721.8012
5632.8853
3952.5743
7647.0552
7890.8263
8116.6924
8361.226
8233.8686
7604.4559
6772.8025
5715.1278
4122.5465
7673.841
7924.1144
8175.3117
8437.9421
8350.5148
7682.1119
6819.5921
5757.5804
4378.3225
7684.6379
7947.2985
8218.29
8495.905
8471.2748
7764.2154
6865.9987
5822.125
4740.712
7702.3234
7963.3101
8252.5568
8542.9691
8564.3631
7890.8174
6909.3469
5836.5712
5063.8444
7702.9446
7970.8891
8259.9705
8559.4613
8611.6929
7938.1391
6958.2055
5882.768
5713.0442
5484.0824
6889.3582
7654.5097
7924.3559
7856.8728
7504.4204
7091.1277
6672.6838
6259.7131
5393.8996
6857.0862
7693.0084
8004.9545
7949.9876
7590.783
7169.5831
6742.2614
6323.8687
5306.9065
6791.1366
7688.5343
8052.8778
8013.1714
7673.7489
7247.9957
6813.5837
6388.7666
5249.8597
6727.9581
7677.2436
8095.4615
8073.6991
7759.0892
7327.6514
6887.6033
6452.652
5204.888
6668.0593
7657.9538
8134.7735
8132.2666
7839.3811
7404.6838
6963.0491
6523.6673
5153.0423
6616.7621
7635.6183
8167.0832
8183.3369
7913.6858
7470.9168
7023.7044
6574.3601
5098.1709
6544.0271
7584.8459
8182.4197
8223.4178
7984.4272
7552.1534
7106.3846
6654.7853
5062.7185
6491.8057
7537.1013
8182.3302
8249.8478
8029.5477
7591.6232
7144.2488
6682.2415
5005.4344
6307.1857
7403.0586
8141.7115
8268.3895
8094.4458
7680.9735
7240.2924
6779.7399
5854.9085
5459.4863
5069.1814
4673.5697
4275.1434
3858.8492
3430.8999
2983.984
2517.8755
5914.704
5514.3131
5119.1785
4720.6997
4320.3848
3902.496
3475.9464
3024.2795
2560.3814
5975.9584
5572.4154
5174.2829
4774.6854
4374.0536
3956.9835
3533.2172
3083.4897
2623.826
6034.1073
5625.2776
5225.0461
4824.0766
4422.4723
4004.4755
3583.8652
3133.2051
2678.478
6097.6469
5685.4747
5280.8736
4879.6799
4477.1771
4059.9781
3640.3041
3191.7461
2738.2272
6146.066
5728.5351
5320.9665
4918.6307
4513.8531
4098.0827
3679.208
3232.7812
2780.9462
6223.2511
5804.5324
5395.4565
4991.7917
4586.528
4170.9944
3752.5873
3309.7672
2856.0733
6247.0699
5822.7018
5411.0041
5007.9817
4600.7457
4188.2583
3768.5191
3329.6421
2875.9368
6343.0307
5916.8362
5502.5139
5098.5597
4690.8873
4279.6002
3861.1231
3427.4264
2971.448
1973.5432
1354.6572
670.1116
93.160116
-538.66422
-1181.6606
-2235.0221
-4197.5004
-7038.7598
2015.4622
1423.5381
757.84259
203.72412
-400.94998
-987.02237
-1889.3982
-3784.2107
-6680.6638
2087.2313
1514.5823
866.79261
281.33024
-344.30873
-994.85007
-1803.0035
-3533.6769
-6145.7149
2150.4231
1595.7171
969.92796
371.32407
-250.68748
-901.66632
-1677.5441
-3227.8248
-5476.9013
2218.2017
1674.2323
1075.4895
480.05498
-133.19544
-778.90439
-1518.4174
-2855.0357
-4635.065
2275.4257
1742.8993
1171.5693
579.05055
-29.897156
-678.4683
-1386.1794
-2521.523
-3654.5901
2361.2115
1837.9779
1299.6254
717.09699
127.91068
-540.25097
-1170.7815
-2308.5223
-2430.5479
2394.9559
1878.888
1354.9454
786.00875
202.31874
-448.99115
-1174.825
-1985.8911
-2735.774
2506.1807
2011.0156
1525.9926
981.12131
445.85248
-172.16267
-767.52425
-2359.7207
1868.9643
-9579.6393
-12276.314
-14421.802
-13552.121
-13580.829
-13583.374
-13544.075
-14087.389
-11976.675
-9481.5531
-12531.882
-14382.57
-13408.994
-13445.036
-13340.363
-13351.232
-13897.974
-11889.901
-9508.2442
-12871.033
-14192.387
-13275.888
-13504.149
-13548.472
-13492.656
-13791.671
-11752.257
-9695.4426
-13190.805
-13932.398
-13234.6
-13511.86
-13380.479
-13378.808
-13644.899
-11625.138
-9974.6269
-13437.418
-13508.628
-13199.682
-13510.666
-13498.532
-13444.35
-13516.073
-11490.809
-9783.178
-13353.238
-13296.269
-13259.191
-13495.689
-13384.417
-13366.884
-13350.416
-11308.412
-8794.612
-13059.966
-13157.209
-13269.088
-13490.77
-13431.8
-13373.235
-13157.904
-11083.861
-9575.5517
-13610.462
-13009.72
-13348.99
-13443.871
-13372.175
-13325.332
-13009.59
-10886.81
-21213.644
-11421.733
-13388.37
-13354.284
-13445.582
-13352.549
-13270.457
-12827.5
-10739.726
-9432.9194
-9001.8416
-8632.5488
-8446.8725
-8377.046
-8487.6681
-8769.7101
-8997.6124
-7894.1243
-9558.9064
-8950.9831
-8543.9099
-8338.7989
-8268.4679
-8403.1582
-8632.5257
-8822.1284
-7864.9386
-9580.0462
-8922.9948
-8537.3351
-8336.9448
-8271.3006
-8430.2115
-8572.9674
-8619.3446
-7860.5819
-9531.4378
-8873.1002
-8489.3952
-8294.2934
-8238.3473
-8387.6495
-8460.1581
-8416.8603
-7904.9755
-9451.3136
-8814.6092
-8428.2275
-8232.2468
-8180.4859
-8309.4945
-8371.3267
-8256.959
-7931.5537
-9355.5637
-8763.7894
-8369.993
-8172.2856
-8132.9117
-8250.2425
-8309.7781
-8134.2571
-7930.8807
-9273.8973
-8718.9614
-8317.2664
-8120.6145
-8099.0285
-8208.6646
-8240.7462
-8034.331