/*--------------------------------*- C++ -*----------------------------------*\
  =========                 |
  \\      /  F ield         | OpenFOAM: The Open Source CFD Toolbox
   \\    /   O peration     | Website:  https://openfoam.org
    \\  /    A nd           | Version:  11
     \\/     M anipulation  |
\*---------------------------------------------------------------------------*/
FoamFile
{
    format      ascii;
    class       volScalarField;
    location    "0.3";
    object      Ma;
}
// * * * * * * * * * * * * * * * * * * * * * * * * * * * * * * * * * * * * * //

dimensions      [0 0 0 0 0 0 0];

internalField   nonuniform List<scalar> 
880
(
1.11801663592382
1.118016635597734
1.117978673830169
1.107996711584334
1.118016635923768
1.118016635293181
1.11795193974699
1.103856081706557
1.118016635921013
1.118016634326845
1.117872417037828
1.098293493770047
1.118016635901868
1.118016630182468
1.11765560969629
1.080904880407014
1.118016636146496
1.11801663573175
1.11801661660396
1.118016206356529
1.11801659486308
1.118015625191249
1.118010972559715
1.118020952240089
1.11701553440321
1.1162179918513
1.115129218407806
1.115072107178254
1.044679395298763
1.009437169024926
0.9898882550836682
0.9859595178106699
1.118014248126846
1.118008189384591
1.118000753213542
1.117939974025967
1.117941086368307
1.117690968932126
1.117299997465423
1.116638950474062
1.108034639908529
1.102473719141753
1.095404435457736
1.089021888482205
0.9769373989117347
0.9754262038224545
0.9727479180515041
0.9928629692492966
1.049410989781219
1.081289476831325
1.094505748364154
1.105071470540807
1.075724383390927
1.075438038549132
1.080015721578569
1.087042855760829
1.113778371825736
1.110328568703429
1.106983973023062
1.104953520824794
1.117653577821259
1.117143099869093
1.11639537769143
1.115529304588826
1.114752307022693
1.114179618953669
1.113704670544066
1.113441894015938
1.104976780814318
1.107018870180906
1.110531727783688
1.114648293845333
1.095502592340128
1.104365223550465
1.112004665947181
1.119302547077501
1.114137596285532
1.121584978248002
1.124809922100789
1.131453781191774
1.132891215134125
1.125878020624347
1.119109867321917
1.11335444930607
1.125293509104059
1.130279476022038
1.122974772808597
1.11355705051247
0.9889055425533306
1.127989178385235
1.125611658119589
1.114259842579743
0.6966287068365142
1.086434501259267
1.126719192592703
1.115391224595308
1.114707068198211
1.123146362479952
1.021045449038142
0.5764646959639176
1.115055512024147
1.115676891501892
0.9661469394681657
0.5999952897833783
1.114780679313589
1.101667672263111
0.8967734250911966
0.6134728572284587
1.11313712487755
1.079676017293302
0.8412186697362132
0.6383772996908752
0.6713025281841167
0.8029073320148438
1.044533269128087
1.109186668177124
0.7092498279258352
0.793252477364484
1.00319595707081
1.100817005284961
0.7523381247511415
0.8152619956980265
0.9676926496882065
1.087830230363846
0.7997206810490207
0.8608923113981165
0.9532074545554466
1.069236368124091
1.048234703863042
0.9905152085007135
0.9317033118946859
0.8624677082611028
1.053611301760356
1.042594521798447
1.019836424579132
0.9458217339416383
1.070453681065798
1.099805733157575
1.113067643336384
1.05031062927752
1.079421599634613
1.135170329834319
1.196868787797958
1.174072423819816
1.089142953007056
1.170421099799467
1.266119954997185
1.365034533258342
1.105179141285006
1.193807579202253
1.312002983680918
1.557774165196527
1.117397462726704
1.193983089774047
1.32398502240889
1.79970779140588
1.124079064122901
1.180643740062984
1.290161009215426
1.632735496759861
1.229655277590475
1.261300357016047
1.171059846979734
1.127502089459998
1.056104974172165
1.231617097182686
1.159351997765092
1.127118969203891
0.9425832297328604
1.202865822311072
1.150198053147659
1.124383450781098
0.7918973199614426
1.158791164511967
1.137609310939704
1.121627300739517
0.7205061911259849
1.100943459127782
1.120789947317876
1.119268549194393
0.724469359138231
1.061628605496153
1.109836654103214
1.117908552314475
0.7322094291895708
1.032370478070239
1.107200248334768
1.117636487836297
0.7620964836745415
1.048789817767256
1.111017988106926
1.117807940562525
0.7514234443568012
0.9996054457237415
1.098311978321897
1.116868394034117
0.7612738161487448
0.997523383120554
1.097449928899297
1.116797176132828
0.7713125868067175
0.993869003665699
1.096398988493056
1.116699846491499
0.7685383935359344
0.9953372799285216
1.096574826635422
1.11666345554405
0.7620964836747059
1.048789817768593
1.111017988108981
1.117807940565268
0.7322094291895407
1.032370478071594
1.107200248335326
1.117636487837729
0.7244693591388301
1.061628605497423
1.109836654103821
1.11790855231562
0.7205061911256223
1.100943459129432
1.12078994731829
1.119268549194724
1.127502089459431
1.171059846979372
1.261300357016039
1.229655277592739
1.127118969203528
1.159351997764769
1.231617097183052
1.05610497417123
1.124383450780033
1.150198053147164
1.202865822313546
0.9425832297319804
1.12162730073887
1.137609310938545
1.158791164514011
0.7918973199613635
1.632735496764692
1.290161009215484
1.180643740063573
1.124079064123131
1.799707791407607
1.323985022409845
1.19398308977386
1.117397462727411
1.557774165196915
1.31200298368139
1.193807579202475
1.105179141284117
1.365034533258072
1.266119954998074
1.170421099800152
1.089142953004957
1.048234703861285
0.9905152084992745
0.9317033118930529
0.8624677082608881
1.053611301760084
1.042594521799521
1.019836424578388
0.9458217339412144
1.07045368106819
1.099805733157614
1.113067643336031
1.050310629277465
1.079421599632774
1.135170329834545
1.1968687877979
1.174072423819466
0.799720681049067
0.8608923113978375
0.9532074545543066
1.069236368119707
0.7523381247514942
0.8152619956980606
0.9676926496879958
1.087830230363236
0.7092498279260948
0.7932524773646513
1.003195957072031
1.100817005283584
0.6713025281844247
0.8029073320141662
1.044533269125615
1.109186668176441
1.114707068198134
1.123146362480437
1.021045449038429
0.5764646959642254
1.115055512021389
1.115676891501155
0.9661469394688282
0.5999952897833548
1.114780679310066
1.101667672259266
0.8967734250910875
0.6134728572296372
1.113137124876039
1.079676017294677
0.8412186697365419
0.6383772996909649
1.115391224595071
1.114259842579875
1.113557050511146
1.113354449307196
1.126719192595918
1.125611658120403
1.122974772809505
1.119109867319738
1.086434501261195
1.127989178385804
1.130279476024071
1.125878020625745
0.6966287068377932
0.988905542553961
1.125293509103605
1.132891215134032
1.113441894017953
1.114648293838277
1.119302547076924
1.131453781190996
1.113704670549702
1.110531727774937
1.112004665946767
1.124809922100453
1.114179618960702
1.107018870173582
1.104365223551421
1.121584978249804
1.11475230702671
1.104976780811737
1.095502592338883
1.114137596286396
1.117653577826825
1.113778371829842
1.075724383389742
1.049410989779918
1.117143099864732
1.110328568708922
1.075438038546393
1.081289476830936
1.116395377683032
1.106983973030008
1.080015721576462
1.094505748366577
1.115529304586092
1.104953520828613
1.087042855758159
1.105071470543328
0.9928629692486488
1.089021888483298
1.116638950474393
1.11793997401734
0.9727479180527913
1.095404435453517
1.117299997453536
1.118000753234354
0.975426203823317
1.102473719145874
1.117690968935911
1.118008189396172
0.976937398911625
1.108034639907065
1.117941086366749
1.118014248124049
0.9859595178116033
1.115072107178042
1.118020952239993
1.118016206353975
0.989888255083874
1.115129218408292
1.118010972561245
1.118016616603369
1.009437169025053
1.116217991851901
1.11801562519199
1.118016635732332
1.04467939529698
1.117015534404004
1.118016594864287
1.118016636145109
1.11801663592377
1.118016635596941
1.117978673830132
1.107996711572419
1.118016635923716
1.118016635295117
1.117951939747002
1.103856081681151
1.118016635920618
1.118016634328006
1.117872417038002
1.09829349375529
1.118016635901133
1.118016630183682
1.117655609696741
1.080904880401092
1.100490375234876
1.092677697785095
1.075425982004974
1.029593677574832
1.092677697830106
1.080218202998569
1.047861917930653
0.9764311820341238
1.075425982048691
1.047861917961085
0.9845215572108212
0.88210322738712
1.029593677587209
0.9764311820482414
0.8821032273924154
0.7715216607841818
0.7424932456735359
0.7819933473633603
0.856549514129089
0.9286060870118865
0.7979595330187396
0.8035079144433813
0.8344911548470275
0.8812495697559733
0.7886589791014684
0.8253617123041527
0.8569056180622482
0.880324909281498
0.8224900891506929
0.8628761645819497
0.8850832380276886
0.8972465639321028
0.9130486638563801
0.9227699924210675
0.9409614925353638
0.9746487961053635
0.9092446390726562
0.922978642320714
0.9446425413862556
0.9964781271238748
0.8964470528422238
0.9176771892843016
0.9441332925756848
1.059444861615773
0.8530782669281551
0.8761204917317058
0.9084826918184234
1.14597441756261
1.155665207340104
1.193953270022792
1.162795508758847
1.154072834849509
1.274897808668394
1.296803376321946
1.24107689338179
1.208369512168435
1.430816796554418
1.358457811098229
1.289135013605857
1.243490476251556
1.16376548699508
1.096152519911796
1.082509354419555
1.08189320926158
1.149556586688915
1.148595679145066
1.147145578782604
1.144836562887261
1.186332621144442
1.169759040735201
1.15565206070798
1.142515102669651
1.209953475790899
1.182643728987719
1.159408111703216
1.138949493109299
1.071455329612249
1.060264538172502
1.049451012841108
1.032498031236582
1.144012071853435
1.018618656217916
0.7296430610441603
0.4613943681499092
1.136988283372896
0.9225028001870783
0.5426832433023403
0.2620621220855789
1.119759149543665
0.7886608614489337
0.3317431408981311
0.05230079498930822
0.9910317402089365
0.5575909286294998
0.1502594822444479
0.0449277276075818
0.4003214205472933
0.4801356378836947
0.5131231523358261
0.5691118754700081
0.3193227549734058
0.4616543288869865
0.5171024819535264
0.5691144074790151
0.1817400970306901
0.3892027263906065
0.4959176338196556
0.556309765410863
0.04819526427158322
0.219800872214084
0.3643174806988915
0.4511419984095746
0.6230667288321705
0.67593733871711
0.7414362180121219
0.802345900052074
0.6249085900725725
0.6784951163339932
0.7382147798808836
0.8001548040795035
0.6187150658405377
0.6768485390964291
0.7319479289949499
0.7959767777687619
0.5482163815576321
0.6472940768093651
0.7237060481255904
0.793324215657593
0.856829283690225
0.930031909662746
1.01949964052583
1.121827624206433
0.853350635585059
0.9165504396580677
1.000748283060749
1.137004542274736
0.8503150428634301
0.9051044761964058
1.014751172376752
1.444144402657859
0.8469238275383996
0.899074966247945
1.041750630214588
2.015354873208054
1.338121837365168
1.504999997927434
0.7502987969822017
1.55486910479978
1.428260741147228
1.276817506906438
1.078455818997261
1.69075738102468
1.472060775524052
0.8815327594089275
1.176896579335782
1.656771352668899
1.135453186741228
0.3816215509470129
1.334166939084239
1.592564927158912
0.8702673974116728
0.6294949969650684
0.528337669210947
0.3871140053840349
1.133945854578396
0.8275918811736871
0.6094012680183359
0.3097047050626107
1.182193564350189
0.8837313847352009
0.5693420757179232
0.222665503012827
1.145120106549301
0.866885813282012
0.5339545905521342
0.1872990422404557
0.1985195497280765
0.1147655369580342
0.3431325445295044
0.5382218318898474
0.2418254562378498
0.08039957922458485
0.1976598433763106
0.4774421680505104
0.2225434632912125
0.1965930550908798
0.06745255862320378
0.3659176691332697
0.1853134105938996
0.2244352502862722
0.07449686874459879
0.3070771398380853
0.4887294747473813
0.4779045184034086
0.477587004117403
0.471123886572286
0.5185981922884534
0.4937498073098752
0.4904104416815586
0.4753280819066566
0.5024368983398296
0.4143500041595248
0.3494281178478815
0.2785882656774546
0.5515104433631488
0.400534541185899
0.2502929632967875
0.1006815312484762
0.05858844617584436
0.07792210580763702
0.08900300286009652
0.08911055838959715
0.1554078804606258
0.08491025898092902
0.07909925188634109
0.09866720021843425
0.4028796838206009
0.303652437835156
0.186018448969037
0.06715323132636886
0.4491445285406884
0.3942647850988568
0.3155093223788758
0.2496280102600665
0.08911055838973377
0.09866720021821569
0.0671532313245653
0.2496280102596562
0.08900300286030742
0.07909925188595184
0.1860184489674013
0.3155093223782606
0.07792210580787728
0.08491025898008246
0.3036524378337681
0.3942647850981931
0.0585884461760701
0.1554078804596825
0.40287968381943
0.4491445285398912
0.4711238865715006
0.4775870041167077
0.477904518402315
0.4887294747465254
0.4753280819056328
0.4904104416806525
0.4937498073088738
0.5185981922874564
0.2785882656765874
0.3494281178470439
0.4143500041585244
0.5024368983386966
0.1006815312481839
0.2502929632962432
0.4005345411850332
0.5515104433623905
0.307077139837638
0.07449686874401799
0.2244352502858561
0.1853134105932808
0.3659176691325295
0.06745255862344393
0.1965930550906379
0.2225434632904178
0.47744216804964
0.1976598433757393
0.08039957922453179
0.2418254562369608
0.5382218318889758
0.3431325445288699
0.1147655369582184
0.1985195497273251
0.3871140053820921
0.5283376692120503
0.6294949969705602
0.8702673974222981
0.3097047050613557
0.6094012680176429
0.827591881175252
1.133945854582372
0.2226655030120286
0.5693420757166257
0.8837313847343023
1.182193564350919
0.1872990422396331
0.5339545905507139
0.8668858132800936
1.145120106548966
1.554869104815435
0.7502987969850781
1.504999997924026
1.338121837364475
1.690757381030297
1.078455819005913
1.276817506904154
1.42826074114641
1.656771352672091
1.17689657934341
0.8815327594073251
1.472060775523162
1.592564927161962
1.334166939092304
0.3816215509482409
1.135453186741249
1.121827624206355
1.019499640525962
0.9300319096629148
0.8568292836909388
1.137004542274356
1.000748283060765
0.9165504396582055
0.8533506355852032
1.444144402656786
1.014751172376773
0.9051044761964023
0.8503150428632451
2.015354873206148
1.041750630214542
0.8990749662478649
0.8469238275382037
0.8023459000520877
0.7414362180124707
0.6759373387176468
0.6230667288323082
0.800154804079184
0.7382147798808094
0.6784951163345273
0.6249085900726756
0.7959767777680787
0.7319479289942895
0.6768485390970361
0.6187150658407586
0.7933242156568031
0.7237060481246351
0.6472940768091641
0.5482163815585117
0.5691118754697125
0.5131231523358794
0.480135637882533
0.4003214205477144
0.5691144074784856
0.5171024819531068
0.4616543288858874
0.3193227549739657
0.5563097654105152
0.4959176338191196
0.3892027263899093
0.1817400970312257
0.4511419984103482
0.3643174806984231
0.2198008722138435
0.04819526427184522
0.4613943681509202
0.7296430610452044
1.018618656217789
1.144012071852871
0.2620621220866461
0.5426832433035458
0.9225028001873293
1.136988283371997
0.05230079499011985
0.3317431408992574
0.7886608614493156
1.119759149542203
0.04492772760704648
0.1502594822450171
0.5575909286291009
0.9910317402064737
1.1448365628867
1.147145578783394
1.148595679147949
1.149556586689959
1.14251510266883
1.155652060708886
1.169759040737472
1.186332621145809
1.138949493108021
1.159408111704128
1.182643728989843
1.209953475792249
1.03249803123425
1.049451012841111
1.060264538173999
1.071455329613689
1.154072834852453
1.162795508761708
1.19395327002225
1.155665207338747
1.208369512171731
1.241076893384821
1.296803376321391
1.274897808667315
1.243490476255154
1.289135013608975
1.358457811097949
1.43081679655451
1.081893209264408
1.082509354421186
1.096152519910528
1.163765486996823
0.9746487961061153
0.940961492533923
0.9227699924198158
0.9130486638565058
0.9964781271242786
0.9446425413836069
0.9229786423188059
0.90924463907234
1.059444861616168
0.944133292571947
0.9176771892818665
0.8964470528415438
1.145974417563583
0.9084826918171498
0.8761204917318175
0.8530782669308334
0.8972465639331874
0.8803249092810137
0.8812495697558718
0.9286060870089329
0.8850832380279092
0.8569056180612794
0.8344911548466348
0.8565495141253952
0.8628761645815847
0.8253617123032333
0.8035079144424431
0.7819933473607148
0.8224900891537557
0.7886589791039831
0.7979595330176157
0.7424932456729872
0.7235383787246423
1.032863025502746
1.107586597070417
1.117600466908176
0.7348746007955492
1.01648289689328
1.103520212092728
1.117297165741524
0.7403678255605494
1.012888534725864
1.100577234184952
1.116980324826133
0.7414395272058925
1.003378054452108
1.098103848942851
1.116762773474774
1.116868394033286
1.098311978321635
0.9996054457232889
0.7514234443562672
1.116797176132737
1.097449928898798
0.9975233831202593
0.7612738161491491
1.11669984649161
1.096398988494083
0.9938690036653971
0.7713125868073255
1.116663455544017
1.096574826636664
0.9953372799282605
0.7685383935358887
1.116762773475215
1.116980324825295
1.117297165741535
1.117600466910063
1.098103848944144
1.100577234185315
1.103520212093164
1.107586597071418
1.003378054452515
1.012888534726355
1.016482896893856
1.032863025503561
0.74143952720564
0.7403678255601227
0.7348746007949939
0.7235383787246509
)
;

boundaryField
{
    back
    {
        type            empty;
    }
    inlet
    {
        type            calculated;
        value           nonuniform List<scalar> 
16
(
1.11801663592382
1.118016635923775
1.118016635923684
1.118016635918991
1.118016635991999
1.118016635932492
1.118016633591044
1.118016455072884
1.118016455072074
1.118016633590822
1.118016635932477
1.118016635992013
1.11801663592377
1.118016635923717
1.118016635923577
1.11801663591881
)
;
    }
    front
    {
        type            empty;
    }
    top
    {
        type            calculated;
        value           uniform 0;
    }
    outlet
    {
        type            calculated;
        value           nonuniform List<scalar> 
16
(
1.116509289771263
1.116427943895959
1.116318763369393
1.116270373832657
1.117465461147766
1.117086270379938
1.116681003276393
1.116399498603868
1.1165092897704
1.116427943895763
1.116318763369526
1.116270373832726
1.116399498604277
1.116681003275407
1.117086270380174
1.117465461149721
)
;
    }
    bottom
    {
        type            calculated;
        value           uniform 0;
    }
    wall
    {
        type            calculated;
        value           uniform 0;
    }
}


// ************************************************************************* //
