/*--------------------------------*- C++ -*----------------------------------*\
  =========                 |
  \\      /  F ield         | OpenFOAM: The Open Source CFD Toolbox
   \\    /   O peration     | Website:  https://openfoam.org
    \\  /    A nd           | Version:  11
     \\/     M anipulation  |
\*---------------------------------------------------------------------------*/
FoamFile
{
    format      ascii;
    class       volScalarField;
    location    "2.5";
    object      p;
}
// * * * * * * * * * * * * * * * * * * * * * * * * * * * * * * * * * * * * * //

dimensions      [0 2 -2 0 0 0 0];

internalField   nonuniform List<scalar> 
5472
(
112.66107
110.64056
108.61407
106.60063
104.62723
102.6963
100.81619
99.003591
97.278717
95.643354
94.097499
92.686694
91.400959
90.256922
89.234259
88.395521
87.702449
87.187542
86.759805
113.13691
111.27099
109.38974
107.49855
105.62765
103.78926
101.98984
100.22662
98.543152
96.944691
95.404268
94.002138
92.735273
91.587259
90.567811
89.697934
88.974399
88.414596
87.982064
113.59466
111.87462
110.12433
108.36483
106.61123
104.86075
103.13192
101.43092
99.793619
98.210864
96.692867
95.310304
94.039353
92.884265
91.861649
90.976618
90.239052
89.653943
89.241727
113.96046
112.40863
110.81606
109.17236
107.52639
105.88223
104.23625
102.59597
100.99399
99.45202
97.973158
96.597882
95.313005
94.169055
93.148575
92.250316
91.506447
90.916814
90.50888
114.29833
112.86886
111.39912
109.91465
108.37447
106.79469
105.24998
103.6968
102.14372
100.62774
99.178788
97.826341
96.562987
95.435404
94.400062
93.503257
92.762558
92.174457
91.754033
114.57604
113.27069
111.93252
110.54914
109.12664
107.68319
106.22492
104.73481
103.24734
101.77431
100.35597
99.020659
97.779956
96.660468
95.631657
94.748977
93.998136
93.411576
92.977778
114.79346
113.61198
112.38121
111.11353
109.80849
108.47329
107.10511
105.69749
104.27548
102.85743
101.48036
100.17587
98.966438
97.843497
96.833645
95.961606
95.205476
94.628573
94.201531
114.96312
113.91163
112.78555
111.61602
110.43679
109.20813
107.92229
106.58469
105.23139
103.87252
102.55805
101.27894
100.09591
98.99738
98.006785
97.129474
96.391606
95.817784
95.390836
115.08794
114.13839
113.12895
112.06696
110.98623
109.85357
108.66276
107.41622
106.13362
104.83616
103.57793
102.34524
101.19288
100.11659
99.141556
98.270099
97.550141
96.969339
96.559211
115.2201
114.34177
113.41716
112.48219
111.47864
110.42638
109.32635
108.16069
106.95814
105.73755
104.51565
103.33278
102.22768
101.1836
100.23224
99.385615
98.6689
98.090938
97.701703
115.28323
114.51657
113.68747
112.81252
111.89938
110.96458
109.94207
108.86611
107.7216
106.5666
105.42152
104.29
103.21599
102.1914
101.26817
100.44774
99.743739
99.187641
98.801543
115.32113
114.6379
113.90517
113.11376
112.28931
111.40823
110.47003
109.47864
108.40546
107.34465
106.24811
105.18348
104.14829
103.16416
102.26645
101.45265
100.78605
100.23792
99.860334
115.35683
114.73302
114.06921
113.37609
112.64088
111.83788
110.97615
110.03654
109.05595
108.04985
107.01367
106.01311
105.01006
104.08468
103.19602
102.42833
101.76936
101.24695
100.87552
115.36293
114.80751
114.22712
113.59511
112.91762
112.18635
111.39633
110.53747
109.63602
108.69446
107.73944
106.77158
105.827
104.93158
104.08729
103.35874
102.69881
102.21201
101.83861
115.35924
114.87198
114.35675
113.79306
113.17855
112.50936
111.7835
110.98998
110.1526
109.27563
108.39143
107.48288
106.58968
105.7191
104.91934
104.19579
103.58535
103.10806
102.7463
115.36282
114.92591
114.45383
113.94369
113.39305
112.7932
112.12671
111.40062
110.62416
109.80565
108.98133
108.13235
107.29499
106.4661
105.70661
105.01294
104.4262
103.94902
103.60193
115.34999
114.96674
114.54279
114.08624
113.58898
113.0386
112.4197
111.75451
111.0395
110.28823
109.51809
108.72297
107.92473
107.13565
106.41078
105.75487
105.19879
104.73629
104.40357
115.34904
114.99956
114.61781
114.21076
113.76694
113.26192
112.69188
112.07945
111.41254
110.72319
110.00883
109.27264
108.51468
107.77085
107.07785
106.44949
105.91263
105.46826
105.14758
115.34672
115.03708
114.69355
114.32234
113.91575
113.45578
112.93788
112.36587
111.74524
111.10692
110.44004
109.74869
109.03728
108.34448
107.68367
107.0906
106.57249
106.14792
105.83512
115.35146
115.06992
114.76376
114.42586
114.04947
113.62695
113.15175
112.62066
112.0506
111.46022
110.8399
110.18858
109.51448
108.8585
108.22929
107.66232
107.1661
106.76145
106.45556
115.37867
115.11803
114.83622
114.53419
114.19051
113.79608
113.35169
112.85476
112.32414
111.76819
111.18797
110.58017
109.94758
109.33014
108.73062
108.18009
107.70438
107.31172
107.017
115.40381
115.1801
114.91976
114.63295
114.31368
113.95233
113.54076
113.08144
112.58543
112.05657
111.50378
110.92412
110.3259
109.73176
109.16086
108.63458
108.1714
107.78812
107.50091
115.44341
115.23878
115.01039
114.74665
114.44769
114.10766
113.71863
113.2921
112.82608
112.32383
111.79825
111.24398
110.68401
110.12616
109.56773
109.05942
108.60697
108.22979
107.95339
115.49002
115.31502
115.10605
114.86316
114.58865
114.27181
113.90677
113.50365
113.05669
112.57099
112.05064
111.49486
110.92905
110.38102
109.85385
109.36214
108.91833
108.54894
108.27939
115.53281
115.39193
115.20902
114.99075
114.73566
114.43949
114.10324
113.72445
113.30989
112.86313
112.3827
111.87698
111.34301
110.78036
110.22738
109.71545
109.25845
108.88669
108.60983
115.58835
115.48157
115.32798
115.13216
114.89515
114.60746
114.27106
113.88587
113.45638
112.98965
112.48705
111.96494
111.43516
110.88648
110.35731
109.85224
109.40045
109.03695
108.77266
115.62302
115.57582
115.48412
115.34561
115.16333
114.93494
114.65171
114.31596
113.92255
113.48124
112.99162
112.46766
111.91472
111.31792
110.70601
110.12182
109.60728
109.22289
108.93957
86.505167
86.448732
86.526383
86.766372
87.128712
87.640605
88.252189
88.992302
89.854931
90.83363
91.956305
93.19952
94.637589
96.18348
97.89793
99.74125
101.70058
103.87555
106.09225
87.759088
87.693323
87.802201
88.091278
88.521354
89.136554
89.894314
90.814504
91.863515
93.052767
94.383431
95.848154
97.477223
99.202904
101.07561
103.05023
105.16875
107.45111
109.8024
89.013844
88.933605
89.095809
89.432326
89.946416
90.674119
91.58091
92.651481
93.867211
95.251205
96.764798
98.426912
100.20132
102.10744
104.12657
106.23883
108.48509
110.82109
113.21103
90.238349
90.192463
90.394638
90.767124
91.384838
92.234129
93.267508
94.459102
95.835067
97.366347
99.019665
100.80916
102.70007
104.71699
106.8077
108.97809
111.21711
113.48746
115.7554
91.471215
91.460788
91.666201
92.10021
92.836587
93.786873
94.90976
96.227086
97.730622
99.361245
101.11697
102.9778
104.92792
106.96228
109.03611
111.12794
113.23114
115.2876
117.28785
92.715764
92.703359
92.923784
93.461915
94.283482
95.287331
96.512661
97.951414
99.539621
101.24073
103.05223
104.94509
106.8948
108.86258
110.79871
112.71078
114.53817
116.25463
117.82529
93.932901
93.907997
94.197334
94.804801
95.663791
96.749942
98.088586
99.595293
101.2312
102.97695
104.81392
106.67934
108.54253
110.35459
112.09391
113.73483
115.18467
116.42131
117.36612
95.12209
95.120413
95.462983
96.094215
97.014021
98.189446
99.588458
101.14013
102.8126
104.57552
106.38071
108.14609
109.85373
111.46469
112.93644
114.17948
115.16518
115.80688
116.07377
96.28805
96.304846
96.681638
97.343697
98.336149
99.561397
100.9988
102.58043
104.26369
105.99841
107.70009
109.31479
110.82153
112.17303
113.29582
114.10585
114.62989
114.70443
114.45239
97.416571
97.465398
97.862942
98.564553
99.60088
100.86043
102.33231
103.9229
105.57311
107.21296
108.77224
110.21658
111.48862
112.52178
113.28158
113.70731
113.81952
113.59063
113.16595
98.5211
98.594235
98.977255
99.734451
100.8017
102.08882
103.56487
105.11641
106.69359
108.22597
109.63277
110.8657
111.87386
112.59258
113.04553
113.21361
113.10004
112.85
112.519
99.585197
99.662269
100.05852
100.86265
101.93249
103.23864
104.68429
106.1745
107.66455
109.06405
110.29454
111.28986
112.04207
112.53204
112.77889
112.83074
112.69388
112.54758
112.40816
100.602
100.676
101.08971
101.92198
102.99437
104.29433
105.68133
107.10812
108.49339
109.72048
110.74645
111.5492
112.10618
112.46084
112.61389
112.66869
112.64324
112.62926
112.6504
101.58865
101.62554
102.08178
102.92503
103.98511
105.24755
106.57416
107.91599
109.15975
110.22694
111.09032
111.73945
112.17521
112.46088
112.61134
112.74442
112.83112
112.9419
113.11333
102.49302
102.52064
103.04848
103.8359
104.88248
106.11642
107.36814
108.60041
109.71418
110.6482
111.37323
111.91739
112.2843
112.5704
112.77648
112.98618
113.18492
113.44013
113.6818
103.33178
103.41722
103.93281
104.66991
105.71038
106.87298
108.05607
109.21207
110.18218
111.00435
111.62184
112.10756
112.46243
112.77563
113.04334
113.3481
113.64638
113.97405
114.26017
104.13293
104.25121
104.70587
105.44552
106.46674
107.55418
108.67945
109.72061
110.61465
111.33398
111.87287
112.33701
112.70251
113.0758
113.4213
113.7977
114.1689
114.57694
114.9495
104.88317
105.00206
105.41836
106.17327
107.12832
108.15716
109.21825
110.14541
110.98425
111.61901
112.14786
112.59199
112.99886
113.41525
113.81067
114.2296
114.63368
114.98597
115.18111
105.58223
105.67122
106.08223
106.84053
107.73623
108.7234
109.69502
110.55336
111.31116
111.90458
112.45088
112.88447
113.32165
113.74461
114.20201
114.63888
115.03071
115.2838
115.10692
106.2125
106.27434
106.68749
107.40485
108.2569
109.21637
110.11058
110.90594
111.61157
112.20538
112.72714
113.18053
113.66781
114.09373
114.5213
114.75316
114.98392
114.77991
114.05332
106.78106
106.83559
107.25886
107.92942
108.75374
109.65866
110.48575
111.24401
111.89973
112.44243
112.94374
113.41989
113.85992
114.236
114.46919
114.32299
114.02634
112.99406
111.4868
107.26498
107.31965
107.71643
108.36117
109.18225
110.02173
110.83655
111.59121
112.22192
112.78414
113.26777
113.68394
113.95044
114.06782
113.81673
113.08936
111.95347
110.14805
108.0316
107.71638
107.76805
108.16263
108.79518
109.5677
110.36715
111.13135
111.78876
112.34601
112.80775
113.15004
113.4264
113.40564
113.12103
112.3222
111.12158
109.41521
107.56531
105.84985
108.04665
108.10036
108.48328
109.09653
109.87014
110.68373
111.45214
112.14048
112.71386
113.16305
113.37176
113.3303
112.88803
112.0612
110.7685
109.17638
107.45292
105.98038
104.86519
108.36626
108.42961
108.83155
109.45741
110.21682
110.97095
111.64056
112.16782
112.52413
112.67037
112.56772
112.14169
111.32837
110.11199
108.69636
107.18261
105.85255
104.76053
103.86819
108.52827
108.61025
108.99416
109.59848
110.3446
111.15891
111.88343
112.47253
112.85051
112.95396
112.68061
111.93745
110.77995
109.29728
107.7657
106.26406
104.94153
103.77596
102.8589
108.68018
108.78484
109.26865
109.97203
110.80647
111.56441
112.14865
112.46154
112.43474
111.97694
111.08403
109.77201
108.22392
106.625
105.19517
103.93019
102.93273
102.20564
101.71324
108.5069
111.08657
113.7152
116.66968
119.58345
122.6772
125.8076
128.59186
131.34298
132.44797
131.1581
127.7126
121.57692
114.22727
106.10933
97.346919
88.887408
80.922819
74.095481
112.25359
114.67813
117.17588
119.84455
122.47713
125.32437
127.91422
130.04285
131.83394
131.74062
130.46351
127.23662
121.68998
114.96909
107.79563
100.52103
93.85011
88.186518
83.747559
115.60993
117.86294
120.13963
122.51395
124.82143
127.10105
128.96135
130.4757
130.88395
129.56303
127.38003
123.77489
118.55731
112.54382
106.40431
100.68096
95.79103
91.775887
88.877111
117.99443
120.01446
122.02924
124.04814
125.89744
127.45142
128.23937
128.91888
127.88803
125.4667
121.58083
117.02003
111.71232
106.31102
101.335
96.814617
93.349925
91.497748
90.568573
119.19241
120.86538
122.51364
124.11493
125.41992
126.18627
125.84005
124.43785
121.72853
117.79242
112.48331
106.76127
101.14424
96.021862
92.149478
89.600092
87.908092
87.185634
87.701553
119.17804
120.35799
121.54731
122.60227
123.16003
123.02256
121.3402
118.38294
113.59069
107.38793
100.25828
93.155474
86.959351
82.297026
79.316241
78.016105
78.636917
80.546708
83.212585
117.99349
118.63285
119.29142
119.69847
119.50143
118.52621
115.49278
109.49639
102.05215
93.609769
84.414319
75.227273
66.814654
60.264385
56.855223
57.30505
61.245464
67.274956
74.048726
115.96711
116.06635
116.10099
115.67715
114.45119
112.17635
108.22577
103.06737
95.916148
85.321992
72.452051
56.583399
45.06064
36.678854
33.375168
36.258342
44.155158
54.643257
65.272927
113.9059
113.56998
113.10729
112.09318
110.26782
107.4133
103.09494
97.000923
88.899361
78.958095
67.626632
56.424769
47.075144
41.205549
39.924451
43.380626
50.956461
60.435733
69.690532
112.54802
112.07417
111.49515
110.4593
108.81935
106.49674
103.40887
99.304204
94.114335
87.966428
81.265248
74.554172
68.646542
64.716747
63.005501
64.053197
67.773797
73.085339
79.000083
112.05374
111.67717
111.19828
110.36102
109.14521
107.58559
105.67104
103.31513
100.44481
97.084067
93.429873
89.56786
86.137607
83.205057
81.258002
80.97364
82.280084
84.919647
88.321704
112.15288
111.91762
111.52581
110.87637
110.02931
108.95384
107.67262
106.16167
104.28183
102.13579
99.735676
97.168169
94.724981
92.79735
92.00916
91.989722
92.488891
93.58194
95.231744
112.63086
112.52172
112.18688
111.67718
111.01635
110.20788
109.31055
108.19401
106.85528
105.38786
103.71116
101.93375
100.26252
98.872122
97.692471
96.890301
96.557727
96.853859
97.815407
113.26172
113.18644
112.91697
112.50589
111.99991
111.43035
110.72461
109.79923
108.7363
107.44086
105.88222
104.2079
102.52281
100.81912
99.167046
97.620205
96.563716
96.289133
96.85232
113.93163
113.95082
113.70585
113.36051
112.95241
112.45433
111.80294
111.02942
110.07047
108.74413
107.08692
105.27448
103.29385
101.1733
99.105595
97.10226
95.186574
93.520402
92.53588
114.71813
114.80333
114.57097
114.3237
113.99394
113.50996
112.89842
112.18079
111.00544
109.1573
106.94248
104.52415
101.63912
98.403
94.975131
91.345907
87.820402
84.654207
82.103022
115.49303
115.5866
115.56744
115.66688
115.45099
114.59003
113.40526
112.02014
110.5984
109.02194
106.68104
103.13896
98.213493
91.852548
84.13148
75.589222
67.286056
60.607783
57.381369
115.74891
115.81667
115.50222
114.44204
114.10718
114.97323
115.35532
114.82874
113.07519
110.59516
107.60256
103.84576
98.988528
92.848704
85.768432
77.850832
69.902502
62.995663
59.00956
115.10745
115.02465
115.01289
114.44394
113.19425
112.18053
111.27673
110.14647
108.62217
106.73813
104.4626
101.69332
98.342225
94.652404
90.778615
86.77353
83.239676
80.831797
80.191793
112.90694
113.09804
112.67151
111.62089
108.87597
106.40997
104.69214
103.19497
101.86602
100.64118
99.358084
98.040252
96.720322
95.492832
94.594785
93.981545
93.764751
94.39661
95.779213
109.3445
109.70946
109.37637
108.32023
106.31185
103.06056
98.259826
92.64204
87.737314
84.825266
84.183742
85.356266
87.751079
90.788161
93.675121
96.292743
98.151244
99.632348
101.49963
105.90112
105.5247
104.55896
102.8793
100.18449
96.389046
92.021266
88.09036
84.863421
82.20883
80.583247
81.22699
83.450921
86.769811
90.86283
95.308946
99.191354
102.23999
104.96805
104.61233
104.10859
103.37939
102.31121
100.85774
98.836389
96.365234
93.691497
90.882039
88.573093
87.096666
87.194238
88.818234
91.647423
95.208857
98.891038
101.95263
104.35327
106.45662
104.17569
103.79605
103.44249
102.99322
102.44836
101.68947
100.78385
99.781117
98.845436
97.797638
96.834377
96.628167
97.285003
98.73255
100.69532
102.76682
104.65598
106.39708
108.22715
103.46631
103.27833
103.14737
102.98255
102.73397
102.39299
102.02755
101.67934
101.33243
101.19472
101.74636
102.41379
103.10272
104.12896
105.40575
106.89524
108.35668
109.54566
109.81639
102.32184
102.13736
102.12793
102.09661
101.98931
101.90508
101.88951
101.94232
102.03168
102.23248
102.54608
103.10616
103.81054
104.52565
105.42219
106.37608
107.20968
108.23
108.36656
101.40573
101.2986
101.17612
101.05653
100.95416
100.91974
100.93906
100.98575
101.05644
101.16754
101.33043
101.58378
101.94311
102.37508
102.97439
103.7741
104.74361
104.30016
103.85799
69.439957
67.180931
66.88888
68.140036
70.461
73.361756
76.558371
79.676367
82.515811
85.120826
87.327079
89.106322
90.637111
91.865744
92.745509
93.403101
93.815173
94.002385
93.989891
80.477967
78.762956
78.380149
79.124404
80.680884
82.652956
84.734991
86.671081
88.556258
90.368212
91.813723
93.017576
94.068064
94.923497
95.521052
95.922067
96.247608
96.289297
96.169996
87.183527
86.340705
86.371155
87.103074
88.233855
89.588352
91.095112
92.572767
93.793596
94.975228
96.017385
96.776646
97.433814
98.016699
98.455771
98.71136
98.868361
98.843549
98.600236
90.086242
90.164256
90.988669
92.217046
93.612262
95.123963
96.458436
97.522971
98.566274
99.433233
100.09091
100.58023
100.93183
101.23414
101.44858
101.5946
101.58465
101.45153
101.11871
89.015648
90.788341
92.882497
95.086915
96.987026
98.610647
100.28337
101.55863
102.48539
103.27168
103.79836
104.1323
104.25932
104.34644
104.39179
104.36985
104.27111
104.00082
103.54927
86.407312
89.746075
92.94521
96.11172
99.070418
101.24796
102.95224
104.41184
105.48382
106.30308
106.79338
107.0815
107.15374
107.10253
107.01845
106.91698
106.74513
106.44886
105.88523
80.711765
86.831915
92.009128
96.301978
100.01846
103.0916
105.24401
106.85112
108.00914
108.81457
109.31832
109.57548
109.59113
109.46551
109.27048
109.10418
108.91563
108.60483
108.02586
74.632345
82.483385
88.754231
94.219616
99.638162
104.03834
106.94108
108.85339
110.24846
111.09884
111.5525
111.73271
111.72327
111.49205
111.21678
110.93139
110.71407
110.40672
109.84971
77.829183
85.011489
91.241056
96.312922
100.61301
104.69133
108.12507
110.41798
111.97477
112.93389
113.39491
113.47299
113.40987
113.15013
112.79943
112.432
112.13648
111.83488
111.28808
84.752625
90.09907
94.876285
99.049181
102.81153
106.44825
109.39655
111.61866
113.21714
114.19277
114.59407
114.62578
114.48546
114.22901
113.8636
113.49179
113.15482
112.85861
112.37324
92.031239
95.744036
99.330532
102.72994
105.76339
108.43443
110.60184
112.27465
113.6285
114.50399
114.90971
114.95193
114.85241
114.64253
114.34919
114.0182
113.70516
113.42324
113.04319
97.372843
99.917813
102.7351
105.40395
107.77891
109.86834
111.59571
112.79663
113.6695
114.0876
114.47715
114.60066
114.63842
114.53068
114.35932
114.13795
113.90219
113.64844
113.34719
99.355913
101.39715
103.57431
105.73246
108.00199
110.02808
111.65905
112.68406
113.32428
113.70702
113.98686
114.16723
114.26893
114.27596
114.18414
114.06442
113.92141
113.7207
113.46357
97.968008
99.214632
101.04829
103.50079
106.18786
108.60347
110.57052
111.9294
112.78632
113.50209
113.69302
114.03155
114.15761
114.21976
114.15349
114.0661
113.95413
113.81463
113.5765
92.391259
93.261988
95.245969
98.223932
101.47149
104.66994
107.5207
110.05733
112.10187
113.31793
113.76994
114.15656
114.35811
114.38357
114.32294
114.20553
114.07107
113.94419
113.72587
80.742285
81.694397
84.555993
88.465568
93.03769
98.065981
103.20735
108.0357
111.578
113.06335
113.88086
114.31813
114.48788
114.48531
114.43365
114.28718
114.14606
114.00785
113.83649
58.418388
63.301972
70.934334
79.498388
88.325932
96.628246
104.70591
109.12138
111.86996
113.02889
113.53981
113.95196
114.09347
114.16731
114.16923
114.11053
114.01981
113.90662
113.80867
58.546112
61.893924
68.535335
76.823076
85.836175
94.286224
101.42586
106.4918
109.64703
111.32267
112.3008
112.98357
113.34493
113.57853
113.69363
113.75937
113.77037
113.73863
113.71595
81.419944
84.01082
87.925989
92.660907
97.476408
101.83851
105.46941
108.13363
109.94174
111.15381
112.04221
112.6637
113.06679
113.34667
113.51282
113.64092
113.71449
113.72704
113.7212
97.703305
99.804897
101.80804
103.9853
106.15578
107.99338
109.43505
110.55366
111.39414
112.04642
112.57776
112.96948
113.26072
113.49034
113.62531
113.74769
113.86834
113.94023
113.92946
103.53767
105.45946
107.02033
108.21431
109.37681
110.35166
111.10741
111.78679
112.36144
112.79155
113.17199
113.4818
113.6801
113.85199
113.9706
114.06658
114.16148
114.23037
114.21413
107.26572
108.88994
109.72057
110.12393
110.68072
111.28612
111.82046
112.3182
112.73898
113.10028
113.44651
113.74499
113.99005
114.18346
114.335
114.46167
114.53667
114.57034
114.49945
108.42591
109.988
110.90164
111.52974
112.0206
112.43774
112.74886
113.00299
113.36906
113.81817
114.17336
114.4383
114.64648
114.74693
114.74113
114.74804
114.7483
114.70646
114.6447
110.16649
111.7559
112.77941
113.43752
113.74014
113.58
113.43718
113.56931
114.02175
114.29986
114.24655
114.36256
114.63976
114.97808
115.2023
115.18101
114.9588
114.54641
114.14216
110.61781
110.80774
111.29848
111.96044
112.43318
112.84708
113.10242
113.11485
113.06428
113.3587
114.0101
114.83323
115.50082
115.76929
115.29296
113.90602
112.97059
113.04033
113.46426
106.50444
105.46675
105.42317
105.77593
106.5137
107.66591
109.19438
110.74194
111.63146
111.75642
111.42046
110.68791
109.70208
109.05297
109.21431
109.9613
110.64508
110.9661
110.91703
103.37956
102.46473
100.62032
98.196559
96.157471
94.838591
94.703362
96.311625
99.15494
101.88067
104.1641
105.83227
107.01814
107.88427
108.74668
109.61561
110.3963
110.72366
108.51605
93.80871
93.464167
92.969817
92.386297
91.677027
90.961089
90.162636
89.352618
88.594264
87.799406
87.057151
86.324542
85.667628
85.012241
84.507394
84.090061
83.806982
83.704277
83.781699
95.971838
95.579486
95.076813
94.459143
93.759433
92.993092
92.189875
91.302993
90.479652
89.595044
88.76081
87.956383
87.211787
86.535921
85.936368
85.506356
85.181436
85.026612
85.078655
98.304183
97.810722
97.211516
96.551362
95.80282
94.992003
94.135793
93.215471
92.300867
91.383245
90.440139
89.589581
88.751401
88.032882
87.367779
86.870322
86.557349
86.379067
86.434444
100.60444
99.996509
99.291577
98.553541
97.745514
96.88741
95.984983
95.038873
94.0699
93.098433
92.105124
91.166804
90.297505
89.483457
88.809315
88.227553
87.878067
87.717389
87.768964
102.88573
102.13571
101.33444
100.47459
99.606829
98.679847
97.732594
96.748754
95.760572
94.743142
93.726284
92.71645
91.801988
90.932415
90.196567
89.60254
89.197253
89.008707
89.080564
105.11308
104.23861
103.34426
102.39697
101.44119
100.46518
99.452669
98.418774
97.392281
96.336336
95.285789
94.241367
93.259489
92.369316
91.566442
90.949465
90.524734
90.332036
90.382808
107.1766
106.23598
105.24443
104.24772
103.21093
102.1803
101.12868
100.04537
98.974204
97.885254
96.793282
95.730187
94.679837
93.759242
92.914085
92.254065
91.791662
91.598341
91.634849
109.00188
108.04967
107.0264
105.98255
104.91111
103.82812
102.73126
101.61917
100.49777
99.387905
98.250551
97.165298
96.083861
95.114766
94.240776
93.551461
93.058201
92.85985
92.91472
110.50019
109.59545
108.60295
107.56339
106.47843
105.3816
104.25251
103.12599
101.96925
100.82701
99.663538
98.538186
97.431507
96.416285
95.518286
94.796407
94.291606
94.050273
94.123854
111.66935
110.84953
109.92469
108.95064
107.88895
106.80969
105.67457
104.52837
103.36449
102.20384
101.0287
99.872682
98.751353
97.690731
96.770842
96.002667
95.499541
95.227964
95.308741
112.46413
111.79489
110.98858
110.10081
109.11396
108.07395
106.98101
105.84219
104.672
103.5001
102.32209
101.12942
99.993036
98.884369
97.950342
97.160711
96.645544
96.387803
96.449048
112.92855
112.43041
111.78561
111.01999
110.13782
109.16889
108.12581
107.02865
105.88505
104.70747
103.54114
102.34453
101.19535
100.07899
99.103999
98.296832
97.746162
97.481375
97.533998
113.1611
112.81005
112.31976
111.70137
110.94758
110.08019
109.11758
108.07382
106.98412
105.82724
104.67037
103.48221
102.31431
101.19357
100.20239
99.393514
98.817198
98.548487
98.603905
113.31762
113.05639
112.67024
112.17643
111.5637
110.80835
109.94942
108.98001
107.94717
106.8374
105.6989
104.53859
103.38065
102.26141
101.24066
100.41627
99.822709
99.545542
99.593926
113.47462
113.237
112.92114
112.51089
112.01445
111.37742
110.6246
109.75109
108.79383
107.75242
106.65087
105.5144
104.3674
103.25333
102.22457
101.39421
100.79811
100.50382
100.55944
113.64623
113.39644
113.11289
112.76294
112.35259
111.82311
111.17116
110.3944
109.50722
108.53209
107.47921
106.38557
105.27407
104.18328
103.15306
102.30613
101.70634
101.40039
101.44759
113.71376
113.50129
113.25335
112.94441
112.58836
112.15677
111.60615
110.92792
110.12899
109.2368
108.25216
107.20192
106.10601
105.02987
104.0106
103.15409
102.55836
102.25361
102.27968
113.7208
113.57238
113.37535
113.11967
112.80023
112.42023
111.95211
111.36538
110.6421
109.79969
108.86927
107.8773
106.83706
105.79857
104.81079
103.95262
103.33133
103.02913
103.0625
113.72011
113.58229
113.42809
113.2459
112.97051
112.61507
112.20402
111.70648
111.08358
110.33074
109.48373
108.56563
107.55365
106.51552
105.53125
104.68257
104.05317
103.75054
103.78693
113.86208
113.71022
113.55736
113.41362
113.18329
112.87645
112.50248
112.04207
111.46904
110.7673
109.92157
109.01776
108.08462
107.11562
106.16809
105.35403
104.72534
104.3906
104.41893
114.07293
113.90536
113.72428
113.48377
113.23061
112.97531
112.64423
112.23365
111.7448
111.1642
110.48381
109.65272
108.72435
107.76279
106.80372
105.94969
105.33371
104.98859
105.03087
114.33329
114.18741
114.01332
113.87971
113.67234
113.45125
113.07781
112.63019
112.14164
111.50381
110.74929
109.93405
109.04285
108.14315
107.27267
106.45829
105.86529
105.51265
105.5243
114.47862
114.38263
114.19108
113.86731
113.49131
113.26271
113.0078
112.74025
112.36842
111.87638
111.28518
110.55821
109.73178
108.77439
107.85678
106.98555
106.35227
105.99533
105.99528
114.03999
114.50411
114.65199
114.71476
114.55277
114.16694
113.67047
113.19543
112.66256
112.10997
111.43752
110.66056
109.83037
108.95324
108.09702
107.33321
106.71976
106.37487
106.32564
113.29141
113.57888
113.58301
113.73619
113.78925
113.78904
113.68513
113.4278
113.07863
112.63532
112.10008
111.41421
110.594
109.68446
108.69725
107.82689
107.10041
106.72196
106.6636
111.9456
113.22948
114.3202
114.83545
114.68901
114.36896
114.03084
113.65194
113.20947
112.70439
112.12616
111.41309
110.57579
109.67816
108.79289
107.95799
107.29255
106.89686
106.86425
110.29427
111.22237
112.04528
112.88825
113.76877
114.22259
114.18995
114.01721
113.72732
113.3764
112.8564
112.25368
111.44735
110.47482
109.45087
108.46183
107.62822
107.07505
106.99604
84.029222
84.31592
84.77366
85.39564
86.250411
87.24976
88.423582
89.732147
91.153243
92.700112
94.348203
96.117719
97.980242
99.918505
101.90914
103.9387
106.02824
108.13605
110.21539
85.170467
85.598518
86.175544
86.858394
87.727081
88.726917
89.899612
91.204072
92.607851
94.148033
95.780096
97.498207
99.307905
101.18119
103.09487
105.02394
106.97485
108.94118
110.87021
86.712957
87.041472
87.566329
88.297245
89.15205
90.181034
91.34809
92.651781
94.062236
95.574272
97.192898
98.867351
100.61579
102.41826
104.25899
106.07757
107.87383
109.68361
111.45645
87.992406
88.423978
88.935748
89.685809
90.579331
91.597078
92.781345
94.082827
95.480387
96.967972
98.549833
100.17898
101.85631
103.58258
105.32515
107.04373
108.71
110.33808
111.96317
89.335993
89.752984
90.330823
91.062365
91.95597
92.99653
94.153686
95.443194
96.841844
98.279728
99.820583
101.41312
103.0285
104.65811
106.29018
107.90852
109.46996
110.96706
112.39985
90.707851
91.12157
91.684459
92.421908
93.289617
94.324891
95.50728
96.761966
98.132562
99.569898
101.05475
102.5883
104.13176
105.66279
107.1863
108.68419
110.11889
111.48821
112.80824
91.911325
92.367434
92.971667
93.715181
94.607912
95.632321
96.792561
98.055669
99.377026
100.76477
102.20587
103.65169
105.10656
106.57026
107.99793
109.36948
110.68102
111.95061
113.14932
93.270951
93.6902
94.26734
95.006317
95.879628
96.900897
98.020177
99.24705
100.55722
101.882
103.24793
104.64915
106.03264
107.40049
108.73664
109.99837
111.18757
112.33423
113.43136
94.425658
94.893625
95.483408
96.220085
97.082823
98.078211
99.193906
100.38983
101.65962
102.96673
104.27774
105.5831
106.88432
108.16034
109.37973
110.53749
111.60909
112.64122
113.65183
95.651497
96.09251
96.679896
97.40026
98.263367
99.237401
100.32498
101.49505
102.71163
103.95848
105.19901
106.41426
107.61424
108.80573
109.94825
111.0068
112.00151
112.93481
113.82191
96.786732
97.22747
97.820231
98.533943
99.377089
100.33067
101.37721
102.49959
103.66448
104.85414
106.03848
107.19649
108.3185
109.40483
110.45923
111.43407
112.33985
113.18171
113.97104
97.894047
98.330986
98.914746
99.610831
100.42933
101.36004
102.38092
103.46901
104.58429
105.71131
106.81784
107.89132
108.94269
109.93771
110.88968
111.79583
112.61939
113.37704
114.07813
98.945901
99.369084
99.940465
100.62934
101.43532
102.33961
103.31126
104.33694
105.39473
106.45794
107.50898
108.51923
109.5015
110.43135
111.29271
112.12485
112.87245
113.5458
114.18816
99.945365
100.37018
100.93072
101.59944
102.37087
103.23969
104.16865
105.16028
106.17718
107.18774
108.16816
109.10215
109.99266
110.83486
111.63611
112.37857
113.05615
113.6721
114.24424
100.90472
101.30485
101.84505
102.49594
103.2465
104.08643
104.97619
105.92205
106.88223
107.82296
108.72135
109.58292
110.43437
111.21561
111.94514
112.63657
113.25893
113.80622
114.30429
101.78233
102.18142
102.70608
103.33876
104.06437
104.87055
105.7252
106.60754
107.51168
108.394
109.25035
110.05243
110.81901
111.54758
112.2331
112.85443
113.39518
113.89609
114.35494
102.618
103.00051
103.51191
104.12639
104.8224
105.58946
106.3955
107.23805
108.08912
108.92047
109.72135
110.46562
111.18005
111.8452
112.46077
113.03714
113.53853
113.98076
114.39255
103.38792
103.75676
104.25005
104.84175
105.50988
106.24395
107.01377
107.81404
108.61567
109.39702
110.14333
110.83588
111.48404
112.10149
112.68954
113.21016
113.65993
114.06281
114.43376
104.09594
104.46016
104.93187
105.50201
106.14895
106.8516
107.58446
108.3376
109.09548
109.82067
110.51478
111.16986
111.7747
112.34129
112.87797
113.35907
113.78036
114.14488
114.47107
104.7342
105.08582
105.54561
106.09345
106.7237
107.39513
108.09271
108.79955
109.50982
110.20072
110.85651
111.47189
112.03726
112.56381
113.05551
113.49868
113.89387
114.22063
114.5025
105.35522
105.694
106.12661
106.65217
107.24541
107.88219
108.54886
109.2209
109.89934
110.55578
111.17729
111.7516
112.27954
112.76836
113.22332
113.63968
114.00067
114.30587
114.57029
105.80548
106.12513