/*--------------------------------*- C++ -*----------------------------------*\
  =========                 |
  \\      /  F ield         | OpenFOAM: The Open Source CFD Toolbox
   \\    /   O peration     | Website:  https://openfoam.org
    \\  /    A nd           | Version:  11
     \\/     M anipulation  |
\*---------------------------------------------------------------------------*/
FoamFile
{
    format      ascii;
    class       surfaceScalarField;
    location    "0.03";
    object      phi;
}
// * * * * * * * * * * * * * * * * * * * * * * * * * * * * * * * * * * * * * //

dimensions      [0 3 -1 0 0 0 0];

internalField   nonuniform List<scalar> 
1652
(
1.706212168242967
0.5337381654508486
2.220446049250313e-16
1.172474002792889
0.5337381654500768
0
0.6387358373441621
0.5337381653365296
-4.884981308350689e-15
0.5337381806170305
7.860379014346108e-14
0.1049976723135671
1.706212168246044
1.067476330897457
1.172474002798808
1.067476330897312
0.638735837365505
1.067476330448257
1.067476398236865
0.1049977016815817
1.706212168254444
1.601214496347917
1.17247400280502
1.601214496346737
0.6387358380203235
1.601214447482902
1.601196979159758
0.104995555086432
1.706212168255721
2.134952661797195
1.172474002807805
2.134952661794653
0.6387358263850109
2.134952794119802
2.134595724067168
0.1047856176382797
2.65119121526914
1.723711780227148
3.167429768742327
1.723711780225906
3.68366832221592
1.723711780225501
1.723711780224366
4.199906875651175
2.651191215262508
1.207473226759295
3.167429768730503
1.207473226757825
3.683668322163728
1.20747322675905
1.207473226745742
4.199906874804314
2.651192082674082
0.6912248500966552
3.167433437666941
0.691203257061178
3.683660327426588
0.6911940499918487
0.6911971420499946
4.199974084711757
2.655934748659009
0.1555803808668241
3.192853591731498
0.09480236344706583
3.728360470005576
0.04792421740908431
4.250262265993263
0.03724365290412196
4.164907651607204
0.03499922171507874
4.129908427644745
0.03499922098305042
4.094909203685178
0.03499922070562989
0.03499922121666998
4.059909979516861
4.164907687772423
0.06999824046864228
4.129908466417252
0.06999821632755293
4.094909241095016
0.06999820204595458
0.0699981975616098
4.05991006296961
4.164970500636779
0.1047500163395982
4.129972309846208
0.1047223349848052
4.094970708600196
0.1047197851105127
0.1046719961679612
4.060016511852987
4.219958527061329
0.02566200981347749
4.183754745702769
0.02456272153241451
4.151842502183461
0.02420462726132944
4.116342684023575
0.01293930408650729
4.111838471748055
0.0004288403642500604
-0.08385655084011445
4.079513543861784
0.0002428180857725337
-0.02674071957673602
4.06227010979539
6.338108470338444e-05
-0.004147542516386549
5.020056972282472e-06
4.059965255194176
-0.0001855066030155283
4.060015946192228
5.438860645190502e-07
4.05996144682927
3.395153799767847e-07
4.059917541212842
9.443982434964582e-08
7.748691632780691e-09
4.059910170934202
4.059910066735061
7.603744633932763e-09
4.059910023783623
4.952878662756177e-09
4.059909986102008
1.356792234119553e-09
1.011647432491714e-10
4.05990997997156
4.05990997956852
4.059909979693698
4.059909979807312
4.05990997982651
4.059909979827625
-1.967537244240702e-12
4.059909979828285
-6.604716773495056e-13
4.059909979828955
-6.699085730588195e-13
-6.504796701278792e-13
4.059909979829606
4.059909979827947
-1.080950329246377e-10
4.059909979828304
-8.610889778992714e-13
4.059909979828948
-1.256383885817058e-12
-1.295852314342483e-12
4.059909979829609
4.059909980262452
-6.006246350276356e-08
4.059909979820051
1.855468556577478e-10
4.05990997981969
4.734274083872947e-11
1.199101928861523e-11
4.059909979828948
4.059910123035202
-4.847423273335316e-07
4.059909972428653
3.527358255484003e-08
4.059909972614576
1.585519088243004e-08
4.059909979279311
1.903834201399945e-09
-1.435018770479246e-12
4.059909979788149
-3.994543584795451e-11
7.799316747991725e-14
4.059909979825722
4.773959005888173e-15
4.05990997982959
4.059909979829605
-7.152871406290728e-09
4.059910138040252
5.601508146213519e-10
-2.512873242821456e-11
4.059909978456615
-1.162403506782539e-13
4.05990997981869
4.059909979829603
4.516369289664368e-07
4.059940225195134
-0.0001278152111024444
2.609937210795721e-09
4.059910241755427
6.403733099347164e-11
4.059909980324953
4.059909979827577
-0.0008586761726898651
4.055782370446656
-0.003375788157988446
-6.4353870415923e-07
4.05988042370101
-2.990451219986312e-10
4.059909990306922
4.059909979811101
0.09333123686619355
3.96657873934615
0.1866621544480397
3.966578795982525
0.2795478251858653
3.966654002841943
3.995866417026985
0.1344379356486157
0.09333122837807167
3.873247498872605
0.1866615119030215
3.873247574668949
0.2789365612343294
3.873346598992153
3.922169350867089
0.02797070657349443
0.0933312243468965
3.779916258393906
0.1866612184136855
3.779916343609791
0.2786975258501914
3.780018691645557
3.825404476545845
-0.0001723369270962838
0.09333122046664677
3.686585017947172
0.1866609647772088
3.686585113273154
0.2785497133755956
3.686689259502169
3.725686669468036
-0.002213544748963847
-0.2783811012232993
3.6255979101521
-0.002276503242209404
-0.1866607876602739
3.59335946823145
-0.09333128544114622
3.593253814722501
3.593253707558349
-0.2781778042413507
3.523498962367051
-0.002269011007870136
-0.1866603776740355
3.500024490688198
-0.0933312787583761
3.49992251359505
3.499922397243912
-0.2779418253751743
3.422659924309261
-0.002298755574444367
-0.1866598633063914
3.406697656995453
-0.09333127014114168
3.406591227206879
3.406591087056118
-0.2776315174184092
3.319744752236326
-0.001140060980348911
-0.1866590996112439
3.313341961496982
-0.09333125615528864
3.313259893882236
3.313259776695482
0.1195806142515008
3.193679118246119
0.2391583900436841
3.193679199477613
0.3563742924869099
3.193734472619417
3.19037909288266
0.03158934792401702
0.1195806077918679
3.074098460094483
0.2391580065796925
3.074098532491425
0.3562807070176151
3.074137856800284
3.063005104969603
0.0536829149313357
0.1195806010063919
2.954517800098448
0.2391577408268586
2.954517855051229
0.3563767651995278
2.954538610253268
2.943713798751234
0.1151089066102344
0.1195806371388455
2.834937141887047
0.2391596277362981
2.834937311429439
0.3576917265938614
2.83497950609563
2.829601960288587
0.3067014073298214
-0.2012454520906176
3.036182674871309
-0.4024452172428484
3.03617764230389
-0.6032858563838812
3.035144430885967
3.013804763884805
-0.8158557908540266
-0.2012454820153553
3.237428212810414
-0.4024523126662598
3.237422178392617
-0.594021238700956
3.23408950072885
2.901113711363311
-0.3736555658418722
-0.2012454876946272
3.438673751881139
-0.4024457885594187
3.438666725522623
-0.5857274153932104
3.433012324911403
2.836702204094589
-0.06060099076280562
-0.201245498180039
3.639919289609307
-0.4024442433504831
3.639915567405825
-0.5821954050818275
3.636639148106771
3.045471873604726
-0.01734456693051376
0.3055157771470681
3.191417328992608
-0.005660039949088716
0.2099685760710681
3.741687026811513
0.1049976317584221
3.744913817068876
3.744916962483505
0.3066789346262783
3.340548120526022
-0.006235966304033669
0.2099733148664553
3.847574234306166
0.1049976415897413
3.849912725627485
3.849914635189422
0.3082961755964217
3.446812429187738
-0.009327458209662215
0.209979627570168
3.95258802539197
0.1049976516045566
3.954910363269656
3.954912307004625
0.3068537349901
3.594188715519278
0.001079275840806235
0.2099771508084083
4.058215907525412
0.1049976500443246
4.059908536107977
4.059909978894094
-0.002541096010437616
3.98638935238524
0.1231073079125342
-7.12145850700896e-06
4.059826349231527
-9.857789695644215e-09
4.059909919476068
4.059909979795918
-0.0002409614394114357
4.058200133160401
0.03856895449372544
-4.17899866822502e-07
4.059911585924866
-4.012890020277382e-10
4.059909982495055
4.059909979838748
-0.0001004076235417983
4.063675923408274
0.01886560798576986
-2.02684288130861e-07
4.059919650742463
-2.272202426212289e-10
4.059909989648634
4.05990997985119
-0.0002386781853274123
0.03798786093233292
4.062613536385697
-5.178631036217851e-07
4.059889143296857
-6.243840999786698e-10
4.059909932211365
4.059909979848948
0.6635155140005314
-0.5190539655653565
-0.05559570470760415
-1.249667036518076e-12
1.189967697608545
-0.5249581647046919
6.128431095930864e-14
1.714961963620177
-0.5249883009921201
-7.460698725481052e-14
-0.5249883594198743
-1.385558334732195e-12
0.6635181911804765
-1.038104950144147
-0.05575694427454332
1.189967706381517
-1.04991624546071
1.714961963628312
-1.049976600487308
-1.049976718826988
0.6635247628427269
-1.556846417565257
-0.05620308995872848
1.189967724897972
-1.574874408457019
1.714961963604656
-1.574964899931569
-1.574965078206811
0.6635527646010762
-0.05741305407241496
-2.076669048474373
1.189967834652159
-2.099837772638253
1.714961963650236
-2.099953206619428
-2.099953437611345
-0.0002386781852007358
-4.063675923407779
0.03798786093232881
4.062613536385282
-5.178629287616587e-07
-4.059919650742036
4.059889143296402
-6.244258443643957e-10
-4.059909989648845
4.059909932210736
-4.059909979851372
4.059909979848603
-0.0001004076234835116
-4.058200133159582
0.01886560798572373
-2.026844529989802e-07
-4.05991158592495
-2.272577681594612e-10
-4.059909982495341
-4.059909979838363
-0.0002409614394887072
-3.986389352386462
0.03856895449358022
-4.178999954973506e-07
-4.059826349231536
-4.012929988306269e-10
-4.0599099194755
-4.05990997979591
-0.002541096010397315
-3.594188715516943
0.1231073079128136
-7.121458580061635e-06
-4.058215907525784
-9.857791916090264e-09
-4.059908536108161
-4.059909978894167
-0.1049976317521791
3.744916962504503
-3.639919289636676
-0.2099685760588482
3.744913817089799
-3.639915567433031
-0.3055157771416134
3.741687026791415
-3.636639148078003
3.191417328973263
-3.045471873576084
-0.00566003994912477
-0.1049976415831447
3.849914635204104
-0.2099733148533679
3.84991272564184
-0.3066789346200415
3.84757423429097
3.340548120513295
-0.00623596630399445
-0.1049976515975587
3.954912307012191
-0.2099796275563572
3.954910363276644
-0.3082961755900697
3.952588025384404
3.446812429179978
-0.009327458209805045
-0.1049976500367611
-0.2099771507932306
-0.3068537349820592
0.001079275840774468
0.5821954050867855
-2.836702204074931
-0.01734456693003839
0.4024442433652902
-3.433012324892884
0.2012454981877788
-3.438666725542078
-3.438673751900962
0.5857274153988101
-2.901113711351313
-0.06060099076163067
0.4024457885732591
-3.234089500718048
0.2012454877017464
-3.237422178405442
-3.237428212822815
0.594021238708748
-3.013804763880228
-0.3736555658408641
0.4024523126799096
-3.035144430880524
0.2012454820219516
-3.036177642309817
-3.036182674877207
0.6032858563910093
-2.829601960288612
-0.8158557908564782
0.4024452172548305
-2.834979506095783
0.2012454520965283
-2.834937311429469
-2.834937141887089
0.1195806142554299
3.193679118256147
-3.313259776709431
0.2391583900526111
3.193679199490287
-3.313259893899772
0.3563742924915685
3.193734472607466
-3.313341961480605
3.190379092871136
-3.319744752220963
0.03158934792386625
0.1195806077955631
3.074098460100883
0.239158006588044
3.074098532499172
0.3562807070219718
3.07413785679229
3.063005104962037
0.05368291493168398
0.1195806010096984
2.954517800101623
0.239157740834234
2.95451785505492
0.3563767652028287
2.954538610249439
2.943713798747529
0.1151089066103322
0.1195806371419642
0.2391596277432076
0.3576917265968538
0.3067014073295814
-0.2776315174144872
-3.422659924297127
-0.00114006098030428
-0.1866590996038647
-3.406697656982553
-0.09333125615204896
-3.406591227220255
-3.406591087066956
-0.2779418253711652
-3.523498962358616
-0.002298755574543399
-0.1866598632985736
-3.500024490678827
-0.09333127013768899
-3.499922513604032
-3.499922397251248
-0.2781778042379061
-3.625597910147932
-0.002269011007813626
-0.1866603776661176
-3.593359468227313
-0.09333127875480585
-3.593253814727268
-3.593253707562146
-0.2783811012193855
-3.725686669466677
-0.002276503242420014
-0.1866607876518256
-3.686689259501494
-0.09333128543737251
-3.686585113273092
-3.686585017947184
0.09333123686624401
3.966578739346131
-4.059909979811112
0.1866621544482228
3.966578795982474
-4.059909990307089
0.2795478251862161
3.966654002842307
-4.059880423700935
3.995866417026821
-4.055782370446562
0.1344379356486486
0.0933312283780926
3.873247498872643
0.1866615119031499
3.873247574668492
0.2789365612346894
3.873346598991118
3.922169350865865
0.02797070657340872
0.09333122434685881
3.779916258393939
0.1866612184134842
3.779916343609814
0.2786975258497014
3.780018691646207
3.82540447654688
-0.0001723369273137765
0.09333122046662412
0.1866609647771222
0.2785497133754521
-0.002213544748789542
-4.0599099798276
2.990689917936606e-10
-4.059909979829603
-6.404377028701447e-11
-4.059909979829605
1.20792265079217e-13
-2.331468351712829e-15
-4.059909979829605
-4.059909980324877
6.435387290837369e-07
-4.059909979818568
-2.609946980758338e-09
-4.059909979829588
2.513722563435294e-11
-7.971401316808624e-14
-4.059909979829608
-4.059910241755572
0.0008586761726220304
-4.059909978456637
-4.516369200291415e-07
-4.059909979825759
7.152768599638648e-09
1.434019569757083e-12
-4.059909979828954
-4.059940225195144
-0.003375788158029747
-4.059910138040365
-0.0001278152111140463
-4.059909979788154
5.597026730974619e-10
-4.059909979279328
-3.992128849716892e-11
-6.605826996519681e-13
-4.059909979828944
-1.296351914703564e-12
-4.059909979828959
1.19865228853655e-11
-4.059909979819685
-4.059909972614632
1.903852353546398e-09
-6.59916565837193e-13
-4.059909979828285
-1.254774062431352e-12
-4.059909979828307
4.735228875674125e-11
-4.059909979820043
-4.059909972428693
1.585523495828411e-08
-6.605826996519681e-13
-4.059909979827625
-7.803202528577913e-13
-4.059909979827943
1.856183540205336e-10
-4.059909980262468
-4.059910123035125
3.527349179410777e-08
-1.965760887401302e-12
-4.05990997982651
-1.080968092814771e-10
-4.059909979971483
-6.006248121082081e-08
-4.059910170934139
-4.05996525519405
-4.847423611953339e-07
-7.606699714557408e-09
4.05990997955903
-4.059909979504511
-5.438920452904838e-07
4.059910066725852
-4.05991006295759
-0.0004288403673541885
4.060015946200949
-4.060016511864703
4.111838471757532
-4.116342684035577
-0.08385655083996968
-4.955872268119776e-09
4.059909979687428
-3.395213152845855e-07
4.059910023777927
-0.0002428180888416898
4.059961446835292
4.079513543868492
-0.02674071957671381
-1.359816925727841e-09
4.059909979804347
-9.444584692097635e-08
4.059909986099007
-6.338108779002649e-05
4.059917541215707
4.062270109798353
-0.004147542516487301
-1.041821073854976e-10
-7.754684117067256e-09
-5.020059985316738e-06
-0.00018550660322042
-0.1046719961722131
-4.151842502191195
0.01293930408651361
-0.06999819757339709
-4.094970708604993
-0.03499922121919796
-4.094909241091599
-4.094909203675508
-0.1047197851148639
-4.1837547457062
0.02420462726115841
-0.0699982020579214
-4.129972309843102
-0.03499922070823636
-4.129908466423429
-4.129908427637814
-0.1047223349892379
-4.21995852706083
0.02456272153235645
-0.06999821633969622
-4.164970500626609
-0.03499922098569641
-4.164907687788024
-4.164907651602745
-0.1047500163443701
-4.250262265987973
0.02566200981348293
-0.06999824048095871
-4.199974084691602
-0.03499922171771697
-4.199906874830387
-4.19990687564924
-0.6911971420472901
-3.728360470002546
0.0372436529040876
-1.207473226736574
-3.68366032741545
-1.723711780224324
-3.683668322180491
-3.683668322214205
-0.6911940499896664
-3.192853591730466
0.04792421740920377
-1.207473226751381
-3.167433437660101
-1.723711780225355
-3.167429768740049
-3.167429768740466
-0.6912032570605983
-2.655934748658735
0.09480236344686283
-1.207473226753193
-2.651192082671145
-1.723711780226762
-2.651191215266305
-2.651191215268137
-0.6912248500966915
-2.134595724067191
0.1555803808669884
-1.207473226756505
-2.134952794119988
-1.723711780228153
-2.134952661794653
-2.134952661797195
1.706212168246006
0.5337381654478088
1.172474002797067
0.5337381654489388
0.6387358373475801
0.5337381653374249
0.5337381806195407
0.1049976723142542
1.70621216824656
1.067476330893901
1.172474002799517
1.067476330895981
0.6387358373660789
1.067476330449134
1.067476398239935
0.1049977016817401
1.706212168253681
1.601214496345124
1.172474002803972
1.601214496345691
0.6387358380194598
1.601214447483563
1.601196979162375
0.1049955550862552
1.706212168252928
1.172474002803967
0.6387358263818748
0.1047856176374799
0.104997672603043
0.1049976726036696
0.1049976580465928
0.1049977241597933
0.1049998642195911
0.1049864823894661
0.1046206005327405
0.1049350824077449
0.104997724159524
0.1049976580473695
0.1049977219928802
0.1049977219935056
0.1049909302635783
0.1049392935608467
0.1032236883502106
0.105467970276803
0.1049864823898425
0.1049998642201918
0.104939293561177
0.1049909302642333
0.1046191919627344
0.1046191919621345
0.09929556256848451
0.1063399722322234
0.1046206005336088
0.1049350824082868
0.1032236883508461
0.1054679702776278
0.09929556256921665
0.1063399722314894
0.09839773769212397
0.09839773769274474
-0.04888374975196264
0.1463825881402633
-0.08871840285086607
0.1400400184636024
-0.1287859282276979
0.138156284317584
0.1248824791734982
-0.005209714739304483
0.1605927703857499
-0.02376985194917042
0.160355567645399
-0.05107393152193723
0.1624695065593074
0.151687082114638
0.006800329765641377
0.1661438287955793
0.001075674276520611
0.1697654974798667
-0.009431435620641471
0.1718680359435009
0.1634591569330441
0.008595375752723178
0.1664998161371461
0.005841662613488008
0.1707075365606014
-0.0007128529249332827
0.1731270491213081
0.1666571281369361
0.1670624546591965
-0.002009820653865235
0.1673153966621493
-0.002346041612459271
0.1674180018407956
-0.002485813826657302
-0.01137574059169727
0.1680493939544095
0.1732708791950239
-0.007035247820457502
0.1734229837138637
-0.007095003626697516
0.1736670081993536
-0.007136764357143721
-0.01873437723005378
0.178383189122064
0.170872041931256
-0.009093421471922214
0.171079570181742
-0.008955804253139188
0.1713657343407411
-0.008808604844571744
-0.02893400421781639
0.1787771026283062
0.1663939355210142
0.1664876943019218
0.1669412592891565
0.1509229589136198
0.1598738803196762
-0.08691459878291813
0.1459100680995008
-0.02394406730348875
0.1405439979890753
-0.00337117029427364
-0.0001595357858526492
0.1400077714843867
0.1628605453398273
-0.06319097384025291
0.147322646954617
-0.01171510950133164
0.1408349007454279
-0.0007066827696837752
-2.126258435408701e-05
0.1400155469704571
0.158768098344593
-0.02443638137158058
0.1486708678400104
0.003783497929844393
0.1413115736659752
0.002727821296323318
0.0003343540488738861
0.1400286428221652
0.1306894800203088
0.1382588409311006
0.1397459589975976
0.1399882716319247
0.1399969172351678
-9.72246576969038e-07
0.139996887122806
5.716466700000922e-08
0.1399968916993825
2.212998612138861e-08
1.93153187888484e-09
0.1399968956114169
0.1399969273057921
3.530335513368676e-07
0.1399968838595005
7.782713157267196e-08
0.1399968907838574
2.348620919967459e-08
1.774472957460915e-09
0.1399968956164383
0.1399969625082979
6.521018160843273e-06
0.1399968888011107
9.662909011831644e-08
0.1399968920833084
2.29149546560059e-08
1.992061682276614e-09
0.1399968957030465
0.1399967564234687
0.1399968775129894
0.1399968927839613
0.1399968956698482
0.1399968960591074
-5.890560261789801e-11
0.1399968964216004
1.948406436191874e-10
0.1400478314227129
-0.0002540078647095267
-0.02388400491621667
0.1347447982447688
0.1399968959269101
-2.988193026354224e-11
0.1399968959739685
7.817063663040358e-11
0.1400713986185957
-0.0003710500323624299
-0.04137920340899504
0.1276732419470755
0.1399968958670435
1.392597148708319e-11
0.1399968958713501
2.410110999662152e-11
0.1400204569846057
-0.000352347862731528
-0.03890282607405654
0.1121132291777932
0.1399968958554051
0.1399968958567104
0.139897487319929
0.09873395516570645
0.1548810475550939
0.08106111388282211
0.1664535335028422
-0.003041526193750754
0.1685821353722231
-0.03031639413663101
-0.03247866865567273
0.1686645265593221
0.1506146945891009
0.05139262963686642
0.1687685612433313
-0.002538014353516083
0.1731829019436267
-0.02583256112725707
-0.02729018458098009
0.1733379320527124
0.1362459407102453
0.03189188145728339
0.1653020957225755
0.004839780214051403
0.1716959222225772
-0.004286997860432629
-0.004840816134186965
0.1719248497072359
0.1263158067614249
0.1443964419933811
0.1519060817151008
0.1525162871743382
0.1686644490234142
-0.03250427132147804
0.1686632138415441
-0.03244896102411188
0.1688066232902536
-0.03244709597353401
-0.03170826126561543
0.1691625104658253
0.1733467996781614
-0.02734774682454422
0.173360912419121
-0.02735592133442621
0.1734266728683953
-0.02739074913473172
-0.02711846178646427
0.1737137252577037
0.1719388943469126
-0.004904556270205029
0.171954155173763
-0.00490349104663812
0.172015435237041
-0.004922954830604342
-0.004743895416898458
0.1720106898451442
0.1525307345532942
0.1525410085418248
0.1525601123230189
0.1530873988394801
0.1748392415714252
-0.02309810129239598
0.1831882178749221
-0.01090344595575521
0.2046176656161489
0.04267332469900431
0.2088814755215012
0.2560495949356665
0.1761324701037202
-0.02087324794903378
0.1812672932782711
-0.01123670224655404
0.2023600520096056
0.03682260450840291
0.1437246505370955
0.2901392834402691
0.1741456430686361
-0.00103154989436538
0.1794139105329027
0.001755828491687872
0.1995173557821985
0.03686600825582653
0.06734539345606982
0.303647689529254
0.1574114453838563
0.1655307058746828
0.2173274656848383
0.2899087571714444
0.1583779673475698
-0.7196494663694737
0.03710048130907979
-0.2265285993719102
0.003436294631621865
-0.01411641702154609
0.009809032351443259
0.0001548726773398408
0.1125429202843489
-0.5303781231032595
0.01674399465540464
-0.1042669164204425
-0.0002199791270487261
0.00507001108155386
0.01589980137671481
0.0001503943115096409
0.06646020729750235
-0.2708337624019592
0.01030501911369373
-0.03744372675610043
-0.000509934390199647
0.011342410580052
0.01451413849513009
0.0003527260261461697
0.03421220672236819
-0.001103566688718315
-0.0008708232284841983
0.0004332753473628576
0.001594802885431779
0.005709692536179617
0.002652724210936066
0.005137525491800111
0.003913379056594668
-3.395055283066106e-06
-0.002602744537853571
0.01584237871714901
-0.0006827110320901802
0.01196100506153933
-0.003179419178863253
0.01154438501988172
-0.006678248330217611
0.005181853591739699
-0.002486443795951608
-0.003111065847588114
-0.00112804178734381
0.01257927655018743
-0.004716858065064011
0.01243780368679185
-0.009524457657220223
0.008820649206173439
0.001721139439978293
-0.01286266355325149
-0.001091390271455538
-0.004601188189744487
-0.008831199466228941
-0.009632960978342001
0.108093857462044
0.06333120624524038
0.137268090032972
0.04414403003114634
0.1443312407137072
0.0303410307474849
0.05535861617031268
0.1457965089021388
0.07717987042997068
0.00710599004883905
0.1287832158656503
0.03391801403125283
0.1487610618455961
0.04760835633806343
0.05885417654454717
0.1606241388540278
0.04135210802369618
-0.0205053631739128
0.1125628530551813
9.506366330902516e-05
0.1542366597758643
0.04276028774455007
0.03284251814052205
0.1924807920417401
-0.004588880984517776
0.04857041952466139
0.1300521883031663
0.1795065622256388
0.1180063830704027
-0.2129952241666276
0.2540328100502772
0.08292652442748094
-0.1641190079255639
0.2178407481602666
0.04032609936404294
-0.1082705561845745
0.170836388730006
-0.06360552713921475
0.006348811164282153
0.1326913404798216
0.1406404761905252
-0.1702831831908764
0.1071671076196601
-0.1140419929031052
0.05932989674415973
-0.06270321993832967
-0.02794769698063581
0.01503306249726775
0.1518043775174197
-0.1033978264178095
0.1248809366883509
-0.03897707589065499
0.09277697022514213
-0.02131402992518783
-0.009246497237194708
0.04496750899585488
0.07389917508637248
0.04563570969586156
0.04367223622403176
0.04334362312610571
0.02711632025587145
0.001862933378981177
0.004294851788284159
-0.0004108775693828157
0.0003443458532681083
-0.00175643151337327
-0.001884009616970562
-7.428085924132688e-15
0.01295351867779205
0.008307610922834326
0.002698874172648094
0.004555313824568493
0.0008736734330412714
0.003915767947131391
0.003777059832930141
-1.807581861967833e-14
0.003844808478606764
0.025015013073408
0.001161816507359116
0.02363868961534523
0.0004778379713095068
0.0232904322504174
0.02313604822525248
7.618905506490137e-15
0.001801717464808589
0.0006654139166438755
0.000284082959615975
-6.478151348687788e-14
-0.001884009616968435
-0.0003443458532828292
0.003777059832935106
-0.0008736734330787276
0.02313604822524306
-0.00047783797130551
-0.0002840829596670313
0.05559570470756424
-0.001756431513373187
-0.004294851788290973
0.003915767947133535
-0.002698874172662919
0.02329043225041205
-0.001161816507361968
-0.0006654139166426543
0.05575694427452706
-0.0004108775693763694
-0.02711632025585853
0.004555313824565782
-0.0129535186777679
0.02363868961532927
-0.003844808478594988
-0.001801717464817484
0.05620308995875571
0.001862933378985923
-0.04334362312609586
0.008307610922841699
-0.04496750899583905
0.02501501307340011
-0.01503306249725829
-0.00634881116427137
0.05741305407242783
-0.04032609936404641
-0.06360552713920467
0.1326913404798417
-0.08292652442746018
-0.1082705561845671
0.1708363887300107
-0.1180063830703796
-0.1641190079255538
0.2178407481602675
-0.2129952241666106
-0.1457965089021294
0.2540328100502668
-0.05932989674415411
-0.02794769698064006
-0.1071671076196541
-0.06270321993833239
-0.1406404761905193
-0.1140419929031048
-0.1702831831908662
-0.1606241388540225
-0.09277697022513327
-0.009246497237208315
-0.1248809366883484
-0.02131402992519609
-0.1518043775174099
-0.03897707589066125
-0.1033978264177973
-0.1924807920417236
-0.04367223622403617
-0.04563570969587195
-0.07389917508636783
-0.1795065622256249
-0.1300521883031398
-0.03284251814051373
-0.04857041952463163
-0.04276028774450608
0.004588880984511108
-9.506366327710625e-05
0.02050536317384648
0.009632960978342608
-0.1542366597758403
-0.05885417654453673
-0.112562853055151
-0.04760835633804003
-0.04135210802373027
-0.03391801403118486
-0.007105990048978966
0.01286266355324932
-0.1487610618455766
-0.05535861617030718
-0.1287832158656077
-0.03034103074743022
-0.07717987043000471
-0.04414403003101111
-0.06333120624547064
0.003111065847600542
-0.144331240713695
-0.1372680900329478
-0.1080938574620714
-0.01584237871708193
-0.003913379056572193
-0.002602744537865097
-0.002652724210982321
-3.39505533423351e-06
-0.001594802885431163
0.005137525491820637
0.005709692536180887
-0.0001548726773386994
0.006678248330207576
-0.002486443795948395
0.003179419178879173
0.00518185359169665
0.00068271103210636
0.01154438501992455
0.01196100506156453
-0.0001503943115069694
0.009524457657220783
0.001721139439982824
0.004716858065101278
0.008820649206106847
0.001128041787364469
0.01243780368682979
0.01257927655022335
-0.0003527260261439215
0.008831199466230668
0.004601188189790129
0.001091390271480601
-0.0004332753473614854
-0.003436294631492479
0.00980903235155775
-0.03710048130822864
-0.01411641702105187
-0.1583779673465438
-0.2265285993710782
-0.7196494663707859
-0.2560495949357002
0.0002199791270609854
0.01589980137670213
-0.01674399465510764
0.005070011081763012
-0.1125429202835942
-0.1042669164201132
-0.5303781231037793
-0.2901392834402624
0.0005099343901874172
0.01451413849512073
-0.01030501911357881
0.01134241058005173
-0.06646020729718288
-0.03744372675595468
-0.2708337624021709
-0.3036476895292558
0.0008708232284605402
0.001103566688707359
-0.03421220672223441
-0.2899087571714822
-0.2046176656162323
0.2088814755213713
-0.1831882178749936
0.04267332469906759
-0.1748392415714519
-0.01090344595565162
-0.02309810129262579
-0.1691625104658334
-0.2023600520096615
0.1437246505370734
-0.1812672932783225
0.03682260450842056
-0.1761324701036754
-0.01123670224648043
-0.02087324794936085
-0.1737137252576909
-0.1995173557822316
0.06734539345599677
-0.1794139105329188
0.03686600825574848
-0.174145643068626
0.001755828491792122
-0.001031549894360273
-0.172010689845122
-0.2173274656848858
-0.1655307058747202
-0.1574114453838607
-0.1530873988394686
-0.1688066232902694
-0.03170826126566151
-0.1686632138415226
-0.03244709597366013
-0.1686644490233983
-0.03244896102412687
-0.03250427132154954
-0.1686645265593053
-0.1734266728684083
-0.02711846178650301
-0.1733609124191248
-0.02739074913479667
-0.1733467996781459
-0.02735592133434839
-0.02734774682456154
-0.1733379320526942
-0.1720154352370455
-0.004743895416860822
-0.1719541551737663
-0.004922954830719473
-0.1719388943469283
-0.004903491046660324
-0.004904556270193039
-0.1719248497072296
-0.152560112323015
-0.1525410085418223
-0.1525307345533077
-0.1525162871743519
-0.1685821353722813
-0.03247866865556914
-0.1664535335028502
-0.03031639413680498
-0.1548810475551287
-0.003041526193903965
0.08106111388276493
-0.1347447982447696
-0.1731829019436592
-0.02729018458099197
-0.1687685612433364
-0.02583256112735621
-0.1506146945891409
-0.002538014353665297
0.05139262963672853
-0.1276732419470853
-0.1716959222225755
-0.004840816134015213
-0.1653020957226117
-0.004286997860523112
-0.1362459407102984
0.004839780214010991
0.0318918814572543
-0.1121132291777747
-0.1519060817150978
-0.1443964419933933
-0.1263158067614631
-0.09873395516570727
-0.1400478314227007
-0.02388400491625065
-0.1399968964215627
-0.0002540078647444988
-0.139996896059097
1.946280914211229e-10
-5.888517451424491e-11
-0.1399968956114173
-0.1400713986185848
-0.04137920340903001
-0.1399968959739469
-0.0003710500323903521
-0.1399968959268939
7.808509394635621e-11
-2.986227931600638e-11
-0.1399968956164429
-0.1400204569846024
-0.03890282607408702
-0.13999689587134
-0.0003523478627530108
-0.1399968958670327
2.407057886344433e-11
1.393873905186638e-11
-0.1399968957030517
-0.1398974873199299
-0.1399968958567068
-0.1399968958554019
-0.1399968956698507
-0.1399968916993791
1.931542370492423e-09
-0.1399968871228106
2.213006700113596e-08
-0.139996917235172
5.716459589022449e-08
-9.722465756367704e-07
-0.140007771484378
-0.1399968907838595
1.774481173111297e-09
-0.1399968838594944
2.348625172121643e-08
-0.1399969273057863