/*--------------------------------*- C++ -*----------------------------------*\
  =========                 |
  \\      /  F ield         | OpenFOAM: The Open Source CFD Toolbox
   \\    /   O peration     | Website:  https://openfoam.org
    \\  /    A nd           | Version:  11
     \\/     M anipulation  |
\*---------------------------------------------------------------------------*/
FoamFile
{
    format      ascii;
    class       volScalarField;
    location    "0.004";
    object      Ma;
}
// * * * * * * * * * * * * * * * * * * * * * * * * * * * * * * * * * * * * * //

dimensions      [0 0 0 0 0 0 0];

internalField   nonuniform List<scalar> 
880
(
1.443353270571932
1.443353270571932
1.443353270571932
1.443353270571932
1.443353270571932
1.443353270571932
1.443353270571934
1.443353270571932
1.443353270571932
1.443353270571933
1.443353270571932
1.443353270571961
1.443353270571932
1.443353270571932
1.443353270571932
1.443353270593617
1.443353270571932
1.443353270571932
1.443353270571933
1.443353270571932
1.443353270571932
1.443353270571932
1.443353270571935
1.443353270571932
1.443353270571932
1.443353270571932
1.443353270571932
1.443353270571932
1.44335327037094
1.443353270364802
1.443353270385824
1.443353270403515
1.443353270571932
1.443353270571932
1.443353270571933
1.443353270571932
1.443353270571932
1.443353270571933
1.443353270571932
1.443353270571932
1.443353270571932
1.443353270571933
1.443353270571932
1.443353270571932
1.443353270501816
1.443353270501497
1.443353270500406
1.443353270496954
1.443353270118971
1.443353270640132
1.443353270582294
1.443353270571931
1.443353270571924
1.443353270571907
1.443353270571932
1.443353270571932
1.443353270571932
1.443353270571932
1.443353270571932
1.443353270571932
1.443353270571932
1.443353270571932
1.443353270571932
1.443353270571932
1.443353270571933
1.443353270571933
1.443353270571932
1.443353270571932
1.443353270571932
1.443353270571932
1.443353270571932
1.443353270571932
1.443353270571934
1.443353270571932
1.443353270571934
1.443353270571932
1.443353270571933
1.443353270571932
1.443353270571933
1.443353270571932
1.443353270571932
1.443353270571932
1.443353270571932
1.443353270571932
1.443353270571932
1.443353270571932
1.443353270571932
1.443353270571932
1.443353270571935
1.443353270571933
1.443353270571932
1.443353270571932
1.443353270619813
1.443353270571932
1.443353270571932
1.443353270571933
1.443353270571934
1.443353270571933
1.443353270571933
1.443353270571316
1.443353270571932
1.443353270571932
1.443353270571934
1.443353270571681
1.443353270571932
1.443353270571932
1.443353270571932
1.443353270571572
1.443353270571932
1.443353270571932
1.443353270571932
1.443353270571476
1.443353270571445
1.443353270571933
1.443353270571932
1.443353270571932
1.443353270571358
1.443353270571934
1.443353270571932
1.443353270571932
1.443353270571411
1.443353270571932
1.443353270571933
1.443353270571932
1.443353270571428
1.443353270571932
1.443353270571932
1.443353270571932
1.443353270571933
1.443353270571932
1.443353270571932
1.443353270564393
1.443353270571932
1.443353270571932
1.443353270571932
1.443353270564158
1.443353270571932
1.443353270571932
1.443353270571932
1.443353270562789
1.443353270571932
1.443353270571932
1.443353270575873
1.443353271504022
1.443353270571933
1.443353270572877
1.443353280028045
1.443375321046161
1.443353270571932
1.443353270571778
1.443353278576983
1.443377601888348
1.443353270571932
1.443353270572177
1.443353276394292
1.44337510253523
1.443353270571932
1.443353270571766
1.443353274887684
1.443373106492491
1.443378211429402
1.443353276592025
1.443353270572175
1.443353270571932
1.443377260763437
1.443353275737989
1.443353270572318
1.443353270571932
1.443375670220882
1.443353274866887
1.443353270572303
1.443353270571932
1.443376708968587
1.443353274923262
1.443353270572152
1.443353270571932
1.443353535788197
1.443353270616804
1.443353270571932
1.443353270571935
1.443353270923456
1.443353270572025
1.443353270571932
1.443353270571932
1.443353270545205
1.443353270571933
1.443353270571932
1.443353270571932
1.443353267607724
1.443353270571877
1.443353270571932
1.443353270571932
1.443353274868479
1.443353270555091
1.44335327057156
1.443353270571933
1.443353274868568
1.443353270554816
1.443353270571512
1.443353270571932
1.443353274868465
1.443353270555472
1.443353270572014
1.443353270571932
1.443353275998762
1.443353270556503
1.443353270572024
1.443353270571932
1.443353267608063
1.443353270571994
1.443353270571932
1.443353270571932
1.443353270545503
1.443353270571932
1.443353270571934
1.443353270571932
1.443353270923526
1.443353270572024
1.443353270571932
1.443353270571932
1.443353535787645
1.44335327061636
1.443353270571932
1.443353270571934
1.443353270571932
1.443353270571853
1.443353276591726
1.443378211429221
1.443353270571932
1.443353270572334
1.443353275737759
1.443377260763139
1.443353270571932
1.443353270572038
1.443353274866882
1.443375670220086
1.443353270571932
1.443353270572128
1.443353274922606
1.443376708969076
1.443373106492848
1.443353274888004
1.443353270571841
1.443353270571932
1.44337510253592
1.443353276394687
1.443353270572346
1.443353270571932
1.443377601888549
1.443353278577549
1.443353270571793
1.443353270571933
1.443375321045969
1.443353280028233
1.443353270572994
1.443353270571932
1.443353270571933
1.443353270571932
1.443353270571932
1.443353270564114
1.443353270571932
1.443353270571932
1.443353270571932
1.443353270564331
1.443353270571932
1.443353270571932
1.443353270571932
1.443353270562858
1.443353270571932
1.443353270571932
1.443353270575995
1.443353271504016
1.443353270571169
1.443353270571932
1.443353270571932
1.443353270571932
1.443353270571155
1.443353270571932
1.443353270571932
1.443353270571932
1.443353270571363
1.443353270571932
1.443353270571932
1.443353270571932
1.4433532705712
1.443353270571932
1.443353270571932
1.443353270571932
1.443353270571932
1.443353270571932
1.443353270571932
1.4433532705716
1.443353270571932
1.443353270571932
1.443353270571932
1.443353270571533
1.443353270571932
1.443353270571932
1.443353270571932
1.443353270571467
1.443353270571932
1.443353270571932
1.443353270571934
1.443353270571484
1.443353270571932
1.443353270571932
1.443353270571932
1.443353270571932
1.443353270571933
1.443353270571932
1.443353270571932
1.443353270571932
1.443353270571932
1.443353270571932
1.443353270571932
1.443353270571932
1.443353270619852
1.443353270571935
1.443353270571932
1.443353270571932
1.443353270571934
1.443353270571932
1.443353270571933
1.443353270571932
1.443353270571932
1.443353270571932
1.443353270571932
1.443353270571933
1.443353270571932
1.443353270571932
1.443353270571932
1.443353270571932
1.443353270571932
1.443353270571933
1.443353270571932
1.443353270571932
1.443353270571932
1.443353270571933
1.443353270572093
1.443353270119072
1.443353270571932
1.443353270571932
1.443353270571905
1.443353270640575
1.443353270571933
1.443353270571932
1.443353270571932
1.443353270582284
1.443353270571932
1.443353270571932
1.443353270571932
1.44335327057191
1.44335327049682
1.443353270571932
1.443353270571932
1.443353270571932
1.44335327050058
1.443353270571932
1.443353270571932
1.443353270571932
1.443353270501204
1.443353270571932
1.443353270571931
1.443353270571934
1.443353270501943
1.443353270571932
1.443353270571932
1.443353270571932
1.443353270403222
1.443353270571932
1.443353270571932
1.443353270571932
1.443353270385954
1.443353270571932
1.443353270571932
1.443353270571933
1.443353270364539
1.443353270571932
1.443353270571932
1.443353270571933
1.443353270371035
1.443353270571932
1.443353270571932
1.443353270571934
1.443353270571932
1.443353270571933
1.443353270571932
1.443353270571932
1.443353270571931
1.443353270571932
1.443353270571932
1.443353270571932
1.443353270571932
1.443353270571932
1.443353270571932
1.443353270571987
1.443353270571932
1.443353270571932
1.443353270571934
1.443353270593842
1.443353270571932
1.443353270571923
1.443353270727364
1.443353279489154
1.443353270572097
1.443353270593933
1.443353270709972
1.443353494925049
1.443353270727331
1.443353270710091
1.443353167958648
1.443174639389621
1.443353279488885
1.443353494924892
1.443174639389864
1.424130649426177
1.390038628911392
1.43411846803849
1.443281448289909
1.443353165038217
1.390225640304983
1.433967311555736
1.44327594916121
1.443353148246312
1.390215719017951
1.43401641756992
1.443276400372802
1.443353148658431
1.390232940080896
1.434065202182033
1.443276714936765
1.443353149352547
1.443353214880187
1.443353213579281
1.443353213570472
1.443353189395003
1.443278062800113
1.44327818777068
1.443278190707219
1.44327887903172
1.432981146048665
1.432989043827041
1.432989367896948
1.433637188878542
1.388717543072284
1.388980485635953
1.388985147302346
1.402079300231663
1.443353270159532
1.443353454812755
1.443353276582408
1.443353270576424
1.44338983852953
1.443358265889652
1.443353346618162
1.443353271197729
1.443445040959283
1.443397903738002
1.44335468122318
1.443353279988875
1.434039823437187
1.44292227001488
1.443360836194122
1.4433533485688
1.443353270571932
1.443353270571933
1.443353270571932
1.443353270571933
1.443353270566986
1.443353270571868
1.443353270571932
1.443353270571932
1.443353270306839
1.443353270570324
1.443353270571873
1.443353270571932
1.443353270555505
1.443353270543437
1.44335327057108
1.443353270571932
1.443353270571933
1.443353270571933
1.443353270571932
1.443353302722036
1.443353270571932
1.443353270571932
1.443353270571933
1.443403843564137
1.443353270571932
1.443353270571932
1.443353270571933
1.449333186367836
1.443353270571932
1.443353270571932
1.443353270571933
1.373520414489987
1.443353269451449
1.443353269326584
1.443353269322254
1.443353269321671
1.44331695145638
1.443313385842896
1.443313300484147
1.44331330222733
1.419033544502255
1.416759201410693
1.416727256116805
1.416727240635603
1.30241147015329
1.278089356588205
1.277014689948249
1.277030109208526
1.44335326932166
1.443353269321349
1.443353269321536
1.443353269313349
1.443313302351339
1.44331330234954
1.443313302349519
1.443313265860071
1.416727238093829
1.416727237187505
1.416727237162464
1.416651201489128
1.277030340868126
1.27703032655697
1.277030325910158
1.276885940992239
1.443353261185707
1.443353262260078
1.443353264252679
1.443352079061397
1.443313159183667
1.443316378711386
1.443319332742503
1.442996321378656
1.420561987012508
1.421572450696565
1.422800239550388
1.425927115369527
1.282172846922806
1.285245805536071
1.28611562983426
1.386970709436437
1.444669865019506
1.445001580938774
1.444995397030509
1.445007843785079
1.448765629661847
1.449484107990548
1.449463318352681
1.449551439011573
1.520550101873562
1.529213738686827
1.528438279323829
1.528679500629188
1.023153831073199
1.038557731180875
1.04142131603417
1.043719333673135
1.446206495957143
1.446267407664175
1.446262321278945
1.446287291986861
1.453859002514043
1.454073345005293
1.454060386437081
1.452398908548441
1.562255706537663
1.563185232569179
1.562787423808165
1.524668203155858
1.015006317453127
1.016436416642307
1.01687390467662
0.8633579197509029
1.443400459521446
1.443353356661707
1.443353238901798
1.443349864105305
1.444200076117807
1.443362041272563
1.443353483461936
1.443326622446894
1.446075242836024
1.443497405439096
1.443406895993394
1.44841046800825
1.441675083291993
1.443326633800655
1.44419970527494
1.508171510966913
1.443349788018858
1.443333152738409
1.443332209655791
1.443326309889761
1.445293769427055
1.445750063694411
1.44575474199731
1.445863504288783
1.48021366916141
1.484731845729324
1.484979821405459
1.485932015600733
1.29984406447774
1.402597561009032
1.411752159268903
1.418528470156097
1.39512545221693
1.400822676868345
1.400958359224232
1.400957466022263
1.503985150170555
1.506180796206155
1.506230353947809
1.506231696571224
1.447875810758024
1.448125080889168
1.448128513894417
1.448128512391699
1.443281021076653
1.443273167740414
1.443273046509402
1.443273047075915
1.400957466022302
1.506231696571349
1.448128512391602
1.443273047075912
1.400958359223647
1.506230353948362
1.448128513893646
1.443273046509492
1.400822676868294
1.506180796205977
1.448125080889697
1.443273167740615
1.395125452217083
1.503985150169977
1.447875810758346
1.443281021077222
1.443326309890134
1.443332209655882
1.443333152738517
1.443349788019466
1.445863504289329
1.445754741997264
1.445750063693501
1.445293769427982
1.485932015600677
1.484979821405241
1.484731845729492
1.480213669161342
1.418528470156246
1.411752159268893
1.402597561008872
1.299844064477748
1.508171510966832
1.444199705274968
1.443326633800654
1.441675083291895
1.448410468008258
1.443406895993519
1.443497405439091
1.446075242835884
1.443326622446953
1.443353483462755
1.443362041272559
1.444200076117896
1.443349864105364
1.443353238901813
1.443353356661795
1.443400459521446
1.446287291986948
1.446262321279256
1.446267407664314
1.446206495957507
1.452398908548473
1.454060386436909
1.454073345004778
1.453859002513749
1.524668203154895
1.562787423808182
1.563185232569139
1.562255706537582
0.8633579197509024
1.016873904676502
1.016436416642289
1.015006317452968
1.445007843785951
1.444995397030028
1.445001580938179
1.444669865019242
1.449551439010818
1.449463318352522
1.449484107990471
1.448765629661998
1.528679500629345
1.528438279324223
1.529213738686143
1.520550101874349
1.043719333672078
1.041421316034673
1.038557731181853
1.023153831073811
1.443352079061324
1.443353264252458
1.443353262260451
1.443353261185466
1.44299632137919
1.443319332742204
1.443316378711351
1.443313159183185
1.425927115370283
1.422800239550448
1.421572450696353
1.420561987012773
1.386970709436858
1.286115629834475
1.285245805536386
1.282172846923302
1.443353269313403
1.443353269320921
1.443353269321443
1.443353269321034
1.443313265860188
1.443313302348981
1.443313302348861
1.443313302351364
1.416651201489716
1.416727237162269
1.416727237187294
1.416727238094152
1.276885940993085
1.2770303259105
1.277030326557088
1.277030340868415
1.443353269322366
1.443353269322046
1.443353269326519
1.443353269451324
1.443313302227524
1.443313300483672
1.443313385843722
1.443316951455599
1.416727240635807
1.41672725611646
1.416759201410932
1.419033544501896
1.277030109208609
1.27701468994831
1.278089356588614
1.302411470152825
1.443353302722031
1.443353270571932
1.443353270571933
1.443353270571933
1.443403843564192
1.443353270571933
1.443353270571932
1.443353270571932
1.449333186367848
1.443353270571933
1.443353270571932
1.443353270571932
1.373520414490055
1.443353270571933
1.443353270571932
1.443353270571932
1.443353270571933
1.443353270571932
1.443353270571933
1.443353270571932
1.443353270571932
1.443353270571932
1.443353270571868
1.443353270566987
1.443353270571932
1.443353270571913
1.443353270570324
1.443353270306843
1.443353270571932
1.44335327057108
1.443353270543449
1.443353270555662
1.443353270576408
1.44335327658241
1.443353454812812
1.443353270159593
1.443353271197729
1.443353346618175
1.443358265889622
1.443389838529613
1.443353279988887
1.44335468122318
1.443397903737988
1.443445040959313
1.443353348568806
1.443360836194121
1.4429222700149
1.434039823437191
1.443353189394375
1.443353213570892
1.443353213579692
1.443353214879421
1.443278879032285
1.443278190707503
1.443278187770437
1.443278062799507
1.433637188879171
1.432989367897234
1.432989043827387
1.432981146048189
1.402079300232005
1.388985147302964
1.388980485636753
1.38871754307212
1.4433531493521
1.443353148658588
1.443353148246114
1.443353165037731
1.44327671493729
1.443276400372212
1.443275949161569
1.443281448289935
1.434065202181776
1.434016417570348
1.433967311555965
1.434118468038698
1.390232940080809
1.390215719019202
1.39022564030517
1.390038628911502
1.443353311852617
1.443353270577819
1.443353270571988
1.443353270571932
1.44335330655668
1.443353270578067
1.443353270571928
1.443353270571932
1.443353305547768
1.443353270577124
1.443353270571923
1.443353270571933
1.443353302182605
1.443353270576615
1.443353270571931
1.443353270571932
1.443353270571932
1.443353270571529
1.443353270554988
1.443353274868392
1.443353270571932
1.443353270571688
1.443353270555247
1.443353274868131
1.443353270571932
1.443353270571486
1.443353270555227
1.44335327486916
1.443353270571933
1.443353270571529
1.443353270557831
1.443353275998852
1.443353270571932
1.443353270571932
1.443353270571932
1.443353270571934
1.443353270571993
1.443353270571923
1.443353270571932
1.443353270571932
1.443353270576148
1.443353270577702
1.443353270577412
1.443353270578265
1.443353302182991
1.443353305548596
1.443353306556332
1.443353311852508
)
;

boundaryField
{
    back
    {
        type            empty;
    }
    inlet
    {
        type            calculated;
        value           nonuniform List<scalar> 
16
(
1.443353270571932
1.443353270571932
1.443353270571932
1.443353270571932
1.443353270571932
1.443353270571932
1.443353270571932
1.443353270571932
1.443353270571932
1.443353270571932
1.443353270571932
1.443353270571933
1.443353270571932
1.443353270571932
1.443353270571932
1.443353270571932
)
;
    }
    front
    {
        type            empty;
    }
    top
    {
        type            calculated;
        value           uniform 0;
    }
    outlet
    {
        type            calculated;
        value           nonuniform List<scalar> 
16
(
1.443353270571933
1.443353270571932
1.443353270571932
1.443353270571932
1.443353270571932
1.443353270571932
1.443353270571933
1.443353270571932
1.443353270571932
1.443353270571932
1.443353270571932
1.443353270571933
1.443353270571932
1.443353270571932
1.443353270571932
1.443353270571933
)
;
    }
    bottom
    {
        type            calculated;
        value           uniform 0;
    }
    wall
    {
        type            calculated;
        value           uniform 0;
    }
}


// ************************************************************************* //
