/*--------------------------------*- C++ -*----------------------------------*\
  =========                 |
  \\      /  F ield         | OpenFOAM: The Open Source CFD Toolbox
   \\    /   O peration     | Website:  https://openfoam.org
    \\  /    A nd           | Version:  11
     \\/     M anipulation  |
\*---------------------------------------------------------------------------*/
FoamFile
{
    format      ascii;
    class       volVectorField;
    location    "0.004";
    object      U;
}
// * * * * * * * * * * * * * * * * * * * * * * * * * * * * * * * * * * * * * //

dimensions      [0 1 -1 0 0 0 0];

internalField   nonuniform List<vector> 
880
(
(25 -8.462702697915485e-17 0)
(25 -5.753059513039505e-17 0)
(25 1.79779452529782e-16 0)
(25 -5.572873114956828e-17 0)
(25 8.124053486168105e-17 0)
(25 -1.089413321033767e-16 0)
(25.00000000000002 8.185137892851305e-16 0)
(25 -1.620500442898424e-14 0)
(25 0 0)
(25.00000000000001 2.067345560971471e-16 0)
(25 -1.062298079794788e-15 0)
(25.00000000000213 4.05220745766765e-15 0)
(25 0 0)
(25 -1.967161222834654e-16 0)
(25 3.198512742842251e-19 0)
(25.00000000021917 -5.185263493384818e-10 0)
(25 -7.058893268130508e-17 0)
(25 -5.835184028472008e-17 0)
(25.00000000000001 3.503362726806879e-16 0)
(25 -3.004471939214503e-16 0)
(25 0 0)
(25 0 0)
(25.00000000000003 1.175538272882796e-15 0)
(25 -1.070797624826994e-15 0)
(25 1.425512310790442e-17 0)
(25 -1.218784595565544e-16 0)
(25 2.967896203876515e-16 0)
(25 -1.343037625682375e-15 0)
(24.99999999855516 6.873566930186087e-09 0)
(24.99999999860334 7.437023695961082e-09 0)
(24.99999999874912 6.698173710483382e-09 0)
(24.99999999889462 6.155942353520085e-09 0)
(25 8.708491650230426e-17 0)
(25 -2.196754318441579e-20 0)
(25.00000000000001 3.768684746688885e-16 0)
(25 -4.026777750664077e-16 0)
(25 -1.549078393503824e-16 0)
(25.00000000000001 8.800997193324048e-17 0)
(25 2.768702038297465e-17 0)
(25 -1.040000230161563e-16 0)
(25 1.263638238217341e-13 0)
(25.00000000000002 1.27225731019529e-13 0)
(25 1.318539072051028e-13 0)
(25 -1.759464374102198e-15 0)
(24.99999999958614 2.740467385977062e-09 0)
(24.99999999957083 2.704340365348126e-09 0)
(24.99999999956372 2.743611611403952e-09 0)
(24.99999999909743 1.211074318987252e-09 0)
(25.00000000794503 5.648748074306217e-08 0)
(25.00000000688203 1.999803818659001e-08 0)
(25.00000000032193 4.537138266413502e-10 0)
(25 4.315829621267277e-13 0)
(25.00000000000097 5.465248001316474e-12 0)
(25.00000000000008 2.05197361699583e-12 0)
(25 5.264127003761914e-14 0)
(25 4.334756821390542e-18 0)
(25 1.268233428613322e-16 0)
(25 -1.453861612074921e-17 0)
(25 -9.901976384948651e-17 0)
(25 1.082876235201667e-16 0)
(25 -1.816138687108788e-16 0)
(25 1.578194776109631e-16 0)
(25 4.538643874901671e-17 0)
(25 3.757606609787493e-17 0)
(25.00000000000001 3.177504803869697e-16 0)
(25.00000000000001 -1.487149443754674e-17 0)
(25 -6.811371498096049e-17 0)
(24.99999999999999 -9.08182866412799e-17 0)
(25 -2.436742519255535e-16 0)
(25 2.707190588007398e-17 0)
(25 -2.165142742791448e-16 0)
(25 -5.423865827714101e-17 0)
(25.00000000000002 7.721495605390382e-16 0)
(25 -7.928068609730809e-16 0)
(25.00000000000002 4.892394724109166e-16 0)
(25 -4.679857228797684e-16 0)
(25.00000000000001 2.288248886627618e-16 0)
(25 -5.741706846919008e-16 0)
(25.00000000000001 5.495876084708104e-16 0)
(25 -2.72878778176453e-16 0)
(25 -2.802625438759697e-17 0)
(25 -6.84824372247881e-17 0)
(25 1.08368920534799e-16 0)
(25 1.361820208187228e-16 0)
(25 -1.131937913848249e-16 0)
(25 -3.360276605730523e-17 0)
(25 5.417091076495796e-17 0)
(25 0 0)
(25.00000000000004 4.117307408591133e-13 0)
(25.00000000000002 6.637386365469993e-16 0)
(25 -1.811771719094147e-16 0)
(25 0 0)
(25.00000000009588 -2.618746307505477e-09 0)
(25 -2.135590866061421e-13 0)
(25 3.754567126806842e-17 0)
(25.00000000000001 0 0)
(25.00000000000002 3.199886495584539e-16 0)
(25.00000000000001 -6.73512631993064e-17 0)
(25.00000000000002 1.566853657445642e-16 0)
(24.99999999999214 5.743007159622562e-12 0)
(25 -9.379176475757188e-17 0)
(25 -7.666026986863447e-17 0)
(25.00000000000002 -6.082656411330175e-16 0)
(24.99999999999723 9.797564524411109e-12 0)
(25 0 0)
(25 2.906120366463675e-17 0)
(25 2.847742786645219e-16 0)
(24.99999999999614 1.028282782956975e-11 0)
(25 0 0)
(25 7.412374691186423e-18 0)
(25 4.333630593650693e-16 0)
(24.99999999999503 1.080495398696672e-11 0)
(24.99999999999466 1.13689312391915e-11 0)
(25.00000000000001 3.887443251391695e-16 0)
(25 -3.064403155338594e-17 0)
(25 5.084244514976852e-17 0)
(24.99999999999376 1.199091945381931e-11 0)
(25.00000000000003 1.412794997165123e-16 0)
(25 -7.920558316490596e-17 0)
(25 0 0)
(24.99999999999442 1.268673799033414e-11 0)
(25 1.111328735743555e-15 0)
(25.00000000000001 -1.018769816902997e-16 0)
(25 -8.073111047193238e-17 0)
(24.99999999999426 1.154400945270735e-11 0)
(25 2.72802957661889e-16 0)
(25 1.36231317685433e-16 0)
(25 0 0)
(25.00000000000001 -5.684231089312415e-17 0)
(25 1.369731146901084e-16 0)
(25 1.119199507407745e-14 0)
(24.99999999991495 1.321631721128839e-10 0)
(25 2.368132080212253e-16 0)
(25 0 0)
(25 1.268374265189903e-14 0)
(24.99999999991173 1.259263370403381e-10 0)
(25 0 0)
(25 0 0)
(25 2.511161941969024e-14 0)
(24.99999999991556 2.37460092377497e-10 0)
(25 0 0)
(25 -1.881490022655714e-14 0)
(25.00000000003308 -1.136457501119494e-10 0)
(25.00000000117897 -5.620279137678009e-08 0)
(25.00000000000002 -2.626239115172113e-14 0)
(25.0000000000247 1.869651143932241e-11 0)
(25.00000023370876 6.146459369773931e-08 0)
(25.00055540772036 6.293715391324887e-06 0)
(25 -6.9996186579728e-15 0)
(25.00000000000729 1.224940595162341e-11 0)
(25.00000019727418 4.867640044144141e-08 0)
(25.00061012190786 5.114058461572104e-07 0)
(25 -9.061721503149263e-15 0)
(25.00000000000821 7.248019251723833e-12 0)
(25.0000001434929 3.53702208471029e-08 0)
(25.00054740430525 3.032886748263951e-08 0)
(25 -3.439391855517032e-15 0)
(25.00000000000125 4.467731768887333e-12 0)
(25.00000010650721 2.689897789961778e-08 0)
(25.00049758213864 3.851309508509996e-06 0)
(25.00062704592031 7.510047287620972e-06 0)
(25.00000014869011 7.061427141118611e-08 0)
(25.0000000000077 8.941521503681986e-12 0)
(25 -1.781760141694842e-14 0)
(25.00060303279485 2.621223202838045e-07 0)
(25.00000012719913 5.947697707743008e-08 0)
(25.00000000000799 6.599130289636426e-12 0)
(25 -1.851724146242136e-14 0)
(25.00056308504252 1.06110180869078e-06 0)
(25.00000010580306 4.984518714154716e-08 0)
(25.00000000000675 4.764394443047264e-12 0)
(25 -1.662640556486361e-14 0)
(25.00058712763488 -1.123421780846911e-05 0)
(25.00000010668735 4.750599191949858e-08 0)
(25.00000000000542 5.375187011694573e-12 0)
(25 -9.778878787333261e-15 0)
(25.00000659823607 -1.037040760039288e-06 0)
(25.00000000100977 3.471614806852185e-10 0)
(25 -4.841088278611602e-15 0)
(25.00000000000003 -5.796574262863766e-16 0)
(25.00000000190281 -1.541820059510606e-08 0)
(25.00000000000065 -3.393344568224833e-12 0)
(25 -6.215516083194549e-16 0)
(25 7.76379284456901e-16 0)
(24.99999999897173 -2.2885363721704e-09 0)
(25 -4.5077597963564e-13 0)
(25 2.82337907688971e-16 0)
(25 5.827069258328047e-17 0)
(24.99999993469713 -9.523865983902325e-08 0)
(24.99999999999485 -2.42898275852924e-11 0)
(25 -5.546796147490244e-15 0)
(25 -3.884712838877546e-17 0)
(25.00000074931148 6.778584546644533e-14 0)
(24.99999999968174 -3.948540089023419e-14 0)
(24.99999999999476 -5.121439928603664e-16 0)
(25.00000000000001 6.566398093447584e-17 0)
(25.0000007493082 2.178630942602872e-12 0)
(24.99999999967852 8.269886041668457e-14 0)
(24.99999999999429 1.794508929674417e-14 0)
(25 -1.970897299269298e-16 0)
(25.00000074820639 3.849070467305702e-09 0)
(24.9999999996865 4.323411596096161e-13 0)
(24.99999999999995 1.31473321385053e-14 0)
(25 -6.57617675603964e-17 0)
(25.00000074796858 8.936100480139754e-08 0)
(24.99999999972249 2.780999965158571e-11 0)
(25.0000000000001 3.451515901195163e-14 0)
(25 6.576176756048459e-17 0)
(24.99999993470103 9.523866079318498e-08 0)
(24.99999999999622 2.439836167901215e-11 0)
(25 2.104479010778827e-15 0)
(25 3.104468265189318e-16 0)
(24.99999999897527 2.288669529474499e-09 0)
(25 4.534180577404161e-13 0)
(25.00000000000001 1.856366142593461e-16 0)
(25 3.884712838885048e-17 0)
(25.00000000190376 1.541827309673439e-08 0)
(25.00000000000059 3.424473616428327e-12 0)
(25 6.644884760600721e-16 0)
(25 -5.822407603231956e-16 0)
(25.00000659822961 1.037040836034198e-06 0)
(25.0000000010047 -3.470754875000997e-10 0)
(25 1.48088634563892e-15 0)
(25.00000000000003 3.875777999571388e-16 0)
(25 1.360486606243883e-14 0)
(25.00000000000378 -8.908379285681413e-12 0)
(25.00000014868671 -7.061441277842885e-08 0)
(25.00062704591823 -7.510047600669507e-06 0)
(25 1.889255668233822e-14 0)
(25.00000000000812 -6.613282646869097e-12 0)
(25.00000012719653 -5.947688533812623e-08 0)
(25.00060303279134 -2.621227289310307e-07 0)
(25 1.215230356043282e-14 0)
(25.00000000000369 -4.804661500484949e-12 0)
(25.0000001058031 -4.98452011953473e-08 0)
(25.0005630850333 -1.061101867872466e-06 0)
(25 9.467999171126412e-15 0)
(25.00000000000512 -5.333325225895287e-12 0)
(25.00000010667962 -4.750626942386816e-08 0)
(25.00058712764073 1.123421831230578e-05 0)
(25.00049758214286 -3.851309627420575e-06 0)
(25.00000010651081 -2.689907277346022e-08 0)
(25.00000000000218 -4.546061995582261e-12 0)
(25 3.245781575944001e-15 0)
(25.00054740431338 -3.032895157664755e-08 0)
(25.00000014349754 -3.53702223071862e-08 0)
(25.00000000001028 -7.231372342195037e-12 0)
(25 1.226884143073878e-14 0)
(25.00061012191025 -5.114055728922699e-07 0)
(25.00000019728082 -4.867639623697506e-08 0)
(25.00000000000748 -1.222347333370784e-11 0)
(25.00000000000001 8.214082370482359e-15 0)
(25.00055540771816 -6.293715405862833e-06 0)
(25.00000023371092 -6.146443043624568e-08 0)
(25.00000000002627 -1.867307920886393e-11 0)
(25 2.785034274041145e-14 0)
(25.00000000000001 1.136704040992721e-16 0)
(25 -4.163324886712626e-16 0)
(25 -1.146404524804099e-14 0)
(24.99999999991169 -1.321635979478276e-10 0)
(25 -4.047385318671309e-16 0)
(25 2.877733785531204e-16 0)
(25 -1.253424592379388e-14 0)
(24.9999999999137 -1.258763762346852e-10 0)
(24.99999999999999 -1.010427120213236e-17 0)
(25 1.515352735911499e-16 0)
(25 -2.455962090788971e-14 0)
(24.99999999991634 -2.374463889331076e-10 0)
(25 1.797152108966242e-16 0)
(25 2.035599135869367e-14 0)
(25.00000000003459 1.136694048378346e-10 0)
(25.00000000117888 5.620274720622526e-08 0)
(24.99999999999116 -1.157277960942286e-11 0)
(25 -5.793226386263475e-16 0)
(25 0 0)
(25 0 0)
(24.99999999999141 -1.271045403745864e-11 0)
(25 -8.145194615439099e-16 0)
(25 0 0)
(25 0 0)
(24.99999999999381 -1.198653276891226e-11 0)
(25 -6.091256469363146e-16 0)
(25 0 0)
(25 0 0)
(24.99999999999187 -1.139056178058787e-11 0)
(25 -7.760519990445683e-16 0)
(25 2.102946665349224e-17 0)
(25 0 0)
(25 4.575024478084215e-17 0)
(25 2.025401290773587e-17 0)
(25 -1.268034137367546e-16 0)
(24.99999999999553 -5.730846541435444e-12 0)
(25 0 0)
(25 0 0)
(25 -2.728380561173129e-16 0)
(24.99999999999558 -9.793224036985435e-12 0)
(25 0 0)
(25 0 0)
(25 -3.696367447469756e-16 0)
(24.99999999999488 -1.029188597137352e-11 0)
(25 -4.946599969027181e-17 0)
(25 2.421548687864565e-16 0)
(25.00000000000002 -1.519171444578216e-16 0)
(24.99999999999507 -1.080543976288811e-11 0)
(25 0 0)
(25 0 0)
(25 0 0)
(25 2.107324818654437e-16 0)
(25 -4.724034026563992e-17 0)
(25 -2.709900488492325e-17 0)
(25 0 0)
(25 0 0)
(25 2.134855721546962e-13 0)
(25 -3.558364911638536e-16 0)
(25 3.748388553692453e-17 0)
(25 5.027645857493902e-16 0)
(25.00000000009635 2.618739120233087e-09 0)
(25.00000000000004 -4.11564362952964e-13 0)
(25 8.538860782654025e-17 0)
(25 2.213471678610217e-17 0)
(25.00000000000002 -4.083644258828849e-16 0)
(25 -5.42386582771856e-17 0)
(25.00000000000002 -5.370730098939459e-16 0)
(25 -6.613333859238515e-17 0)
(25 -2.927754515606306e-17 0)
(25 -5.419800976991211e-17 0)
(25 0 0)
(25.00000000000001 0 0)
(25 0 0)
(25 1.084095690421072e-16 0)
(25 6.71887307315229e-17 0)
(25 -2.042141785882785e-17 0)
(25 4.540914332066851e-17 0)
(25.00000000000001 5.419800976983464e-17 0)
(25 -1.343438586969622e-16 0)
(25 1.425464707482463e-16 0)
(25 9.195351522448836e-17 0)
(25 3.358108685342731e-16 0)
(25.00000000000286 -5.465602367668194e-12 0)
(25.00000000794627 -5.648759510356719e-08 0)
(25 -1.815911641395804e-16 0)
(25 7.127038284739522e-17 0)
(25.00000000000002 -2.036036791129329e-12 0)
(25.00000000688726 -1.999809550179928e-08 0)
(25.00000000000001 9.081828664143171e-17 0)
(25 -1.083418215300224e-16 0)
(25 -5.471091480315564e-14 0)
(25.00000000032196 -4.535936542954533e-10 0)
(25 0 0)
(25 -2.167107420648192e-16 0)
(25 -3.633299079942655e-17 0)
(25 -4.349447807012904e-13 0)
(24.99999999909583 -1.210971149561614e-09 0)
(25 -7.520163134338821e-15 0)
(25 -2.060760456067506e-16 0)
(25 1.486775829498463e-16 0)
(24.99999999956563 -2.743636033230411e-09 0)
(25 -1.319058258561637e-13 0)
(25 -4.113757425725831e-16 0)
(25 6.209983794714175e-16 0)
(24.9999999995674 -2.704326435250919e-09 0)
(25 -1.2703000273421e-13 0)
(24.99999999999999 2.969262600698187e-16 0)
(25.00000000000002 -7.174270090890586e-16 0)
(24.99999999958757 -2.740461748876008e-09 0)
(25 -1.261633529153004e-13 0)
(25 0 0)
(25 -8.708491650236261e-17 0)
(24.99999999889122 -6.156091253920896e-09 0)
(25 1.212980798368596e-15 0)
(25 -7.178491459751346e-17 0)
(25 0 0)
(24.99999999875066 -6.698028634463164e-09 0)
(25 -8.335191790435747e-17 0)
(25 7.628025171527066e-17 0)
(25.00000000000001 6.328902666476155e-17 0)
(24.99999999860027 -7.437107721663856e-09 0)
(25 -4.692521102689729e-19 0)
(25 0 0)
(25.00000000000001 5.333786267729495e-16 0)
(24.99999999855618 -6.873497133186154e-09 0)
(25 5.304046205986062e-16 0)
(25 -8.720180900806151e-17 0)
(25.00000000000002 -4.937695841056231e-16 0)
(25 1.690424863907052e-16 0)
(25 1.151187496353027e-16 0)
(25 0 0)
(25 4.594272475517859e-17 0)
(24.99999999999999 -2.843418720158383e-19 0)
(25 1.633575274889106e-16 0)
(25 0 0)
(25 1.336122197359727e-14 0)
(25 -1.557606052128399e-16 0)
(25 -1.033672780486548e-16 0)
(25 -5.667271214968526e-17 0)
(25.00000000000234 -2.913788347163266e-14 0)
(25 -7.405389109950793e-17 0)
(25 -2.922272352944938e-18 0)
(25.00000000000002 -3.951140560763115e-16 0)
(25.00000000022176 5.184712293755731e-10 0)
(25 8.231404852006694e-17 0)
(24.99999999999992 1.74817933975802e-12 0)
(25.00000000228346 -1.199979803301536e-10 0)
(25.00000011643061 9.642479403377926e-08 0)
(25.00000000000187 -1.744304664300668e-12 0)
(25.00000000030393 1.044849191528093e-13 0)
(25.00000000156698 2.224012725529494e-10 0)
(25.00000453101945 3.702254756016302e-06 0)
(25.00000000228314 1.197598888713647e-10 0)
(25.00000000156837 -2.223923598635179e-10 0)
(24.99999883276573 1.562906607302779e-13 0)
(24.99737397295529 6.512017447316516e-05 0)
(25.0000001164274 -9.642505621409536e-08 0)
(25.00000453101757 -3.702255466629008e-06 0)
(24.99737397295825 -6.512017522420599e-05 0)
(24.71416137800047 1.635586359102515e-12 0)
(24.80990373522803 0.3004062684524821 0)
(24.91701805131134 0.2816562389343883 0)
(24.99971455305114 0.003260158176513759 0)
(24.99999937059162 4.071592397650683e-06 0)
(24.87146559096184 0.4691586170435866 0)
(24.92638960838683 0.3336975186240821 0)
(24.999835063292 0.004014608064761397 0)
(24.99999937216801 5.096295393873244e-06 0)
(24.87176251553747 0.4706304489216611 0)
(24.92716906034973 0.3337126727045009 0)
(24.99984163637537 0.004011328805002999 0)
(24.99999937748482 5.09069379625739e-06 0)
(24.87216272629461 0.4709366770160244 0)
(24.92786999048712 0.3330532567917712 0)
(24.99984108976077 0.003995235262814755 0)
(24.99999938065858 5.060372757901885e-06 0)
(24.99999982891016 2.752061344599897e-06 0)
(24.99999978790715 2.680804802932687e-06 0)
(24.99999978776964 2.680892644591096e-06 0)
(24.99999908064961 1.759213100327648e-06 0)
(24.99992184398943 0.004093909445121132 0)
(24.9999293813981 0.004111846412789294 0)
(24.99992946952444 0.004111946856494379 0)
(24.99992235933424 0.004045836525999604 0)
(24.91392165949035 0.3630372000206197 0)
(24.91435035997471 0.3653724954459728 0)
(24.91435838426281 0.3653861773741369 0)
(24.92939289017129 0.3856116779803542 0)
(24.87090543939824 0.4628934665736939 0)
(24.87829724211822 0.4634020650057286 0)
(24.87841013723944 0.4634115602857282 0)
(25.16971872085957 0.512238114557886 0)
(25.00000755017066 2.777578092110647e-05 0)
(25.00000563804208 8.653089927856062e-06 0)
(25.00000014053633 8.519552375051634e-08 0)
(25.0000000001021 3.473468424000192e-11 0)
(25.00136715170142 0.002549970521192527 0)
(25.00011670968492 7.884824939247564e-05 0)
(25.00000113348972 -8.068376499291163e-07 0)
(25.00000001131166 -3.05107444579968e-09 0)
(25.00814052280017 0.02754251625764972 0)
(25.00066877318597 -0.0004179001558233932 0)
(25.00002396933377 -2.230486499830171e-05 0)
(25.00000020446644 6.610191574124404e-08 0)
(24.85380184396345 0.005559977919220574 0)
(24.9909895321292 -0.0001601634640059636 0)
(25.00010692282496 -5.776502562204196e-06 0)
(25.00000168163328 -2.608808593742991e-08 0)
(25 -5.875716011290126e-14 0)
(25.00000000000001 4.769623868063935e-15 0)
(25 4.714428699598476e-16 0)
(25.00000000000001 0 0)
(24.99999999992071 2.584028997537799e-11 0)
(24.99999999999915 -2.499440879244267e-13 0)
(25 1.567314390611819e-14 0)
(25 8.063434705192512e-16 0)
(24.999999995813 1.288985802356576e-09 0)
(24.99999999994888 -7.456039332161217e-12 0)
(25 -2.107142171018663e-14 0)
(25 3.607875274668816e-15 0)
(25.00000001379737 5.213760030974964e-10 0)
(24.99999999940588 -1.240021354316558e-11 0)
(24.99999999998398 -2.216569447425102e-13 0)
(25 1.620073358537897e-15 0)
(25.00000000000001 1.903281671214642e-19 0)
(25.00000000000001 1.903281671214642e-19 0)
(25 -1.254985868365469e-14 0)
(25.00000014315384 -1.529482982390386e-06 0)
(25 7.616933248200659e-16 0)
(25 7.616933248200659e-16 0)
(25.00000000000001 -2.138527285776641e-15 0)
(25.0004788653969 -0.001310643488141637 0)
(25 6.661485849251242e-18 0)
(25 0 0)
(25.00000000000001 0 0)
(25.07015105703229 -0.1079356177209423 0)
(25 0 0)
(25 0 0)
(25.00000000000001 8.090850384333102e-16 0)
(23.46957789520556 -0.23748345690485 0)
(24.99999998808533 2.200474703554691e-08 0)
(24.9999999869991 2.544078319294426e-08 0)
(24.99999998696481 2.558189902993882e-08 0)
(24.99999998695757 2.5583090033285e-08 0)
(24.99964996177807 0.0007724968845074363 0)
(24.99961890610355 0.0008579491930210816 0)
(24.99961823752873 0.0008604228500830826 0)
(24.9996182466926 0.000860358626093931 0)
(24.73039234751293 0.4772559936182963 0)
(24.69882276381571 0.4990255473792296 0)
(24.69816066254859 0.4984315839898772 0)
(24.6981535304583 0.4984061848951823 0)
(24.5323930352919 1.447200313921446 0)
(24.05720577528931 1.426607516005655 0)
(24.02980209606225 1.423279887012576 0)
(24.03020706268877 1.423324277524421 0)
(24.99999998695688 2.558377549240341e-08 0)
(24.99999998695323 2.558524077645789e-08 0)
(24.99999998695527 2.558594894642541e-08 0)
(24.9999999868925 2.586331336476341e-08 0)
(24.99961824719375 0.0008603534500664972 0)
(24.99961824718196 0.0008603534945171589 0)
(24.99961824718245 0.0008603534992693316 0)
(24.99961967664408 0.0008659018103745652 0)
(24.69815380396928 0.4984065550707085 0)
(24.6981537968614 0.4984065654532888 0)
(24.6981537959803 0.4984065647452611 0)
(24.69706018828713 0.5001417562496692 0)
(24.03022090159244 1.42332805209035 0)
(24.03022049747869 1.423328016583477 0)
(24.03022047360364 1.423328012871176 0)
(24.02758453216144 1.42320893637745 0)
(24.99999989643335 1.662150721445263e-07 0)
(24.99999990869034 1.491236092886578e-07 0)
(24.99999998133845 2.764838187118882e-07 0)
(24.99996698016026 -6.223675938435444e-05 0)
(24.99959033945394 0.0007922951622790047 0)
(24.99961985978764 0.000722809163290467 0)
(24.99968342612858 0.0005872592958008205 0)
(24.99084098783784 0.002465132428890852 0)
(24.74952730370747 0.4225656267946249 0)
(24.76051519818538 0.4005226060126245 0)
(24.77476535896758 0.3758178519541774 0)
(24.81779793414117 0.3885439949774169 0)
(24.04393502646172 1.414540104532899 0)
(24.0689905082628 1.370574773718241 0)
(24.04768417154108 1.3217933899895 0)
(26.06440563485876 1.453528808100748 0)
(25.03347038271982 -0.000164816310957207 0)
(25.04169479841266 -1.658626055935387e-05 0)
(25.04153538973912 -7.336954068925583e-06 0)
(25.04191829486302 0.0005989071378819444 0)
(25.11473027906186 -0.006279422096685677 0)
(25.13109443035167 -0.0002556107141129135 0)
(25.13068115198453 -1.520778744055011e-05 0)
(25.13281210062638 0.001480102069439183 0)
(25.68270114285864 -0.2615582485268955 0)
(25.71934299529861 -0.01299160674003273 0)
(25.7083569325499 9.429085987806982e-05 0)
(25.71540226657217 -0.008887080307626216 0)
(14.23961756652451 -2.066742592396932 0)
(13.19040654121645 -0.0404346070855329 0)
(13.21633743482993 -0.0006370596564616901 0)
(13.22878512447534 -0.0391153561325174 0)
(25.07265755080386 0.001112632591093451 0)
(25.07424699005945 3.834143948080775e-06 0)
(25.07411430436894 -5.508675422995742e-06 0)
(25.07444212031574 -0.0006866006413159451 0)
(25.23021272703027 0.002418388717306292 0)
(25.23514641092243 7.331388190389906e-06 0)
(25.23485385360687 -6.030180425017889e-05 0)
(25.19825570557004 0.004174760802250269 0)
(26.19537282076947 -0.01062618845803437 0)
(26.21034157002205 -0.0001846051716352505 0)
(26.2029078209397 -0.001194448259218902 0)
(25.36947473718684 0.2091721327385292 0)
(12.46760274649976 -0.04297257345161064 0)
(12.47381069709503 -0.00025159466396463 0)
(12.48373213860244 -0.006378602375493555 0)
(9.568322160436912 1.113170454167395 0)
(25.00137542912395 -0.0002059163283787071 0)
(25.00000031545037 -3.565552495776157e-06 0)
(24.99999925229856 -9.22330141240464e-07 0)
(24.99993962036005 -4.989637109189648e-05 0)
(25.02060592577062 -0.002611621315876356 0)
(25.0001732668645 -1.997494614024561e-05 0)
(25.00000048791679 -1.713325608357776e-05 0)
(24.99898362566441 -0.0001910662737098216 0)
(25.05146973126124 0.001888700973382198 0)
(25.00346138140389 -0.001555284013863347 0)
(25.0008443885927 -0.0004069007394011886 0)
(25.08279825821142 0.01098966813358185 0)
(24.81180694645559 0.3626239736445199 0)
(24.99902264081957 0.001491760319185228 0)
(25.01254770545311 0.000774447931887238 0)
(26.10372880311811 -0.08317214316770585 0)
(25.00056522786847 8.086885610094801e-05 0)
(25.00031282898095 -1.290193429283933e-06 0)
(25.00029362586718 3.148890208542549e-07 0)
(25.00020747842725 7.092630363111171e-05 0)
(25.04180305369204 -0.001119766313217278 0)
(25.0519407966812 -0.0001990535799032322 0)
(25.05205429604314 -1.200053251721249e-05 0)
(25.05466718055746 0.001406058658235719 0)
(25.58813912385359 -0.06326718912536405 0)
(25.67127451030959 -0.004893012091641211 0)
(25.67600778692092 -0.0002336755784750328 0)
(25.69486524209449 -0.001199247198758945 0)
(20.67759914223863 -1.540497692113558 0)
(22.04898329757947 -0.2283737279894507 0)
(22.13909728982216 -0.01639711781831885 0)
(22.22301930541724 -0.09607920827760359 0)
(21.57495726720114 -0.1121540041941361 0)
(21.63640804634313 -0.009536811327934281 0)
(21.63543370037594 -0.0002289533812268958 0)
(21.63534678181082 -4.327034858671589e-07 0)
(26.03215518047154 -0.0006952960645711658 0)
(26.07391241090163 -0.0001667788431071785 0)
(26.07485363302169 -1.321002234164994e-05 0)
(26.07487688542786 -3.408685233512403e-07 0)
(25.09782336484061 0.002791926058674816 0)
(25.10362464845697 7.370970894089737e-05 0)
(25.10371699312493 -4.791677857833132e-07 0)
(25.10371699666771 -1.168730288616965e-08 0)
(24.99985034151139 0.0001354089029037802 0)
(24.99977616343127 4.104010273878161e-06 0)
(24.99977591413449 3.273809159828948e-09 0)
(24.99977593044676 -1.52364573547491e-10 0)
(21.63534678181123 4.327036895413065e-07 0)
(26.07487688542926 3.408679207726373e-07 0)
(25.10371699666658 1.16877240834595e-08 0)
(24.99977593044671 1.52247267218476e-10 0)
(21.63543370037128 0.0002289533843187576 0)
(26.07485363302764 1.321002095072166e-05 0)
(25.10371699311551 4.791706185166641e-07 0)
(24.99977591413568 -3.274110851697987e-09 0)
(21.6364080463422 0.009536811323576025 0)
(26.07391241089948 0.000166778846434266 0)
(25.10362464846298 -7.370971579094367e-05 0)
(24.99977616343357 -4.104010860258842e-06 0)
(21.57495726720274 0.1121540041942339 0)
(26.03215518046521 0.0006952960642412857 0)
(25.09782336484445 -0.002791926056008515 0)
(24.99985034151795 -0.0001354089037364845 0)
(25.00020747843163 -7.092630300981896e-05 0)
(25.00029362586857 -3.14888834782906e-07 0)
(25.00031282898257 1.290193204753434e-06 0)
(25.00056522787563 -8.08688559628586e-05 0)
(25.05466718056377 -0.001406058657770052 0)
(25.05205429604269 1.20005336521169e-05 0)
(25.05194079667077 0.0001990535798427838 0)
(25.04180305370279 0.00111976631221419 0)
(25.6948652420942 0.001199247198655207 0)
(25.67600778691851 0.0002336755779816645 0)
(25.67127451031121 0.004893012091401607 0)
(25.58813912385301 0.0632671891255642 0)
(22.2230193054186 0.09607920827815097 0)
(22.13909728982212 0.01639711781878486 0)
(22.04898329757794 0.2283737279897339 0)
(20.67759914223892 1.540497692113306 0)
(26.10372880311717 0.08317214316739495 0)
(25.01254770545361 -0.0007744479313092432 0)
(24.99902264081957 -0.001491760319134489 0)
(24.81180694645369 -0.3626239736447975 0)
(25.0827982582115 -0.01098966813413532 0)
(25.00084438859431 0.0004069007358909427 0)
(25.00346138140389 0.00155528401409707 0)
(25.05146973125969 -0.001888700973707437 0)
(24.99898362566514 0.0001910662729738559 0)
(25.00000048792635 1.713325965307662e-05 0)
(25.0001732668645 1.99749460398123e-05 0)
(25.02060592577168 0.002611621315677701 0)
(24.99993962036075 4.989637079977624e-05 0)
(24.99999925229871 9.223299743885382e-07 0)
(25.00000031545137 3.565552511434418e-06 0)
(25.00137542912392 0.0002059163294032814 0)
(25.07444212031683 0.0006866006409667644 0)
(25.07411430437259 5.508675678617486e-06 0)
(25.07424699006147 -3.834143905600336e-06 0)
(25.07265755080848 -0.001112632591914248 0)
(25.19825570557039 -0.004174760802531366 0)
(25.23485385360456 6.03018051025213e-05 0)
(25.23514641091673 -7.331388192873435e-06 0)
(25.23021272702702 -0.00241838871725816 0)
(25.36947473717539 -0.2091721327393271 0)
(26.20290782093967 0.001194448259896567 0)
(26.21034157002174 0.0001846051714757349 0)
(26.19537282076879 0.01062618845806303 0)
(9.568322160432791 -1.113170454166879 0)
(12.48373213860303 0.006378602374410195 0)
(12.47381069709249 0.0002515946633582322 0)
(12.46760274649849 0.04297257345292056 0)
(25.04191829487387 -0.000598907137221186 0)
(25.04153538973354 7.336954191455226e-06 0)
(25.04169479840551 1.658626049396381e-05 0)
(25.03347038271652 0.0001648163107204839 0)
(25.13281210061784 -0.001480102069669938 0)
(25.13068115198288 1.520778733889543e-05 0)
(25.13109443035063 0.0002556107140411178 0)
(25.11473027906352 0.006279422096511433 0)
(25.71540226657423 0.008887080307139313 0)
(25.70835693255444 -9.429085919029917e-05 0)
(25.71934299529083 0.01299160673966779 0)
(25.6827011428663 0.2615582485261991 0)
(13.22878512446488 0.03911535613044858 0)
(13.21633743482822 0.000637059656732786 0)
(13.19040654122407 0.04043460708605368 0)
(14.2396175665336 2.066742592396139 0)
(24.99996698015946 6.223675947413262e-05 0)
(24.99999998133565 -2.764847557492066e-07 0)
(24.9999999086945 -1.491230332138327e-07 0)
(24.9999998964306 -1.662151790371626e-07 0)
(24.99084098784419 -0.002465132427125009 0)
(24.99968342612508 -0.0005872592961756639 0)
(24.99961985978708 -0.0007228091644344646 0)
(24.99959033944835 -0.0007922951628169451 0)
(24.81779793415035 -0.3885439949762983 0)
(24.77476535896847 -0.3758178519520656 0)
(24.76051519818272 -0.4005226060129409 0)
(24.7495273037109 -0.4225656267908689 0)
(26.06440563486473 -1.453528808101678 0)
(24.04768417154397 -1.321793389989489 0)
(24.0689905082673 -1.37057477371709 0)
(24.04393502646855 -1.414540104533469 0)
(24.99999998689324 -2.586305763282731e-08 0)
(24.9999999869481 -2.558719819982684e-08 0)
(24.9999999869543 -2.55851366457699e-08 0)
(24.99999998694997 -2.558473965203652e-08 0)
(24.99961967664559 -0.0008659018096628547 0)
(24.99961824717629 -0.0008603534990219158 0)
(24.99961824717388 -0.0008603534980374471 0)
(24.99961824719435 -0.000860353447312348 0)
(24.69706018829441 -0.5001417562470565 0)
(24.69815379597808 -0.4984065647432877 0)
(24.69815379685925 -0.4984065654493869 0)
(24.69815380397304 -0.4984065550702835 0)
(24.02758453217343 -1.423208936377486 0)
(24.03022047360836 -1.423328012870496 0)
(24.03022049748042 -1.42332801658355 0)
(24.03022090159653 -1.423328052090936 0)
(24.99999998696557 -2.558163081837112e-08 0)
(24.99999998696217 -2.558236610844417e-08 0)
(24.99999998699838 -2.54407820943334e-08 0)
(24.99999998808374 -2.200543018008124e-08 0)
(24.99961824669475 -0.0008603586281001453 0)
(24.99961823752303 -0.0008604228516777805 0)
(24.99961890611325 -0.0008579491884477576 0)
(24.99964996176876 -0.0007724968884465711 0)
(24.69815353046069 -0.4984061848943813 0)
(24.69816066254467 -0.4984315839889494 0)
(24.69882276381813 -0.4990255473833504 0)
(24.73039234750902 -0.4772559936146087 0)
(24.03020706268991 -1.423324277524671 0)
(24.02980209606343 -1.423279887011966 0)
(24.05720577529537 -1.426607516004518 0)
(24.5323930352845 -1.447200313921776 0)
(25.00000014315378 1.529482941212094e-06 0)
(25 1.155082613443424e-14 0)
(25.00000000000001 0 0)
(25.00000000000001 -5.709845013643929e-19 0)
(25.00047886539747 0.001310643488586372 0)
(25.00000000000001 2.002252318117698e-15 0)
(25 -7.616933248200659e-16 0)
(25 -8.407205098623998e-16 0)
(25.07015105703236 0.1079356177205839 0)
(25.00000000000001 2.96911940709483e-17 0)
(25 0 0)
(25 -1.187833152514855e-17 0)
(23.46957789520724 0.2374834569048443 0)
(25.00000000000001 0 0)
(25 0 0)
(25 0 0)
(25.00000000000001 0 0)
(25 -4.891433895021623e-17 0)
(25.00000000000001 -4.702247696902962e-15 0)
(25 6.047521049587003e-14 0)
(25 -8.079430694305817e-16 0)
(25 -5.136195917939875e-15 0)
(24.99999999999915 2.496675410975999e-13 0)
(24.99999999992071 -2.583777111444324e-11 0)
(25 -3.401925659129038e-15 0)