/*--------------------------------*- C++ -*----------------------------------*\
  =========                 |
  \\      /  F ield         | OpenFOAM: The Open Source CFD Toolbox
   \\    /   O peration     | Website:  https://openfoam.org
    \\  /    A nd           | Version:  11
     \\/     M anipulation  |
\*---------------------------------------------------------------------------*/
FoamFile
{
    format      ascii;
    class       volScalarField;
    location    "0.0625";
    object      p;
}
// * * * * * * * * * * * * * * * * * * * * * * * * * * * * * * * * * * * * * //

dimensions      [0 2 -2 0 0 0 0];

internalField   nonuniform List<scalar> 
880
(
79.99999999999999
80
80.00000013677531
80.00000850450758
80.00000000000001
80
80.00000123751072
80.00040941616197
80
80.00000000000226
80.00002430665005
80.01293396208919
79.99999999999996
79.9999999999761
80.00000070123232
80.11060828171573
80
80
80.00000000001381
80.00000003359926
80.00000000037103
79.99999999776634
80.00000001555391
80.00000052463236
80.00094240054899
80.00249786441286
80.01032299400281
79.98638399129921
80.88519700601984
82.44355427854613
83.62533563041909
84.28088668800346
80.00000135315545
80.00000244657379
80.00000263679799
80.00000188468205
80.00004012535679
80.000091666578
80.0001054512873
80.00006682909321
80.03371286425418
80.05059352744583
80.05425836403492
80.0493948546987
84.84523905790364
85.61315162290279
85.83637888154679
86.27571948595778
84.73854105374491
83.62563762573023
82.64186723763424
81.63889186338658
80.09079719647137
80.11912240711629
80.09518861433251
80.05402565874013
80.00024778733687
80.00035523532661
80.00030273913632
80.00016803853613
80.00000710797785
80.00000803625105
80.00000600751622
80.0000024645998
80.0000004210189
80.00000002005251
80.00000000015837
79.99999999999858
80.00004670044628
80.0000045830982
80.00000010904624
80.00000000024423
80.0179192102254
80.00243959865865
80.00008924399403
80.00000059646612
80.72425165712454
80.16835072266913
80.01374397983126
80.00025439430136
80.00000066069197
80.00000002416674
80.00000000004228
80
79.99999818573949
79.99999964462715
79.99999998629281
79.99999999997223
80.00431412707299
80.00001538892772
80.00000013590241
80.00000002388322
81.60527166218641
80.00462661820561
79.99985960927977
79.99999046722404
79.99999722896513
80.00001905774658
80.06100122977698
92.06583025668527
80.00000726052016
80.0002843543881
80.15346427517514
96.20722199969521
80.00001859153721
80.0006661327466
80.27501526164839
100.3290747747626
80.00002657606531
80.00098251243352
80.37942103015288
104.2069584208171
106.2989808124066
80.44500698662507
80.00122593142494
80.0000344941725
108.5004051528782
80.5513757021032
80.00169931979138
80.00004729817317
109.9579668059886
80.63409310366318
80.0020638264719
80.00006058852853
112.1709431371825
80.80039771151907
80.0030918235548
80.00009292791792
80.00009907672182
80.00332575695974
80.94967416163739
115.3073745595541
80.00013843912544
80.00459859565723
81.15089613647382
116.0549682953524
80.00017520900062
80.00516232269341
81.08189212524701
109.9770586085751
80.00008183004759
80.00316952057307
80.55971029462783
95.65044387428064
80.00025473077615
80.00833235723481
80.43523441702672
82.66117151359801
79.99992208105363
79.99586724549832
79.90532060742103
72.96506064073205
79.99997479033547
79.99084945426996
79.28599603356716
64.40506709198303
79.99997164217363
79.98623478527681
78.58882294031746
56.59838092867796
55.07608459083077
78.81154514247436
79.99213525332063
79.99998088210107
54.07800470026815
78.84218465758097
79.99292267933659
79.9999842879237
56.60894956105667
79.22841949174516
79.99638580375789
79.99999261665729
56.14832397313762
79.18167232863505
79.9961635727598
79.99999247859125
63.23123458227661
79.67168238290733
79.99870462281656
79.9999971408912
70.54277998053459
79.91018487821057
79.99974686561504
79.99999955064077
75.23359393934076
79.96794220485123
79.99991171848846
79.99999984484535
77.68994485945495
79.98234401810016
79.99993446541312
79.9999998226926
75.76206431772854
79.89967417855324
79.99924102099133
79.99999735434066
75.85019365185546
79.90130414302219
79.99924589092956
79.99999736129084
75.96091003520469
79.90237654231179
79.99925147705865
79.9999973751469
76.40803225055259
79.90664086164151
79.99927316992549
79.99999745318836
77.68994485945875
79.98234401803937
79.99993446535989
79.99999982259095
75.23359393935452
79.96794220474274
79.999911718353
79.99999984481016
70.54277998048543
79.91018487812445
79.99974686558832
79.99999955061206
63.23123458231844
79.6716823828157
79.99870462285465
79.99999714089633
79.99998088215285
79.99213525339188
78.81154514241366
55.07608459062356
79.99998428791007
79.99292267933214
78.84218465769966
54.07800470009049
79.9999926166799
79.99638580373609
79.22841949164219
56.60894956089775
79.99999247860461
79.99616357285635
79.18167232863608
56.14832397317017
56.59838092860891
78.58882294035479
79.98623478520162
79.99997164220127
64.40506709193775
79.28599603355927
79.99084945432593
79.99997479029366
72.96506064066998
79.9053206074494
79.995867245485
79.99992208113704
82.66117151358797
80.43523441693792
80.00833235712946
80.00025473084965
80.00009907669144
80.00332575698762
80.94967416179472
115.3073745596473
80.00013843914621
80.00459859566197
81.15089613655987
116.0549682955586
80.00017520891541
80.0051623227328
81.08189212523709
109.9770586085577
80.00008183008707
80.00316952051675
80.55971029462077
95.65044387426923
112.1709431372806
80.80039771138874
80.00309182360652
80.00009292806703
109.9579668061151
80.63409310362556
80.00206382648082
80.00006058853337
108.5004051528564
80.55137570226506
80.0016993197959
80.00004729817991
106.2989808123255
80.4450069864491
80.0012259314374
80.00003449420107
79.99999722898896
80.00001905777384
80.06100122969376
92.06583025661847
80.00000726062103
80.00028435453507
80.15346427526848
96.20722199984502
80.00001859164612
80.00066613272013
80.27501526139683
100.3290747745361
80.00002657605006
80.00098251246108
80.37942103050719
104.2069584209477
79.9999904672338
80.00000002387125
79.99999999998343
79.99999999999925
79.99985960915615
80.00000013585428
79.99999998625616
80.00000000002392
80.00462661813194
80.00001538896663
79.99999964458921
80.00000002413996
81.6052716621481
80.00431412709632
79.9999981857878
80.00000066068029
79.99999999999494
80.00000000025683
80.00000059648924
80.00025439432748
80.00000000015694
80.00000010907998
80.00008924401291
80.01374397986764
80.00000002005622
80.00000458312515
80.0024395985976
80.16835072259374
80.0000004209875
80.00004670043545
80.01791921025216
80.72425165710473
80.00000710798497
80.00024778724398
80.09079719648865
84.73854105381416
80.00000803615326
80.00035523538163
80.11912240716167
83.62563762573882
80.00000600755548
80.00030273906746
80.09518861428043
82.64186723755171
80.00000246456929
80.00016803852034
80.05402565878211
81.63889186330951
86.27571948591175
80.04939485468027
80.00006682903427
80.00000188477154
85.83637888147967
80.05425836411879
80.00010545117176
80.0000026368082
85.61315162294405
80.05059352749973
80.00009166645278
80.0000024464839
84.84523905785308
80.03371286415172
80.00004012530025
80.00000135327552
84.28088668796748
79.98638399143468
80.00000052463979
80.00000003364494
83.62533563040139
80.0103229939173
80.00000001547217
80.00000000001047
82.44355427851586
80.00249786439302
79.99999999775729
79.99999999999997
80.88519700597872
80.00094240050505
80.00000000036704
80.00000000000001
79.99999999999999
80
80.0000001368131
80.000008504525
80
80
80.00000123750553
80.00040941618593
80
80.00000000000188
80.00002430665431
80.01293396207846
80
79.99999999994209
80.00000070120248
80.11060828163741
80.00002704593439
80.00105390449062
80.05012590093055
80.79293716892322
80.00105390432633
80.01328686459561
80.29715515987566
82.98194233024329
80.05012590100851
80.29715516002398
82.21206781921575
88.92296965184848
80.79293716904147
82.98194233032562
88.9229696518659
100.765018289626
114.8027776726991
103.4556659416308
97.96563838544546
89.9595244952374
112.2413849398936
109.3127801768682
108.8640347403051
103.6156844212336
112.4634662882641
110.9528734147032
110.6096138687039
108.3403217086758
112.8330456985062
112.0133792199084
112.1300711127124
111.1098464510326
113.2492410474476
114.1165950227606
114.3303269874548
115.06124560619
113.5529276786365
114.6679423325966
115.0064428377918
116.3870730795808
113.4600962803228
114.7219413055183
115.0746184230898
115.8931875735991
113.6898310124988
114.9437087765796
115.4542963733792
114.2426429083652
94.22334192288601
85.29958164879433
83.61453535139015
82.67559403097052
86.05534025142596
81.93757292720801
82.62003553415411
82.37950142296846
78.89981390228719
81.44175729305523
83.0390294324397
82.82852221449501
68.87462156822026
78.54139019048297
81.60067393402805
81.9022524962602
81.48621513999858
80.48818846569397
80.07199271402804
80.0032585854252
81.42258879474795
80.53598788728129
80.09271433784625
80.00474895950211
81.74624261327234
80.67349944546707
80.11907337569248
80.00621941479523
81.19646804783834
80.36949352681772
80.04812089664243
80.00180189384956
80.00003173930509
79.99999694618782
80.2468806450301
102.0342151616204
80.00004756477321
79.99999684150475
80.65281057003624
110.2717318496736
80.00006255694873
79.99999662479416
81.17385961776102
113.6270818500806
80.00001472084328
79.99999777225896
82.12408111059965
114.3484182724311
159.9582487615718
162.2233609327532
166.5129635663867
172.4392357046302
172.6897762763604
168.69180231946
169.749515644699
175.1062619088209
171.3285734116484
165.9002335895385
169.4845764561499
174.374155624552
179.2937345951914
169.2232081234344
169.1247303326037
173.984571295143
175.6419261149407
177.4624121089279
177.5765021419593
178.0321358947249
178.3536808554001
180.2595938755669
180.4047907967013
180.5583844535619
178.2407054585008
180.501279385981
180.7857488718787
180.8161526910209
178.1603182203885
180.7871076446533
181.1826039401879
181.2402091444946
177.6007131832334
173.1681273378333
158.2285984795705
127.2380552636499
179.7214974096385
175.2203700346907
161.3290750778683
138.9386970494723
180.2806392311647
175.8992255876109
162.546023269807
149.1628003359885
180.569863278073
177.1586680030736
165.7713187201137
169.2190451303267
85.68394895553988
36.71599995001308
19.45411984306779
15.95305276612597
73.90857219021441
22.50590168517648
16.36607160326676
15.47371305596458
46.17608056113961
16.22127208851737
15.35187521654619
15.63390667851635
27.18785943896287
12.55705408365807
15.80748959539782
15.51117159256202
16.35913993591193
16.70798633065812
17.16233862013034
14.4436874778452
15.34873085879223
15.53982050013991
14.99313742424336
12.01006438677314
15.30368601836774
15.4508638437448
14.75960490833743
13.01395278144362
15.0722970272278
14.95699664833212
13.94513001397854
13.7120061323474
31.14250653302945
45.72688643044664
52.80672913560857
57.24262616376429
27.32424879380743
40.36505170415951
47.23875296599351
54.02988072057651
25.8257951120778
40.17964276874491
47.3335215765881
56.18892979632495
20.83600651787341
34.55462841491062
44.32030624310389
55.83245789973162
46.65972362288674
34.65410803414732
41.43594288779577
40.99345690290731
37.69944667215917
16.06904944684747
16.54716216788267
23.86849392925564
30.11802647151698
12.57400585305124
10.58011890179955
10.79994612673536
20.02979215807671
6.286004187049191
8.820131404305011
11.86365390032368
15.84240696793967
23.08907626438618
32.15917841286441
40.23067268598463
13.67512789691079
20.95495296451623
34.84013247523039
45.7855321692337
26.19146736337983
28.1375027848184
38.56369759039663
49.48914440776118
36.97192791046667
35.15449472184689
37.51129490340354
42.10369693674674
40.23067268598636
45.78553216923324
49.4891444077584
42.10369693674723
32.15917841286561
34.84013247523202
38.56369759039156
37.51129490339978
23.08907626438697
20.95495296452258
28.1375027848235
35.15449472184232
15.84240696794405
13.67512789691549
26.19146736337929
36.97192791045628
40.9934569029094
41.43594288783519
34.65410803417663
46.65972362288313
23.86849392926623
16.5471621678956
16.06904944684629
37.69944667215047
10.79994612674401
10.58011890180551
12.57400585305681
30.1180264715115
11.86365390033288
8.820131404314312
6.286004187055636
20.02979215807441
55.8324578997232
44.3203062430987
34.55462841491916
20.83600651790045
56.18892979631567
47.33352157658048
40.17964276874766
25.82579511211065
54.02988072056719
47.23875296599046
40.36505170416395
27.32424879383597
57.24262616375787
52.80672913560485
45.72688643043861
31.14250653306878
14.44368747785766
17.16233862011028
16.70798633057944
16.35913993588549
12.0100643867819
14.99313742423845
15.53982050012314
15.34873085879668
13.01395278145156
14.75960490833377
15.45086384374406
15.30368601838047
13.71200613236068
13.94513001397639
14.95699664832919
15.07229702724311
15.95305276615033
19.4541198430089
36.71599994991249
85.68394895550595
15.4737130559943
16.36607160329797
22.50590168519392
73.90857219013401
15.63390667855498
15.35187521657867
16.22127208853016
46.17608056111673
15.51117159261675
15.80748959543764
12.55705408367345
27.18785943896081
127.2380552635922
158.2285984795369
173.168127337857
177.6007131831545
138.9386970494395
161.3290750778568
175.220370034636
179.721497409545
149.1628003359583
162.5460232697806
175.8992255875385
180.2806392311373
169.219045130303
165.7713187200739
177.1586680029924
180.5698632780365
178.0321358947446
177.5765021420133
177.4624121088031
175.641926114871
180.5583844535643
180.4047907967477
180.25959387546
178.3536808553044
180.8161526910419
180.785748871911
180.5012793858761
178.2407054584346
181.2402091445045
181.1826039402074
180.787107644527
178.1603182203384
172.4392357047775
166.5129635660868
162.2233609329161
159.9582487615417
175.1062619089295
169.7495156443675
168.6918023196555
172.6897762763027
174.3741556246964
169.4845764558396
165.9002335897068
171.3285734115832
173.9845712952524
169.1247303323289
169.2232081235937
179.2937345950606
102.034215161554
80.24688064500113
79.99999694625002
80.00003173941471
110.2717318495247
80.65281056992494
79.99999684144103
80.00004756498183
113.6270818498582
81.17385961755153
79.99999662457975
80.00006255733392
114.3484182721235
82.1240811102267
79.99999777199464
80.00001472141125
80.00325858532136
80.07199271411184
80.48818846560935
81.48621514000445
80.00474895932619
80.09271433795817
80.53598788713828
81.42258879475517
80.00621941451691
80.11907337584381
80.67349944529354
81.74624261328829
80.00180189340644
80.0481208969079
80.36949352657813
81.19646804785613
82.67559403086261
83.61453535133117
85.29958164880431
94.22334192297491
82.37950142286024
82.62003553410001
81.93757292723396
86.05534025148671
82.82852221439899
83.03902943239748
81.44175729308735
78.89981390230993
81.90225249615912
81.60067393397115
78.54139019054021
68.87462156825498
115.061245606166
114.3303269873857
114.1165950227994
113.2492410474239
116.3870730795232
115.0064428377806
114.6679423326724
113.5529276786221
115.8931875735104
115.0746184230892
114.7219413056037
113.4600962803141
114.2426429082805
115.4542963733953
114.943708776672
113.6898310124812
111.1098464509917
108.3403217086725
103.6156844212444
89.95952449524619
112.1300711126845
110.6096138687207
108.8640347402861
97.96563838542816
112.0133792198789
110.9528734146931
109.3127801768456
103.4556659415617
112.8330456985237
112.4634662882447
112.2413849398521
114.8027776726429
78.65030553467713
79.98119488755108
79.99990047619799
79.99999972669711
77.75438641297698
79.96765657928118
79.99980430317869
79.99999937350282
77.41274561918908
79.94689355822078
79.99962791227463
79.99999873474215
76.37774487930956
79.91280868240615
79.99935072336
79.9999977914363
79.99999735443998
79.99924102099662
79.89967417855351
75.76206431765581
79.99999736124913
79.99924589096392
79.90130414304281
75.85019365183629
79.99999737515436
79.99925147699683
79.90237654231682
75.96091003515976
79.99999745321557
79.99927316989272
79.90664086167708
76.4080322505105
79.99999779135059
79.99999873478053
79.99999937354117
79.99999972662206
79.99935072328724
79.99962791225897
79.99980430319278
79.99990047623652
79.91280868239843
79.94689355819762
79.96765657933783
79.98119488752732
76.37774487926724
77.41274561914328
77.75438641300457
78.65030553470558
)
;

boundaryField
{
    back
    {
        type            empty;
    }
    inlet
    {
        type            zeroGradient;
    }
    front
    {
        type            empty;
    }
    top
    {
        type            zeroGradient;
    }
    outlet
    {
        type            fixedValue;
        value           uniform 80;
    }
    bottom
    {
        type            zeroGradient;
    }
    wall
    {
        type            zeroGradient;
    }
}


// ************************************************************************* //
