/*--------------------------------*- C++ -*----------------------------------*\
  =========                 |
  \\      /  F ield         | OpenFOAM: The Open Source CFD Toolbox
   \\    /   O peration     | Website:  https://openfoam.org
    \\  /    A nd           | Version:  11
     \\/     M anipulation  |
\*---------------------------------------------------------------------------*/
FoamFile
{
    format      ascii;
    class       volScalarField;
    location    "0.3592";
    object      p;
}
// * * * * * * * * * * * * * * * * * * * * * * * * * * * * * * * * * * * * * //

dimensions      [0 2 -2 0 0 0 0];

internalField   nonuniform List<scalar> 
880
(
80.0000000000004
80.00000016367676
80.01344940149474
81.87996924649471
80.00000000017725
80.00000048082988
80.01668368921396
82.76341144537491
80.00000000090169
80.00000187606261
80.03088429924111
83.82200422505092
80.0000000120275
80.00000823925119
80.06379076695579
85.40685623299071
79.99999994467788
80.00000002766488
80.00000611182152
80.00009434777664
80.00003797294225
80.00014594264449
80.00091081214738
80.00134606103083
80.14456100068234
80.23452061966907
80.38540936232877
80.53764250365735
88.34358162009221
91.39473065805211
93.99967748921456
95.2339279676502
80.00023345348059
80.00190218672539
80.00718641331567
80.0222735631871
80.01262105347055
80.05405919053861
80.10844385253714
80.22868526786363
81.27029557239713
81.90738972104164
82.71442615426736
83.76459300943942
96.38406694583389
97.94996591439833
98.2726731495333
97.50800558023845
90.98636794975204
87.50950012394686
85.83771517595356
84.74290259797661
85.69113610547893
86.37075684818817
86.77331568611078
86.80799442834802
80.63863960121589
81.12325886223631
81.63863682939133
82.02281592077625
80.07906246868075
80.19123313942994
80.36106722130242
80.59951468309409
80.87753835011182
81.15679253247659
81.43323567076807
81.639558585085
82.31238596332129
82.48031776294404
82.56714481939829
82.57291506975167
86.44856512568575
85.94934799634852
85.2944446199067
84.61625535398221
83.58722237965341
82.89901919146089
82.50721203944673
82.07970422825751
82.08365782477902
84.14375457060071
82.5201040534685
81.76573864162553
87.73827067880866
83.86371861370598
82.36927906637457
81.74596507853703
120.5410010697761
85.26115250097675
82.18716060632579
81.49386627159959
158.3378003923997
93.05403931406009
82.6695908435601
81.40132599250835
81.37187324707845
83.39216068026846
102.7663456764968
175.0731103790279
80.87189553355658
84.74977349800551
113.7266768413706
174.2774558986691
81.08423523844883
87.89803043346068
128.3627512346249
176.1381115055958
81.89002474790831
93.57937095218998
142.261802547334
173.4156484876023
167.7112522978356
149.9458793886578
102.2307808999096
83.66542768745032
160.7427330123765
151.1907278865506
111.8196566928776
86.83629250217869
153.347432085173
148.9222752895745
120.1171739934445
91.93658444387712
145.6365294521119
138.9105512386637
121.452935519945
98.30398940652917
103.9408116843442
117.3623857500765
126.5691311233592
136.6076088583544
103.1306018913594
109.2127798266342
113.4290839513846
123.6641889942423
100.8309516167883
101.4829030414664
100.6828806001626
107.3269103489578
97.8418445447203
95.22316160224226
89.17664071900924
88.30792448234102
95.46459323242071
89.3270198901412
78.72561374285536
66.3963983658422
91.68286800401411
83.96050685869976
69.93435428482059
43.06450920991814
88.80304024512945
81.54221508188292
63.24429507278159
26.39367684086501
86.35461769214987
80.46185139853792
58.99746713870807
14.84620502676828
15.61418958107226
60.57501414969264
79.58686690396745
84.17119235172541
24.76989403546821
61.36916020926058
78.99458795571955
82.70391702797043
27.34230146628186
61.04901668554595
78.13668979620192
81.71273801258596
25.84142274126269
60.44253739837688
77.53057597313588
81.1744174441727
31.27045590886545
63.06959017499329
77.20276358096132
80.23926240111095
36.95980911348321
65.61092943461426
77.11704445415712
79.68635173822838
43.59694273510766
68.85119753284891
77.31510780700414
79.66601863749037
51.42063589216667
71.09914824999701
77.69993139798768
79.73932394918735
53.27772570090678
58.94195467991614
73.29190496769249
79.26151331025046
51.93156248763555
60.14677408651104
73.51679281261393
79.25326947652201
49.49128933676192
61.86416765803275
74.01687238943327
79.25511619605142
47.17214444092647
63.82270235808818
74.73361256024769
79.31353710139666
51.42063589216665
71.09914824990882
77.69993139802123
79.73932394886654
43.5969427351303
68.85119753255142
77.31510780690724
79.66601863706558
36.95980911348916
65.61092943437544
77.11704445375621
79.6863517377036
31.27045590892138
63.06959017477352
77.20276358085758
80.2392624007817
84.17119235191821
79.58686690401929
60.57501414970483
15.61418958080217
82.70391702794922
78.99458795569055
61.3691602092394
24.7698940352161
81.71273801260381
78.136689796244
61.04901668511089
27.34230146619855
81.17441744413016
77.53057597335301
60.44253739824383
25.84142274127436
14.84620502676774
58.99746713858647
80.46185139846557
86.35461769223689
26.39367684076174
63.24429507280686
81.54221508200825
88.80304024517736
43.06450920986124
69.93435428500591
83.96050685873966
91.68286800423942
66.39639836590692
78.72561374270042
89.32701988987482
95.46459323259437
103.9408116845438
117.362385750726
126.5691311238361
136.6076088583292
103.1306018912515
109.2127798265299
113.4290839515748
123.6641889943634
100.8309516162976
101.4829030413497
100.6828806001347
107.3269103490177
97.84184454462026
95.2231616020814
89.17664071892695
88.30792448246915
145.6365294521279
138.9105512388644
121.452935520329
98.30398940737075
153.3474320851624
148.9222752897323
120.1171739935783
91.93658444396951
160.7427330124243
151.1907278865595
111.8196566927571
86.83629250238161
167.7112522976284
149.9458793889514
102.2307809002682
83.66542768751493
81.37187324704637
83.39216068027332
102.7663456763784
175.0731103787904
80.87189553405661
84.74977349822616
113.7266768413688
174.2774558983454
81.08423523919916
87.89803043411885
128.3627512347522
176.1381115054687
81.89002474804123
93.57937095205907
142.2618025474802
173.4156484874191
81.4013259924902
81.49386627153574
81.74596507886889
81.76573864168746
82.66959084312261
82.18716060612036
82.3692790663676
82.52010405339674
93.05403931359407
85.26115250099005
83.86371861338812
84.14375457046793
158.3378003919627
120.5410010693987
87.7382706788563
82.08365782478573
81.63955858531918
82.57291506986616
84.6162553541912
82.07970422846653
81.43323567053544
82.56714481960134
85.29444462013528
82.50721203954821
81.15679253245665
82.48031776296398
85.94934799626706
82.89901919107615
80.87753834983806
82.31238596312723
86.44856512599618
83.58722237973217
80.07906246853301
80.63863960092752
85.69113610578225
90.98636795000914
80.19123313912384
81.12325886186858
86.370756848507
87.50950012393768
80.36106722154696
81.63863682908665
86.77331568614484
85.8377151754885
80.59951468286026
82.02281592062198
86.80799442871228
84.74290259767196
97.50800558016356
83.7645930095227
80.22868526768967
80.02227356354391
98.27267314948887
82.71442615436516
80.10844385237172
80.00718641327462
97.94996591452305
81.90738972096054
80.05405918983345
80.00190218644225
96.38406694579938
81.27029557218744
80.01262105322523
80.00023345387832
95.23392796749003
80.53764250373868
80.00134606110733
80.00009434821327
93.99967748876909
80.38540936230231
80.00091081188305
80.00000611210099
91.39473065761707
80.23452061960604
80.00014594241597
80.00000002754099
88.34358161971669
80.14456100059445
80.00003797289989
79.9999999453709
80.00000000002807
80.00000016377054
80.01344940151095
81.87996924637572
80.00000000026192
80.0000004805714
80.01668368917476
82.76341144542755
80.00000000110963
80.00000187589565
80.03088429929805
83.82200422533447
80.0000000123395
80.0000082391437
80.06379076697881
85.40685623309301
83.52332602812747
85.09443520565077
87.64259982897759
92.78545850474161
85.09443520594151
87.14957587599726
90.99589352507202
98.68945368899671
87.64259982910474
90.99589352510755
97.31041610379253
106.8191664469375
92.78545850481247
98.68945368885002
106.8191664472042
117.1804570335881
127.9911456792058
119.0237385974247
115.0997675632508
106.8639642336647
126.2783245524816
123.6442350639358
123.6026519945321
119.5285968822844
126.3188076997934
125.4932673800636
125.0495461174764
123.6388637587084
123.7364428270251
123.3293365648161
123.2425140502424
122.3918531690922
119.675866556686
117.8555329044753
114.2515068947348
109.3402618530458
119.9420065311955
118.0393314064051
114.3865194322794
109.8051945146447
120.2777033401517
118.2211198083763
114.3687458220166
110.2399866526891
120.4525040662735
118.1127878006383
114.5204404876979
108.5600794100776
82.83075971825045
71.90546371634271
70.60565329856601
70.98622327421648
75.82107375427263
69.03083007711645
69.65784893443997
70.38252352542098
69.9974653786155
68.89621809379408
70.23022109397584
70.93068725431482
60.7366547611858
66.59838101322512
69.23863611418257
70.1992508149506
70.93117786763169
71.29365373242341
72.1088831279002
73.05227919723481
70.47389673441076
70.85229413607782
71.73674010963468
72.93017858387029
70.90567479521829
71.13560468885085
71.87376293794365
72.80809276635189
70.29809032507193
70.61944969633585
71.55486087819899
72.84784182245026
78.66939058411711
114.0207423525952
165.0557724952259
181.4268502189251
81.35698109804892
121.5089054818279
162.5289061198995
173.2911593418889
83.48716461659548
125.2842654694781
161.3030697333391
171.991583852296
84.85524071728264
130.7004793119812
161.6505005092689
171.9667127687385
218.1654712649179
209.3444579052426
201.8014671325264
190.546817733694
219.333077695693
212.1234169107857
203.9552608651463
192.3868108332711
218.328789942207
213.6540770214556
205.0541708612639
193.506060818904
213.211163433795
215.5789004766666
206.975500070332
195.2427771456572
178.1599424428643
167.9050831237217
158.2789304301632
153.3864093200308
180.1604575076923
169.2960649724806
158.9706540650741
153.7596592278212
181.308421049253
169.5051458898203
159.519643501637
153.7254304630329
183.7142667294777
170.9249164857207
161.1793684853437
154.8242401609239
148.5682162635354
140.6571857442893
126.7744178263141
105.8851661825865
149.2614864147727
142.1804637686707
128.8941497799843
114.3603704204366
149.2057143349397
142.6078528471871
130.6890113476072
119.6678644305088
150.3679806894625
144.9525371681743
134.0423896150201
134.5833922578807
64.62347571507237
16.54961238647864
2.690874730532707
1.283346253540671
49.95219109991906
10.39487980386402
2.24242468431444
1.464578641554004
34.73889635034285
6.572357048435563
1.963802446150027
1.621165494066613
19.55119237393635
3.061404918136854
1.726572611637843
1.813720953716497
1.929076973236749
4.155539043409221
6.787106086309205
10.67280912005525
2.736903975360769
5.089420400900893
7.801932327812391
11.94575197656368
3.200386950366298
5.474277362655555
8.646786390570474
12.64742897664617
3.754663988842192
6.200463722817325
10.09335508534128
13.79323119054815
12.51762634195595
18.94143277401367
26.0337641186411
34.74224104050405
12.13031096562596
17.87870301292301
24.72074632917992
33.23208357883099
12.44102358144783
16.35223151787719
22.87647424623257
32.24066266623498
11.69624259290059
14.4622709845379
19.06187697755831
30.28523703831437
35.03639014723168
33.20974140890574
32.5488521596619
33.17638114016787
31.86617154567523
31.78675060485329
32.24767949860856
32.35322949791053
31.01236071789731
32.6576785869679
32.98738519938755
33.02275101530235
29.23479268756437
31.45644911068697
31.77630944499065
32.50321738902417
32.92189411984414
33.23392330172228
33.49466342916341
33.62164310490197
32.97912978603339
32.93734957693272
32.84640470347578
32.95311768067323
32.92820121158149
33.39805338370301
33.83717629191293
34.09625035890715
34.7498848290729
35.80119217908297
36.54037277138846
36.54348011274386
33.62164310490387
32.95311768066365
34.09625035892236
36.54348011274799
33.49466342918058
32.84640470347698
33.83717629192502
36.54037277140011
33.23392330170847
32.93734957694017
33.39805338372861
35.8011921791166
32.92189411988056
32.97912978602963
32.92820121160006
34.74988482911789
33.17638114024435
32.54885215968359
33.20974140896342
35.03639014726153
32.3532294979394
32.24767949865667
31.78675060491659
31.866171545714
33.02275101533103
32.98738519944057
32.65767858701967
31.01236071795454
32.50321738903826
31.77630944501945
31.45644911072281
29.23479268761502
30.2852370384062
19.06187697767414
14.46227098463904
11.69624259298636
32.24066266631263
22.87647424632714
16.35223151798397
12.44102358155017
33.23208357890898
24.72074632928968
17.87870301303651
12.13031096572621
34.74224104056658
26.03376411875156
18.9414327741109
12.51762634208833
10.67280912011207
6.787106086337253
4.155539043371152
1.929076973263785
11.945751976621
7.801932327854733
5.08942040088858
2.736903975362161
12.64742897670999
8.64678639062584
5.474277362655947
3.200386950361442
13.79323119060973
10.09335508539934
6.200463722833229
3.754663988836007
1.283346253576796
2.690874730494893
16.54961238637431
64.62347571514758
1.464578641568255
2.242424684302891
10.39487980382243
49.95219109984283
1.621165494065869
1.96380244613951
6.572357048423347
34.73889635033991
1.813720953712941
1.726572611627087
3.061404918137014
19.55119237391934
105.8851661826168
126.7744178262251
140.6571857441343
148.568216263442
114.3603704203871
128.8941497799166
142.1804637685651
149.2614864146489
119.6678644303912
130.6890113474508
142.6078528470902
149.2057143348828
134.5833922578611
134.0423896148947
144.9525371681427
150.3679806893636
153.3864093199778
158.2789304299003
167.9050831233884
178.1599424423528
153.759659227737
158.9706540649337
169.2960649716811
180.1604575070729
153.7254304631093
159.5196435013407
169.5051458890604
181.3084210486891
154.8242401608756
161.1793684851518
170.9249164853348
183.7142667290579
190.5468177333056
201.8014671321207
209.3444579049767
218.1654712649441
192.3868108329799
203.9552608649773
212.1234169104191
219.3330776957046
193.5060608187248
205.0541708610166
213.6540770211411
218.3287899421981
195.2427771455425
206.9755000702002
215.5789004762603
213.2111634339135
181.4268502189264
165.0557724949669
114.0207423526575
78.66939058440022
173.2911593418018
162.5289061197253
121.508905481867
81.35698109834802
171.9915838522065
161.3030697331934
125.2842654694669
83.48716461690887
171.9667127685191
161.6505005091257
130.7004793119668
84.85524071760614
73.05227919745639
72.10888312768671
71.29365373190836
70.93117786732719
72.93017858412632
71.73674010948622
70.85229413555206
70.47389673419016
72.80809276663102
71.8737629377264
71.13560468834454
70.90567479499525
72.84784182272416
71.55486087797074
70.61944969581113
70.2980903247863
70.98622327377318
70.60565329822242
71.90546371647088
82.8307597183875
70.38252352499356
69.65784893402358
69.03083007733578
75.82107375435895
70.93068725388713
70.23022109354427
68.89621809404947
69.9974653786652
70.19925081451639
69.23863611366818
66.59838101346593
60.73665476126476
109.3402618530704
114.2515068947507
117.8555329047706
119.6758665565656
109.805194514594
114.3865194324702
118.0393314066669
119.9420065310398
110.2399866526703
114.3687458220556
118.2211198084761
120.2777033399838
108.5600794100083
114.5204404878592
118.112787800893
120.4525040661139
122.3918531684754
123.6388637578414
119.5285968813422
106.8639642336226
123.2425140494549
125.0495461164371
123.6026519931392
115.0997675628425
123.3293365641854
125.4932673789882
123.6442350623668
119.0237385963636
123.7364428262926
126.3188076988323
126.278324550576
127.9911456770398
54.09556638656974
71.27250991780043
77.56465702263455
79.75960731968465
50.82367171842802
69.89567680255887
76.93654821936123
79.66624281812416
48.22645465142531
68.24000915783337
76.32271554451209
79.55015279797948
46.4006780423887
65.93550558945847
75.50561084680967
79.42129837957786
79.26151331016128
73.29190496767679
58.94195467993296
53.27772570094568
79.25326947639131
73.51679281263291
60.1467740865519
51.93156248766612
79.25511619603192
74.01687238951605
61.86416765802355
49.491289336812
79.31353710138168
74.73361256021471
63.82270235807396
47.17214444096498
79.42129837945514
79.55015279784561
79.66624281808687
79.75960731944477
75.50561084658385
76.32271554439814
76.9365482191312
77.56465702258429
65.93550558946741
68.24000915785851
69.89567680269406
71.2725099179404
46.40067804236525
48.22645465137187
50.82367171842334
54.09556638658881
)
;

boundaryField
{
    back
    {
        type            empty;
    }
    inlet
    {
        type            zeroGradient;
    }
    front
    {
        type            empty;
    }
    top
    {
        type            zeroGradient;
    }
    outlet
    {
        type            fixedValue;
        value           uniform 80;
    }
    bottom
    {
        type            zeroGradient;
    }
    wall
    {
        type            zeroGradient;
    }
}


// ************************************************************************* //
