/*--------------------------------*- C++ -*----------------------------------*\
  =========                 |
  \\      /  F ield         | OpenFOAM: The Open Source CFD Toolbox
   \\    /   O peration     | Website:  https://openfoam.org
    \\  /    A nd           | Version:  11
     \\/     M anipulation  |
\*---------------------------------------------------------------------------*/
FoamFile
{
    format      ascii;
    class       volScalarField;
    location    "0.3592";
    object      rho;
}
// * * * * * * * * * * * * * * * * * * * * * * * * * * * * * * * * * * * * * //

dimensions      [0 0 0 0 0 0 0];

internalField   nonuniform List<scalar> 
880
(
0.2239950333699092
0.2239950336973947
0.2240219165389087
0.2277374869590722
0.2239950333702082
0.2239950343326062
0.2240283712803168
0.2294897156790895
0.2239950333717012
0.2239950371286729
0.2240567169626398
0.2315863759572138
0.2239950333941023
0.2239950498947286
0.2241222175372145
0.2347086118078366
0.2239950332595152
0.2239950334137008
0.2239950459319285
0.2239952242111786
0.223995109625007
0.2239953269256627
0.2239968604889221
0.2239977468107011
0.2242816910200603
0.2244565778141798
0.224751183114613
0.2250680445240021
0.240190948726265
0.2455326741086728
0.250006633515125
0.2520181927257476
0.2239955038041802
0.2239988434664289
0.2240094116264802
0.2240395802668724
0.2240201626435256
0.2241022320088011
0.224208786093397
0.2244459560068308
0.2264579003597916
0.2276519575173017
0.2291727207461976
0.2311927404841007
0.2539920273384457
0.2568415660652949
0.2574493434407357
0.2560344838230348
0.2436274117950114
0.2366719760118754
0.2331390061593313
0.2308256816596144
0.2347437143503763
0.2358593999814091
0.2365370631755271
0.2365718364980507
0.2252529657064396
0.2262082011485449
0.227216353768538
0.2279420408317935
0.2241531476252727
0.224377673329332
0.2247178709467348
0.2251945770569427
0.2257490822660742
0.2263064160267737
0.2268578832543293
0.2272737135497239
0.2284627986568954
0.2287673894320465
0.2289168294851708
0.2289554461627184
0.2358859652245894
0.2349351702957644
0.2336844619910241
0.2323891601905092
0.2284547646483644
0.2271010164676535
0.2263606996432643
0.2255269803598789
0.225792193489863
0.2314868456186407
0.2288727984752318
0.2275309560525851
0.2365815804840337
0.2310972165285301
0.228623613426275
0.227493724217024
0.2953882330485769
0.2338472276689866
0.2283250091076675
0.2269963974664016
0.3573389407855118
0.2486647859452695
0.2292781152054893
0.2268100475489057
0.2267502303947873
0.2306943321864309
0.2665888600781783
0.3845237574340878
0.2257525117882154
0.2332876155559458
0.2862058197343804
0.3841132530143407
0.2261757518691714
0.2392028306132305
0.3116628637103909
0.3875992109805542
0.2277735569179943
0.2496077133638925
0.3348743686967862
0.3832665914627101
0.3736789318771052
0.3470892972117877
0.2651346749529742
0.2312598574079061
0.3618979122859693
0.3484417012558658
0.2820701874514611
0.2373650269932521
0.3493574665584561
0.3444432506275282
0.2965880045065057
0.2469708090075914
0.3360882596435585
0.3272472158588761
0.2987816999325139
0.2586524306226232
0.2688335442747219
0.2915267413647385
0.3056302628115192
0.3202626855955646
0.2674583395847726
0.276956289597399
0.2821402586894836
0.2973601597753465
0.2634444921018075
0.2629427276639642
0.2588602430273616
0.2680343038717508
0.2581380859060642
0.2516063258699356
0.2376566132117854
0.233081569100711
0.2537229569689645
0.2402830401563978
0.2167426663868748
0.1875811653920667
0.2465551578454067
0.2298992584530114
0.199006726231504
0.1311091090810219
0.2410459144266709
0.2255985129606334
0.1852520784430816
0.08691874393491947
0.2363123326348824
0.2232420489981346
0.1729016338403619
0.05198219115350312
0.05323833603419012
0.1741898787630579
0.2213945792532791
0.2320696498771365
0.07255050905008106
0.1742533145728682
0.220121522518709
0.2291970708644124
0.07400001203104299
0.172401596803763
0.2183960420041522
0.2272644041979942
0.06823460080801577
0.1690951593400688
0.2169819220928443
0.2262477120051276
0.08121957655784959
0.1750743828258529
0.2166110254629342
0.224488979962502
0.09693458723165359
0.1821408216597986
0.2169367838834505
0.2234646329317136
0.1160834786352008
0.1914457948895166
0.2176634300302048
0.2234197944788273
0.1390545176806648
0.1994276737991502
0.218832962085045
0.2235314478833817
0.1554675975554954
0.1757907522326975
0.2098546339753743
0.2225140353156219
0.1533030466900052
0.1786641604674408
0.2102883107158389
0.2224909825127813
0.1489340819878691
0.1829408506396915
0.2113295860918658
0.2224898918183336
0.1437238561832052
0.1876101782468055
0.2129194469982877
0.2226140824260117
0.1390545176806458
0.199427673799026
0.2188329620849673
0.2235314478825977
0.116083478635233
0.1914457948889286
0.217663430029925
0.2234197944779539
0.09693458723166005
0.1821408216593972
0.2169367838828245
0.2234646329306702
0.08121957655798269
0.1750743828254948
0.2166110254627225
0.2244889799618439
0.2320696498775579
0.2213945792533148
0.1741898787629736
0.0532383360333888
0.2291970708643919
0.2201215225186057
0.1742533145725851
0.07255050904947424
0.2272644041980662
0.2183960420042401
0.1724015968028301
0.07400001203084554
0.2262477120050889
0.216981922093285
0.1690951593399103
0.06823460080800181
0.05198219115332744
0.1729016338400692
0.2232420489979312
0.2363123326350587
0.08691874393457116
0.185252078443143
0.2255985129607999
0.2410459144268065
0.1311091090807862
0.1990067262318637
0.2298992584531177
0.2465551578459433
0.1875811653921167
0.216742666386553
0.2402830401558976
0.2537229569693741
0.2688335442752382
0.2915267413660468
0.3056302628123222
0.3202626855952598
0.2674583395847137
0.2769562895972928
0.2821402586898601
0.2973601597753547
0.2634444921009111
0.2629427276637993
0.2588602430273215
0.2680343038717363
0.2581380859059136
0.2516063258696975
0.2376566132116529
0.2330815691008797
0.3360882596434078
0.3272472158591429
0.2987816999333052
0.2586524306243773
0.3493574665581812
0.3444432506276829
0.2965880045067777
0.2469708090078793
0.3618979122857822
0.3484417012557177
0.282070187451315
0.2373650269938135
0.3736789318763731
0.3470892972122574
0.2651346749536858
0.2312598574081207
0.2267502303947398
0.2306943321864644
0.2665888600779378
0.3845237574335824
0.2257525117892735
0.233287615556356
0.2862058197343212
0.3841132530135615
0.2261757518707876
0.239202830614555
0.3116628637105103
0.3875992109803631
0.2277735569183487
0.2496077133636427
0.3348743686968274
0.383266591462171
0.2268100475489371
0.2269963974662885
0.2274937242177059
0.2275309560526899
0.2292781152046131
0.2283250091072273
0.2286236134262962
0.2288727984750971
0.2486647859443714
0.2338472276690333
0.2310972165278928
0.231486845618348
0.3573389407846754
0.2953882330478594
0.2365815804841359
0.2257921934899381
0.2272737135501608
0.2289554461628924
0.2323891601908958
0.225526980360237
0.2268578832537571
0.2289168294855318
0.2336844619914561
0.2263606996434248
0.2263064160267091
0.2287673894320103
0.2349351702955721
0.2271010164668681
0.2257490822655051
0.2284627986564171
0.2358859652252584
0.2284547646484976
0.224153147625063
0.2252529657057832
0.2347437143509337
0.2436274117955046
0.2243776733287677
0.2262082011477158
0.2358593999819838
0.2366719760117842
0.2247178709472828
0.2272163537677968
0.2365370631754334
0.2331390061584076
0.2251945770564763
0.2279420408314032
0.2365718364987839
0.2308256816589861
0.2560344838228194
0.2311927404842671
0.2244459560064071
0.2240395802676783
0.2574493434405653
0.2291727207463881
0.2242087860930478
0.2240094116264348
0.2568415660654273
0.2276519575170982
0.2241022320073681
0.2239988434659099
0.2539920273383
0.2264579003593086
0.2240201626430093
0.2239955038049963
0.2520181927254305
0.2250680445241086
0.2239977468108024
0.2239952242120601
0.2500066335141754
0.2247511831145276
0.223996860488339
0.2239950459324742
0.2455326741078009
0.2244565778140318
0.2239953269252032
0.2239950334135
0.2401909487254946
0.2242816910198553
0.2239951096250228
0.2239950332612175
0.2239950333699093
0.2239950336975936
0.2240219165389802
0.2277374869588421
0.2239950333704065
0.2239950343320149
0.2240283712802266
0.2294897156792064
0.2239950333721685
0.2239950371282914
0.2240567169627555
0.2315863759577698
0.2239950333946451
0.2239950498945071
0.2241222175372528
0.2347086118080119
0.2309847119718952
0.2340801567316119
0.2390600252490448
0.2488952630357159
0.2340801567321852
0.2381152930212333
0.2455722308744832
0.2600310308795574
0.2390600252492667
0.2455722308745348
0.2575859186297023
0.2748585987356167
0.2488952630358714
0.2600310308792452
0.2748585987360407
0.2928100418801938
0.3104143970581931
0.2953199133370872
0.2891099966996547
0.2745333381986118
0.3072106728744449
0.3028605804023917
0.3034033328433441
0.2963663041069498
0.3073430250692512
0.3059035761242507
0.3051197715811566
0.3025765087842904
0.3028558867701712
0.3020892011238479
0.3018032174800122
0.3000898415581965
0.2950223475777349
0.29173941709017
0.2853875497146774
0.2766611723855972
0.2958558169493466
0.2924013463199515
0.2858378540914355
0.2774975673072291
0.2966752808082823
0.2929349245995164
0.285924582131739
0.2782979831655352
0.2970737914414479
0.2927995086745452
0.2861998235734742
0.2758408455676427
0.2263164797362875
0.2042679118895081
0.2017460596105429
0.2026265822194376
0.2115213008660399
0.1977474982675884
0.1990294247632285
0.2006388104206011
0.1993452920260977
0.1972935169550298
0.2000161904540615
0.2014872821837966
0.1809417356231647
0.192586222810951
0.1978594988383615
0.1999119803335616
0.2023279102640107
0.2029411068564278
0.2046284199296228
0.2066712963628736
0.2009371376208177
0.2018199334513989
0.2037664316467585
0.2063197131985364
0.2016291685759234
0.2022738390942001
0.2039881245585718
0.2060265647559637
0.2003360679515469
0.2011817220030909
0.2033062522426003
0.2060954550505419
0.2180820641566367
0.2812022252832289
0.361423839159996
0.3822095841508173
0.2229211380810999
0.2927146567974542
0.3544211929580245
0.3674441552137531
0.226331842531903
0.2975432727383496
0.3517644246803385
0.3643026060587803
0.2283572302555233
0.3061121124587741
0.3524080397662019
0.3640232090935321
0.4399036549621596
0.4300774597757199
0.4215718163473321
0.406098174682122
0.4369401738301225
0.4303792681064726
0.4218186142796214
0.4065082730163458
0.4312706954915596
0.4288450812358203
0.4202944828179697
0.4055135630147682
0.4223992688030536
0.4303504202887388
0.4216535960415203
0.4068432739828952
0.3875187900710202
0.3713237839172423
0.3555476917050444
0.346925766674673
0.3887890987046017
0.3719975015788073
0.3555423337789402
0.3465945550423316
0.3881776238218044
0.3704156264318185
0.3547531605129601
0.3453436532303869
0.3906892545079708
0.3717381492181677
0.3564683956838446
0.3464657058741853
0.3381596205279396
0.3240624666361528
0.3003141475722947
0.2623602644586718
0.3387591694363815
0.3267185013202076
0.3038967170782659
0.2701433410591692
0.3380880309801442
0.3272074983946471
0.3035329839695664
0.2700303914351213
0.3396800596938939
0.3305018403251147
0.3044628086325076
0.31195089608096
0.1731398795088427
0.05034527490155684
0.008914166908011894
0.004215410539248551
0.1365664420939001
0.03448617870810499
0.01027609447774711
0.008106538700476102
0.1037548970632133
0.02499625978456283
0.01090229692601287
0.009788752119853982
0.0743760664164031
0.01516651059172307
0.01060944830038647
0.01059764839965531
0.007184871355037902
0.01440097775556936
0.02016910312286027
0.02857255360973717
0.01250174901521407
0.01873116377286154
0.0247211582289555
0.034011576869501
0.01536096834585384
0.02183972417363243
0.02993414802854861
0.03977826313791621
0.01758339292791656
0.02470036321673592
0.03514070558382291
0.0447892656651092
0.03598009526143878
0.05196020306440322
0.07156647067327733
0.09543017242449045
0.03897028756765421
0.05281300683751972
0.07024703186867789
0.09112450576186573
0.04275741917256756
0.05288032949334261
0.06806161595950513
0.08778510679984808
0.04171964323306018
0.04959084356529834
0.05996018220071572
0.0826568662928221
0.09973249678254292
0.09879330451861826
0.09919199710842354
0.1010375558203462
0.09009423681525709
0.09156255550683251
0.09366108350977778
0.09517614234736767
0.0861046329730072
0.09010502796136746
0.09206613357592074
0.09461509816568604
0.08127217275949099
0.08658580550012195
0.08919929146593907
0.09399715560098822
0.09891833899601009
0.103246733707105
0.1060308017252145
0.1069991808554511
0.09791394473434549
0.1011890631981954
0.1034684496474497
0.1045961230427748
0.09812426850511143
0.1013568647954265
0.104658520911565
0.1063091790347013
0.1051199144133278
0.1089042250618343
0.1123074391158733
0.1130954663928404
0.1069991808554658
0.1045961230427509
0.106309179034745
0.1130954663928301
0.1060308017253099
0.1034684496474916
0.1046585209116035
0.1123074391158455
0.1032467337071282
0.1011890631982763
0.1013568647955184
0.1089042250618918
0.09891833899620145
0.09791394473437871
0.09812426850517821
0.1051199144134331
0.101037555820545
0.09919199710848062
0.09879330451872263
0.09973249678257416
0.0951761423474479
0.09366108350989923
0.09156255550696778
0.09009423681532286
0.09461509816579076
0.0920661335760769
0.09010502796150932
0.0861046329731551
0.0939971556010694
0.0891992914660362
0.08658580550022785
0.08127217275963698
0.08265686629305791
0.05996018220102214
0.04959084356557081
0.04171964323330152
0.08778510680004134
0.068061615959728
0.05288032949361572
0.04275741917284942
0.09112450576204872
0.07024703186894705
0.05281300683779445
0.03897028756789681
0.09543017242463639
0.07156647067355375
0.05196020306462892
0.03598009526176325
0.02857255360989789
0.02016910312294723
0.01440097775548999
0.007184871354972055
0.03401157686966452
0.02472115822907691
0.01873116377284993
0.01250174901521304
0.0397782631380905
0.02993414802870083
0.02183972417364456
0.01536096834584368
0.04478926566526879
0.03514070558397316
0.02470036321677727
0.01758339292789936
0.004215410539156019
0.008914166907846867
0.05034527490122619
0.1731398795088416
0.008106538700459383
0.01027609447769178
0.0344861787079648
0.136566442093668
0.009788752119847555
0.01090229692596785
0.02499625978448647
0.1037548970631174
0.01059764839962592
0.01060944830034113
0.01516651059169161
0.07437606641626633
0.262360264458582
0.300314147571882
0.3240624666355313
0.3381596205275015
0.2701433410588832
0.3038967170780384
0.3267185013198248
0.3387591694359112
0.2700303914347669
0.3035329839691954
0.3272074983944282
0.3380880309798914
0.3119508960806937
0.3044628086322523
0.3305018403251082
0.3396800596935401
0.346925766674251
0.3555476917042267
0.371323783916532
0.3875187900699995
0.3465945550418718
0.355542333778557
0.3719975015772618
0.3887890987034959
0.3453436532304138
0.3547531605122229
0.3704156264303665
0.3881776238207296
0.3464657058738955
0.3564683956833011
0.3717381492173805
0.3906892545073191
0.4060981746814609
0.4215718163466472
0.4300774597753691
0.4399036549622918
0.4065082730159459
0.4218186142793066
0.4303792681058784
0.4369401738302787
0.405513563014524
0.420294482817649
0.4288450812354884
0.4312706954916234
0.4068432739827824
0.4216535960413776
0.4303504202881359
0.422399268803427
0.3822095841508243
0.3614238391595727
0.2812022252834027
0.2180820641572219
0.3674441552136455
0.3544211929578029
0.2927146567975997
0.2229211380816752
0.3643026060587198
0.351764424680204
0.2975432727384256
0.2263318425325011
0.3640232090931573
0.3524080397660733
0.3061121124588527
0.2283572302561454
0.2066712963632279
0.2046284199290286
0.2029411068552637
0.2023279102632808
0.2063197131989899
0.2037664316464136
0.2018199334502984
0.2009371376203558
0.2060265647564847
0.203988124558115
0.2022738390931657
0.2016291685755112
0.2060954550510541
0.2033062522421053
0.2011817220020285
0.2003360679509825
0.2026265822184957
0.201746059609818
0.2042679118897178
0.2263164797364998
0.2006388104196867
0.1990294247623802
0.1977474982680067
0.2115213008661593
0.2014872821828966
0.2000161904532284
0.1972935169555788
0.1993452920261525
0.1999119803326501
0.1978594988373628
0.1925862228114973
0.1809417356233182
0.2766611723855476
0.2853875497145689
0.291739417090603
0.2950223475774973
0.2774975673070677
0.285837854091804
0.2924013463203382
0.2958558169490294
0.2782979831655032
0.2859245821317631
0.2929349245995854
0.29667528080802
0.2758408455674875
0.286199823573852
0.2927995086750552
0.297073791441176
0.3000898415571664
0.3025765087827659
0.2963663041050658
0.2745333381984414
0.3018032174786096
0.3051197715793795
0.3034033328407998
0.2891099966989077
0.3020892011228768
0.3059035761225366
0.3028605804000039
0.2953199133354677
0.3028558867688684
0.3073430250679084
0.3072106728716443
0.3104143970549022
0.1499281414534867
0.2006620227593067
0.2185688940169487
0.2235523543115553
0.1465779751208273
0.1988720438359348
0.2174206528368409
0.2233527430035437
0.143535778169107
0.1964109286933023
0.2163029871002662
0.2231154343293496
0.141174775219724
0.1921356337556861
0.2146315684072952
0.2228463791064829
0.2225140353155461
0.2098546339753364
0.1757907522327578
0.1554675975555801
0.2224909825125766
0.2102883107158255
0.1786641604675822
0.1533030466899813
0.2224898918182673
0.211329586091933
0.1829408506397465
0.1489340819879256
0.2226140824259167
0.2129194469981158
0.1876101782468328
0.1437238561832844
0.222846379106182
0.2231154343290491
0.2233527430032832
0.2235523543108153
0.2146315684067575
0.2163029871000298
0.2174206528363209
0.218568894016731
0.1921356337556727
0.1964109286932489
0.1988720438361006
0.2006620227595442
0.1411747752197077
0.143535778169024
0.1465779751208111
0.1499281414535013
)
;

boundaryField
{
    back
    {
        type            empty;
    }
    inlet
    {
        type            calculated;
        value           nonuniform List<scalar> 
16
(
0.2239950333699092
0.2239950333702082
0.2239950333717012
0.2239950333941023
0.2239950332595152
0.2239950334137008
0.2239950459319285
0.2239952242111787
0.2239952242120601
0.2239950459324742
0.2239950334135
0.2239950332612175
0.2239950333699093
0.2239950333704065
0.2239950333721685
0.2239950333946451
)
;
    }
    front
    {
        type            empty;
    }
    top
    {
        type            calculated;
        value           nonuniform List<scalar> 
40
(
0.2239955038041802
0.2239988434664289
0.2240094116264802
0.2240395802668724
0.2241531476252727
0.224377673329332
0.2247178709467348
0.2251945770569427
0.2257490822660742
0.2263064160267737
0.2268578832543293
0.2272737135497239
0.2275309560525851
0.2274937242170241
0.2269963974664016
0.2268100475489057
0.2267502303947873
0.2257525117882154
0.2261757518691714
0.2277735569179943
0.2312598574079061
0.237365026993252
0.2469708090075914
0.2586524306226232
0.2688335442747219
0.2674583395847726
0.2634444921018075
0.2581380859060642
0.2537229569689645
0.2465551578454067
0.2410459144266709
0.2363123326348824
0.2320696498771365
0.2291970708644124
0.2272644041979942
0.2262477120051276
0.224488979962502
0.2234646329317136
0.2234197944788273
0.2235314478833816
)
;
    }
    outlet
    {
        type            calculated;
        value           uniform 0.2239950333699093;
    }
    bottom
    {
        type            calculated;
        value           nonuniform List<scalar> 
40
(
0.2235314478825977
0.2234197944779539
0.2234646329306702
0.2244889799618439
0.2320696498775579
0.2291970708643919
0.2272644041980662
0.2262477120050889
0.2363123326350588
0.2410459144268065
0.2465551578459433
0.2537229569693741
0.2688335442752382
0.2674583395847137
0.2634444921009111
0.2581380859059136
0.2586524306243773
0.2469708090078793
0.2373650269938135
0.2312598574081207
0.2267502303947398
0.2257525117892735
0.2261757518707876
0.2277735569183487
0.2268100475489371
0.2269963974662885
0.2274937242177059
0.2275309560526899
0.2272737135501608
0.2268578832537571
0.2263064160267092
0.2257490822655051
0.224153147625063
0.2243776733287677
0.2247178709472828
0.2251945770564763
0.2240395802676782
0.2240094116264348
0.2239988434659099
0.2239955038049963
)
;
    }
    wall
    {
        type            calculated;
        value           nonuniform List<scalar> 
104
(
0.3104143970581931
0.3072106728744449
0.3073430250692512
0.3028558867701712
0.2970737914414479
0.2927995086745452
0.2861998235734742
0.2758408455676427
0.1809417356231647
0.192586222810951
0.1978594988383615
0.1999119803335616
0.2003360679515469
0.201181722003091
0.2033062522426003
0.2060954550505419
0.2283572302555233
0.3061121124587741
0.3524080397662019
0.3640232090935321
0.4223992688030536
0.4303504202887388
0.4216535960415203
0.4068432739828952
0.3906892545079708
0.3717381492181677
0.3564683956838446
0.3464657058741853
0.3396800596938939
0.3305018403251147
0.3044628086325076
0.31195089608096
0.0743760664164031
0.01516651059172307
0.01060944830038647
0.01059764839965531
0.01758339292791656
0.02470036321673592
0.03514070558382291
0.0447892656651092
0.04171964323306018
0.04959084356529834
0.05996018220071572
0.0826568662928221
0.08127217275949099
0.08658580550012195
0.08919929146593907
0.09399715560098822
0.09891833899601009
0.103246733707105
0.1060308017252145
0.1069991808554511
0.1069991808554658
0.1060308017253098
0.1032467337071282
0.09891833899620145
0.09399715560106942
0.0891992914660362
0.08658580550022785
0.08127217275963698
0.08265686629305791
0.05996018220102214
0.04959084356557081
0.04171964323330152
0.04478926566526879
0.03514070558397316
0.02470036321677727
0.01758339292789936
0.01059764839962592
0.01060944830034113
0.01516651059169161
0.07437606641626633
0.3119508960806938
0.3044628086322523
0.3305018403251082
0.3396800596935401
0.3464657058738955
0.3564683956833011
0.3717381492173805
0.3906892545073191
0.4068432739827824
0.4216535960413776
0.4303504202881359
0.422399268803427
0.3640232090931573
0.3524080397660733
0.3061121124588527
0.2283572302561454
0.2060954550510541
0.2033062522421053
0.2011817220020285
0.2003360679509825
0.1999119803326501
0.1978594988373628
0.1925862228114973
0.1809417356233182
0.2758408455674875
0.286199823573852
0.2927995086750552
0.297073791441176
0.3028558867688684
0.3073430250679084
0.3072106728716443
0.3104143970549022
)
;
    }
}


// ************************************************************************* //
