/*--------------------------------*- C++ -*----------------------------------*\
  =========                 |
  \\      /  F ield         | OpenFOAM: The Open Source CFD Toolbox
   \\    /   O peration     | Website:  https://openfoam.org
    \\  /    A nd           | Version:  11
     \\/     M anipulation  |
\*---------------------------------------------------------------------------*/
FoamFile
{
    format      ascii;
    class       volScalarField;
    location    "0.3592";
    object      T;
}
// * * * * * * * * * * * * * * * * * * * * * * * * * * * * * * * * * * * * * //

dimensions      [0 0 0 1 0 0 0];

internalField   nonuniform List<scalar> 
880
(
500.0000000000027
500.0000002919692
500.0240474690485
503.3401255266283
500.0000000004407
500.000000856262
500.0298519860313
504.8862716368414
500.0000000016356
500.0000033351078
500.0553219918924
506.7146263439905
500.0000000211684
500.0000146087435
500.1147276258949
509.4271857073654
499.9999999006574
500.0000000751544
500.0000101580406
500.0001636790429
500.0000671148204
500.0002568682843
500.0016140816716
500.0023559311246
500.2632942895598
500.4346023916702
500.7185113288824
500.9604972546617
514.9164554791873
521.1110348628019
526.3725555976973
529.0274543858841
500.0004089836137
500.0033837411719
500.0128192260272
500.0397646191192
500.0227856556067
500.0985348027781
500.2004456040197
500.4218875648882
502.4151989122238
503.6978567494996
505.2853963778709
507.2297244032785
531.255658841297
533.896883877029
534.3913099390742
533.1632637343057
522.8397323743002
517.638741253633
515.4441493933845
513.969815848102
511.046401832586
512.662961597014
513.5768017120586
513.706531401534
501.1769409930476
502.0597999890228
503.0076202036319
503.7657632786703
500.1410993983071
500.3404994721857
500.6410888139778
501.0636583977621
501.5570473132973
502.0493555449015
502.5348932067937
502.8863480281535
504.3919007001134
504.7480099638304
504.9495050416699
504.8996206601119
513.0670134314701
512.1686082677359
510.9863693472088
509.7489520948963
512.2218258132787
511.0327349847212
510.2808742628389
509.5134864313883
508.9395305647229
508.8783517736477
504.7589093234188
503.0941633529129
519.1902732957112
508.0398828354843
504.3854923989969
503.0548160900676
571.2944554020728
510.4313960118535
503.9284749877903
502.6021750425504
620.3298331524088
523.8890822971557
504.7793632387163
502.4439208352088
502.3946235803467
506.0654730149095
539.6688139547558
637.4038411697844
501.5144348571221
508.5870154727917
556.2913342785445
635.1851349064851
501.8902841018235
514.4358610226697
576.5969837557229
636.1929579364541
503.32222148252
524.8564346400099
594.736791383598
633.4403525363149
628.3216076407965
604.7999125720758
539.8008385542337
506.482201364681
621.8185540509958
607.4540593180267
554.982608199312
512.1568055731752
614.5042409119511
605.2856668376729
566.9828598119055
521.1480858601375
606.6460657741546
594.2616172927824
569.0788280960714
532.0751610207552
541.278843302055
563.5973433645072
579.7621382609351
597.1548372843437
539.8210485784822
552.052823417745
562.8306901951987
582.2098898805776
535.825217675125
540.3188570568483
544.5135407831876
560.5787794191979
530.6289644562394
529.8335402273558
525.3147688517679
530.4081036836114
526.7456629219341
520.4489460664597
508.4989371082517
495.5342743404374
520.5860236678963
511.2765658238523
491.9729447834231
459.8381953181676
515.7585851011278
506.0164999710655
477.9436249900399
425.1134635262631
511.5847440102989
504.5827827324653
477.697178409706
399.8335916342198
410.5947397109487
486.8430937332079
503.2604842925675
507.7659080364323
477.9715981398081
493.0461123025098
502.4041709642374
505.1675231012647
517.2752308794121
495.742092271783
500.8741881750123
503.3577393715477
530.1883392654699
500.4145385632891
500.2278468865926
502.2886801552032
539.0038885675555
504.3311708374895
498.9657026808918
500.3919419038951
533.7886811195355
504.298068460569
497.6632661331564
499.2218114830615
525.7799579659136
503.4821441830615
497.2757754605586
499.1945919781616
517.691156528017
499.1112749499108
497.0800148347864
499.4043538957262
479.7601772769553
469.4041402110714
488.9403199010659
498.6816138838132
474.2409040266584
471.2955102940061
489.4291438279956
498.6814111682073
465.2143274789001
473.4203108035957
490.3304154961143
498.6954758928433
459.4890485120027
476.2524239773346
491.3817841466701
498.7846623432267
517.6911565280872
499.1112749496027
497.0800148351776
499.4043538954684
525.7799579660406
503.4821441824323
497.2757754605748
499.1945919774514
533.7886811195857
504.2980684598446
497.663266132005
499.2218114821048
539.0038885676363
504.3311708367637
498.9657026807092
500.3919419033087
507.7659080366734
503.2604842928143
486.8430937335418
410.5947397100264
505.1675231011804
502.4041709642886
493.0461123031406
477.9715981389411
503.3577393714981
500.8741881750804
495.7420922709328
517.2752308792161
502.2886801550258
500.2278468869775
500.4145385626566
530.1883392658178
399.8335916355564
477.69717840953
504.5827827324715
511.5847440104326
425.1134635263035
477.9436249900725
506.0164999714699
515.7585851011157
459.8381953183865
491.9729447838375
511.2765658238588
520.5860236680427
495.5342743407882
508.4989371080057
520.4489460659911
526.7456629220419
541.2788433020554
563.597343365097
579.7621382615963
597.1548372848019
539.8210485780361
552.0528234174295
562.8306901953913
582.2098898811314
535.8252176743407
540.3188570565661
544.5135407831207
560.578779419541
530.6289644560063
529.8335402269622
525.3147688515759
530.4081036839971
606.6460657744933
594.2616172931569
569.0788280963632
532.0751610217018
614.5042409123921
605.2856668380425
566.9828598120174
521.1480858600537
621.8185540515021
607.4540593183204
554.9826081990012
512.1568055731607
628.3216076412513
604.7999125724415
539.800838554678
506.4822013646021
502.3946235802538
506.0654730148655
539.6688139546206
637.4038411697577
501.5144348578724
508.5870154732215
556.2913342786509
635.1851349065939
501.8902841028816
514.4358610236731
576.5969837560737
636.1929579363089
503.3222214825537
524.8564346398009
594.7367913841355
633.4403525365365
502.4439208350271
502.6021750424069
503.0548160906021
503.0941633530622
504.7793632379739
503.9284749875023
504.3854923989073
504.7589093232768
523.8890822964239
510.4313960118312
508.0398828349597
508.8783517734882
620.3298331521486
571.2944554016715
519.1902732957687
508.9395305645952
502.8863480286294
504.8996206604282
509.7489520953073
509.5134864318767
502.5348932066256
504.9495050421154
510.9863693476336
510.2808742631047
502.0493555449213
504.7480099640323
512.1686082676698
511.0327349841169
501.557047312864
504.3919006999802
513.0670134318574
512.2218258134625
500.1410993978524
501.1769409927158
511.0464018331814
522.8397323747191
500.3404994715343
502.0597999885869
512.6629615976575
517.6387412537781
500.6410888142804
503.0076202033956
513.5768017124636
515.4441493926339
501.0636583973461
503.7657632785852
513.7065314020974
513.9698158476534
533.1632637343448
507.2297244034177
500.4218875647479
500.0397646195502
534.3913099391863
505.2853963780484
500.2004456037657
500.012819225872
533.8968838774338
503.6978567494511
500.0985348015708
500.0033837405609
531.2556588414114
502.4151989119992
500.022785655226
500.000408984278
529.0274543856599
500.9604972549306
500.0023559313767
500.0001636798042
526.3725555972021
500.7185113289079
500.001614081321
500.0000101585692
521.1110348621719
500.434602391607
500.0002568678817
500.0000000748283
514.9164554786502
500.2632942894684
500.0000671145203
499.999999901189
500.0000000001753
500.0000002921114
500.0240474689903
503.3401255264054
500.0000000005271
500.0000008559663
500.0298519859876
504.8862716369052
500.0000000018922
500.0000033349158
500.0553219919898
506.7146263444878
500.0000000219066
500.000014608566
500.1147276259533
509.4271857075951
506.2242550903269
508.9263844387312
513.2473280734092
521.8932659796531
508.9263844392237
512.3849855681231
518.7533860732807
531.3295541485797
513.2473280736774
518.7533860733744
528.8781413781284
544.0743636658682
521.8932659797255
531.3295541484281
544.0743636663872
560.2574329204391
577.240078487967
564.2340114673824
557.3522312119941
544.9474140287116
575.4544035159046
571.543813211546
570.3295160492637
564.6266899332595
575.3909971518577
574.3204478565565
573.7598777670864
572.0555506093752
571.9789066942119
571.543908979372
571.6827523778768
570.9783254504804
567.8976512930606
565.5529489525373
560.4609005594865
553.2867919100398
567.5571557210754
565.1526640973477
560.2392202115635
553.964725893123
567.5735795195798
564.9920309243702
559.9822610100431
554.5586696337915
567.6359595897716
564.7353620183225
560.1857464543722
550.9725762345731
512.3820083927352
492.8107220694201
489.9511946245361
490.4514895376669
501.8272354898261
488.7091879208178
489.9719041263558
491.0981477326741
491.5806022408905
488.8785408778012
491.5608544553758
492.8388496248769
469.9271343878237
484.1242781967783
489.9028950447711
491.6002127098903
490.7946070284843
491.8121504011821
493.3342008424347
494.8482204745116
491.0056397999202
491.4827328356799
492.8643473328005
494.8629705662123
492.3183704039049
492.34067469568
493.2690923351694
494.7375107949024
491.2502541733335
491.421568824613
492.7275130927129
494.8421459592588
505.0149595413059
567.6537579496223
639.3406656899707
664.5358177515947
510.9306774584202
581.1417088728247
641.9915850343458
660.2424897212621
516.4074024851756
589.4741999686818
641.9617070504956
660.9419601249458
520.2143275365944
597.7437888237181
642.1694663921811
661.3535999027803
694.2994998011393
681.448739180961
670.1486646465688
656.884582622759
702.7495267102728
690.0104653408259
676.9047748976983
662.5586269248599
708.7277941087476
697.4758223605678
683.0198486182712
668.0478858118914
706.651342631373
701.2977205546904
687.197448335684
671.840595302153
643.6291490110193
633.0375659706198
623.2232540562669
618.9687602958737
648.7297326788449
637.1258805832242
625.956348567383
621.0678929209369
653.8917902989476
640.6369646123445
629.5153194977638
623.1787634627377
658.3090466364205
643.7046556240429
633.0045394549492
625.6005329916864
615.0672001380515
607.6473338141187
590.9819804738813
565.0091340380684
616.8436651830262
609.2346622115439
593.7800525358674
592.6519160181291
617.8372180269299
610.1527874903246
602.7699418991078
620.4164451628469
619.7317131791348
614.002791332773
616.3484644818998
603.9815043522074
522.5304548676299
460.2009555535411
422.6015883479426
426.2087645593742
512.069552957651
421.9809094120316
305.4978675752222
252.9272617212066
468.7333120821299
368.0989048640756
252.1727746011294
231.8560466743981
368.0090080745005
282.5878654856438
227.8297600930048
239.5958932529811
375.8797823588604
403.9743526869333
471.1036371533098
522.9354601207973
306.4835650921298
380.3837639098596
441.826510496781
491.7055747822599
291.6770795318282
350.911866713443
404.3954258049875
445.1176742315874
298.9419081833727
351.4303277432012
402.1087104672699
431.1322192557896
487.0550838256652
510.3409215210183
509.2672769488685
509.6717083485013
435.7693994456195
473.9292597833726
492.6653350711471
510.5529522462299
407.3456060682552
432.9136514009093
470.5494187079237
514.1638323583344
392.4860160092427
408.2755805918942
445.0626245793738
512.9445823185305
491.8142050844068
470.6048382618381
459.385676150264
459.689502349399
495.1665341661459
486.0116004191656
482.0118302282186
475.8914985332742
504.227715021934
507.4049397115789
501.6102393958501
488.619969159524
503.5893699274078
508.6059088690104
498.7242175307221
484.0943867619104
465.9361478633751
450.6337326430843
442.2440301812546
439.9029628675205
471.5340404893003
455.6941780821938
444.4248187917269
441.0616808609108
469.7967206256847
461.3031204936038
452.6243638976485
449.0081904427557
462.7929954643901
460.2260169591091
455.4942042748025
452.3588736790022
439.9029628674848
441.0616808608837
449.0081904427716
452.3588736790948
442.2440301810834
444.4248187915636
452.6243638976441
455.4942042750603
450.6337326427961
455.6941780819328
461.3031204935389
460.2260169592987
465.9361478629892
471.5340404890867
469.7967206256301
462.792995464526
459.6895023495542
459.3856761503059
470.6048382621584
491.8142050846716
475.8914985332975
482.0118302283128
486.0116004194153
495.1665341663871
488.6199691594075
501.6102393958054
507.4049397115843
504.2277150219983
484.0943867617022
498.724217530631
508.6059088689677
503.5893699273756
512.9445823186223
445.0626245798038
408.2755805925061
392.4860160098505
514.1638323584409
470.5494187083282
432.9136514015002
407.3456060689209
510.5529522464029
492.6653350714466
473.9292597839159
435.769399446508
509.6717083486394
509.2672769490622
510.3409215214211
487.0550838264239
522.9354601206394
471.1036371532255
403.9743526854589
375.8797823675732
491.7055747822554
441.8265104970088
380.3837639091751
306.4835650923108
445.1176742318834
404.3954258055204
350.9118667132732
291.6770795315786
431.132219256178
402.1087104678635
351.4303277435143
298.9419081831727
426.2087645807276
422.6015883498276
460.2009555536623
522.5304548682413
252.9272617241893
305.4978675752934
421.9809094120587
512.0695529577397
231.8560466744438
252.1727746008203
368.098904864516
468.7333120825232
239.5958932531757
227.8297600925591
282.5878654862448
368.009008074857
565.0091340384239
590.9819804742792
607.6473338146143
615.0672001384613
592.6519160184997
593.780052536
609.2346622118051
616.8436651833712
620.4164451630512
602.769941899123
610.1527874903184
617.8372180271562
603.9815043526352
616.3484644818398
614.002791332651
619.7317131793726
618.9687602964129
623.2232540566652
633.0375659705742
643.6291490108671
621.0678929214207
625.9563485675048
637.1258805828625
648.7297326784598
623.1787634629992
629.5153194979025
640.6369646119837
653.8917902987243
625.6005329920148
633.0045394551607
643.704655623953
658.309046636014
656.8845826224896
670.1486646463101
681.4487391806514
694.299499801014
662.5586269245088
676.9047748976426
690.0104653405862
702.7495267100585
668.047885811675
683.0198486179687
697.4758223600805
708.727794108614
671.8405953019445
687.1974483354787
701.2977205543511
706.6513426311412
664.5358177515874
639.3406656897164
567.6537579495819
505.014959541768
660.2424897211233
641.991585034059
581.1417088727229
510.9306774589799
660.9419601247116
641.9617070501614
589.474199968479
516.4074024857495
661.3535999026171
642.1694663918465
597.7437888234989
520.2143275371604
494.848220475164
493.3342008424066
491.8121504004503
490.7946070281478
494.8629705668618
492.8643473326145
491.4827328347129
491.005639799512
494.737510795548
493.269092334783
492.3406746946933
492.3183704033628
494.8421459598895
492.7275130923408
491.4215688235569
491.2502541727216
490.4514895368838
489.9511946239123
492.8107220697925
512.3820083931025
491.0981477319298
489.9719041255153
488.7091879213368
501.8272354901142
492.8388496241067
491.5608544544027
488.8785408782529
491.5806022411044
491.6002127090912
489.9028950436042
484.1242781971555
469.9271343880357
553.2867919102637
560.4609005597775
565.5529489531149
567.8976512929462
553.9647258931894
560.2392202117757
565.1526640978542
567.5571557209471
554.5586696337608
559.9822610101867
564.9920309247145
567.5735795192892
550.9725762345313
560.1857464544216
564.7353620185567
567.635959589539
570.9783254495626
572.055550608246
564.626689932398
544.9474140288349
571.6827523768804
573.7598777656598
570.3295160476194
557.352231211457
571.5439089782863
574.320447854853
571.5438132087999
564.2340114654463
571.978906693286
575.3909971499935
575.4544035124667
577.2400784843182
505.1227408199337
497.250551507711
496.8141171303674
499.484672118597
485.4178310710699
492.0338523899591
495.393505081769
499.3458575472333
470.3742882415463
486.3980593571037
493.9803838489743
499.148545687949
460.1353805201223
480.4296802627686
492.4975024279692
498.9417051598824
498.6816138834218
488.9403199010495
469.4041402110443
479.760177277044
498.6814111678439
489.4291438281529
471.2955102939534
474.2409040270114
498.695475892869
490.3304154965067
473.4203108033829
465.2143274791944
498.7846623433455
491.38178414685
476.2524239771591
459.4890485121248
498.941705159785
499.1485456877813
499.345857547582
499.4846721187482
492.49750242773
493.9803838487766
495.3935050814727
496.8141171305403
480.4296802628671
486.3980593574153
492.0338523905004
497.250551508099
460.1353805199429
470.3742882412971
485.417831071079
505.1227408200627
)
;

boundaryField
{
    back
    {
        type            empty;
    }
    inlet
    {
        type            zeroGradient;
    }
    front
    {
        type            empty;
    }
    top
    {
        type            zeroGradient;
    }
    outlet
    {
        type            fixedValue;
        value           uniform 500;
    }
    bottom
    {
        type            zeroGradient;
    }
    wall
    {
        type            zeroGradient;
    }
}


// ************************************************************************* //
