/*--------------------------------*- C++ -*----------------------------------*\
  =========                 |
  \\      /  F ield         | OpenFOAM: The Open Source CFD Toolbox
   \\    /   O peration     | Website:  https://openfoam.org
    \\  /    A nd           | Version:  11
     \\/     M anipulation  |
\*---------------------------------------------------------------------------*/
FoamFile
{
    format      ascii;
    class       volVectorField;
    location    "0.0325";
    object      U;
}
// * * * * * * * * * * * * * * * * * * * * * * * * * * * * * * * * * * * * * //

dimensions      [0 1 -1 0 0 0 0];

internalField   nonuniform List<vector> 
880
(
(25 -1.855094953905002e-15 0)
(25 0 0)
(25.00000000000655 -7.412600536506861e-12 0)
(25.00000005679022 6.540235391908545e-08 0)
(25 5.502353725736622e-16 0)
(25 -3.298425790538194e-15 0)
(25.00000000002187 -2.512884828298531e-09 0)
(25.00000200596655 -1.611706632712562e-06 0)
(25 1.586215541425866e-15 0)
(24.99999999999999 2.462695027777332e-15 0)
(24.99999998754508 2.341782795465209e-08 0)
(24.99996853714254 -1.954227507121163e-05 0)
(25.00000000000002 1.018139386524374e-15 0)
(25 -6.083327612499995e-16 0)
(24.9999993761282 -4.703546602768502e-07 0)
(24.99713698654566 -0.0002981222601349271 0)
(25 -2.014643065539917e-15 0)
(25 2.556908951986051e-16 0)
(25.00000000000001 6.584708006139575e-15 0)
(24.99999999999024 -1.402449441071908e-11 0)
(25 2.617167001662525e-15 0)
(25 1.197282368037523e-13 0)
(25.00000000001859 2.414731337167207e-11 0)
(24.99999999900956 1.593413181510615e-10 0)
(24.99999114313866 8.319603124580436e-06 0)
(24.9999768191059 2.64730770284238e-05 0)
(24.99997988317517 4.523968432126661e-05 0)
(24.99995193637629 -3.352162666150897e-05 0)
(24.97653678366797 0.03410127585664947 0)
(24.9374091247778 0.1378269300961681 0)
(24.93182363348283 0.219850325888592 0)
(24.94315009067434 0.2305275620006948 0)
(24.99999999850909 -1.60348222023882e-09 0)
(24.99999999778412 -2.220281007957169e-09 0)
(24.99999999753059 -2.407270845991021e-09 0)
(24.99999999833698 -1.824459991760076e-09 0)
(24.99999996436832 1.621935993078587e-07 0)
(24.99999997301984 2.205206141762594e-07 0)
(24.99999997372409 2.402572107108899e-07 0)
(24.99999993506067 2.01396989579032e-07 0)
(24.99994217485834 0.0003142988084648667 0)
(24.99993561340411 0.0003473721913453395 0)
(24.99993426518151 0.0003609070840405948 0)
(24.99988886366017 0.0003725015742972883 0)
(24.94046479844686 0.2415671599696393 0)
(24.94283920373582 0.2608339214540274 0)
(24.94104455813083 0.2581126202513403 0)
(24.92925554894509 0.296071946216603 0)
(25.02211545995648 0.2568315349583177 0)
(25.05532533476086 0.1278260802692877 0)
(25.02365708343721 0.03015257024122411 0)
(25.00280737102507 0.00263583418340815 0)
(25.00000900463085 0.0006024528060203967 0)
(25.00008948691691 0.0003958792313549571 0)
(25.00005614128744 0.0001205832140783581 0)
(25.00000824076747 1.197226658232143e-05 0)
(25.00000000778194 5.576807116366404e-07 0)
(25.0000000632 3.842775638498656e-07 0)
(25.00000004283887 1.211433341673798e-07 0)
(25.00000000623436 1.175903733513658e-08 0)
(24.99999999367856 -5.700217686027894e-09 0)
(24.99999999533297 -3.628027943489338e-09 0)
(24.99999999847051 -1.000617601302031e-09 0)
(24.99999999986029 -8.316587754705072e-11 0)
(24.99999999999996 -1.30004674484464e-12 0)
(25 -3.933283233014886e-15 0)
(25.00000000000001 3.941702844994604e-15 0)
(25 -3.061616886011963e-15 0)
(25.00000000014595 2.125774976757653e-10 0)
(25.00000000000001 2.551002085977056e-13 0)
(25.00000000000001 -5.605796126134125e-14 0)
(25 -1.863079168341176e-14 0)
(25.0000002099997 2.263417825536578e-07 0)
(25.00000000058352 3.505102581203307e-10 0)
(24.99999999998684 -6.511370819341733e-11 0)
(24.99999999998888 -2.301232733097437e-11 0)
(25.00006889263933 5.536133643247138e-05 0)
(25.00000023618842 7.019110838586893e-08 0)
(24.99999998883595 -3.410279238881186e-08 0)
(24.99999999188062 -9.868124617292882e-09 0)
(24.99999999940783 -6.93425455691526e-10 0)
(25.00000000000002 4.562184542414356e-12 0)
(25 1.531010220733205e-13 0)
(25 1.5193142536044e-16 0)
(24.99999978054368 -3.677988336199174e-07 0)
(24.99999999743831 -8.505010640020625e-09 0)
(25.00000000001711 -6.299548254272287e-11 0)
(25.00000000000001 -7.614583561540534e-14 0)
(24.99996613599506 0.0002368574561987719 0)
(24.99999991112805 1.531205250339508e-06 0)
(24.99999999971912 3.270947521893008e-09 0)
(24.99999999995121 -4.516107335982439e-11 0)
(25.00962226812504 -0.01861084119049438 0)
(25.00015449666065 -0.0006290459906176731 0)
(25.00000003778093 -6.368986818537832e-07 0)
(25.00000000002636 -2.669822364407148e-10 0)
(24.99999999847602 -2.646243459400853e-09 0)
(24.99999979671979 2.455645927906844e-07 0)
(24.99950395037492 0.0003418793157050716 0)
(24.50354889290459 0.3241487063693445 0)
(24.99999999260912 -9.107465089292429e-09 0)
(24.99999965050399 9.388500428099734e-07 0)
(24.99920815706711 0.001378673803880266 0)
(24.33530172585833 0.8575072001746354 0)
(24.9999999896868 -1.270707366441613e-08 0)
(24.99999956912774 1.283497220590899e-06 0)
(24.99908425926407 0.001816596931737435 0)
(24.32641364658252 1.052202429787193 0)
(24.99999998688403 -1.616880487970945e-08 0)
(24.99999946699434 1.591626888766208e-06 0)
(24.99894356978692 0.002105491933402331 0)
(24.29650936027658 1.115863377802051 0)
(24.25833919569449 1.175669186035063 0)
(24.99876921977837 0.002446262036428538 0)
(24.99999933232473 1.987909829603854e-06 0)
(24.99999998319421 -2.067910497305441e-08 0)
(24.2186638690431 1.242614243726056 0)
(24.99856067637318 0.002873174187962158 0)
(24.99999916092762 2.51828819834419e-06 0)
(24.99999997808401 -2.680457757739559e-08 0)
(24.16589186983371 1.313913999239319 0)
(24.9982709229838 0.003375147433585277 0)
(24.99999889790003 3.191466463295129e-06 0)
(24.99999997175673 -3.484699774686543e-08 0)
(24.13046910408818 1.41194909339805 0)
(24.99801433973526 0.004161136422416124 0)
(24.99999867807982 4.327402934618558e-06 0)
(24.99999995960542 -4.880530527314662e-08 0)
(24.99999996572539 -4.228455246430749e-08 0)
(24.99999885970859 3.571887784127827e-06 0)
(24.99805121380548 0.003935405677026785 0)
(24.10030426044458 1.463279965316347 0)
(24.99999996015917 -4.942783948035887e-08 0)
(24.99999857098829 4.149003721460019e-06 0)
(24.99785149432763 0.004254371994837989 0)
(24.10903795857866 1.453415296949768 0)
(24.99999995339325 -6.049026846888356e-08 0)
(24.99999843924644 4.721150748406655e-06 0)
(24.9978727177884 0.004306932620027393 0)
(24.21914423321919 1.327501694806049 0)
(24.9999999741421 -2.475644570207528e-08 0)
(24.99999959816773 1.991597367807147e-06 0)
(24.99928987590819 0.002088846124350188 0)
(24.69771271181685 0.6844326670585931 0)
(24.9999999460819 -1.953353617126997e-07 0)
(24.99997047401259 -7.765179292549385e-05 0)
(25.00230380862556 -0.007165416866045778 0)
(25.21137735868998 -0.07531498309281361 0)
(24.99999996661741 -5.779110240260466e-08 0)
(24.9999544782355 -4.386641343618132e-05 0)
(24.98339269696826 -0.01122613629785752 0)
(24.1473017517014 -0.6578071317442744 0)
(24.99999996959075 -4.547536096131039e-08 0)
(24.99995194723654 -4.086500015908745e-05 0)
(24.97223500318346 -0.01137009901384337 0)
(23.04219258114479 -0.4120863798596539 0)
(24.99999997746259 -3.212059348344929e-08 0)
(24.99994869735401 -3.255188142060592e-05 0)
(24.96341883270686 -0.007343063379065824 0)
(22.50527619986208 -0.02582652137124231 0)
(23.13424068572333 -0.05619055539801513 0)
(24.98214178292648 -0.008394975483675583 0)
(24.99997383143159 -2.836398678471295e-05 0)
(24.99999998191321 -3.585711760945332e-08 0)
(23.27538026354136 0.04225809387783863 0)
(24.98363423899718 -0.006251914519198667 0)
(24.99997742121121 -2.173950507110485e-05 0)
(24.99999998546564 -2.602307758573928e-08 0)
(23.50550978416831 -0.04340013825647803 0)
(24.98858311397165 -0.005407886158171999 0)
(24.99998629011522 -1.536109054702263e-05 0)
(24.99999999195822 -1.697845350080403e-08 0)
(23.17657551620172 0.2158443462838801 0)
(24.98420901321965 -0.00475028636202378 0)
(24.99998123609196 -1.610804931604281e-05 0)
(24.99999998869905 -1.791981899376046e-08 0)
(24.33787410576777 0.1038529981671051 0)
(24.99689218315559 -0.001351861194310151 0)
(24.99999663928548 -3.175942233678153e-06 0)
(24.99999999818986 -3.193838712292206e-09 0)
(24.91048078993958 0.004691394208695268 0)
(24.99982193953801 -0.0001309103419931607 0)
(24.99999986344447 -1.737712357323021e-07 0)
(24.99999999993511 -1.286986170690344e-10 0)
(24.99882079741427 -0.02523770658102371 0)
(25.00000072046447 -7.234968087356773e-05 0)
(25.0000000015809 -9.56812517592467e-08 0)
(25.00000000000055 -8.074459270282578e-11 0)
(25.00370057492549 -0.05348055381668892 0)
(25.00002119267921 -0.0001804219199411766 0)
(25.00000003511136 -2.583690898559484e-07 0)
(25.00000000000542 -2.197588817230155e-10 0)
(24.84015826871611 -0.0001433958353256111 0)
(24.99896050926137 -3.901795954885361e-07 0)
(24.99999759446756 -3.478686040236367e-10 0)
(24.99999999747453 4.250334457898498e-13 0)
(24.84042205525906 -0.000484929308126202 0)
(24.99896209414822 -1.235461610407593e-06 0)
(24.99999759707359 -2.017782619308786e-10 0)
(24.99999999746123 6.683737861634978e-12 0)
(24.84158815624003 -0.0005751656840424192 0)
(24.99896696163653 -6.030635233262348e-07 0)
(24.99999759892231 4.535626484698199e-09 0)
(24.99999999737718 6.073945196648513e-11 0)
(24.84270766229916 0.006484077630500762 0)
(24.99898511345423 2.564077330053847e-05 0)
(24.99999762824709 3.858570185467568e-08 0)
(24.99999999719662 1.098721999254869e-10 0)
(25.003700574924 0.05348055381575577 0)
(25.00002119268906 0.0001804219176130937 0)
(25.00000003512381 2.583664279546353e-07 0)
(25.00000000001331 2.202900641648657e-10 0)
(24.99882079741163 0.02523770657739733 0)
(25.00000072048105 7.234968097521711e-05 0)
(25.00000000159577 9.568350425229126e-08 0)
(25.00000000000065 8.082734534131759e-11 0)
(24.91048078995338 -0.004691394210889292 0)
(24.99982193954966 0.0001309103438622559 0)
(24.999999863445 1.737730288889704e-07 0)
(24.99999999993693 1.287157777880112e-10 0)
(24.33787410574858 -0.1038529981627464 0)
(24.99689218316765 0.001351861196015527 0)
(24.9999966392811 3.175942658824931e-06 0)
(24.99999999818911 3.193981622217798e-09 0)
(24.99999998190575 3.585785411841586e-08 0)
(24.99997383142851 2.836398644567945e-05 0)
(24.98214178292394 0.008394975469177586 0)
(23.13424068571295 0.05619055537670335 0)
(24.99999998546813 2.602279412187523e-08 0)
(24.99997742120827 2.173950694895288e-05 0)
(24.98363423896371 0.006251914535281279 0)
(23.2753802635139 -0.0422580938570887 0)
(24.99999999195614 1.69782695975848e-08 0)
(24.99998629011989 1.536109039754358e-05 0)
(24.98858311398658 0.005407886159952219 0)
(23.50550978418523 0.04340013825790853 0)
(24.99999998869717 1.791993596039558e-08 0)
(24.99998123608 1.610804601539504e-05 0)
(24.98420901321859 0.00475028636141869 0)
(23.17657551620447 -0.2158443462992158 0)
(22.50527619983056 0.02582652137919517 0)
(24.96341883271143 0.007343063378639262 0)
(24.99994869736194 3.255188030752725e-05 0)
(24.99999997746039 3.212026773731298e-08 0)
(23.0421925811268 0.4120863798582519 0)
(24.97223500318054 0.0113700990150464 0)
(24.99995194722785 4.086500137547031e-05 0)
(24.99999996959328 4.547512576254267e-08 0)
(24.14730175169061 0.6578071317466895 0)
(24.9833926969652 0.01122613629481711 0)
(24.99995447824165 4.386641151041728e-05 0)
(24.99999996660934 5.779256565077166e-08 0)
(25.21137735868888 0.07531498309426959 0)
(25.00230380863522 0.007165416867909694 0)
(24.99997047402457 7.765179644705282e-05 0)
(24.99999994607288 1.953345780074602e-07 0)
(24.99999996572735 4.228525632886112e-08 0)
(24.99999885969725 -3.571887713210485e-06 0)
(24.99805121379263 -0.003935405679717439 0)
(24.10030426045395 -1.463279965320786 0)
(24.9999999601562 4.942848709198584e-08 0)
(24.99999857099615 -4.149004103060183e-06 0)
(24.99785149431883 -0.004254371995713809 0)
(24.10903795856512 -1.453415296956853 0)
(24.99999995340152 6.049075598780931e-08 0)
(24.99999843924136 -4.721151911342806e-06 0)
(24.99787271778782 -0.004306932619097501 0)
(24.21914423322265 -1.327501694805311 0)
(24.99999997414054 2.47552267830016e-08 0)
(24.99999959817116 -1.991595689793145e-06 0)
(24.99928987590892 -0.002088846124210759 0)
(24.69771271181712 -0.6844326670585419 0)
(24.13046910408545 -1.411949093405215 0)
(24.99801433974882 -0.004161136420806096 0)
(24.9999986780756 -4.327402170155357e-06 0)
(24.9999999595908 4.880495660365689e-08 0)
(24.16589186983106 -1.313913999242898 0)
(24.99827092297732 -0.003375147432303608 0)
(24.99999889789904 -3.191466886510347e-06 0)
(24.99999997175727 3.48466181988535e-08 0)
(24.21866386904917 -1.242614243729107 0)
(24.99856067637611 -0.002873174188674498 0)
(24.99999916092776 -2.518288137729378e-06 0)
(24.99999997808333 2.680460892523639e-08 0)
(24.25833919569246 -1.175669186035057 0)
(24.99876921976226 -0.002446262036441393 0)
(24.9999993323198 -1.987909792865451e-06 0)
(24.99999998319067 2.067913107427888e-08 0)
(24.99999999847399 2.646297123388771e-09 0)
(24.9999997967171 -2.455644740083702e-07 0)
(24.9995039503782 -0.0003418793154528098 0)
(24.50354889291041 -0.3241487063700177 0)
(24.9999999925993 9.107551961147604e-09 0)
(24.99999965049398 -9.388502245096588e-07 0)
(24.99920815707662 -0.001378673802525571 0)
(24.33530172585628 -0.8575072001760816 0)
(24.99999998967475 1.270710162733931e-08 0)
(24.99999956911941 -1.283496936276934e-06 0)
(24.99908425925916 -0.001816596931165204 0)
(24.32641364658509 -1.052202429787643 0)
(24.99999998688576 1.616877230975219e-08 0)
(24.99999946699807 -1.591626930496957e-06 0)
(24.9989435697922 -0.002105491933928459 0)
(24.29650936028818 -1.115863377801278 0)
(25.00000000002537 2.670262184124894e-10 0)
(24.99999999995177 4.514578220922177e-11 0)
(25 7.950176051156833e-14 0)
(25 -2.044546678013655e-15 0)
(25.00000003779622 6.368997381523441e-07 0)
(24.99999999972399 -3.270819656311868e-09 0)
(25.0000000000202 6.301479882632691e-11 0)
(25 -1.539869337080136e-13 0)
(25.00015449666959 0.0006290459895188786 0)
(24.99999991112444 -1.531205038821241e-06 0)
(24.99999999744227 8.504481746695285e-09 0)
(25.00000000000015 -4.572766893515029e-12 0)
(25.00962226812961 0.01861084118982899 0)
(24.99996613599425 -0.000236857456492429 0)
(24.99999978054024 3.678002200389082e-07 0)
(24.99999999940775 6.933054095794992e-10 0)
(25 1.117632539980285e-15 0)
(25 1.736628436798464e-14 0)
(24.99999999998764 2.294519992530161e-11 0)
(24.99999999187837 9.867953929059104e-09 0)
(25.00000000000001 -2.118998752586743e-15 0)
(25.00000000000001 5.386085298414373e-14 0)
(24.99999999998587 6.53825406128005e-11 0)
(24.99999998883379 3.41042800628183e-08 0)
(25 3.578051288904799e-15 0)
(25 -2.451844568849051e-13 0)
(25.00000000058929 -3.500768210811474e-10 0)
(25.00000023619868 -7.019075351759544e-08 0)
(24.99999999999999 1.292694531526606e-12 0)
(25.00000000014687 -2.125048142488981e-10 0)
(25.00000020999572 -2.263430030018966e-07 0)
(25.0000688926402 -5.536133773808534e-05 0)
(24.99999999367523 5.701780465926488e-09 0)
(25.00000000779262 -5.576799724920026e-07 0)
(25.00000900462948 -0.0006024528067504717 0)
(25.02211545994856 -0.2568315349520662 0)
(24.99999999534125 3.627514817339551e-09 0)
(25.0000000631948 -3.842756058055974e-07 0)
(25.00008948691202 -0.0003958792311531612 0)
(25.05532533475501 -0.127826080272328 0)
(24.99999999846798 1.001554391267396e-09 0)
(25.00000004284531 -1.211444473776863e-07 0)
(25.00005614129294 -0.0001205832148650141 0)
(25.02365708344354 -0.03015257024616645 0)
(24.99999999986112 8.298970577499332e-11 0)
(25.00000000623612 -1.175855268727835e-08 0)
(25.00000824076409 -1.197226600426248e-05 0)
(25.00280737103802 -0.002635834179384923 0)
(24.92925554895001 -0.2960719462138545 0)
(24.99988886366345 -0.000372501576264532 0)
(24.99999993506629 -2.01395376948705e-07 0)
(24.99999999833242 1.822615499649851e-09 0)
(24.94104455813939 -0.2581126202515149 0)
(24.99993426517095 -0.0003609070864656371 0)
(24.99999997373731 -2.402561387421128e-07 0)
(24.99999999753091 2.407573093451836e-09 0)
(24.94283920372562 -0.2608339214576568 0)
(24.99993561339204 -0.0003473721926488901 0)
(24.99999997303525 -2.205201022272191e-07 0)
(24.99999999779217 2.220136222904137e-09 0)
(24.94046479846088 -0.2415671599659131 0)
(24.99994217487241 -0.0003142987990244585 0)
(24.99999996437383 -1.62195520805698e-07 0)
(24.99999999849775 1.603037490361197e-09 0)
(24.94315009067833 -0.2305275620008646 0)
(24.99995193636549 3.352161929038986e-05 0)
(24.99999999900848 -1.592488611245205e-10 0)
(24.99999999998855 1.422864779040121e-11 0)
(24.93182363348712 -0.2198503258879672 0)
(24.99997988318041 -4.523968084474982e-05 0)
(25.0000000000266 -2.428131185050243e-11 0)
(25 -4.058884583225243e-15 0)
(24.93740912478408 -0.1378269300962559 0)
(24.9999768191086 -2.647307652745163e-05 0)
(25 -2.046177886941875e-13 0)
(25 -1.524050137587304e-15 0)
(24.97653678367629 -0.03410127585561512 0)
(24.9999911431445 -8.319603407931376e-06 0)
(25 -4.68709723418372e-15 0)
(25 -1.449426084389173e-15 0)
(25.00000000000001 1.642645854925693e-15 0)
(25 1.558899734644656e-15 0)
(25.0000000000036 7.539120626122036e-12 0)
(25.00000005679156 -6.540386354086241e-08 0)
(25 -8.961846501926697e-16 0)
(25 0 0)
(25.00000000002197 2.512610375186409e-09 0)
(25.00000200596634 1.61170890655919e-06 0)
(25 0 0)
(25 -8.52131682838248e-16 0)
(24.99999998754532 -2.341814929461462e-08 0)
(24.99996853713941 1.954227501046605e-05 0)
(25 2.179692136594712e-15 0)
(25 1.912710009164138e-15 0)
(24.99999937613106 4.703542378384681e-07 0)
(24.99713698655236 0.0002981222537140972 0)
(25.00000020456061 -1.39407270001091e-12 0)
(24.99999886735514 1.920156339903385e-06 0)
(24.9998810887991 -0.0004671241973404934 0)
(24.98087779932466 -0.01254864545231823 0)
(24.99999886735389 -1.920155875356314e-06 0)
(24.99997100996368 3.686466073994615e-13 0)
(24.99434242798176 -0.004159381680031514 0)
(24.8343138141574 -0.1001537610429561 0)
(24.9998810887978 0.000467124197467642 0)
(24.99434242798079 0.004159381678347983 0)
(24.86839262303662 -1.021718869544786e-12 0)
(23.88976131946325 -0.2790875919249893 0)
(24.98087779931755 0.01254864544373617 0)
(24.83431381415314 0.1001537610329732 0)
(23.88976131945179 0.279087591920177 0)
(21.48577312875358 1.06395646696357e-12 0)
(20.81345341345466 2.638740247079028 0)
(21.60642459830285 3.06683362337765 0)
(23.49646242865427 2.05098724110016 0)
(24.38736014547727 0.878072538774524 0)
(21.66011938580956 4.984327365131741 0)
(21.8570721380324 5.046132606643631 0)
(22.87975793707236 4.472365452232998 0)
(23.56811809761192 3.241506418583168 0)
(22.51879878663315 5.704781647315941 0)
(22.8673330165386 5.872630587019096 0)
(23.33065018977008 5.687504912388419 0)
(23.67631193179535 4.852278497291261 0)
(22.77220737263515 5.82989435242291 0)
(23.32189247986387 6.134012240835688 0)
(23.63360913014096 6.049054623965759 0)
(23.85561558493883 5.245358221485062 0)
(23.83477958903666 5.374878112086089 0)
(23.85120266648391 5.408857471834287 0)
(23.85924344924455 5.422469787883036 0)
(23.60451514460808 5.708130212160412 0)
(23.62261550800087 6.127926524839376 0)
(23.65113812092257 6.142774692314331 0)
(23.66702264050227 6.1471320112398 0)
(23.78964421156546 6.30286633946644 0)
(23.34408569064351 6.193704921502063 0)
(23.38591220075256 6.204363425122319 0)
(23.41208495222311 6.208557536337993 0)
(24.14816168762325 6.764380972184629 0)
(22.75132592494811 5.82605113952772 0)
(22.77420205840062 5.829558735459638 0)
(22.80132534300439 5.840383601981535 0)
(25.12607303289293 7.647085904743053 0)
(26.02260436169269 3.600140288666317 0)
(25.9651932135049 1.338291176787569 0)
(25.27588489654503 0.2412441515216759 0)
(25.02539582757499 0.0145013209083134 0)
(27.22933239148651 3.389484399393587 0)
(26.71517072725206 0.9175674954090366 0)
(25.48274407683395 0.1609980109616272 0)
(25.04617885592558 0.01367459268974883 0)
(29.21810162380603 1.43515554463053 0)
(27.21311175314183 -0.1053662244983056 0)
(25.65556953962114 -0.04310829683280121 0)
(25.07369115229623 -0.009046158459289971 0)
(24.4183780417779 1.038033263068231 0)
(24.3178123421324 -0.2224182137664375 0)
(24.75587540975951 -0.2205099646512061 0)
(24.97092808427632 -0.03074450114938985 0)
(25.00058525934241 0.0001518070494914233 0)
(25.0000017611687 -1.776970199476812e-06 0)
(24.99999968205068 -9.022774984941658e-07 0)
(24.99999982813636 -1.763129779245302e-07 0)
(25.00104221289221 0.0002319646496585073 0)
(25.00000325081452 -3.056576919841317e-06 0)
(24.99999954556224 -1.095973295423366e-06 0)
(24.99999977846847 -1.854102198954259e-07 0)
(25.00183407921952 -0.0003025192821496966 0)
(25.0000065472719 -6.303541957647178e-06 0)
(24.99999946169112 -1.001568234553532e-06 0)
(24.99999980938686 -1.589755099741194e-07 0)
(24.9991945577875 -0.0007779869369561546 0)
(24.99997795239059 -8.238283839458874e-06 0)
(24.99999771560066 -6.216290536918604e-07 0)
(24.99999978826965 -5.923512641630948e-08 0)
(24.99999997734441 -5.756589109833414e-10 0)
(25.00000008689803 -4.556845440732275e-09 0)
(24.99771219548511 0.006910469689352637 0)
(24.64066608703152 0.6704690760655254 0)
(24.99999998296887 2.84794264074841e-09 0)
(25.00000001936532 -1.031278106133479e-08 0)
(24.99178139256424 0.01325851313786798 0)
(23.41575917491909 1.905012718550699 0)
(24.99999999037198 -1.416497880644232e-09 0)
(25.00000000127853 -4.200728384415528e-09 0)
(24.98400757898372 0.01303650835014986 0)
(21.72303902339705 1.761214247349918 0)
(24.99999999178208 -1.887525454486734e-09 0)
(24.99999999915295 9.258603571622418e-10 0)
(24.96946151942353 0.004834650271872611 0)
(19.15043327777746 0.2133880326060158 0)
(16.81515707318467 7.059897676663419 0)
(17.45278946117776 10.25574969595004 0)
(17.72096980331972 11.28558716912269 0)
(17.75435503264639 11.41128493466848 0)
(14.47954120153806 7.651053191421769 0)
(16.56081942016413 10.94610211032698 0)
(17.25735879904281 12.1373893409282 0)
(17.37127577454831 12.25322745787391 0)
(12.87913376897843 7.505504629620665 0)
(16.26922027715933 10.60484965009499 0)
(17.50317865675061 11.78748119276432 0)
(17.65656811161291 11.91538668782985 0)
(11.99505554230361 4.993525429754761 0)
(14.48992192422586 8.873511220719553 0)
(15.55206471002135 10.18338978597144 0)
(15.84828198503414 10.28557096046049 0)
(17.74205869353771 11.43504996530469 0)
(17.72811145823021 11.45603543690699 0)
(17.71130927938445 11.48079017498786 0)
(17.73856563103779 11.51229029318884 0)
(17.37509997484675 12.25748222018438 0)
(17.37622841148712 12.25842865006215 0)
(17.37879353680226 12.261495107295 0)
(17.41644814066602 12.2782590174057 0)
(17.66050486031031 11.91940893687975 0)
(17.66191701432248 11.91867180756434 0)
(17.66500974343444 11.9194923007758 0)
(17.68503352843829 11.93769254969036 0)
(15.8671253488365 10.29057504110523 0)
(15.86735944594695 10.29111285044288 0)
(15.86860565751597 10.29295352006845 0)
(15.85272287092489 10.27508230205846 0)
(17.81777806749621 11.3953882754911 0)
(17.95660558076818 11.19604906099322 0)
(18.76483464807254 10.44236228427686 0)
(21.01073107996295 7.145626315896665 0)
(17.45285217842727 12.26187475863267 0)
(17.55683534737532 12.11833937311923 0)
(18.5475036219539 11.46476903804797 0)
(21.35967454797446 9.633126035697055 0)
(17.60450556104908 11.98373643587346 0)
(17.60363352914356 11.91087718203888 0)
(18.71396459722428 11.48582918130594 0)
(24.70605605147717 13.67316159718994 0)
(15.98156571441638 10.35877844045863 0)
(16.04697215560262 10.43691543222552 0)
(18.18635371238773 11.15670762043027 0)
(31.3961089656568 17.84682985504511 0)
(26.19411084906201 1.343182421123968 0)
(18.57484061286647 -5.805569203584035 0)
(5.766202333894751 -2.651027638320204 0)
(3.066652936022647 -0.1709625552548232 0)
(24.97653368517271 3.199148652748707 0)
(13.89468996762344 -7.180972753565908 0)
(1.120958699865753 -3.241132774935453 0)
(-2.195569451263868 -0.3452806453008472 0)
(23.6186307632824 -0.1727543557537511 0)
(7.781966442840642 -10.56635900345118 0)
(-1.00008843947355 -2.938168988207175 0)
(-2.084476606805718 -0.4545292289364474 0)
(18.43550683591274 -10.75134791665937 0)
(4.236422792262628 -5.244574825414458 0)
(-1.854582948716321 -1.340781789225039 0)
(-2.204542326839167 -0.3583390807933569 0)
(3.542599376706028 -0.04065984869329222 0)
(3.702638053713285 0.2007313550736613 0)
(4.198432702153476 0.5654313122083566 0)
(3.481420268427831 3.282791505833979 0)
(-2.203400485005064 -0.04085641157844672 0)
(-2.121173308294408 0.4722575458313211 0)
(-1.001413742900943 1.900742567369133 0)
(-0.3152099784052093 6.136423649391675 0)
(-2.189856220484982 -0.1625480495368908 0)
(-2.076018830267347 0.7472075933005164 0)
(-0.9069381468629747 3.348031900760206 0)
(0.2335072486838081 8.102618032432527 0)
(-2.192418757068962 -0.1561299623969283 0)
(-2.283661673368755 0.7262592377976428 0)
(-1.351155420886898 3.5918216437444 0)
(0.2618123430794815 9.917247968267068 0)
(18.98094657556436 -3.603705093055232 0)
(23.33926110914651 -1.398161309451291 0)
(24.91574676768552 -0.9975026851351496 0)
(25.21751183842339 -1.77910381465917 0)
(13.08640354362971 -3.195226719299644 0)
(21.05380186729959 -2.528302428365427 0)
(24.53000061212533 -2.273247957206092 0)
(25.59662873727026 -2.82724140428491 0)
(7.412852366930511 -0.1725937985007443 0)
(17.58048836449333 -2.050289855935869 0)
(23.45623710260481 -3.006771894993559 0)
(29.08036889291145 -2.702038312163533 0)
(5.662668820903427 5.924969855876245 0)
(13.696931977105 6.140131083029235 0)
(20.53055049129634 1.422612665000327 0)
(34.74920041037963 -0.9148221886547576 0)
(24.11692375188672 -2.233701959891072 0)
(22.14753391827796 -4.853326181985806 0)
(18.60626302411894 -4.809860733642588 0)
(15.51846292256692 -2.966891742311258 0)
(26.51341888542298 -6.264948007421711 0)
(21.41402023404088 -10.64086411620236 0)
(14.1922459560351 -10.78737275229064 0)
(9.022226581372838 -7.602222649674404 0)
(32.52340293292195 -11.49824918085778 0)
(22.97435360609686 -17.81274531092922 0)
(11.897942671715 -15.41051173615906 0)
(6.143934069889464 -13.14809428922843 0)
(21.18334429002364 -16.04610645303266 0)
(10.11413620772623 -16.26343465464237 0)
(3.001518766632806 -11.28455018687446 0)
(2.474053042238944 -10.35597423435637 0)
(2.13307228118119 -9.873097113620638 0)
(1.02556284753747 -6.766425535709406 0)
(0.1690389832079538 -1.653868645451229 0)
(0.05572034908661908 -0.1000415726845247 0)
(2.200860688141585 -8.692954916321023 0)
(0.4227958606649388 -3.333036349866986 0)
(-0.3341019216263347 -0.7690861137018322 0)
(-0.4586125370373799 -0.1303421959754724 0)
(6.14441243764787 -3.230579956538237 0)
(5.161429252534424 -0.87702910278899 0)
(4.802781388129473 -0.2586996175192556 0)
(4.733824205038293 -0.05701891892832053 0)
(13.98584434071145 -1.094194120087551 0)
(13.87538331299886 -0.2876374474483164 0)
(13.82192955030331 -0.1054584792621268 0)
(13.80022697166806 -0.02495007246156229 0)
(0.05572034908859126 0.1000415726927879 0)
(-0.4586125370342336 0.1303421959859905 0)
(4.733824205039006 0.05701891892414214 0)
(13.80022697166212 0.02495007246860869 0)
(0.1690389832072884 1.653868645458686 0)
(-0.3341019216254545 0.769086113710861 0)
(4.802781388130538 0.2586996175192909 0)
(13.82192955030185 0.1054584792644585 0)
(1.025562847539582 6.766425535706877 0)
(0.422795860666173 3.33303634986297 0)
(5.161429252531099 0.8770291027910808 0)
(13.87538331299384 0.2876374474564302 0)
(2.133072281181234 9.873097113617002 0)
(2.200860688143264 8.692954916318113 0)
(6.144412437648693 3.23057995653378 0)
(13.98584434070625 1.094194120083757 0)
(15.51846292256115 2.966891742310623 0)
(18.60626302411124 4.809860733639344 0)
(22.1475339182718 4.853326181981295 0)
(24.11692375188495 2.233701959890663 0)
(9.022226581371967 7.602222649673635 0)
(14.19224595603482 10.78737275228878 0)
(21.41402023404218 10.64086411620331 0)
(26.51341888542404 6.264948007422629 0)
(6.143934069890641 13.14809428922365 0)
(11.89794267171477 15.41051173615904 0)
(22.97435360608926 17.81274531092293 0)
(32.52340293292018 11.49824918085596 0)
(2.47405304224012 10.35597423435224 0)
(3.001518766634109 11.28455018687244 0)
(10.11413620772033 16.26343465464008 0)
(21.1833442900205 16.04610645303005 0)
(34.7492004103747 0.9148221886543474 0)
(20.53055049129253 -1.422612665003304 0)
(13.69693197710568 -6.140131083031487 0)
(5.662668820901335 -5.924969855871385 0)
(29.0803688929089 2.702038312163022 0)
(23.45623710260151 3.006771894992099 0)
(17.5804883644909 2.050289855934528 0)
(7.412852366929461 0.1725937985090941 0)
(25.59662873726868 2.827241404284818 0)
(24.53000061212201 2.273247957203874 0)
(21.05380186730142 2.528302428359582 0)
(13.08640354362521 3.195226719315354 0)
(25.21751183842234 1.779103814658814 0)
(24.91574676768434 0.9975026851332032 0)
(23.33926110915532 1.398161309446559 0)
(18.9809465755509 3.603705093067465 0)
(3.481420268431747 -3.282791505843821 0)
(4.198432702161881 -0.5654313122086597 0)
(3.702638053702955 -0.200731355069159 0)
(3.542599376695901 0.04065984868427586 0)
(-0.3152099784018898 -6.136423649389002 0)
(-1.001413742896871 -1.900742567369179 0)
(-2.12117330829667 -0.4722575458352646 0)
(-2.203400485003353 0.04085641157304488 0)
(0.233507248682973 -8.102618032432776 0)
(-0.9069381468578315 -3.348031900767999 0)
(-2.076018830266672 -0.7472075933078202 0)
(-2.189856220482602 0.1625480495338896 0)
(0.2618123430789144 -9.917247968269994 0)
(-1.351155420884274 -3.591821643755635 0)
(-2.283661673369659 -0.7262592378067896 0)
(-2.19241875706718 0.1561299623923723 0)
(3.06665293598699 0.1709625552578298 0)
(5.766202333816785 2.651027638284851 0)
(18.57484061278948 5.805569203591862 0)
(26.19411084905239 -1.343182421111979 0)
(-2.195569451278768 0.3452806452998514 0)
(1.120958699816347 3.241132774909381 0)
(13.89468996757013 7.180972753574379 0)
(24.97653368516496 -3.199148652738918 0)
(-2.084476606810131 0.4545292289336987 0)
(-1.000088439486499 2.938168988187574 0)
(7.781966442816413 10.5663590034365 0)
(23.61863076327788 0.1727543557561177 0)
(-2.204542326838707 0.3583390807916462 0)
(-1.854582948715022 1.340781789218813 0)