/*--------------------------------*- C++ -*----------------------------------*\
  =========                 |
  \\      /  F ield         | OpenFOAM: The Open Source CFD Toolbox
   \\    /   O peration     | Website:  https://openfoam.org
    \\  /    A nd           | Version:  11
     \\/     M anipulation  |
\*---------------------------------------------------------------------------*/
FoamFile
{
    format      ascii;
    class       surfaceScalarField;
    location    "6.4";
    object      phi;
}
// * * * * * * * * * * * * * * * * * * * * * * * * * * * * * * * * * * * * * //

dimensions      [0 3 -1 0 0 0 0];

internalField   nonuniform List<scalar> 
8667
(
1.5884105
0.189367
3.2557571e-07
1.3984506
0.18995935
5.3021176e-07
1.2070752
0.19137437
9.7044329e-07
1.0166182
0.19045598
1.0018187e-06
0.82467806
0.1919389
1.2838731e-06
0.63538622
0.18929073
1.0995702e-06
0.44437756
0.19100756
1.1050836e-06
0.2601872
0.18418959
7.6946794e-07
0.18125638
1.7643867e-07
0.078930638
1.5885592
0.37858561
1.3981744
0.38034422
1.2070093
0.38253942
1.0158679
0.38159735
0.82449108
0.38331575
0.63393642
0.37984539
0.443984
0.38095998
0.26024992
0.36792367
0.36404311
0.077463194
1.5885107
0.56785275
1.3981532
0.57070165
1.206885
0.57380767
1.0155227
0.57295964
0.82357843
0.57526001
0.63329048
0.57013335
0.44292787
0.57132259
0.25888489
0.55196664
0.54745169
0.075476315
1.5884221
0.75720841
1.3983888
0.76073497
1.2067805
0.76541596
1.015506
0.76423421
0.82303631
0.76772965
0.63219533
0.76097433
0.44143068
0.76208724
0.25708803
0.73630928
0.7310135
0.073526231
1.5884541
0.94653191
1.3985004
0.95068868
1.2070766
0.95683971
1.0154998
0.95581103
0.82292711
0.96030237
0.63143759
0.95246385
0.44042104
0.95310379
0.25535066
0.92137967
0.9142653
0.07209885
1.5885212
1.1357885
1.3987575
1.1404523
1.2074449
1.1481523
1.0156938
1.1475622
0.82291739
1.1530787
0.63050888
1.1448723
0.43872632
1.1448863
0.25318237
1.1069236
1.0973331
0.070114612
1.5885853
1.3249811
1.3990059
1.3300317
1.2079352
1.339223
1.0159569
1.3395404
0.82297415
1.3460615
0.63029521
1.3375513
0.43785245
1.3373291
0.25090771
1.2938684
1.2806187
0.067622066
1.5887901
1.5139687
1.3992275
1.5195943
1.2085132
1.5299373
1.016559
1.5314947
0.82303093
1.5395896
0.62953646
1.5310458
0.43623195
1.5306336
0.24854901
1.4815513
1.4635896
0.065578135
1.5890184
1.7027281
1.3996488
1.708964
1.2089523
1.7206338
1.0171746
1.7232725
0.82358039
1.7331837
0.62977476
1.7248514
0.43538422
1.7250242
0.24576779
1.6711677
1.6478777
0.061479698
1.8851334
1.5953725
2.0673046
1.5956066
2.2491563
1.5959267
2.4308363
1.596098
2.6122034
1.596409
2.7932877
1.5966937
2.9742044
1.5968613
3.1544979
1.5974846
1.5973215
3.3349544
1.8920525
1.412284
2.0748853
1.4127738
2.2575528
1.4132591
2.4398292
1.4138216
2.621985
1.4142532
2.8035692
1.4151094
2.9849933
1.4154372
3.1659269
1.416551
1.4164547
3.3467937
1.9056267
1.2272911
2.0903298
1.2280707
2.2747395
1.2288494
2.458551
1.2300101
2.6421029
1.2307012
2.8250944
1.2321179
3.0078435
1.2326881
3.1902573
1.2341373
1.2345119
3.3722001
1.9099149
1.0406487
2.0962845
1.0417012
2.2828789
1.042255
2.4691918
1.0436971
2.6555084
1.0443846
2.8415587
1.0460676
3.027446
1.0468007
3.2130551
1.0485282
1.049266
3.398301
1.922236
0.85159641
2.1114916
0.85244557
2.3010219
0.85272477
2.4908075
0.85391149
2.6805785
0.85461361
2.8705973
0.85604887
3.0602168
0.85718124
3.249954
0.85879098
0.86028065
3.4389394
1.9149083
0.66153947
2.1061953
0.66115856
2.2981067
0.66081342
2.4912141
0.6608041
2.6845325
0.66129516
2.8789291
0.66165228
3.0732225
0.66288784
3.2685171
0.6634964
0.66502845
3.4637693
1.9159429
0.47062078
2.1094792
0.46762222
2.303909
0.46638363
2.5014895
0.46322361
2.6997391
0.46304548
2.9003032
0.46108822
3.1010133
0.46217772
3.3034452
0.46106453
0.46299503
3.5054786
1.8594139
0.28237465
2.0544538
0.27258224
2.2529775
0.26785999
2.4565506
0.25965052
2.661595
0.25800106
2.8700061
0.25267713
3.0789906
0.25319325
3.2903817
0.24967343
0.25178113
3.5015956
1.838796
0.091456374
2.0494824
0.061895762
2.2736812
0.043661185
2.5043235
0.029008274
2.7373727
0.024951803
2.97071
0.019339828
3.2057483
0.018155006
3.4398355
0.015586218
3.6753218
0.01629476
3.3240532
0.010901198
3.3137293
0.010323891
3.3035397
0.010189544
3.2941315
0.0094082327
3.2848105
0.0093209852
3.2764122
0.0083982885
3.2680271
0.0083851385
3.2606931
0.0073339509
0.0073708624
3.2533223
3.3384841
0.019210716
3.3308965
0.017911551
3.3234468
0.017639214
3.3167188
0.016136271
3.310098
0.015941765
3.3043015
0.014194731
3.2985932
0.014093489
3.293846
0.012081105
0.012127634
3.2890893
3.3650767
0.02633406
3.3584403
0.024548023
3.3520936
0.023985876
3.3461335
0.022096413
3.3405176
0.02155768
3.335318
0.019394289
3.3305215
0.018889989
3.3262155
0.01638707
0.015990289
3.3223529
3.3930614
0.031573635
3.3882872
0.029322272
3.3838427
0.028430409
3.3797011
0.026237969
3.3758736
0.02538523
3.3723626
0.022905289
3.3691588
0.022093725
3.3662717
0.019274227
0.018596218
3.3636657
3.4339027
0.036610292
3.4292342
0.033990729
3.4248273
0.032837339
3.4207317
0.030333541
3.4168689
0.029248091
3.4133205
0.026453617
3.4099772
0.02543705
3.4069158
0.022335677
0.021495078
3.4040169
3.4611087
0.03927084
3.4587897
0.03630972
3.4568185
0.034808603
3.4549422
0.032209803
3.4533321
0.030858201
3.4515737
0.028212044
3.4500129
0.026997819
3.4479818
0.024366813
0.023381417
3.4460954
3.5038998
0.040849693
3.5021094
0.038100137
3.5007312
0.036186807
3.4989636
0.033977344
3.4974187
0.032403154
3.4950926
0.03053807
3.4927313
0.029359125
3.4891516
0.02794652
0.027130694
3.4854023
3.5110582
0.031387105
3.5195586
0.02959972
3.5289211
0.026824257
3.5368609
0.026037548
3.5449784
0.024285691
3.5508085
0.024707982
3.5556405
0.024527148
3.5565018
0.027085148
0.028868124
3.5547644
3.6933194
0.013389518
3.7081084
0.014810757
3.7188583
0.016074358
3.7258236
0.019072197
3.7271892
0.022920163
3.7224332
0.029463959
3.7111377
0.035822683
3.6925259
0.045696944
3.6696853
0.051708704
3.6534213
0.067980754
-0.051716756
3.6229123
0.065927168
-0.035418128
3.5864983
0.062584574
-0.02617058
3.5475281
0.061289597
-0.02231941
3.5069059
0.05829558
-0.017673421
3.4653501
0.057419136
-0.015863285
3.4235382
0.054841477
-0.013029574
3.38241
0.05470473
-0.01357658
0.052708291
3.3416249
-0.011923155
3.5612664
0.061478745
3.5643851
0.062808451
3.5634779
0.063491822
3.560516
0.064251465
3.5541325
0.064679036
3.5461254
0.065426256
3.5349632
0.066003676
3.5228616
0.066806314
0.067441201
3.5081287
3.4923892
0.054491876
3.4990028
0.056194892
3.5040511
0.058443453
3.5082507
0.060051891
3.5106902
0.062239602
3.5123612
0.063755209
3.5124475
0.065917385
3.511772
0.067481785
0.069738983
3.5094742
3.4560658
0.044521535
3.4662968
0.045963875
3.4755605
0.049179764
3.4850315
0.050580877
3.4934199
0.053851202
3.501901
0.05527414
3.5091712
0.058647182
3.5164818
0.060171142
0.06369812
3.5225227
3.4135953
0.034943196
3.423584
0.035975133
3.433415
0.039348775
3.4436368
0.040359023
3.4535575
0.043930507
3.463879
0.044952673
3.4737729
0.048753319
3.4841115
0.049832519
0.053902598
3.493907
3.3740981
0.024510813
3.3849626
0.025110596
3.3960596
0.028251815
3.4076136
0.028805062
3.4193044
0.032239698
3.4314993
0.032757706
3.4437393
0.036513398
3.4565589
0.037012874
0.041123643
3.4693379
3.3315636
0.015300094
3.3413521
0.015322121
3.3515547
0.018049164
3.3623876
0.01797222
3.3736105
0.021016802
3.385542
0.020826182
3.3978345
0.024220873
3.4109457
0.023901705
0.0276841
3.4243852
3.2979312
0.00645815
3.3070428
0.0062105577
3.3169312
0.0081607325
3.3270855
0.007817944
3.3383971
0.0097051375
3.3498736
0.0093497528
3.3625281
0.011566314
3.3754505
0.010979319
0.013352293
3.3897823
3.2597804
3.265991
3.2741517
3.2819697
3.2916748
3.3010245
3.3125909
3.3235702
3.3369225
3.3498522
-0.012929746
3.365435
-0.015582795
3.3802767
-0.014841712
3.3980904
-0.017813678
3.41542
-0.017329614
3.4360261
-0.02060611
3.4558463
-0.019820138
3.479332
-0.023485778
-0.022860848
3.5021929
3.4041188
-0.027266233
3.4200559
-0.031519848
3.4362096
-0.030995485
3.4541571
-0.035761127
3.4719872
-0.035159718
3.4919069
-0.040525826
3.5119202
-0.039833392
3.5343099
-0.045875547
-0.045120915
3.55657
3.4387521
-0.041633113
3.4533926
-0.046160384
3.469111
-0.046713851
3.4850644
-0.051714483
3.5022591
-0.052354422
3.5196668
-0.057933576
3.5385188
-0.058685414
3.5575822
-0.064938901
-0.065831033
3.5782923
3.4828014
-0.055096604
3.496132
-0.05949099
3.5102874
-0.060869321
3.5242432
-0.065670236
3.5391919
-0.067303121
3.5538885
-0.072630227
3.5697816
-0.074578518
3.5854247
-0.080581947
-0.082887147
3.6024808
3.5042397
-0.065429335
3.5139274
-0.0691787
3.5242922
-0.071234118
3.5339277
-0.075305683
3.5444146
-0.077789996
3.5541279
-0.082343591
3.5648774
-0.085327975
3.5748555
-0.090560047
-0.094097706
3.586066
3.5286677
-0.071574344
3.533512
-0.074022993
3.5385796
-0.076301756
3.5423241
-0.079050204
3.5464701
-0.081935992
3.5493291
-0.085202614
3.5528092
-0.088808054
3.5550623
-0.092813079
-0.097203606
3.5581682
3.506645
-0.068745131
3.502449
-0.06982696
3.4978023
-0.071655035
3.4920841
-0.073332055
3.485948
-0.075799857
3.478993
-0.078247581
3.4716556
-0.081470696
3.4637113
-0.084868826
-0.088943013
3.4554507
3.4927281
-0.053344461
3.4749528
-0.052051675
3.4566784
-0.053380675
3.4362606
-0.052914208
3.4154857
-0.055024938
3.3926848
-0.055446732
3.369613
-0.058398852
3.3445529
-0.059808721
-0.063753489
3.3193633
3.3017382
-0.013457802
3.2616422
-0.011955675
3.2224035
-0.014141974
3.1821749
-0.012685595
3.1428043
-0.015654321
3.1014707
-0.014113158
3.0612361
-0.018164277
3.0180505
-0.016623048
2.9762714
-0.021974413
0.066386956
2.9303607
-0.020476306
0.093544861
3.2922054
0.10221417
3.4467814
0.10021085
3.5601715
0.089739257
3.5965376
0.072918156
3.6193019
0.051997054
3.5992134
0.026963185
3.5816039
3.5291561
0.071618576
2.886323
-0.027580818
0.098487973
3.265336
0.10732894
3.4379405
0.10432472
3.5631757
0.092413822
3.6084485
0.073938741
3.637777
0.051137716
3.6220144
0.026234017
3.6065076
3.5553901
0.075793749
2.8367666
-0.026237353
0.10471573
3.236414
0.11377658
3.4288796
0.11152575
3.5654265
0.10028612
3.6196882
0.081975405
3.6560877
0.058911664
3.6450782
0.030874294
3.6345449
3.5862644
0.082706538
2.7900363
-0.035976263
0.1105553
3.2085653
0.11956519
3.4198697
0.11619717
3.5687945
0.10330421
3.6325811
0.083085834
3.6763061
0.057923022
3.670241
0.030202712
3.6622653
3.6164671
0.088776306
2.7368756
-0.035615623
0.11864356
3.178698
0.12767901
3.4108343
0.12469493
3.5717786
0.11236924
3.6449068
0.092224188
3.6964511
0.066758216
3.695707
0.035435844
3.6935876
3.6519029
0.097854902
2.6893168
-0.05029606
0.12544924
3.1511037
0.13404646
3.4022371
0.12976194
3.5760631
0.11565741
3.6590113
0.093344963
3.7187636
0.065567316
3.7234846
0.034716308
3.7244386
3.6866192
0.1057874
2.6360189
-0.052489517
0.1357126
3.1211785
0.14416099
3.3937887
0.13988944
3.5803347
0.1260708
3.67283
0.10367196
3.7411624
0.075510191
3.7516464
0.040526292
3.7594225
3.7271455
0.11751315
2.594785
-0.076279297
0.14347319
3.0952184
0.15093475
3.3863271
0.14515668
3.5861128
0.12944104
3.6885456
0.10468157
3.7659219
0.074006063
3.7823219
0.039705352
3.7937232
3.7668509
0.12984552
2.5426431
-0.077703544
0.15684997
3.068214
0.16392706
3.37925
0.15786422
3.5921756
0.14214863
3.7042612
0.11690323
3.7911673
0.085416796
3.8138083
0.046105105
3.8330349
3.812956
-0.0065827226
3.8195387
-0.0046681163
3.8311203
-0.00163863
3.8107788
0.0077583725
3.7817703
0.020411826
3.6916078
0.038871494
3.5737159
0.058551444
3.3595701
0.074884412
3.051881
2.5604804
0.057047049
-0.011736201
3.8312749
-0.014935311
3.8343194
-0.012517066
3.8083606
-0.0036155939
3.7728688
0.0081740796
3.6798181
0.025417518
3.5564725
0.04245289
3.3425347
0.059189012
3.0351449
2.5653946
0.054274861
-0.0096798471
3.8409548
-0.010433576
3.8350732
-0.0095071859
3.8074342
-0.0021784711
3.7655401
0.0081821059
3.6694575
0.02434793
3.5403067
0.04099031
3.3258923
0.054778317
3.0213569
2.5699706
0.050202349
-0.014573128
3.8555279
-0.020978343
3.8414784
-0.021335816
3.8077917
-0.014569293
3.7587736
-0.0046251783
3.6595134
0.010805907
3.5248756
0.026159643
3.3105386
0.0408898
3.0066267
2.57569
0.035170364
-0.012730628
3.8682585
-0.015943231
3.844691
-0.016943767
3.8087922
-0.011621522
3.7534513
-0.0030167696
3.6509086
0.011436736
3.5104221
0.026405697
3.2955696
0.037981049
2.9950514
2.5766949
0.036976182
-0.01764339
3.8859019
-0.026565108
3.8536127
-0.029282445
3.8115095
-0.024344423
3.7485133
-0.015866056
3.6424303
-0.0020651707
3.4966212
0.01206457
3.2814399
0.026135686
2.9809803
2.5747332
0.028097307
-0.015757612
3.9016595
-0.020730159
3.8585852
-0.023631659
3.814411
-0.019936809
3.7448185
-0.012816864
3.6353103
7.149256e-05
3.4837328
0.013930896
3.2675805
0.025426802
2.9694844
2.5682019
0.031958133
-0.020583072
3.9222426
-0.030906087
3.8689083
-0.036025348
3.8195303
-0.032743521
3.7415366
-0.025685905
3.6282527
-0.013324141
3.4713711
0.00042840476
3.2538279
0.015594868
2.9543179
2.5595915
0.024205227
-0.018522206
3.9407648
-0.024879892
3.8752659
-0.029206706
3.8238571
-0.026692086
3.739022
-0.020947599
3.6225082
-0.0094445701
3.459868
0.0040984786
3.2402849
0.016441422
2.941975
2.5471468
0.028886149
-0.0078978425
2.5328609
0.022183781
0.0084937796
2.9255833
0.022209625
3.2265691
0.033525208
3.4485525
0.039154184
3.6168793
0.041384115
3.7367921
0.034072631
3.8311686
0.022563758
3.8867748
3.9633286
-0.0099347381
2.515544
0.027251663
0.003201979
2.9124466
0.016434334
3.2133367
0.026870473
3.4381163
0.031304863
3.6124449
0.033349444
3.7347475
0.027770057
3.836748
0.020277239
3.8942676
3.9836058
-0.0025576932
2.4970604
0.021041207
0.014822759
2.8950662
0.028420686
3.1997388
0.038869042
3.427668
0.043422435
3.6078915
0.044599919
3.73357
0.035827974
3.8455199
0.023626256
3.9064694
4.0072321
-0.0056461078
2.4763941
0.026312406
0.0079307664
2.8814893
0.020727274
3.1869423
0.030214201
3.418181
0.03366511
3.6044406
0.035041092
3.732194
0.029013103
3.8515479
0.021104254
3.9143782
4.0283363
0.00050055016
2.4553748
0.02051882
0.018445337
2.8635445
0.03170175
3.1736858
0.04133174
3.4085511
0.044978112
3.6007942
0.045021497
3.7321506
0.035381061
3.8611884
0.023452377
3.9263069
4.0517887
-0.0036832872
2.4331392
0.025918887
0.0099031895
2.849958
0.022031305
3.1615577
0.030689762
3.3998926
0.033216244
3.5982677
0.0340626
3.7313043
0.028209523
3.8670414
0.020548523
3.9339679
4.0723372
0.0011689852
2.4114958
0.020474387
0.019046369
2.8320806
0.03171279
3.1488913
0.040540875
3.3910645
0.043149891
3.5956587
0.042309426
3.7321448
0.033132506
3.8762183
0.022162691
3.9449377
4.0944999
-0.0043103917
2.389994
0.025812201
0.0087036402
2.8190666
0.019878145
3.1377168
0.027604828
3.3833378
0.029710928
3.5935526
0.030118264
3.7317374
0.024652631
3.881684
0.017973952
3.9516164
4.1124739
-0.001133255
2.37055
0.020577234
0.016228158
2.8017052
0.028167448
3.1257775
0.035977981
3.3755273
0.037739279
3.5917913
0.036030441
3.7334463
0.028089992
3.8896244
0.0191159
3.9605905
4.1315898
0.00057839191
4.1310114
0.0065872677
3.9545816
0.012997004
3.8832147
0.019832244
3.726611
0.025532851
3.5860907
0.032267828
3.3687923
0.038278897
3.1197664
0.038518346
2.8014658
2.3663425
0.042725906
0.0014522525
4.1295591
0.0060584723
3.9499754
0.011049821
3.8782233
0.015903546
3.7217573
0.021075686
3.5809185
0.027431521
3.3624365
0.034025288
3.1131727
0.039358565
2.7961325
2.3688924
0.036808574
0.0085771089
4.120982
0.018391367
3.9401611
0.027129408
3.8694853
0.035612722
3.713274
0.042065243
3.574466
0.048479604
3.3560221
0.054901961
3.1067503
0.054222195
2.7968122
2.3772946
0.04582003
0.010427631
4.1105544
0.019480438
3.9311083
0.027854547
3.8611112
0.034894978
3.7062335
0.040893176
3.5684678
0.047062446
3.3498529
0.054830087
3.0989827
0.06022099
2.7914213
2.3956394
0.041876237
0.018485374
4.092069
0.033108441
3.9164852
0.045700802
3.8485188
0.056506147
3.6954282
0.064010648
3.5609633
0.070437765
3.3434257
0.0780829
3.0913375
0.080439902
2.7890643
2.4290474
0.047031872
0.021078711
4.0709903
0.035837033
3.9017269
0.048682481
3.8356734
0.058645034
3.6854656
0.065920956
3.5536874
0.071886136
3.3374606
0.081249701
3.081974
0.094333275
2.7759808
2.4837779
0.039602813
0.02946434
4.0415259
0.05023482
3.8809564
0.0679029
3.8180053
0.081912284
3.6714563
0.091042444
3.5445572
0.096879026
3.331624
0.10490446
3.0739485
0.11988571
2.7609995
2.5497944
0.05386915
0.033124772
4.0084012
0.054121159
3.8599601
0.072553136
3.7995733
0.086516551
3.6574928
0.095975183
3.5350986
0.10039254
3.3272066
0.10799682
3.0663443
0.14043995
2.7285564
2.6287388
0.061495548
0.042017057
3.9663841
0.068929661
3.8330475
0.092597783
3.7759052
0.11227619
3.6378144
0.12490739
3.5224674
0.12929819
3.3228158
0.13532689
3.0603156
0.17180062
2.6920826
2.6444622
0.15607725
-0.15445168
4.1208358
-0.31161406
3.9902098
-0.46882862
3.9331198
-0.61809345
3.7870793
-0.75053641
3.6549104
-0.86220453
3.4344839
-0.9242263
3.1223373
-0.94654162
2.714398
2.6362814
-0.93836081
-0.15049263
4.2713284
-0.3112364
4.1509536
-0.47125086
4.0931342
-0.62592121
3.9417496
-0.76359618
3.7925853
-0.87401939
3.5449071
-0.93194253
3.1802605
-0.92488837
2.7073438
2.422401
-0.71100795
-0.15027933
4.4216078
-0.30937931
4.3100536
-0.46910204
4.252857
-0.63094095
4.1035885
-0.77097043
3.9326148
-0.88738137
3.6613181
-0.93288273
3.2257618
-0.86411892
2.63858
1.7632238
-0.20494177
-0.1449263
4.566534
-0.30753442
4.4726617
-0.46936672
4.4146892
-0.6370871
4.2713089
-0.7836392
4.0791669
-0.89998127
3.7776602
-0.92357667
3.2493572
-0.8020314
2.5170347
1.0014384
-0.040246021
-0.14240385
4.7089379
-0.3058481
4.636106
-0.46649635
4.5753375
-0.64146689
4.4462795
-0.79022732
4.2279274
-0.9125973
3.9000301
-0.9123566
3.2491165
-0.69468463
2.2993628
0.31060239
-0.0038485966
-0.13446958
4.8434075
-0.30202081
4.8036572
-0.46526994
4.7385866
-0.64555386
4.6265634
-0.80173641
4.3841099
-0.92234288
4.0206366
-0.87165738
3.198431
-0.43792153
1.8656269
-0.2069137
0.079594564
-0.13014001
4.9735475
-0.29743815
4.9709553
-0.46060186
4.9017503
-0.64835564
4.8143171
-0.80718319
4.5429375
-0.91667972
4.1301331
-0.78379762
3.0655489
-0.29116855
1.3729978
-0.56935853
0.071276278
-0.12250675
5.0960542
-0.29107411
5.1395227
-0.45758062
5.0682568
-0.64985476
5.0065913
-0.81498908
4.7080718
-0.91181026
4.2269543
-0.70171971
2.8554584
-0.22815292
0.89943104
-0.85663964
0.059128202
-0.11780944
5.2138637
-0.28497493
5.3066882
-0.45095753
5.2342395
-0.65049344
5.2061272
-0.81811711
4.8756954
-0.8880301
4.2968673
-0.56274002
2.5301683
-0.11199727
0.4486883
-1.0422865
0.073649563
0.034962713
-1.1188708
0.041621628
0.28288563
0.20076538
0.53583851
2.2772154
0.50047757
4.3322282
0.39047929
4.9856937
0.25651402
5.3400925
0.15080942
5.3399441
0.048983461
5.4085142
5.2628471
0.019819483
-1.1828392
0.044148876
0.25257471
-0.031989846
0.5188572
2.0109329
0.49587915
4.3552063
0.38059088
5.100982
0.24414841
5.4765349
0.14179926
5.4422932
0.044143236
5.5061702
5.3069904
0.026857958
-1.2551485
0.045451351
0.24893258
-0.25406447
0.49715045
1.7627151
0.49178086
4.3605759
0.3764736
5.2162893
0.23770235
5.6153062
0.1323681
5.5476275
0.036398779
5.6021395
5.3433891
0.040845237
-1.3420687
0.046074992
0.26088688
-0.47410612
0.48436961
1.5392323
0.48383797
4.3611075
0.36493718
5.3351901
0.22475724
5.7554861
0.12309449
5.6492902
0.03175993
5.6934741
5.3751491
0.050394674
-1.4373545
0.044891094
0.26383786
-0.6875493
0.4681347
1.3349355
0.47859993
4.3506423
0.35902054
5.4547695
0.21719162
5.897315
0.1133392
5.7531426
0.024569802
5.7822435
5.3997189
0.053179077
-1.5365047
0.045971169
0.26252626
-0.89689648
0.45691384
1.1405479
0.46789182
4.3396643
0.34568883
5.5769724
0.20349931
6.0395046
0.10360459
5.8530373
0.020153094
5.865695
5.419872
0.05405337
-1.6272479
0.036689766
0.25103024
-1.0938733
0.43842896
0.95314918
0.46163191
4.3164614
0.3381862
5.7004181
0.19511332
6.1825774
0.093724697
5.954426
0.01357202
5.9458476
5.433444
0.051236877
-1.7210269
0.042542115
0.24252396
-1.2851604
0.42639083
0.76928231
0.44744709
4.2954051
0.32112712
5.8267381
0.18098318
6.3227214
0.083980566
6.0514286
0.010260345
6.0195679
5.4437043
0.052033075
-1.7766002
0.0035402404
0.2243919
-1.4575192
0.40123339
0.59244082
0.4398927
4.2567458
0.31519822
5.9514326
0.172673
6.4652466
0.074732281
6.1493693
0.0055098923
6.0887902
5.4492142
0.34808069
-2.0828111
-0.04186975
0.50011789
-1.6095564
0.46939143
0.62316727
0.25434958
4.4717876
-0.011619043
6.2174012
-0.14946781
6.6030954
-0.18263431
6.1825358
-0.15441585
6.0605718
5.2947984
0.37040876
-2.4560915
0.0028716573
0.48235071
-1.7214984
0.39688119
0.70863679
0.160975
4.7076938
-0.10076187
6.4791381
-0.2370177
6.7393512
-0.24645866
6.1919768
-0.18662585
6.000739
5.1081725
0.38268406
-2.7421808
-0.096594755
0.48779182
-1.8266061
0.36106049
0.83536812
0.037864645
5.0308897
-0.2121758
6.7291785
-0.28826329
6.8154387
-0.26587134
6.1695848
-0.18272417
5.9175918
4.9254484
0.3869249
-2.8885804
-0.24052537
0.4693717
-1.909053
0.2878878
1.016852
-0.04648342
5.3652609
-0.28292562
6.9656207
-0.34817188
6.8806849
-0.30635953
6.1277725
-0.19412862
5.8053609
4.7313197
0.38080604
-2.9178409
-0.35154547
0.45161616
-1.9798631
0.21663028
1.2518379
-0.18141181
5.763303
-0.37238602
7.1565949
-0.37445353
6.8827525
-0.30535251
6.0586714
-0.1727065
5.6727149
4.5586132
0.35541496
-2.8838001
-0.38945578
0.40686805
-2.0313162
0.14110395
1.517602
-0.25261215
6.1570191
-0.41533713
7.3193199
-0.40990312
6.8773185
-0.32649765
5.975266
-0.17549388
5.5217111
4.3831194
0.33301278
-2.8209232
-0.39588967
0.36201874
-2.0603221
0.038948169
1.8406726
-0.38231012
6.5782774
-0.48203393
7.4190437
-0.41429668
6.8095812
-0.30667286
5.8676422
-0.1413218
5.3563601
4.2417976
0.29838339
-2.7735054
-0.3458012
0.31175062
-2.0736894
-0.027971488
2.1803947
-0.42740004
6.9777059
-0.4925412
7.4841849
-0.42628321
6.7433232
-0.31508815
5.7564471
-0.13868711
5.179959
4.1031104
0.27720895
-0.22200707
-2.8287073
0.25878685
-2.0552673
-0.15436214
2.5935437
-0.57552503
7.3988688
-0.54987522
7.4585351
-0.41957883
6.6130268
-0.28364574
5.620514
-0.096228485
4.9925418
4.006882
-0.35122811
0.28463311
0.066288725
0.00030627828
-0.72657177
0.37520252
0.00014113099
-1.1137657
0.38749888
-0.00030498058
-1.14263
0.029367679
-0.00050333016
-0.7948166
-0.34771329
-0.00010012755
-0.5063478
-0.28912521
0.00065640413
-0.29179974
-0.21484694
0.00029886887
0.09119333
-0.38294811
-4.4957002e-05
-0.43255925
-0.00010094746
-0.34901961
0.56532363
0.068329098
-0.7114988
0.73768171
-1.0782563
0.75425639
-1.0789702
0.03008154
-0.7104793
-0.71620416
-0.362465
-0.63713951
-0.058699145
-0.51861279
0.33350637
-0.77515363
-0.85413285
-0.34118698
0.83550105
0.071009551
-0.6842925
1.0807872
-1.030966
1.1009299
-0.99194048
-0.0089439818
-0.58210117
-1.1260435
-0.19436028
-1.0248804
0.18862861
-0.90160168
0.6305294
-1.2170544
-1.2888037
-0.32930246
1.0950185
0.069784997
-0.66100786
1.4124926
-0.97913317
1.4190552
-0.88747029
-0.10060686
-0.41860341
-1.5949103
-0.0022150307
-1.4412688
0.44164396
-1.3454607
0.91862824
-1.6940387
-1.6863018
-0.32249946
1.3479794
0.069538548
-0.63692963
1.7269228
-0.88666881
1.6687944
-0.7356253
-0.25165037
-0.25269237
-2.0778433
0.21454286
-1.908504
0.69166882
-1.8225866
1.1532288
-2.1555986
-2.0248315
-0.31148375
1.5875512
0.07191194
-0.5972146
2.0126536
-0.74114271
1.8127225
-0.51171129
-0.48108179
-0.056216747
-2.5333378
0.44085255
-2.4055733
0.92028401
-2.3020181
1.3506138
-2.5859284
-2.3298806
-0.2978285
1.8081127
0.077267051
-0.53996784
2.254793
-0.57905653
1.8518112
-0.27234133
-0.787797
0.15511291
-2.9607921
0.65745136
-2.9079118
1.1342412
-2.7788079
1.5234789
-2.9751661
-2.592821
-0.27988527
2.0049248
0.083073182
-0.4909513
2.465859
-0.44961605
1.8104759
-0.052718219
-1.1846948
0.37154099
-3.3850513
0.87071611
-3.4070869
1.3167469
-3.2248387
1.6597257
-3.3181449
-2.8272815
-0.26462716
0.089288898
2.180263
-0.43463899
2.6358708
-0.3202833
1.6961203
0.13714174
-1.6421199
0.57630651
-3.824216
1.0589599
-3.8897402
1.476912
-3.6427908
1.7786185
-3.6198514
-3.0349134
0.27724678
2.7738496
-0.22205516
-2.8290413
0.25876922
2.0733317
-2.0548541
-0.15440347
-2.1809685
2.5941412
-0.57549304
-6.9775697
7.3986593
-0.549822
-7.4839562
7.4582851
-0.41953735
-6.7431542
6.6128695
-0.28363024
-5.7564354
5.6205283
-0.096223286
-5.1799872
4.9925803
-4.1031937
4.0069704
0.29842128
2.8212448
-0.34581643
0.31173865
2.0600143
-0.02800957
-1.8412203
-0.42738392
-6.5781953
-0.4924954
-7.4188447
-0.42623569
-6.8094139
-0.31506489
-5.8676062
-0.13867838
-5.3563738
-4.2418721
0.33304347
2.884112
-0.39591071
0.36199924
2.0310586
0.038902639
-1.5181237
-0.3823028
-6.1569899
-0.4819974
-7.3191501
-0.41425657
-6.8771547
-0.30664999
-5.9752128
-0.14131258
-5.5217112
-4.3831847
0.35544231
2.9181481
-0.38947834
0.40684946
1.9796514
0.1410524
-1.2523266
-0.25261404
-5.7633235
-0.41530654
-7.1564576
-0.40986076
-6.8826005
-0.32647015
-6.0586034
-0.17548151
-5.6726998
-4.5586662
0.38083561
2.888883
-0.35157058
0.4515988
1.9088882
0.21657469
-1.0173025
-0.18142402
-5.3653248
-0.37236614
-6.9655155
-0.37442083
-6.8805458
-0.30532656
-6.1276977
-0.17269272
-5.8053336
-4.7313589
0.38696019
2.7424784
-0.24055554
0.46936543
1.826483
0.28783628
-0.83577334
-0.046502226
-5.0309863
-0.28291218
-6.7291055
-0.34814021
-6.8153178
-0.30633306
-6.1695048
-0.1941142
-5.9175525
-4.9254731
0.38272397
2.4563582
-0.096603827
0.48778771
1.7214192
0.36100853
-0.70899416
0.037838815
-4.7078165
-0.21217449
-6.4790922
-0.28824437
-6.7392479
-0.26584933
-6.1918999
-0.18270983
-6.000692
-5.1081829
0.37045529
2.0830352
0.0028677416
0.48235522
1.6095193
0.39683929
-0.62347823
0.16094697
-4.4719242
-0.1007653
-6.2173799
-0.23700111
-6.6030121
-0.24643979
-6.1824612
-0.18661172
-6.0605201
-5.2947946
0.34812734
1.776794
-0.041886092
0.50013451
1.4575121
0.46935967
-0.59270339
0.25431676
-4.2568813
-0.011631352
-5.9514318
-0.14946232
-6.4651811
-0.18262008
-6.1493034
-0.15440384
-6.0887363
-5.4491985
-0.048983932
5.262812
-5.213828
-0.15080728
5.4084741
-5.3066508
-0.25650891
5.3399094
-5.2342078
-0.3904707
5.3400703
-5.2061085
-0.50046772
4.9857078
-4.8757108
-0.53583718
4.332285
-4.2969155
-0.28289386
2.2773477
-2.530291
-0.034971712
0.20076807
-0.44869022
-1.1189612
1.0423693
0.041620177
-0.044143921
5.3069559
-0.14179749
5.5061277
-0.24414317
5.4422551
-0.38058171
5.4765088
-0.4958693
5.1009954
-0.5188556
4.3552713
-0.25258366
2.0110758
-0.019829734
-0.031985854
-1.1829349
0.044143969
-0.036400065
5.343356
-0.13236682
5.6020945
-0.23769786
5.5475862
-0.37646472
5.6152757
-0.49177096
5.2163016
-0.49714874
4.360649
-0.24894338
1.7628704
-0.026870741
-0.25405849
-1.2552516
0.045445937
-0.03176158
5.3751175
-0.12309392
5.6934268
-0.2247528
5.649245
-0.36492801
5.7554509
-0.48382767
5.3352013
-0.48436783
4.3611892
-0.26090054
1.5394031
-0.040860593
-0.47409844
-1.3421803
0.046068136
-0.024572253
5.3996898
-0.11333945
5.782194
-0.21718808
5.7530937
-0.35901181
5.8972746
-0.47858952
5.454779
-0.46813343
4.3507331
-0.26385352
1.3351232
-0.05041198
-0.68753998
-1.4374762
0.044883877
-0.020155817
5.4198456
-0.10360565
5.8656438
-0.20349599
5.852984
-0.34567993
6.0394586
-0.4678812
5.5769803
-0.45691316
4.3397651
-0.26254382
1.1407539
-0.053197413
-0.89688638
-1.5366414
0.045967834
-0.013575356
5.433421
-0.093726526
5.945795
-0.19511112
5.9543686
-0.33817793
6.1825254
-0.46162134
5.7004237
-0.43842906
4.3165728
-0.25104881
0.95337361
-0.054073708
-1.0938615
-1.6274009
0.0366858
-0.010263838
5.4436848
-0.0839832
6.0195144
-0.18098127
6.0513667
-0.32111884
6.322663
-0.44743604
5.8267409
-0.42639107
4.2955278
-0.24254305
0.76952559
-0.051254801
-1.2851497
-1.721198
0.042542264
-0.0055136617
-0.074735643
-0.17267239
-0.31519054
-0.43988149
-0.40123498
-0.22441278
-0.052050392
0.003545571
0.11200889
0.85671806
0.073642365
0.56275389
-0.89943522
0.88803084
-2.855568
0.81810858
-4.2269932
0.65048363
-4.7080858
0.45095054
-5.0065754
0.2849714
-5.0682287
0.11780892
-5.1394883
-5.0960191
0.22816388
0.56942143
0.059132744
0.70173503
-1.3730064
0.9118078
-3.0656408
0.81498034
-4.1301658
0.64984536
-4.5429509
0.45757401
-4.8143041
0.29107055
-4.9017252
0.12250626
-4.970924
-4.9735129
0.29117258
0.20694638
0.071302475
0.78380654
-1.8656403
0.91667652
-3.1985107
0.80717581
-4.0206651
0.6483465
-4.3841216
0.46059491
-4.6265525
0.29743395
-4.7385643
0.1301388
-4.8036288
-4.8433741
0.43792461
-0.31058739
0.079609164
0.87166538
-2.2993811
0.92233946
-3.2491848
0.80172954
-3.9000551
0.64554567
-4.2279377
0.46526353
-4.4462703
0.30201642
-4.5753172
0.13446816
-4.6360806
-4.7089059
0.69469201
-1.0014319
-0.0038474865
0.91236382
-2.5170529
0.91259332
-3.2494143
0.79022073
-3.7776825
0.64145887
-4.0791758
0.46648982
-4.2713013
0.30584359
-4.4146709
0.14240154
-4.4726385
-4.5665044
0.80203647
-1.7632186
-0.040249751
0.92358219
-2.6385986
0.89997779
-3.2258099
0.7836333
-3.6613381
0.63707989
-3.9326224
0.46936087
-4.1035823
0.30753054
-4.2528406
0.14492456
-4.3100325
-4.4215798
0.86412376
-2.422403
-0.20493935
0.93288747
-2.7073623
0.88737901
-3.1803015
0.77096527
-3.5449243
0.63093407
-3.7925912
0.46909602
-3.9417442
0.3093752
-4.0931198
0.15027706
-4.1509344
-4.2713027
0.92489249
-2.6362895
-0.71100598
0.93194644
-2.7144163
0.8740167
-3.1223717
0.76359091
-3.4344985
0.62591472
-3.654915
0.4712453
-3.7870748
0.31123256
-3.933107
0.15049061
-3.9901925
-4.1208121
0.94654552
-2.6444745
-0.93836054
0.92422955
-2.6921003
0.86220102
-3.0603432
0.75053196
-3.3228295
0.61808752
-3.5224706
0.46882298
-3.6378103
0.31161014
-3.7758942
0.15444895
-3.8330313
-3.9663632
0.00057964468
4.1310013
-4.131581
0.0065895556
3.9545758
-3.9605857
0.012999663
3.8832121
-3.8896222
0.019835024
3.7266132
-3.7334485
0.025535427
3.5860963
-3.5917967
0.032269557
3.3688017
-3.3755358
0.038279321
3.1197748
-3.1257846
0.038518369
2.8014705
-2.8017096
2.3663418
-2.3705494
0.042726055
0.0014535623
4.1295478
0.0060609974
3.9499684
0.011053292
3.8782198
0.015907235
3.7217592
0.021078803
3.5809247
0.027433506
3.362447
0.034025842
3.1131825
0.039358486
2.7961379
2.3688921
0.036808166
0.0085786631
4.1209691
0.018393773
3.9401533
0.027132391
3.8694811
0.035616173
3.7132754
0.042068672
3.5744722
0.048482058
3.3560336