/*--------------------------------*- C++ -*----------------------------------*\
  =========                 |
  \\      /  F ield         | OpenFOAM: The Open Source CFD Toolbox
   \\    /   O peration     | Website:  https://openfoam.org
    \\  /    A nd           | Version:  11
     \\/     M anipulation  |
\*---------------------------------------------------------------------------*/
FoamFile
{
    format      ascii;
    class       volVectorField;
    location    "0.102";
    object      U;
}
// * * * * * * * * * * * * * * * * * * * * * * * * * * * * * * * * * * * * * //

dimensions      [0 1 -1 0 0 0 0];

internalField   nonuniform List<vector> 
880
(
(25 -7.768126373978579e-16 0)
(25 -3.873745925100329e-17 0)
(25 -2.19660122840571e-12 0)
(24.99999871629484 -7.320660481772701e-06 0)
(25 1.210301178234613e-15 0)
(25 -2.505977462373462e-15 0)
(25.00000000006564 -3.331775670112873e-11 0)
(24.99992915203561 -0.0001923972699704407 0)
(25 0 0)
(25.00000000000001 2.468588435972265e-15 0)
(25.0000000006175 -6.963771564019555e-10 0)
(24.99995192923435 -0.0003965895531483601 0)
(25 0 0)
(25 -1.467401921926019e-15 0)
(25.00000002518052 -1.588892538372264e-08 0)
(24.99907871203884 -0.00416737286026489 0)
(25 -5.455355367063061e-16 0)
(25 -1.09329920387371e-15 0)
(25.00000000000001 -1.67785068805783e-12 0)
(24.99999999999487 6.598412036377346e-10 0)
(25 -5.163649670293155e-15 0)
(25 8.290644735456454e-15 0)
(25.00000000000003 6.500622359643683e-14 0)
(25 -6.642837272538282e-13 0)
(25.0000016170218 -1.283137480258191e-06 0)
(24.99999210169376 6.838105928447641e-06 0)
(25.00094573477234 0.003770084142361998 0)
(24.9998101647673 -0.008815395315524568 0)
(24.89315467469179 0.05462083082070433 0)
(24.61718803736322 0.3166128616099077 0)
(24.46677359497468 0.6471856341759327 0)
(24.43583265284846 0.869411435303604 0)
(24.99999966976178 -5.743172475361545e-07 0)
(24.99999888135058 -1.144380879140973e-06 0)
(24.99999674723641 -3.215155331948891e-06 0)
(24.99999819807977 -1.152277090954522e-06 0)
(24.99998731878265 9.0726152137196e-06 0)
(24.999980354615 3.704053404405821e-05 0)
(24.99998922173105 8.083700691800344e-05 0)
(24.99998604125052 4.489357256560095e-05 0)
(24.9921156101488 0.007140205698185961 0)
(24.99182661132055 0.01542058012636951 0)
(24.9936196140219 0.02443875931124385 0)
(24.99186492971166 0.02176238875891269 0)
(24.4415131527788 1.064239179762712 0)
(24.41672540907295 1.316892974478332 0)
(24.54429340350261 1.449562579340544 0)
(24.40101381947374 1.668956448935894 0)
(24.76000779853616 1.774476408766034 0)
(25.13805180189113 1.613322577706659 0)
(25.42449157203343 1.199026381617861 0)
(25.49717790561267 0.7364627413228331 0)
(24.98800987181616 0.04002596257668999 0)
(24.96275383198131 0.07443616919232378 0)
(24.99483817031972 0.1051680449471649 0)
(25.01545031777745 0.09486223653772879 0)
(24.99995505370282 0.0001541810028949738 0)
(24.99982859460718 0.0003851451625825077 0)
(24.99980237132822 0.0007886718252054996 0)
(24.99998554486362 0.000809167271717877 0)
(24.99999465878993 -4.804495219687636e-06 0)
(24.99998782019396 -1.102291724356812e-05 0)
(24.9999758443163 -1.934199709469332e-05 0)
(24.99997439191345 -1.860976375306968e-05 0)
(24.99998090638709 -1.162736576091391e-05 0)
(24.9999924508423 -3.731838998500674e-06 0)
(24.999998682865 -5.810651914732803e-07 0)
(24.99999991551156 -3.42255267736566e-08 0)
(25.0001144055701 0.0005938323330124507 0)
(25.0001038527359 0.000226367401165672 0)
(25.00002668921402 3.807978186143412e-05 0)
(25.00000213046449 2.583007080170967e-06 0)
(25.02506712658776 0.06608094463142357 0)
(25.01707493978642 0.0302593248297443 0)
(25.00625487265936 0.007555010779570975 0)
(25.00097075198054 0.0009522948839342496 0)
(25.42321663385772 0.4354215659830742 0)
(25.29854007628506 0.2528798601878934 0)
(25.16215794143536 0.1193052526984584 0)
(25.05503458203416 0.03538825935367656 0)
(25.00830726920631 0.004760357437229019 0)
(25.00004977486576 4.502103394856844e-05 0)
(25.00000005011455 6.07545336662956e-08 0)
(24.99999999845051 -5.60397601933136e-10 0)
(25.00046368897958 0.0006470559839737484 0)
(25.00000367138623 6.823936885343272e-06 0)
(25.0000000027081 3.277877590975152e-09 0)
(25.00000000006018 -2.470579325721777e-10 0)
(25.00029270677823 -0.0007670718093375015 0)
(25.00000491942566 -3.415540321548527e-05 0)
(24.99999978124699 6.053541279740319e-09 0)
(24.99999995747765 6.241478322755095e-09 0)
(24.8222414455065 0.1908251503825258 0)
(24.99977761703383 0.0009915416961864929 0)
(25.00003707931067 -2.79629202929826e-05 0)
(25.00000231826184 -3.044342662439787e-06 0)
(24.99999990705295 -3.878466817469428e-06 0)
(25.00000820385931 -4.192719131793176e-05 0)
(24.99377379766367 0.001675401166055102 0)
(23.11504126105092 0.7317402689057834 0)
(24.99999936028472 -1.069857140881828e-06 0)
(24.99991603553099 1.046038071564252e-05 0)
(24.963060915189 0.01865827890907803 0)
(21.80700459340217 1.893445958618591 0)
(24.99999462467724 -7.707648053518908e-06 0)
(24.99978705701949 0.0001963891311856759 0)
(24.92599507961151 0.06031207962931702 0)
(21.07671927178949 3.263087393401862 0)
(24.99997902066587 -1.915436594029802e-05 0)
(24.999782215206 0.0005286380756869656 0)
(24.90767857644223 0.1147212723615603 0)
(20.93031516179537 4.439880100218009 0)
(20.87627391060278 5.424465712144631 0)
(24.88090337859244 0.1760103213157825 0)
(24.99960608619545 0.0007567977933908535 0)
(24.99997492957796 -2.811054496311412e-05 0)
(21.05676312963427 5.889557479669476 0)
(24.87908073765331 0.2308827387591506 0)
(24.99967894162102 0.001301445595594062 0)
(24.99994979383806 -4.472463371879139e-05 0)
(20.91138124484132 6.336350606752296 0)
(24.83599165517116 0.2742578070188579 0)
(24.99935172318224 0.00135261517487358 0)
(24.99995094656883 -5.157421050556008e-05 0)
(20.82167892405389 6.587867827817541 0)
(24.80794332912166 0.3539144002461735 0)
(24.99932735924311 0.002433926390466053 0)
(24.99990330404555 -8.68890325318796e-05 0)
(24.9998965313005 -0.0001010798523612319 0)
(24.99909346176716 0.002514553401968892 0)
(24.75487889820389 0.4166648164736375 0)
(20.33729064395212 7.121609719829714 0)
(24.99985681471185 -0.0001438307749733406 0)
(24.99846026130363 0.003833231069544382 0)
(24.69047577346549 0.5533326841387491 0)
(20.53048922695339 7.455325041407937 0)
(24.99980124282751 -0.000257407143154835 0)
(24.99850831542278 0.00541191704201221 0)
(24.71654263288732 0.6002061825202811 0)
(21.21999630484682 7.040584206848814 0)
(24.99991921621658 2.930410660338167e-05 0)
(24.99709138028079 0.002408536024593233 0)
(24.75326047511622 0.4108598019677844 0)
(22.94257976842527 5.663577219339341 0)
(24.99950028505161 -0.0002745524838862809 0)
(25.00296401889334 0.01442662510901302 0)
(25.14281366726465 0.5372411088182575 0)
(25.88629537347277 3.467839120316317 0)
(24.99913338722304 -2.202338831950128e-05 0)
(25.01807497179897 0.01039690438904667 0)
(25.28037539489785 0.1707795637853858 0)
(27.17522551076943 0.8407665763072786 0)
(24.99998658625542 -7.022019093766549e-05 0)
(25.00712234004411 -0.00164732908772867 0)
(25.134731810578 -0.1410847389847736 0)
(25.53027076689236 -1.818163527562485 0)
(24.99994470428644 -0.0001250167618978112 0)
(24.99441375786127 -0.009437072237668322 0)
(24.76354414025914 -0.3323728997465372 0)
(22.33632849335036 -2.898091547113223 0)
(20.27223409811364 -2.789697890167417 0)
(24.6131700272655 -0.3351751559067077 0)
(24.99294614795497 -0.009028861975683481 0)
(24.99997793390184 -4.190751430054814e-05 0)
(19.30929183185192 -2.19959833728576 0)
(24.50510060012708 -0.2988988645797691 0)
(24.99128290533406 -0.007090740013162762 0)
(24.99997274566754 -3.303339000289481e-05 0)
(19.12522810427842 -1.019149077259501 0)
(24.54207135873885 -0.2050507975251609 0)
(24.9952252785136 -0.004063065693915819 0)
(24.99999270286879 -1.374822456115e-05 0)
(18.40545292269049 -0.2503889839548391 0)
(24.488108884646 -0.1725385904905207 0)
(24.99465307667591 -0.003948026107098285 0)
(24.99999002013627 -1.405160517393953e-05 0)
(20.10582899115337 0.4825790348929405 0)
(24.7145413491889 -0.07480190346556942 0)
(24.99792796959273 -0.001268196302519166 0)
(24.99999607818261 -4.367371742239762e-06 0)
(22.03064254904838 0.7484760538803468 0)
(24.88394351563948 -0.03528316404942658 0)
(24.99948793145809 -0.000340326423614772 0)
(24.9999991517106 -9.376972234602329e-07 0)
(23.43564462801333 0.5486139680854998 0)
(24.95953944760032 -0.01782998537253324 0)
(24.99988400575499 -0.0001086140694757425 0)
(24.99999985970343 -2.64404672476678e-07 0)
(24.43211707055424 0.167974014461213 0)
(24.99646464077615 -0.01568289767157304 0)
(25.00002037227456 -7.924947467223508e-05 0)
(24.99999998372016 -2.066867647530348e-07 0)
(23.78961530079758 -0.0576656640448215 0)
(24.93851436050063 -0.001293828201477399 0)
(24.99901533594147 -7.748760746894119e-06 0)
(24.99999405874035 -1.753120297911633e-08 0)
(23.8286762436866 -0.2036138116157335 0)
(24.93983664018093 -0.003642130002141676 0)
(24.99902491885113 -1.963178176269296e-05 0)
(24.99999408337787 -4.086325834879641e-08 0)
(23.79945208073791 -0.4515746642628615 0)
(24.93884247711733 -0.007997585124050858 0)
(24.99902138626801 -4.175942451010105e-05 0)
(24.9999940783495 -9.024120134420001e-08 0)
(23.80136307269622 -0.521494300450394 0)
(24.94042645651273 -0.0124886871649708 0)
(24.99903811502504 -9.025653414738336e-05 0)
(24.9999942596962 -2.969670772812272e-07 0)
(24.43211707064899 -0.1679740145047869 0)
(24.99646464083538 0.01568289769481777 0)
(25.00002037237077 7.924952060042318e-05 0)
(24.99999998359409 2.068239731175765e-07 0)
(23.43564462807235 -0.5486139679911913 0)
(24.95953944768062 0.0178299853672509 0)
(24.99988400595069 0.0001086141205912658 0)
(24.99999985968149 2.643722785432456e-07 0)
(22.0306425490156 -0.7484760537102128 0)
(24.88394351558772 0.03528316418401759 0)
(24.99948793144453 0.0003403265286147134 0)
(24.99999915170014 9.376889602866081e-07 0)
(20.10582899104458 -0.48257903499362 0)
(24.7145413490159 0.0748019034136153 0)
(24.99792796956164 0.001268196265684378 0)
(24.99999607823344 4.367361001407478e-06 0)
(24.99997793369034 4.190736295404475e-05 0)
(24.99294614763867 0.009028862090385559 0)
(24.61317002723652 0.3351751558208081 0)
(20.27223409809449 2.789697890088381 0)
(24.99997274551233 3.303353289037177e-05 0)
(24.99128290523803 0.007090740090250212 0)
(24.5051006000743 0.2988988645392068 0)
(19.30929183180247 2.199598337159292 0)
(24.99999270298477 1.374825054309468e-05 0)
(24.99522527840226 0.004063065629822373 0)
(24.54207135868804 0.2050507975370007 0)
(19.12522810415364 1.019149077178668 0)
(24.9999900201365 1.405156734192332e-05 0)
(24.9946530766214 0.003948026136698709 0)
(24.48810888448296 0.1725385903727636 0)
(18.40545292270287 0.250388984096079 0)
(22.33632849344715 2.898091547167812 0)
(24.76354414038397 0.3323728997454237 0)
(24.99441375815865 0.009437071874044998 0)
(24.999944704468 0.0001250167371277516 0)
(25.53027076701245 1.81816352771468 0)
(25.13473181070231 0.1410847389929402 0)
(25.00712234022194 0.001647329200293561 0)
(24.99998658644066 7.022000972712294e-05 0)
(27.17522551077362 -0.8407665763307801 0)
(25.28037539504065 -0.170779563733717 0)
(25.01807497180389 -0.01039690438424557 0)
(24.99913338739584 2.202379306021226e-05 0)
(25.88629537344866 -3.467839120322853 0)
(25.14281366732743 -0.537241108846097 0)
(25.00296401896123 -0.01442662497977182 0)
(24.99950028475997 0.000274552421303974 0)
(24.99989653138041 0.0001010798462593605 0)
(24.99909346164937 -0.002514553467379221 0)
(24.75487889818191 -0.4166648164236054 0)
(20.33729064384754 -7.121609719771998 0)
(24.99985681470206 0.0001438307457471756 0)
(24.99846026116646 -0.003833231114219382 0)
(24.69047577339439 -0.5533326841113351 0)
(20.53048922694566 -7.455325041383248 0)
(24.9998012426592 0.0002574071081679379 0)
(24.9985083154104 -0.005411916986825108 0)
(24.716542632985 -0.6002061824686411 0)
(21.21999630485069 -7.040584206841746 0)
(24.9999192160292 -2.930411370061822e-05 0)
(24.99709138028281 -0.002408535953317934 0)
(24.75326047518307 -0.410859801922118 0)
(22.94257976843883 -5.663577219345358 0)
(20.82167892387873 -6.587867827819483 0)
(24.80794332913565 -0.35391440015668 0)
(24.99932735899008 -0.002433926471152812 0)
(24.99990330404307 8.688907118251179e-05 0)
(20.91138124464221 -6.33635060671422 0)
(24.83599165478855 -0.2742578070935007 0)
(24.999351723112 -0.00135261521803373 0)
(24.99995094652109 5.15742083693977e-05 0)
(21.05676312955864 -5.889557479711288 0)
(24.87908073761707 -0.2308827387766839 0)
(24.99967894146446 -0.001301445620858149 0)
(24.99994979390398 4.472462903387252e-05 0)
(20.87627391055509 -5.424465712230631 0)
(24.88090337889114 -0.1760103212666792 0)
(24.99960608632763 -0.0007567977985080996 0)
(24.99997492961628 2.811054446270957e-05 0)
(24.99999990694137 3.878476868220363e-06 0)
(25.00000820374429 4.192719388016651e-05 0)
(24.99377379774523 -0.001675401142651776 0)
(23.11504126111936 -0.73174026891094 0)
(24.99999936037494 1.069852250838843e-06 0)
(24.99991603567985 -1.04603811353851e-05 0)
(24.96306091498827 -0.01865827900589058 0)
(21.80700459360752 -1.893445958598145 0)
(24.99999462477611 7.707646091558313e-06 0)
(24.99978705705601 -0.0001963890919919304 0)
(24.92599507959153 -0.06031207946059578 0)
(21.07671927151063 -3.263087393553397 0)
(24.9999790207811 1.915436679975718e-05 0)
(24.99978221503623 -0.0005286381400217517 0)
(24.90767857643001 -0.1147212725336096 0)
(20.93031516195867 -4.439880099993416 0)
(25.00000231826287 3.044340832377891e-06 0)
(24.99999995741775 -6.235649545475722e-09 0)
(25.00000000004851 2.41103435320432e-10 0)
(24.99999999846634 5.689875084321362e-10 0)
(25.00003707943602 2.796292555837269e-05 0)
(24.99999978125087 -6.060243506172134e-09 0)
(25.00000000257494 -3.269730162747335e-09 0)
(25.00000005017004 -6.073695069123838e-08 0)
(24.99977761699392 -0.0009915417080084248 0)
(25.00000491939624 3.415542335491571e-05 0)
(25.00000367148158 -6.823927289093563e-06 0)
(25.00004977491974 -4.502107108827666e-05 0)
(24.82224144550694 -0.1908251503724466 0)
(25.00029270681006 0.0007670718738487741 0)
(25.00046368893763 -0.0006470560136838155 0)
(25.00830726920853 -0.004760357445201531 0)
(24.99999991557868 3.422413036013862e-08 0)
(25.00000213047365 -2.58303249141382e-06 0)
(25.0009707518903 -0.0009522949665847233 0)
(25.05503458198386 -0.03538825931483493 0)
(24.9999986829273 5.810558544217075e-07 0)
(25.00002668925363 -3.807976807187882e-05 0)
(25.00625487238205 -0.007555010750889659 0)
(25.16215794144027 -0.1193052526279183 0)
(24.99999245074482 3.731829438852468e-06 0)
(25.00010385274736 -0.0002263674044746432 0)
(25.01707493992018 -0.03025932476380181 0)
(25.29854007629119 -0.2528798602030321 0)
(24.99998090635077 1.162740366633424e-05 0)
(25.00011440558806 -0.0005938323977315319 0)
(25.02506712646176 -0.06608094466051231 0)
(25.42321663393631 -0.4354215659059731 0)
(24.99999465896487 4.804438882545323e-06 0)
(24.99995505382836 -0.0001541810450384147 0)
(24.98800987172273 -0.04002596279458544 0)
(24.76000779852986 -1.774476408812712 0)
(24.99998782035208 1.102290100681938e-05 0)
(24.99982859462455 -0.0003851450892739893 0)
(24.96275383202733 -0.07443616920926956 0)
(25.13805180197148 -1.613322577753414 0)
(24.99997584437592 1.934201610729551e-05 0)
(24.99980237116329 -0.0007886717843394257 0)
(24.99483817038318 -0.1051680449370491 0)
(25.42449157209602 -1.199026381604054 0)
(24.99997439196546 1.860978301518277e-05 0)
(24.99998554472498 -0.000809167325705936 0)
(25.01545031781978 -0.09486223648081903 0)
(25.49717790567513 -0.7364627413797328 0)
(24.40101381945308 -1.668956448856806 0)
(24.99186492936621 -0.02176238878553596 0)
(24.99998604135365 -4.48936078058981e-05 0)
(24.99999819815726 1.152221067634684e-06 0)
(24.54429340347739 -1.449562579412899 0)
(24.99361961365197 -0.02443875917151685 0)
(24.99998922177584 -8.083702408424884e-05 0)
(24.99999674717893 3.21524510590522e-06 0)
(24.41672540893985 -1.316892974438808 0)
(24.99182661143601 -0.01542057971521683 0)
(24.99998035458527 -3.704058042958169e-05 0)
(24.99999888140899 1.144338745723078e-06 0)
(24.44151315280431 -1.064239179800249 0)
(24.99211561101379 -0.007140205662473218 0)
(24.99998731880458 -9.072556362674593e-06 0)
(24.99999966971659 5.743157513736592e-07 0)
(24.43583265280095 -0.8694114353178678 0)
(24.99981016437738 0.008815394710826178 0)
(25 7.544811135180558e-13 0)
(24.99999999997571 -6.553345564194444e-10 0)
(24.46677359498397 -0.6471856341964742 0)
(25.00094573501859 -0.003770083733354511 0)
(25 -5.220866431204653e-14 0)
(25.00000000000001 1.713587687183691e-12 0)
(24.61718803727607 -0.3166128615920231 0)
(24.99999210174215 -6.838102754755256e-06 0)
(25 -7.668284502927653e-16 0)
(25.00000000000001 1.241636585641267e-15 0)
(24.89315467461243 -0.05462083083273355 0)
(25.00000161704404 1.283134942980906e-06 0)
(25 -1.986043000611352e-15 0)
(25.00000000000002 -6.880532682456975e-15 0)
(25 1.420908939734042e-15 0)
(25 2.15896581034495e-15 0)
(25 1.906303122253909e-12 0)
(24.99999871723937 7.321444024327839e-06 0)
(24.99999999999999 -2.843418720158383e-19 0)
(25 3.152162973743476e-15 0)
(25.00000000006942 3.451843233043072e-11 0)
(24.99992915267591 0.0001923963866130757 0)
(25 -1.366459512028481e-15 0)
(25 -2.71099362066115e-15 0)
(25.00000000060781 6.940171052248022e-10 0)
(24.99995192916679 0.0003965893001782197 0)
(25 -2.29202772386687e-15 0)
(25 -1.056380702995984e-15 0)
(25.0000000252489 1.587242527047879e-08 0)
(24.9990787121465 0.0041673730345318 0)
(24.99999273796636 4.24118444995308e-10 0)
(24.99994125518025 0.0001582350348320208 0)
(24.99957852674845 0.0003865722865283386 0)
(24.9849028955898 0.001160518086741614 0)
(24.99994125370219 -0.0001582390009534382 0)
(24.99996340351548 -3.199339891618866e-09 0)
(24.99964124990628 -0.001625154367120684 0)
(24.89354300461228 -0.05557667910471913 0)
(24.9995785264963 -0.000386571511215744 0)
(24.99964124736702 0.001625154081574959 0)
(24.95710652574382 7.951660639156178e-09 0)
(24.29285756514319 -0.16153016787259 0)
(24.98490289383206 -0.001160517928479288 0)
(24.89354300512123 0.05557667386157135 0)
(24.29285757213028 0.1615301821267392 0)
(21.84008001332291 -5.829905415499338e-09 0)
(19.46625580676871 2.475574594529501 0)
(20.49698778673071 3.124666614510385 0)
(22.97787212862903 2.22967764812873 0)
(24.19633941543658 1.007683590697924 0)
(19.95094692540933 4.487411448711874 0)
(20.23032795445051 4.635567106948105 0)
(21.31205892477216 4.392324218216297 0)
(22.53491064436121 3.555998508259286 0)
(20.64310580166747 5.579200734970579 0)
(21.14340284588106 4.963809511965095 0)
(21.82144260080626 5.101112610146392 0)
(22.67513698516542 4.794460710051291 0)
(21.12431153374683 5.943856702255832 0)
(21.90385414770535 5.254643830766232 0)
(22.49224639796899 5.365749674756467 0)
(23.05950354385017 5.100941445135275 0)
(23.21222554004646 5.164242418021106 0)
(23.27938568193212 5.397854742143428 0)
(23.44753962939034 5.52667937914474 0)
(23.33778494760562 5.840330970107484 0)
(22.98511245827167 5.423282212212659 0)
(23.22396911292529 5.560037902956176 0)
(23.37691484206325 5.657827246341478 0)
(23.73614386767807 6.171098513981328 0)
(22.64777645868767 5.513957763495712 0)
(23.11449496076024 5.652466553526197 0)
(23.27227473311362 5.725355617040179 0)
(25.22581765223569 6.497852979892967 0)
(21.22784108086093 5.667584546361265 0)
(21.60322876004427 5.545188302043461 0)
(21.79015095047334 5.525098490000006 0)
(27.01209772968363 7.636112246624109 0)
(25.34778907275259 4.274474231949285 0)
(27.33462566580838 1.819096876261538 0)
(26.83937846391595 0.4399650453408176 0)
(26.06796445605789 0.09806745698303121 0)
(26.82172677108904 3.457878692895168 0)
(28.50990401604662 0.7830062745373085 0)
(27.59879289333271 -0.0581521168131694 0)
(26.72151865170747 -0.01774795138026655 0)
(29.68244538180236 2.724706745537924 0)
(29.93684251421807 0.1139950719081004 0)
(28.14898463574989 -0.2239001138191844 0)
(27.01462004893438 -0.2168343092058806 0)
(21.52976247443594 1.941342480811938 0)
(21.96203622483828 0.3927114137200955 0)
(21.85003648724419 0.2011757120026252 0)
(22.44643778121944 -0.02694920416591933 0)
(25.69731461606511 0.0819298648033637 0)
(25.52275067034743 0.03492001560511734 0)
(25.37106286679653 0.05275858182975037 0)
(25.170993400713 0.05026886515606842 0)
(26.12510233111436 0.002197237260916469 0)
(25.7822214415898 0.009347395440311046 0)
(25.54097344327015 0.01338034576368299 0)
(25.27472178209916 0.02133337524444904 0)
(26.39681705503366 -0.1827310109619611 0)
(26.00153280837331 -0.08676661465104279 0)
(25.68804348882788 -0.04949423200056607 0)
(25.37688455278925 -0.0355576859046851 0)
(23.42967930216215 -0.3775000549636925 0)
(24.31330869570963 -0.380667778651736 0)
(24.65443787084205 -0.273311995717083 0)
(24.81717837561977 -0.1857370787033831 0)
(25.04421586169869 0.01795512034239194 0)
(25.00508636417675 0.001996254605382785 0)
(24.99991840710645 0.000754651088330834 0)
(22.85722875520963 2.445204871383912 0)
(25.08169172206149 0.01403470143027979 0)
(25.01093233399321 0.002458694617879665 0)
(25.00047562436478 0.0002111974252125665 0)
(20.74673178911088 2.884557259153339 0)
(25.1256775449623 -0.01656948106306931 0)
(25.01895238058351 -0.003146066557161022 0)
(25.00130855892225 -0.001679687449879123 0)
(18.60935981896453 2.031114843536986 0)
(24.94041767119078 -0.06950258157728095 0)
(24.99009945251421 -0.01097607297736886 0)
(24.99981121033532 -0.0003909306676066114 0)
(14.28027033157714 0.6840391075462675 0)
(15.62153971660909 7.568194755886581 0)
(15.97607333427706 8.087781237314701 0)
(16.21992781853288 9.206363107213996 0)
(16.53177547001204 10.23201335379717 0)
(13.07476658848286 7.781523223850234 0)
(14.87597220076986 8.433373573987033 0)
(15.77895040136688 9.631640517277047 0)
(16.28018587434769 10.41635608031483 0)
(10.73035441231203 6.779493482000168 0)
(13.2258075557092 8.209942140037411 0)
(14.95962489075949 9.633411489649379 0)
(15.97769811846681 10.31739275010225 0)
(8.510956303956483 3.110763297907597 0)
(11.72828153481673 5.329398437453764 0)
(12.7309315063038 7.826186907870426 0)
(13.92281708008326 9.655262876115549 0)
(16.68787763447836 10.99874870878747 0)
(16.9340788315738 11.28791654383669 0)
(16.9575530016799 11.55246731834193 0)
(17.00427760961544 11.53263290369852 0)
(16.54475224308549 11.01485232455063 0)
(16.84888524243127 11.24956710779534 0)
(16.99246250161233 11.49368681359933 0)
(17.10351659114608 11.4614501961887 0)
(16.41427382878427 10.83514873081575 0)
(16.72787434167999 11.09127484039396 0)
(16.93705804071673 11.32169813770497 0)
(17.05890746762028 11.35008576251634 0)
(14.82847102930669 10.47388229537313 0)
(15.34726020384306 10.76641585807941 0)
(15.75516351247759 10.80326206442073 0)
(15.80364327414928 10.77920985696101 0)
(16.95173606962635 11.58189001175332 0)
(17.42031369571553 11.47957030958454 0)
(18.57081321214249 10.90149883291689 0)
(20.89001460066772 9.746721826447667 0)
(17.12964654506834 11.4483604178565 0)
(17.55445454601524 11.31612430661013 0)
(18.7842928394754 10.94082697534269 0)
(21.80029210502633 11.44474259371323 0)
(17.10377435357653 11.38372632278911 0)
(17.4168447749174 11.33273196106787 0)
(19.14514165280115 11.44408715110725 0)
(26.7720206234579 16.53469046167299 0)
(16.09297645057535 10.85099538874907 0)
(16.59031805898053 10.75134527567688 0)
(19.2510577204288 11.72810222682949 0)
(36.55059545883893 21.74304792976844 0)
(25.67387447727906 5.141628041436834 0)
(28.32399918040429 -2.170477677259147 0)
(7.981220590056228 -5.199725127400781 0)
(4.564774533221543 -1.507668911337729 0)
(26.82520200178566 4.703335105894379 0)
(23.31914712862743 -1.81448203005444 0)
(3.848428062584729 -6.03920757070005 0)
(1.800403033029909 -1.34832916073413 0)
(26.60127644850999 3.400262557098255 0)
(15.54502564611152 -5.196845429324535 0)
(1.757070004455608 -3.508055166921704 0)
(1.207681150791482 -1.022211240501435 0)
(16.93338646677259 -6.666203565360552 0)
(5.289586898253001 -4.245070163595306 0)
(-0.6501194866194649 -1.58390411443279 0)
(0.4197810111101621 -1.149364579555312 0)
(2.418087733224967 -0.5550805770399908 0)
(1.476471823760016 0.02807480128600195 0)
(1.143337555789581 0.3385447782979201 0)
(-0.0004094781057656246 1.371140619589134 0)
(0.444724676127013 0.5644410611916809 0)
(0.00433820166340242 1.494415320547243 0)
(-0.07312915811221014 1.689003808670558 0)
(0.7127992003649847 3.118597721779046 0)
(0.6110337378944105 0.3863231754222969 0)
(0.3490779428166995 1.569488373194151 0)
(0.7202400448613615 2.645895606366067 0)
(0.2388626598197106 5.144406693102332 0)
(0.2083952969897268 0.1616611631677133 0)
(0.5632962551095643 1.454460271131392 0)
(0.686356861296967 3.367370541297031 0)
(-0.9369066717610833 5.538378898908193 0)
(11.44716924185776 -4.936006511385872 0)
(18.34267211036111 -4.916934083884399 0)
(22.01117422752624 -4.783942673807005 0)
(23.80988800782186 -3.630068209255272 0)
(6.623482027882329 -1.601404853686066 0)
(14.60851197387961 -3.193482950388781 0)
(19.68182127343649 -4.758324600448869 0)
(22.50612264092471 -4.191555933643777 0)
(0.4251917917690307 -1.079984477852625 0)
(7.103448653683776 -2.257736360996368 0)
(14.3750044049031 -3.86597008507149 0)
(22.12998885486803 -3.087994068403096 0)
(-1.746004133785029 1.811455502858303 0)
(2.322213424555025 1.75310459224075 0)
(10.14818089830706 1.820864471347422 0)
(24.8339542285398 -1.368757774957828 0)
(24.91993924980736 -7.799001192595064 0)
(25.22407793690693 -13.71555714818288 0)
(28.54183187262666 -20.60557413356185 0)
(22.53599972523061 -24.08390421634438 0)
(24.03487668615494 -9.340815917908101 0)
(24.70219037205971 -13.89898228456406 0)
(26.15235473516218 -23.27667453468639 0)
(17.53807618128278 -20.2370509059132 0)
(24.05447124271673 -9.800819304578326 0)
(22.36923075232654 -18.2963134846632 0)
(21.13360718315565 -22.31114688253018 0)
(9.697929350949567 -9.736735857163655 0)
(16.49362285551215 -12.77706069797764 0)
(11.80194952633913 -12.53365175995306 0)
(2.522772393793844 -17.80580259946412 0)
(0.6044529845878521 -1.986812191510762 0)
(-0.1537648533383558 5.465617342129112 0)
(-1.452184912774473 7.101910356769091 0)
(-2.631940043494687 4.937242780081098 0)
(-2.9614660825416 1.45501475694022 0)
(3.399481107404881 3.391125947785142 0)
(-1.101031719984549 5.769174601855849 0)
(-2.916126098692155 3.969624978625181 0)
(-3.126437375753687 1.175841662587997 0)
(10.47766596995017 -3.623049754970446 0)
(1.559337300649701 0.02435983155566727 0)
(-1.225178875961064 0.5839954753338669 0)
(-1.13040148531964 0.1906015104677762 0)
(17.36822944364952 -12.10805006512951 0)
(9.507544494659292 -6.463216118250575 0)
(5.875691387342287 -3.570011432476885 0)
(5.631644310547157 -1.014463806234652 0)
(-2.961466082536004 -1.455014756941775 0)
(-3.126437375745963 -1.175841662614278 0)
(-1.130401485315622 -0.1906015105070313 0)
(5.631644310519481 1.014463806143969 0)
(-2.631940043483162 -4.937242780077887 0)
(-2.91612609868634 -3.969624978648273 0)
(-1.22517887595447 -0.5839954753828057 0)
(5.875691387349799 3.570011432383831 0)
(-1.452184912768163 -7.101910356779205 0)
(-1.101031719990779 -5.769174601868213 0)
(1.559337300666103 -0.02435983160641021 0)
(9.507544494677735 6.463216118166049 0)
(-0.1537648533405451 -5.465617342139076 0)
(3.399481107393415 -3.391125947803395 0)
(10.47766596996139 3.623049754993255 0)
(17.3682294436938 12.10805006509771 0)
(22.53599972526449 24.08390421631432 0)
(28.54183187275512 20.60557413351867 0)
(25.22407793702677 13.71555714816459 0)
(24.9199392499259 7.799001192603598 0)
(17.53807618128009 20.23705090589877 0)
(26.15235473521829 23.27667453469188 0)
(24.70219037212709 13.89898228448823 0)
(24.03487668624004 9.340815917905816 0)
(9.697929350975144 9.736735857112915 0)
(21.13360718310937 22.31114688258892 0)
(22.36923075237332 18.29631348468602 0)
(24.05447124276429 9.800819304555485 0)
(0.6044529845803553 1.986812191485542 0)
(2.522772393791325 17.8058025994344 0)
(11.80194952634457 12.53365175994348 0)
(16.49362285552373 12.77706069798241 0)
(24.83395422858437 1.368757774946263 0)
(10.14818089829462 -1.820864471354414 0)
(2.32221342453392 -1.753104592265015 0)
(-1.746004133813436 -1.811455502907157 0)
(22.12998885491974 3.087994068388303 0)
(14.37500440492627 3.865970085066476 0)
(7.103448653618282 2.257736360970727 0)
(0.4251917917006387 1.079984477802393 0)
(22.50612264099244 4.191555933614525 0)
(19.68182127345699 4.7583246004792 0)
(14.60851197380713 3.193482950339832 0)
(6.623482027793512 1.601404853519469 0)
(23.80988800790285 3.63006820922724 0)
(22.0111742275143 4.78394267388976 0)
(18.3426721102961 4.916934083925486 0)
(11.44716924180596 4.936006511208504 0)
(-0.0004094780506322015 -1.371140619535297 0)
(1.143337555702085 -0.3385447782636969 0)
(1.476471823711915 -0.028074801374917 0)
(2.418087733212324 0.5550805769252327 0)
(0.712799200440841 -3.118597721779181 0)
(-0.07312915816584693 -1.689003808629448 0)
(0.00433820162551019 -1.494415320589428 0)
(0.4447246761695765 -0.5644410612936644 0)
(0.238862659856311 -5.144406693097757 0)
(0.7202400448281052 -2.645895606325048 0)
(0.3490779427910249 -1.569488373230168 0)
(0.6110337379038454 -0.3863231755042205 0)
(-0.9369066717430733 -5.538378898909568 0)
(0.6863568612981842 -3.367370541263074 0)
(0.5632962550919388 -1.454460271175219 0)
(0.2083952969907608 -0.1616611632403371 0)
(4.564774533282461 1.507668911291383 0)
(7.981220590007136 5.199725127464638 0)
(28.3239991803878 2.170477677289397 0)
(25.67387447728786 -5.141628041446111 0)
(1.800403033143583 1.348329160654823 0)
(3.848428062622236 6.039207570700619 0)
(23.31914712863639 1.814482030029272 0)
(26.82520200185912 -4.703335105913993 0)
(1.207681150861041 1.02221124040098 0)
(1.757070004506328 3.508055166924215 0)
(15.54502564610684 5.196845429361582 0)
(26.60127644856452 -3.400262557193137 0)
(0.4197810111217597 1.149364579469655 0)
(-0.6501194865906883 1.583904114413683 0)
(5.289586898307062 4.245070163636066 0)
(16.93338646686088 6.666203565341251 0)
(20.89001460068233 -9.746721826434618 0)
(18.57081321212787 -10.90149883289625 0)
(17.42031369568237 -11.47957030956754 0)