/*--------------------------------*- C++ -*----------------------------------*\
  =========                 |
  \\      /  F ield         | OpenFOAM: The Open Source CFD Toolbox
   \\    /   O peration     | Website:  https://openfoam.org
    \\  /    A nd           | Version:  11
     \\/     M anipulation  |
\*---------------------------------------------------------------------------*/
FoamFile
{
    format      ascii;
    class       volVectorField;
    location    "0.0925";
    object      U;
}
// * * * * * * * * * * * * * * * * * * * * * * * * * * * * * * * * * * * * * //

dimensions      [0 1 -1 0 0 0 0];

internalField   nonuniform List<vector> 
880
(
(25 -7.768126373978579e-16 0)
(25 -1.487909839026782e-16 0)
(25 -1.117970807786195e-12 0)
(24.99999983614698 -4.944152238569087e-06 0)
(25 1.210301178234613e-15 0)
(25 -2.247241798628082e-15 0)
(25.00000000000004 -6.614564905801073e-12 0)
(24.99995292555226 -0.0001345397674128908 0)
(25 0 0)
(25.00000000000001 2.223029760940172e-15 0)
(25.00000000023942 -2.397608269458083e-10 0)
(24.99993166013022 -0.0002699636941114115 0)
(25 0 0)
(25 -1.351162812909694e-15 0)
(25.00000000978744 -7.654724520788863e-09 0)
(24.999286757932 -0.003148034997029744 0)
(25 -5.739652293438426e-16 0)
(25 -9.601964157721461e-16 0)
(25.00000000000001 -7.252017361018657e-13 0)
(25.00000000009416 3.136541008838356e-10 0)
(25 -4.131215677374824e-15 0)
(25 7.191005352843835e-15 0)
(25.00000000000003 1.744517199575551e-14 0)
(25 6.845050531071712e-15 0)
(25.0000007047674 -5.594934245435989e-07 0)
(24.99999602373435 3.515860030594632e-06 0)
(25.00089114922124 0.002636372840060696 0)
(24.99914401878148 -0.006759348599621879 0)
(24.91245262824779 0.05367490270295969 0)
(24.67263261302879 0.3016741737962483 0)
(24.53955921431456 0.6072988598774605 0)
(24.51577223463389 0.8174518749365579 0)
(24.99999973144932 -3.755727263680229e-07 0)
(24.99999920351826 -7.30427307817857e-07 0)
(24.99999833057521 -1.55350944347896e-06 0)
(24.99999921164907 -5.344258344461255e-07 0)
(24.99999190045606 8.481607529112953e-06 0)
(24.99999033434021 2.641548988438876e-05 0)
(24.99999500225508 4.698577608388226e-05 0)
(24.99999134931578 2.346385911041755e-05 0)
(24.99479272939654 0.00678486979939242 0)
(24.99496064362843 0.01219930623485531 0)
(24.99603337187409 0.01766854622808775 0)
(24.99445220839859 0.01486432688564754 0)
(24.52552408257436 0.9932596742067299 0)
(24.51809873143673 1.211000185462017 0)
(24.63044994904779 1.339453402705989 0)
(24.49252927952774 1.49476300725759 0)
(24.81939111457778 1.561547040426008 0)
(25.16501181882557 1.390007396797021 0)
(25.40781439031926 0.9811827976294094 0)
(25.42916031912053 0.5732035583734064 0)
(24.99221217794696 0.02863045485875232 0)
(24.97892641623829 0.05075621158554267 0)
(24.99363802556215 0.06820008197023233 0)
(25.00849301740177 0.05990949622029037 0)
(24.99997538259467 9.329110327832481e-05 0)
(24.99992718100642 0.0002162166125546317 0)
(24.99991772480178 0.0003831524793277762 0)
(24.99998912498607 0.0003597574906774864 0)
(24.99999707814974 -2.641556540931866e-06 0)
(24.99999353096458 -5.426973752231832e-06 0)
(24.99998951055962 -8.016126608466015e-06 0)
(24.99999023208299 -6.888087852362673e-06 0)
(24.99999421207837 -3.322641359687581e-06 0)
(24.99999836842477 -7.774560818932079e-07 0)
(24.99999981716544 -7.892539342806668e-08 0)
(24.99999999387217 -2.436138464918878e-09 0)
(25.00004819363949 0.0002031845700222506 0)
(25.00002853248162 5.321074065205072e-05 0)
(25.00000442131095 5.930386216360073e-06 0)
(25.00000018895839 2.2573817067459e-07 0)
(25.01172230391478 0.03478826616574766 0)
(25.0070505801015 0.01114160263515878 0)
(25.00170828913107 0.001874851920918151 0)
(25.00013779070795 0.0001285300574305751 0)
(25.3320544435249 0.3251117077044049 0)
(25.19719944399365 0.1621463180680552 0)
(25.07727780942934 0.05477138247166494 0)
(25.01466568527248 0.009222987220144458 0)
(25.00090589182601 0.0005357375351179591 0)
(25.00000264568623 2.31952170956852e-06 0)
(25.00000000188827 1.885815504325185e-09 0)
(24.99999999991597 -3.140383519417581e-11 0)
(25.0000382083462 0.0001083953303973665 0)
(25.00000034910007 7.110979918458007e-07 0)
(25.00000000101651 -2.037134888915609e-09 0)
(25.00000000010967 -2.252885788257648e-10 0)
(25.00008064599085 -0.0005898051735743796 0)
(24.99999847648989 -1.799837373618313e-05 0)
(24.99999979033436 1.826623870179746e-07 0)
(24.99999996174817 6.645461503828934e-09 0)
(24.8697110387217 0.1646305796079627 0)
(25.00016103401627 0.0005033868871999153 0)
(25.00003997194655 -3.995982192515398e-05 0)
(25.00000095652201 -2.224840704395479e-06 0)
(24.999999828995 -2.812264096127879e-06 0)
(25.00000107239786 -4.173060218824126e-05 0)
(24.9957876951598 0.00082271498707775 0)
(23.37172740776094 0.654616881309361 0)
(24.99999949029381 -5.737590933480522e-07 0)
(24.99993818298874 7.723958214099328e-06 0)
(24.9719223826425 0.01449662499898058 0)
(22.11208307664028 1.759572850752396 0)
(24.99999618466186 -4.664103634516807e-06 0)
(24.99987857287606 0.0001360436066967343 0)
(24.94782877679373 0.04694984463970153 0)
(21.46612501593693 3.108292324523466 0)
(24.99998895706787 -1.019304920414413e-05 0)
(24.99988180244228 0.0003208023801994818 0)
(24.93870063570907 0.08706619407349436 0)
(21.42003568535986 4.184702257411744 0)
(21.41978673873222 4.981486395958517 0)
(24.9228561197987 0.1224109916245828 0)
(24.99980139313544 0.0004302898178706002 0)
(24.99998674913718 -1.418715663727517e-05 0)
(21.55346953655891 5.348433572295829 0)
(24.92191792493483 0.1569428310384748 0)
(24.999832835446 0.0006828516666695297 0)
(24.99997604516975 -2.121403764242909e-05 0)
(21.35806122901921 5.693484079937709 0)
(24.89177718482053 0.1812694308204936 0)
(24.99965992926907 0.0007248512702022758 0)
(24.99997631085757 -2.495388254062369e-05 0)
(21.23463732277871 5.92935469640622 0)
(24.87568645838472 0.2361388914775455 0)
(24.99965074422461 0.001276989698868619 0)
(24.99995395441047 -4.133805058811578e-05 0)
(24.99995238097196 -4.664517570260639e-05 0)
(24.99956019690686 0.001276145808935853 0)
(24.84329356184803 0.2719016421964454 0)
(20.80738010512608 6.441414539860183 0)
(24.99993539379604 -6.403242237841775e-05 0)
(24.99928776364009 0.001861619135964629 0)
(24.80533845085463 0.355506218740757 0)
(20.93990973466478 6.775057350585041 0)
(24.99990691229864 -0.0001059383852826978 0)
(24.99927684637881 0.002584983576422371 0)
(24.81405857537491 0.3907347126079148 0)
(21.48637975656082 6.418058565326043 0)
(24.99998129754503 -2.03426650175626e-06 0)
(24.99845568043965 0.001210793538732587 0)
(24.82771752505857 0.2677769910970474 0)
(23.05325280489641 5.090787802893461 0)
(24.99974653648585 -0.0001313502856540539 0)
(25.0021940727864 0.00732067573083685 0)
(25.12041533894515 0.3573459344471937 0)
(25.79186775350317 3.078536313119105 0)
(24.99966181212224 1.981451996064934e-05 0)
(25.00993522193611 0.003127894900845787 0)
(25.19931860721135 0.08492291845893364 0)
(26.7316834292142 0.4281437294377896 0)
(24.99998363381951 -4.965981071277242e-05 0)
(25.00137229001083 -0.002613333887576866 0)
(25.04199145661914 -0.1410126012978199 0)
(24.90975860812134 -1.957979879613762 0)
(24.9999732978734 -4.082907452885645e-05 0)
(24.99464517710282 -0.006754411531943009 0)
(24.74094039211885 -0.2582930915567982 0)
(21.96046538188635 -2.593090684398505 0)
(20.24299872806866 -2.211581087340478 0)
(24.64014147137968 -0.2485143722332838 0)
(24.99520179718425 -0.005239971807220864 0)
(24.99999040379767 -1.989519702228319e-05 0)
(19.5577246142565 -1.419018110036148 0)
(24.57642537047177 -0.2027456774716491 0)
(24.99471676299554 -0.003984954521810562 0)
(24.99998752782829 -1.491027435207233e-05 0)
(19.59800032365052 -0.4858407278633733 0)
(24.65229134626381 -0.1380379643505278 0)
(24.99740086823128 -0.002255271462831858 0)
(24.99999656694894 -6.601790103143608e-06 0)
(19.10111607244228 0.06719757389980723 0)
(24.61861787404536 -0.1204084049375562 0)
(24.99703457185976 -0.0022517519558361 0)
(24.99999526798434 -6.923003346153915e-06 0)
(20.8072590740737 0.5525157204339682 0)
(24.80283143974901 -0.05200678449739964 0)
(24.99890513464781 -0.0006944077564975391 0)
(24.99999818683439 -2.099468922286814e-06 0)
(22.6072715702241 0.6746404296688364 0)
(24.9273522461543 -0.02304292057625343 0)
(24.99975298006357 -0.0001715152327947275 0)
(24.99999964576367 -4.112488462238032e-07 0)
(23.85410977962315 0.4123584618198389 0)
(24.97870873946727 -0.01074638820354655 0)
(24.99995327436782 -5.095927274053044e-05 0)
(24.99999995308435 -1.082870908731712e-07 0)
(24.67450512949786 -0.02248814504503298 0)
(24.99986428675533 -0.009228723449516823 0)
(25.00001404354216 -4.08465188077384e-05 0)
(24.99999999590812 -9.88947605537459e-08 0)
(23.9804558818984 -0.04313572435795965 0)
(24.95622731408534 -0.0007299525662171152 0)
(24.99941900949752 -3.221717446336882e-06 0)
(24.99999698889614 -5.56478880957231e-09 0)
(24.00357110052521 -0.1418125295621988 0)
(24.9567294842819 -0.002035906355970528 0)
(24.99942324844768 -8.219909274852718e-06 0)
(24.99999699779391 -1.261798306006131e-08 0)
(23.98500890719702 -0.3052531065465409 0)
(24.95637535433264 -0.004242665181726667 0)
(24.99942388378569 -1.738633187194406e-05 0)
(24.99999699671586 -2.662807753751194e-08 0)
(23.96087569412831 -0.3594915765885244 0)
(24.95694906069451 -0.006233889784951996 0)
(24.99943729014909 -3.476575435210119e-05 0)
(24.99999707621585 -9.573231696362144e-08 0)
(24.67450512958522 0.02248814500670834 0)
(24.99986428681356 0.009228723473717573 0)
(25.00001404363134 4.084655439106041e-05 0)
(24.99999999579986 9.899722878301846e-08 0)
(23.85410977968839 -0.4123584617454941 0)
(24.97870873954258 0.01074638819465137 0)
(24.99995327454784 5.095931487072296e-05 0)
(24.99999995306326 1.082708761434563e-07 0)
(22.60727157019424 -0.6746404295197947 0)
(24.92735224610955 0.0230429206868631 0)
(24.99975298005143 0.0001715153184003824 0)
(24.99999964575441 4.112408096979378e-07 0)
(20.8072590739735 -0.5525157205203427 0)
(24.8028314395873 0.0520067844622521 0)
(24.99890513462175 0.0006944077294810563 0)
(24.99999818687984 2.099460380820745e-06 0)
(24.99999040361955 1.989505389362978e-05 0)
(24.99520179683974 0.005239972004965237 0)
(24.64014147134131 0.2485143721545762 0)
(20.2429987280451 2.211581087270709 0)
(24.99998752770515 1.491042965088206e-05 0)
(24.99471676294278 0.003984954519471034 0)
(24.57642537039555 0.2027456774373892 0)
(19.55772461417894 1.419018109926652 0)
(24.99999656705493 6.601811573004946e-06 0)
(24.99740086812855 0.002255271402537482 0)
(24.65229134621341 0.1380379643619604 0)
(19.59800032353013 0.4858407277899798 0)
(24.99999526798143 6.922968739989678e-06 0)
(24.99703457181074 0.002251751985536842 0)
(24.61861787391389 0.1204084048447822 0)
(19.10111607245777 -0.06719757376106146 0)
(21.96046538198845 2.593090684416181 0)
(24.74094039224971 0.2582930915487892 0)
(24.99464517736996 0.006754411222319813 0)
(24.99997329799638 4.082896829227734e-05 0)
(24.90975860821931 1.957979879767097 0)
(25.04199145673189 0.1410126013008524 0)
(25.00137229018979 0.002613333953407225 0)
(24.99998363400319 4.965972978267881e-05 0)
(26.7316834292187 -0.4281437294558634 0)
(25.19931860734633 -0.08492291840753137 0)
(25.0099352219466 -0.003127894910407633 0)
(24.9996618122783 -1.981416815534014e-05 0)
(25.79186775347912 -3.078536313125301 0)
(25.12041533900222 -0.3573459344669296 0)
(25.00219407283724 -0.007320675618816053 0)
(24.99974653624368 0.000131350218437987 0)
(24.99995238104817 4.664515889081287e-05 0)
(24.99956019677727 -0.001276145862165853 0)
(24.84329356180955 -0.2719016421743784 0)
(20.80738010501875 -6.44141453981876 0)
(24.99993539378241 6.403239752332127e-05 0)
(24.99928776353264 -0.001861619160715262 0)
(24.80533845079169 -0.3555062187091931 0)
(20.93990973465742 -6.775057350566178 0)
(24.99990691216036 0.0001059383598793514 0)
(24.99927684637142 -0.002584983532306141 0)
(24.81405857547115 -0.3907347125650378 0)
(21.48637975656422 -6.418058565329519 0)
(24.99998129734065 2.03425944860631e-06 0)
(24.99845568044201 -0.001210793478548692 0)
(24.82771752512181 -0.2677769910624402 0)
(23.05325280491024 -5.090787802897776 0)
(21.23463732263254 -5.929354696415161 0)
(24.87568645845064 -0.2361388913853079 0)
(24.99965074401866 -0.001276989761968337 0)
(24.99995395440957 4.133808843401176e-05 0)
(21.35806122886979 -5.693484079894324 0)
(24.89177718447624 -0.1812694308783163 0)
(24.99965992920104 -0.0007248513209069875 0)
(24.9999763108116 2.495388138672071e-05 0)
(21.55346953646419 -5.348433572313236 0)
(24.92191792486195 -0.1569428310825344 0)
(24.99983283526885 -0.0006828516697729611 0)
(24.99997604522817 2.121403425372085e-05 0)
(21.41978673863265 -4.981486396099719 0)
(24.92285612007046 -0.1224109915483785 0)
(24.99980139325397 -0.00043028982227521 0)
(24.99998674917376 1.418715626422956e-05 0)
(24.99999982889555 2.812272300624364e-06 0)
(25.00000107227976 4.173061350763881e-05 0)
(24.99578769522243 -0.0008227149783401006 0)
(23.37172740783967 -0.6546168813076537 0)
(24.99999949038343 5.737545134661327e-07 0)
(24.99993818313387 -7.723958461121868e-06 0)
(24.97192238247243 -0.01449662507082815 0)
(22.11208307680887 -1.759572850726284 0)
(24.99999618474403 4.664102474511955e-06 0)
(24.99987857289945 -0.000136043594266483 0)
(24.94782877679227 -0.04694984452046141 0)
(21.46612501568087 -3.1082923246761 0)
(24.99998895716224 1.019304942790126e-05 0)
(24.99988180231759 -0.0003208024199756145 0)
(24.93870063569058 -0.08706619419805667 0)
(21.42003568556371 -4.184702257170672 0)
(25.00000095652476 2.224838413984505e-06 0)
(24.99999996169712 -6.640363409579997e-09 0)
(25.00000000010867 2.207071582890141e-10 0)
(24.99999999993054 3.760117793306859e-11 0)
(25.00003997207219 3.995981843972153e-05 0)
(24.99999979034175 -1.826663970644812e-07 0)
(25.00000000090098 2.047521097626144e-09 0)
(25.00000000193008 -1.879895679290301e-09 0)
(25.00016103397249 -0.0005033868997343993 0)
(24.99999847646439 1.79983914836854e-05 0)
(25.00000034918053 -7.110953474283197e-07 0)
(25.00000264573503 -2.319542961402724e-06 0)
(24.86971103871833 -0.1646305796008699 0)
(25.00008064599261 0.0005898052147782892 0)
(25.00003820833291 -0.0001083953388262919 0)
(25.00090589182085 -0.0005357375440959857 0)
(24.99999999391328 2.434417912310383e-09 0)
(25.00000018896295 -2.257496289525305e-07 0)
(25.00013779064292 -0.0001285301166951101 0)
(25.01466568522194 -0.00922298719792438 0)
(24.99999981721447 7.89200666671347e-08 0)
(25.00000442134726 -5.930377366037406e-06 0)
(25.00170828886691 -0.001874851927376183 0)
(25.07727780943738 -0.05477138240662422 0)
(24.99999836835086 7.77447477358555e-07 0)
(25.00002853248653 -5.321074229488057e-05 0)
(25.00705058024021 -0.01114160255076416 0)
(25.1971994439915 -0.1621463180886568 0)
(24.99999421204274 3.322667915316545e-06 0)
(25.00004819366497 -0.0002031846207349135 0)
(25.01172230377492 -0.03478826621421773 0)
(25.33205444359936 -0.3251117076284381 0)
(24.99999707831011 2.64151362385437e-06 0)
(24.99997538271243 -9.329113207777114e-05 0)
(24.99221217791409 -0.02863045505027412 0)
(24.81939111457635 -1.561547040456946 0)
(24.99999353110199 5.426961728708263e-06 0)
(24.99992718101316 -0.0002162165499456301 0)
(24.97892641629052 -0.0507562115847921 0)
(25.16501181890234 -1.390007396834448 0)
(24.99998951061194 8.016143398088536e-06 0)
(24.9999177246465 -0.0003831524546105773 0)
(24.9936380256135 -0.06820008195763835 0)
(25.4078143903718 -0.9811827976085198 0)
(24.99999023212725 6.888105222603496e-06 0)
(24.99998912486597 -0.0003597575328328091 0)
(25.00849301743645 -0.05990949615858699 0)
(25.42916031918338 -0.5732035584223384 0)
(24.49252927949304 -1.494763007181484 0)
(24.99445220809475 -0.01486432696005499 0)
(24.99999134940611 -2.346388700310952e-05 0)
(24.99999921172077 5.343806341943465e-07 0)
(24.63044994904826 -1.339453402770305 0)
(24.99603337152542 -0.01766854613942228 0)
(24.99999500229527 -4.698578430390807e-05 0)
(24.99999833053127 1.553570343948834e-06 0)
(24.51809873130041 -1.211000185461731 0)
(24.99496064359121 -0.01219930582233526 0)
(24.99999033432508 -2.641554836379863e-05 0)
(24.99999920356352 7.30406831585999e-07 0)
(24.5255240826046 -0.993259674227044 0)
(24.99479273019399 -0.006784869635512489 0)
(24.99999190046955 -8.481548602189232e-06 0)
(24.99999973140869 3.755690366879769e-07 0)
(24.5157722345964 -0.8174518749392818 0)
(24.99914401853409 0.006759347941547771 0)
(25 6.881589053253176e-15 0)
(25.00000000007964 -3.11530441511544e-10 0)
(24.53955921432046 -0.6072988598885734 0)
(25.00089114939567 -0.002636372441205093 0)
(25 3.387224577411942e-16 0)
(25.00000000000001 7.458654174895701e-13 0)
(24.67263261296246 -0.301674173786263 0)
(24.99999602378122 -3.515858094765758e-06 0)
(25 -3.970345697055021e-16 0)
(25.00000000000001 1.504806294003574e-15 0)
(24.91245262818332 -0.05367490277403734 0)
(25.00000070477961 5.594896860600671e-07 0)
(25 -1.986043000611352e-15 0)
(25.00000000000002 -6.642259740194691e-15 0)
(25 1.420908939734042e-15 0)
(25 2.15896581034495e-15 0)
(25 1.045346612448072e-12 0)
(24.9999998369797 4.945450475136278e-06 0)
(24.99999999999999 -2.843418720158383e-19 0)
(25 2.706483984109027e-15 0)
(25.00000000000001 7.772389730657726e-12 0)
(24.99995292583483 0.0001345385666642377 0)
(25 -1.366459512028481e-15 0)
(25 -2.465434945626788e-15 0)
(25.0000000002309 2.380050381481474e-10 0)
(24.99993166011737 0.0002699633432528466 0)
(25 -2.091442550712307e-15 0)
(25 -8.991114144046548e-16 0)
(25.00000000984089 7.642734932604996e-09 0)
(24.99928675805353 0.003148035171353622 0)
(24.9999961662336 9.218752891309147e-10 0)
(24.9999701929329 9.954156999025061e-05 0)
(24.99976501938749 0.0002302600488644697 0)
(24.98954549661248 0.0007232325928415381 0)
(24.99997019269789 -9.954323357225448e-05 0)
(24.99999716721561 -1.582866636231553e-09 0)
(25.00003052210849 -0.001592591953957898 0)
(24.90325397922691 -0.0569679657210597 0)
(24.99976501806323 -0.000230259200627214 0)
(25.00003052075877 0.001592592709374159 0)
(24.96312079978901 1.102047489127551e-08 0)
(24.34239272604857 -0.151629369795978 0)
(24.98954549549333 -0.0007232327144170969 0)
(24.90325398032202 0.05696795793810775 0)
(24.34239273281498 0.1516293847391076 0)
(21.94642036013985 -5.812072099771728e-09 0)
(19.56980497003173 2.464440769823966 0)
(20.6104426696018 3.108166101741562 0)
(23.08277692923657 2.18688870073749 0)
(24.25648250444612 0.9712220177158305 0)
(20.06010812138949 4.50183731651729 0)
(20.34727236955957 4.654164331211594 0)
(21.44226126064797 4.38738491569629 0)
(22.64002915800571 3.514344043070137 0)
(20.84437501135797 5.620308768072032 0)
(21.26006327746764 5.030349503650946 0)
(21.95121416062239 5.111112630707511 0)
(22.78370139667992 4.756369910021255 0)
(21.21408335951564 5.77361922208223 0)
(22.13984191380733 5.300919418961495 0)
(22.66374980105232 5.354622945386063 0)
(23.15606581698897 5.087282603522378 0)
(23.29995747425135 5.195852460207761 0)
(23.39074510944297 5.433430797469224 0)
(23.55957723582503 5.556563061775078 0)
(23.38531092455872 5.849633079996661 0)
(23.11774717279551 5.454241104776266 0)
(23.34738221466264 5.625379206053933 0)
(23.48894417263083 5.725623650259814 0)
(23.74948831172367 6.229213298159382 0)
(22.84368957645161 5.577900719165729 0)
(23.24951339773029 5.731698400833112 0)
(23.37191075750863 5.796457024052499 0)
(25.21026280153797 6.548127935744904 0)
(21.44271823613967 5.548089323792487 0)
(21.77458459475187 5.556842921421795 0)
(21.93935491586418 5.584348999104611 0)
(26.97575964628284 7.689484757096847 0)
(25.38786947406026 4.265273415797312 0)
(27.19850620108805 1.867164222439576 0)
(26.78573644218593 0.3583540496435821 0)
(25.9795374926768 0.06021677183114772 0)
(26.85928423824497 3.47591978513472 0)
(28.36509001539071 0.8697987429604844 0)
(27.43834099656861 -0.08623847298579677 0)
(26.55864303107022 -0.1001295732370257 0)
(29.70886552399448 2.7403101975106 0)
(29.79386982389337 0.1961298125067289 0)
(27.93069588085629 -0.2808347348321414 0)
(26.8088006358183 -0.2951301809145515 0)
(21.58201297880292 1.883071384995127 0)
(21.75813104741556 0.4760816392208661 0)
(21.77866838525258 0.343931314569154 0)
(22.68638536931246 -0.07368237702204912 0)
(25.66988665878464 0.0225966926681709 0)
(25.44736571563958 0.04014675592652409 0)
(25.21546061907485 0.0540600239460825 0)
(25.06367852574025 0.02365577451518156 0)
(26.00222963811295 -0.05739906263122897 0)
(25.66645963708677 -0.002427572491000815 0)
(25.35269995100538 0.02606645254336665 0)
(25.11939555354136 0.01994137867854508 0)
(26.23106228811636 -0.178133492142391 0)
(25.84182438544864 -0.07323569855415309 0)
(25.48539493449082 -0.0456104974905789 0)
(25.18489442384814 -0.02468993455091291 0)
(23.83410802806497 -0.3826261039012434 0)
(24.5340480357192 -0.3044382731135298 0)
(24.73254937252181 -0.2152697526391427 0)
(24.9026066780937 -0.09618051471140548 0)
(25.00855510365713 0.003626406698155098 0)
(25.00038738037555 7.285921843547887e-05 0)
(25.00005923430626 0.0003522392507919989 0)
(23.11791937653033 2.241580801331696 0)
(25.01891188835557 0.004377138085799451 0)
(25.00097946004796 0.0001822738868315731 0)
(25.00003937250235 0.0001651365468664092 0)
(21.15188760056921 2.691106146975414 0)
(25.03333590502082 -0.005874637720925148 0)
(25.0019491297531 -0.0004511146154442971 0)
(25.00006581025807 -8.871585763565164e-05 0)
(19.1886306616034 1.914177398744832 0)
(24.98101442520016 -0.01934938422525668 0)
(24.99855856555343 -0.00134441933003671 0)
(25.00007664445318 -2.204852482495445e-05 0)
(15.16855176870738 0.6655748955617478 0)
(15.77543251206875 7.444151894519488 0)
(16.26192679931889 8.286839747584938 0)
(16.55165098507779 9.376762388934409 0)
(16.839333255773 10.35705432159702 0)
(13.11803867757094 7.678148766719351 0)
(15.04252841650893 8.669491596986131 0)
(16.03881974778517 9.848938061392069 0)
(16.55337019831835 10.58499673710451 0)
(10.84583703023005 6.747556937645109 0)
(13.44859116432926 8.443126454626244 0)
(15.243822763167 9.829748679421465 0)
(16.18498470888035 10.53353741722084 0)
(9.069465479259767 3.305220701901905 0)
(12.29302285148706 5.845100321238246 0)
(13.02147982524695 8.370524614412941 0)
(14.13935268809039 9.978469124183629 0)
(16.98274375226443 11.0858487883001 0)
(17.19357976113361 11.35219049164967 0)
(17.14776378319779 11.54186592268643 0)
(17.13775004978313 11.52196119163677 0)
(16.77033885320668 11.20537283201922 0)
(17.03084148938098 11.45086385402416 0)
(17.10113444120953 11.63904633330826 0)
(17.15749536547544 11.59055311761254 0)
(16.60450254824639 11.02558777827333 0)
(16.89009582417471 11.27586031341697 0)
(17.00619949498247 11.4493043674019 0)
(17.06750963800985 11.44564096614394 0)
(14.99479776266528 10.59012755152228 0)
(15.51842974028208 10.7744411865189 0)
(15.82490567729791 10.80756832259605 0)
(15.80037639884186 10.77398188244048 0)
(17.02902522076717 11.60324918300302 0)
(17.40370749639946 11.51745064565054 0)
(18.48314787345564 10.91908533757391 0)
(20.74892807139297 9.586934523146848 0)
(17.17063148755991 11.5819405502884 0)
(17.55837474049869 11.42449120340141 0)
(18.73712808338305 11.04939987737992 0)
(21.57345343346862 11.37935313559528 0)
(17.09862249054153 11.46942918354203 0)
(17.40756897901641 11.40579767509137 0)
(19.10819644602587 11.46207481574416 0)
(26.45454402316496 16.3767777627162 0)
(16.03800206874148 10.83778967685599 0)
(16.48534303547905 10.7591181304198 0)
(19.12290378659326 11.67843301859591 0)
(36.01263970203205 21.41626815230743 0)
(25.50658624494345 4.915225322545144 0)
(27.46996133013689 -2.504042829926777 0)
(7.593297212187393 -5.368067477080644 0)
(3.99044808089107 -1.508924647138925 0)
(26.50352091392772 4.863423561135631 0)
(22.50061697525936 -1.837106444600803 0)
(3.299745832522309 -6.505681907282606 0)
(1.130874868069695 -1.612522223546291 0)
(26.37826074062322 3.086631958168244 0)
(14.74972758424027 -5.22707420939949 0)
(1.324544117661729 -3.973077158467111 0)
(0.9966128478722706 -1.338822385478807 0)
(16.74802798515948 -6.736960141345287 0)
(4.952231464310708 -3.569409649528754 0)
(-0.9378449704734928 -2.227033756356426 0)
(0.1956328334943255 -1.376943540422585 0)
(2.15498356799881 -0.3842100602980273 0)
(1.655838241114895 0.3577404251898179 0)
(1.680743318433447 0.6322697067515987 0)
(0.5461088275752929 1.524423767284177 0)
(-0.1800358229128236 0.5168365658290623 0)
(-0.02023314636782481 1.753763403695887 0)
(0.3613094979858623 2.179792392853881 0)
(1.113081979965857 3.222729030806259 0)
(0.516418558562902 0.3685951546924126 0)
(0.697381515164335 1.764891684288086 0)
(1.195178976235985 2.809418424072177 0)
(0.8271891606883015 5.306249751634951 0)
(0.04792500264460286 0.2275339136033026 0)
(0.4937042780655637 1.671293873158836 0)
(0.9891138286049127 3.240052348099647 0)
(-0.6156454953212311 5.632749768491646 0)
(13.46207595787902 -5.863810185333642 0)
(19.68914710434242 -5.041222789705077 0)
(22.80108813406496 -4.738549291419051 0)
(24.0576511834171 -3.635148968075236 0)
(8.259516516868119 -2.759081217916033 0)
(15.98724671962219 -3.970097824710968 0)
(20.55245109464568 -5.354114313212829 0)
(22.93250155411534 -4.2047528629019 0)
(1.190200441681526 -0.9905363582431294 0)
(8.131234163874982 -2.446555103644435 0)
(15.11785125033232 -4.316222568566243 0)
(23.00486096512622 -3.179225083893725 0)
(-1.276854429815989 1.869803857894465 0)
(2.914063493225405 2.023973912015446 0)
(10.98345145990382 1.495492709317678 0)
(26.18559854330944 -1.607025003920133 0)
(25.19808722235806 -7.838722652672707 0)
(26.0637403624501 -13.44063405005481 0)
(28.36674775870802 -20.96551977225316 0)
(23.5965474209514 -22.48318417171001 0)
(24.730919128705 -9.101370930039892 0)
(25.6802498801406 -14.23979547905432 0)
(26.01785556690826 -24.42517555649052 0)
(20.41738871359205 -21.13522454664355 0)
(24.92530833982201 -10.66650302373299 0)
(23.40799252591375 -17.23997927263592 0)
(21.99548582027866 -20.94701571269091 0)
(10.15978955975706 -14.93276354811383 0)
(17.16215266148279 -11.11966329337824 0)
(9.498682706462338 -15.30902191138691 0)
(3.298576373038589 -17.75016057496372 0)
(0.971809504603438 -7.477238797088465 0)
(0.4290384263670614 2.299587834607269 0)
(-1.346772797915385 5.34745315102871 0)
(-2.433040667898376 4.325864037913286 0)
(-3.172872070356878 1.144314251829023 0)
(5.214817995309169 -0.4330567502048259 0)
(-0.8016809406624992 4.213675286089429 0)
(-2.944726106496085 3.803911562186198 0)
(-3.630614660908662 0.9727714660723003 0)
(10.377799693672 -6.575010118176865 0)
(1.209571571374412 -1.353397311708014 0)
(-0.6097167785133604 0.7247858217770031 0)
(-0.3981170358160269 -0.04277327631034503 0)
(14.73692843486397 -13.16446060216208 0)
(7.943347854024626 -7.576236691026031 0)
(5.97186664557726 -2.544172348976852 0)
(6.639080895011145 -0.8531338489668613 0)
(-3.172872070352478 -1.144314251831243 0)
(-3.630614660903684 -0.9727714660953413 0)
(-0.3981170358135342 0.04277327628162975 0)
(6.639080894998503 0.8531338489134693 0)
(-2.433040667891304 -4.325864037914015 0)
(-2.944726106490118 -3.803911562205791 0)
(-0.6097167785068247 -0.7247858218185598 0)
(5.971866645582206 2.544172348893525 0)
(-1.34677279791046 -5.347453151036392 0)
(-0.8016809406732783 -4.213675286106148 0)
(1.209571571397753 1.353397311644424 0)
(7.943347854053809 7.576236690938728 0)
(0.4290384263638317 -2.299587834604162 0)
(5.214817995285483 0.4330567501598431 0)
(10.37779969370703 6.57501011817909 0)
(14.73692843492695 13.16446060219006 0)
(23.59654742098152 22.48318417174848 0)
(28.36674775883168 20.96551977218972 0)
(26.06374036256269 13.44063405005761 0)
(25.19808722247531 7.838722652676673 0)
(20.4173887135646 21.1352245466389 0)
(26.01785556693053 24.42517555649327 0)
(25.68024988020748 14.23979547896214 0)
(24.73091912879606 9.101370930035531 0)
(10.15978955979591 14.93276354805285 0)
(21.99548582026937 20.94701571272719 0)
(23.40799252593931 17.23997927267079 0)
(24.9253083398743 10.66650302371219 0)
(0.9718095046007083 7.477238797087736 0)
(3.298576373031067 17.75016057495074 0)
(9.498682706469866 15.30902191137199 0)
(17.16215266149493 11.11966329338198 0)
(26.18559854335336 1.607025003908043 0)
(10.98345145989231 -1.495492709317168 0)
(2.914063493209393 -2.023973912038661 0)
(-1.276854429856727 -1.869803857973045 0)
(23.004860965184 3.179225083874944 0)
(15.11785125037006 4.316222568546921 0)
(8.131234163827271 2.446555103620774 0)
(1.190200441601155 0.990536358206647 0)
(22.93250155418808 4.204752862868627 0)
(20.55245109469863 5.354114313239203 0)
(15.98724671956708 3.970097824695954 0)
(8.259516516775475 2.759081217736732 0)
(24.05765118349186 3.635148968048659 0)
(22.80108813408822 4.738549291491045 0)
(19.68914710429737 5.041222789761052 0)
(13.46207595783361 5.863810185160533 0)
(0.5461088276186779 -1.524423767214257 0)
(1.680743318342227 -0.6322697067204472 0)
(1.655838241067382 -0.3577404252691302 0)
(2.154983567998613 0.3842100602082917 0)
(1.113081980049681 -3.222729030830405 0)
(0.3613094979213118 -2.179792392808884 0)
(-0.02023314639903542 -1.753763403721153 0)
(-0.1800358228471588 -0.5168365659011623 0)
(0.8271891607130423 -5.306249751667075 0)
(1.195178976202814 -2.809418424041736 0)
(0.6973815151258547 -1.764891684300708 0)
(0.5164185585867723 -0.3685951547548637 0)
(-0.6156454953083281 -5.632749768515062 0)
(0.9891138285988026 -3.24005234807951 0)
(0.4937042780542233 -1.671293873175421 0)
(0.04792500265310626 -0.2275339136529989 0)
(3.990448080952635 1.508924647083699 0)
(7.59329721215788 5.368067477158757 0)
(27.46996133010829 2.504042829950675 0)
(25.50658624495168 -4.915225322556571 0)
(1.130874868213289 1.612522223463184 0)
(3.29974583259472 6.5056819072877 0)
(22.50061697527543 1.837106444567581 0)
(26.50352091400572 -4.863423561141294 0)
(0.996612847963721 1.338822385406715 0)
(1.324544117735396 3.973077158461763 0)
(14.74972758423056 5.227074209445284 0)
(26.37826074067772 -3.086631958233229 0)
(0.195632833554155 1.37694354034108 0)
(-0.9378449704380432 2.227033756334752 0)
(4.952231464344091 3.569409649563048 0)
(16.74802798524407 6.736960141329168 0)
(20.74892807141223 -9.586934523126448 0)