/*--------------------------------*- C++ -*----------------------------------*\
  =========                 |
  \\      /  F ield         | OpenFOAM: The Open Source CFD Toolbox
   \\    /   O peration     | Website:  https://openfoam.org
    \\  /    A nd           | Version:  11
     \\/     M anipulation  |
\*---------------------------------------------------------------------------*/
FoamFile
{
    format      ascii;
    class       volVectorField;
    location    "7.35";
    object      U;
}
// * * * * * * * * * * * * * * * * * * * * * * * * * * * * * * * * * * * * * //

dimensions      [0 1 -1 0 0 0 0];

internalField   nonuniform List<vector> 
4455
(
(99.934832 -0.42871878 0)
(99.929016 -1.3959847 -1.5747766e-18)
(99.630079 -2.2332445 5.4099806e-18)
(99.426201 -3.2714433 2.2999951e-20)
(98.829555 -4.1428796 5.1484326e-18)
(98.429707 -5.3549378 -1.9327862e-17)
(97.363271 -6.4859405 8.5849365e-18)
(96.446531 -8.1125125 0)
(94.100686 -9.5224486 -5.3407787e-17)
(99.93466 -0.39266372 -1.0419737e-17)
(99.881253 -1.3079447 1.0164758e-17)
(99.55214 -2.0989993 -1.249109e-17)
(99.325834 -3.1567187 2.0795957e-17)
(98.685944 -4.0840876 -3.9854848e-17)
(98.128762 -5.4140118 4.3572471e-17)
(97.084487 -6.6718464 -4.1778563e-18)
(95.656883 -8.4789252 6.0998684e-18)
(93.182559 -11.103209 2.3339319e-16)
(99.910884 -0.37318619 -1.1100855e-17)
(99.84573 -1.1584809 1.3991521e-17)
(99.521734 -1.976076 1.2209492e-17)
(99.213754 -2.9529023 -1.2140077e-17)
(98.644004 -3.9023101 5.358552e-17)
(97.835786 -5.1575847 -3.016437e-17)
(96.816619 -6.3640816 3.889926e-18)
(95.441859 -8.1998668 -8.7188547e-17)
(93.038174 -9.9375343 -1.6473342e-16)
(99.890344 -0.31555269 -1.499336e-19)
(99.821406 -1.0716716 -1.3625828e-18)
(99.495262 -1.7501147 2.9424e-17)
(99.19351 -2.8173318 4.0111902e-18)
(98.464712 -3.6108113 2.7696026e-19)
(97.701788 -4.956308 -5.844572e-18)
(96.541823 -6.0626945 6.5331413e-17)
(94.925506 -7.9965646 1.7502865e-16)
(92.625117 -10.001834 1.3860909e-16)
(99.864975 -0.27399972 2.1456715e-17)
(99.842667 -0.9283614 -2.3972937e-17)
(99.454738 -1.5960599 3.0829822e-17)
(99.156353 -2.5754883 2.0056425e-20)
(98.401793 -3.369014 -3.7061394e-17)
(97.509134 -4.6982066 -1.1435095e-17)
(96.238072 -5.7486466 -5.1485177e-17)
(94.518829 -7.9182259 -8.263031e-17)
(92.191089 -9.8289976 -4.1116016e-16)
(99.879692 -0.23774034 0)
(99.808608 -0.7971296 0)
(99.476218 -1.388186 -5.3451932e-17)
(99.111823 -2.3917627 -6.1794977e-17)
(98.290198 -3.0710313 0)
(97.449463 -4.4514493 -8.3522988e-17)
(95.87742 -5.3440366 -7.0718516e-18)
(94.073217 -7.8017203 -5.0151968e-18)
(91.344926 -9.4207894 5.1042611e-16)
(99.882498 -0.18966682 0)
(99.82104 -0.68290911 -1.4641058e-18)
(99.442042 -1.1992258 1.6479193e-18)
(99.142126 -2.1596075 6.0398433e-17)
(98.212516 -2.7872268 -4.4761245e-18)
(97.367822 -4.1491934 1.7839864e-16)
(95.670046 -4.9640846 0)
(93.68221 -7.6023937 0)
(90.783172 -9.2259411 2.3867541e-16)
(99.893482 -0.15399112 4.1606972e-17)
(99.823526 -0.56053761 0)
(99.456034 -1.0206703 0)
(99.145556 -1.9547487 0)
(98.166515 -2.4778273 0)
(97.326831 -3.8699602 -8.9372706e-17)
(95.341054 -4.4667815 -9.681596e-17)
(93.249379 -7.3935035 1.4108212e-16)
(89.662829 -8.670622 5.4570256e-18)
(99.905508 -0.11852868 -4.0970929e-17)
(99.83318 -0.45055984 -1.4231017e-18)
(99.480616 -0.85167707 -1.6019951e-18)
(99.176717 -1.7197928 3.6359282e-18)
(98.160568 -2.2062249 1.4060054e-16)
(97.282088 -3.5860435 1.592813e-16)
(95.179806 -4.0311954 3.0935092e-16)
(92.972267 -7.145703 -1.3845129e-16)
(88.792984 -8.2104201 -4.11377e-16)
(99.9201 -0.087383008 0)
(99.93403 -0.060098479 7.6976836e-17)
(99.951024 -0.041424016 -7.6351181e-17)
(99.964186 -0.025386285 7.3495495e-17)
(99.978417 -0.016999964 -7.1820848e-17)
(99.986009 -0.010141069 1.4381661e-16)
(99.992914 -0.0089166254 -1.3959513e-16)
(99.995172 -0.0071124725 0)
(99.999686 -0.0074138101 0)
(99.841804 -0.36194989 0)
(99.855765 -0.28444481 1.329863e-18)
(99.86832 -0.21566314 0)
(99.883222 -0.15858938 3.7967482e-18)
(99.898222 -0.11095537 7.7758073e-17)
(99.914477 -0.072722468 -2.3243729e-16)
(99.931417 -0.037997671 1.5051711e-16)
(99.941917 -0.0166519 -2.2976367e-18)
(99.97151 0.00081131975 1.4550456e-16)
(99.511077 -0.6951747 9.5980659e-17)
(99.546056 -0.56335958 -1.8945074e-16)
(99.588805 -0.44509503 1.814695e-16)
(99.637624 -0.35395284 -5.4882232e-18)
(99.683613 -0.26446636 -8.5972858e-17)
(99.730503 -0.21478052 -2.6227706e-18)
(99.792243 -0.15470171 0)
(99.820234 -0.13976386 4.9761368e-18)
(99.875378 -0.10722947 -2.4166646e-18)
(99.191257 -1.5221358 1.0007607e-16)
(99.226157 -1.3128844 -2.0363864e-16)
(99.267204 -1.1081397 1.9439152e-16)
(99.296735 -0.93911692 -9.4339845e-17)
(99.361851 -0.76026572 -5.9386294e-18)
(99.389788 -0.60671574 2.866732e-18)
(99.487552 -0.46869144 0)
(99.508362 -0.30837288 -2.7116401e-18)
(99.607364 -0.20974894 1.6385189e-16)
(98.184227 -1.8661003 -1.1289842e-16)
(98.219157 -1.5831749 0)
(98.305981 -1.3012467 -1.0567407e-16)
(98.370424 -1.0639688 1.0894824e-16)
(98.508453 -0.86183046 -9.8963643e-17)
(98.562019 -0.6653836 1.0224952e-16)
(98.727145 -0.52331698 0)
(98.775586 -0.39791485 0)
(98.960768 -0.32554669 5.7980585e-18)
(97.232477 -3.2621961 -1.3889803e-16)
(97.176884 -2.8303151 -1.3412394e-16)
(97.167338 -2.5145309 1.2890585e-16)
(97.173146 -2.0459124 1.2444806e-16)
(97.25391 -1.7360892 -1.1996913e-16)
(97.333867 -1.2654234 0)
(97.475022 -0.99887516 2.235056e-16)
(97.629947 -0.59547887 -3.1260459e-19)
(97.783412 -0.39798827 -4.1777421e-16)
(94.917051 -3.4821385 -1.6412571e-16)
(94.832054 -2.788747 0)
(94.663883 -2.2842825 0)
(94.737508 -1.6664036 4.6701247e-18)
(94.777331 -1.1936629 0)
(95.028887 -0.64504126 0)
(95.227847 -0.28908701 0)
(95.528383 0.22448458 0)
(95.739975 0.47971228 0)
(92.472189 -6.856625 6.5210867e-18)
(91.837613 -5.979674 0)
(91.267663 -5.061146 6.0678879e-18)
(90.853672 -3.612441 -1.1228559e-17)
(90.682731 -2.7092831 -1.7034272e-16)
(90.763774 -1.3291215 -1.6250161e-16)
(90.973891 -0.57604392 3.112218e-16)
(91.365601 0.59525772 3.0170275e-16)
(91.781515 1.133318 -2.8539848e-16)
(86.570927 -7.1168302 7.9890273e-16)
(84.121989 -4.1238264 -4.8803547e-16)
(82.454691 -2.4010335 4.8317098e-16)
(82.333527 0.94406976 -4.5102418e-16)
(82.71938 3.0835961 -6.4892403e-16)
(83.673843 5.8210363 1.2225165e-15)
(84.391359 7.0880052 -7.723414e-16)
(85.730536 9.1248252 -3.663949e-16)
(86.626913 9.6889029 3.4478345e-16)
(99.994631 -0.014813792 -1.9171929e-19)
(99.995156 -0.021386779 1.966363e-16)
(99.997341 -0.025297335 -2.6161351e-20)
(99.998076 -0.031284424 -1.981288e-16)
(99.998859 -0.037443193 1.9501438e-19)
(99.998033 -0.038991203 2.0073456e-16)
(99.998024 -0.054922672 -2.0078719e-16)
(100.00161 -0.061562479 -1.9623916e-19)
(100.00899 -0.066967278 -1.0105324e-16)
(99.980298 0.013862246 -2.0917026e-16)
(99.979126 0.01566062 2.1048011e-16)
(99.975653 0.014631592 -2.1013987e-16)
(99.9672 0.018188377 0)
(99.968074 0.026198169 2.125083e-16)
(99.959015 0.042357125 3.5811499e-19)
(99.970078 0.058389275 5.4734798e-19)
(99.964136 0.094314731 -2.1453956e-16)
(99.997149 0.12137449 1.0816792e-16)
(99.867262 -0.10469186 2.2249016e-16)
(99.845151 -0.10778217 -2.2395724e-16)
(99.827729 -0.1009185 -2.2618641e-16)
(99.784473 -0.092469135 2.267321e-16)
(99.768556 -0.059814197 -2.2923463e-16)
(99.756376 -0.022138489 2.2836039e-16)
(99.719116 0.057326818 -2.3103852e-16)
(99.753348 0.12093959 -3.4531778e-19)
(99.715308 0.21057079 2.3157321e-16)
(99.616082 -0.092193672 -2.3940418e-16)
(99.618099 0.015856944 -9.413761e-19)
(99.555684 0.064710195 9.519962e-19)
(99.545841 0.14495015 0)
(99.460636 0.2121395 -6.9276154e-21)
(99.475932 0.32473867 -2.4517233e-16)
(99.404621 0.4453305 2.4931527e-16)
(99.467553 0.58801036 9.7663967e-19)
(99.416731 0.75075746 9.8069288e-19)
(99.001757 -0.17932106 -1.0094881e-18)
(98.915745 -0.12367418 -2.6182413e-16)
(98.89371 -0.0049708044 -1.3102513e-18)
(98.733131 0.096921151 2.6495646e-16)
(98.74524 0.25469632 2.6787389e-16)
(98.585507 0.43689539 -2.6920658e-16)
(98.67124 0.63400286 -1.0474419e-18)
(98.535464 0.88195158 -1.0528154e-18)
(98.680553 1.0878448 -1.0580527e-18)
(97.968266 -0.066370271 2.8577652e-16)
(97.823876 0.25906157 0)
(97.879699 0.50974679 0)
(97.663147 0.79775717 2.9071155e-16)
(97.797135 1.0734651 -2.9466233e-16)
(97.623554 1.4390346 -2.9667156e-16)
(97.843132 1.7250295 5.9427381e-16)
(97.713994 2.1428349 -1.0998106e-19)
(97.995228 2.4091577 -6.0056497e-16)
(96.007001 0.95758364 -1.2813571e-18)
(95.852185 1.4811618 0)
(95.93929 1.7687924 1.2960913e-18)
(95.756276 2.2023668 3.2864824e-16)
(95.916133 2.4734055 -3.3071697e-16)
(95.841914 2.9179122 3.3258971e-16)
(96.126616 3.1875287 -3.3332354e-16)
(96.082294 3.6314546 -1.3223287e-18)
(96.42184 3.9180048 3.3622544e-16)
(92.156786 1.9684038 -3.6726561e-16)
(92.500913 2.8053629 3.7216943e-16)
(92.842033 3.3484027 -3.7443495e-16)
(93.138925 4.0799489 3.7250441e-16)
(93.649934 4.5141772 -3.711074e-16)
(94.083552 5.1651711 1.819823e-19)
(94.660703 5.5949589 3.7585901e-16)
(95.102396 6.20849 2.9287772e-18)
(95.78321 6.5040839 1.8704299e-16)
(87.888716 11.088958 0)
(88.288625 11.913159 -4.2413098e-16)
(89.419383 12.909851 4.0043112e-18)
(90.014934 13.452484 5.8423871e-18)
(91.248226 14.12195 8.4276845e-16)
(91.917685 14.117278 -4.207574e-16)
(93.209692 14.322246 -4.1760084e-16)
(93.843424 13.782752 4.1919928e-16)
(95.10716 13.164195 2.0945281e-16)
(95.583533 11.988319 -2.4473477e-16)
(96.1265 11.094181 0)
(96.365591 10.323129 2.4291968e-16)
(96.3941 9.8974603 -2.4292336e-16)
(96.070938 9.3004673 0)
(95.720448 8.9194375 0)
(95.080362 8.4725328 0)
(94.431499 8.3248509 -2.5367924e-16)
(93.65159 8.3144713 2.5367874e-16)
(96.11344 6.9777101 -2.1305862e-16)
(96.588053 7.4499804 0)
(96.793934 7.7734398 0)
(97.200086 8.0513225 0)
(97.318476 8.2202511 0)
(97.531019 8.5459456 0)
(97.475635 8.8020013 0)
(97.662727 9.1685474 2.1154833e-16)
(97.486183 9.4129171 -4.2353939e-16)
(96.405273 4.3537104 -5.0507953e-19)
(96.723247 4.6709214 -3.6923735e-16)
(96.65777 5.0572086 0)
(96.963574 5.3848041 -1.840539e-16)
(96.877109 5.7712985 1.8400054e-16)
(97.197199 6.1406907 0)
(97.101595 6.5971145 0)
(97.390835 7.007046 0)
(97.22799 7.4459535 0)
(97.885709 2.8417898 3.230542e-16)
(98.197947 3.142691 0)
(98.094623 3.5775568 1.6115101e-16)
(98.421778 3.8797164 -3.2212529e-16)
(98.322425 4.3296309 1.6097423e-16)
(98.670236 4.6432699 0)
(98.571443 5.1263396 0)
(98.961864 5.4715797 0)
(98.85484 6.0082085 1.5992679e-16)
(98.560654 1.3751803 0)
(98.745849 1.6060343 2.8751685e-16)
(98.638509 1.9225043 -4.3114838e-16)
(98.859615 2.1590581 1.4362795e-16)
(98.769211 2.5244842 1.4329076e-16)
(99.04659 2.7766857 -2.2075506e-19)
(98.975771 3.2052693 -2.8593062e-16)
(99.311131 3.4698667 2.8542961e-16)
(99.262624 3.9434736 -1.4256031e-16)
(99.537149 0.88014596 0)
(99.48652 1.0920746 1.2959378e-16)
(99.649084 1.2428907 -1.2967692e-16)
(99.609037 1.48733 0)
(99.815104 1.6639001 -2.5844084e-16)
(99.806237 1.8877913 2.5851823e-16)
(99.999018 2.2120208 1.2880689e-16)
(100.09201 2.3965341 -2.5726455e-16)
(100.25275 2.7997725 1.2849581e-16)
(99.777796 0.28168227 0)
(99.755884 0.41069069 0)
(99.851303 0.48820671 0)
(99.846241 0.64587493 -1.1840058e-16)
(99.987831 0.72608223 2.3655493e-16)
(100.00235 0.92525111 -2.3618634e-16)
(100.19411 1.018998 1.1799308e-16)
(100.2269 1.2714617 -1.1745096e-16)
(100.47211 1.3703814 2.3459301e-16)
(99.997831 0.18622127 -2.1943145e-16)
(100.05537 0.21605971 1.0821009e-19)
(100.0714 0.30362677 1.0957241e-16)
(100.16148 0.33447641 -1.0929971e-16)
(100.20028 0.4536556 1.0934575e-16)
(100.3139 0.47889396 0)
(100.42304 0.61805654 1.0875226e-16)
(100.5044 0.70431136 -2.1713404e-16)
(100.72265 0.78534504 1.084282e-16)
(100.01706 -0.067059789 6.2043175e-20)
(100.03783 -0.074143814 1.0217196e-16)
(100.06205 -0.057111139 1.0207728e-16)
(100.1045 -0.068139208 -1.0208047e-16)
(100.14498 -0.031388952 0)
(100.21878 -0.045461802 0)
(100.2743 0.0064355959 -1.0157132e-16)
(100.39287 0.013645754 2.0292663e-16)
(100.46721 0.054252117 -1.0133674e-16)
(100.62668 0.059211982 0)
(100.73497 0.11191439 -1.0048851e-16)
(100.97145 0.14823204 3.7590361e-19)
(101.12894 0.19811301 4.2876698e-19)
(101.4372 0.24936815 4.8141293e-19)
(101.67483 0.32708684 9.9219941e-17)
(102.0411 0.38901092 9.8103177e-17)
(102.36699 0.47612835 -9.8103185e-17)
(102.80772 0.54995192 0)
(100.81951 0.97657897 0)
(101.08067 1.0202017 0)
(101.2333 1.2863881 -1.0690564e-16)
(101.5762 1.2944264 4.9570012e-19)
(101.77771 1.6324282 5.4555452e-19)
(102.19087 1.6274695 1.0584238e-16)
(102.44514 2.0236063 1.0457348e-16)
(102.97541 2.0154452 -1.046104e-16)
(103.25943 2.4153546 0)
(100.53184 1.6739643 -1.171358e-16)
(100.8393 1.7767736 0)
(100.93217 2.1427583 0)
(101.31547 2.2504342 -1.1547143e-16)
(101.44711 2.6855594 2.3040576e-16)
(101.91636 2.7964075 -5.9609518e-19)
(102.07549 3.2814541 -6.5218391e-19)
(102.65755 3.466927 -1.137425e-16)
(102.84786 3.8901418 0)
(100.44526 3.0105003 -1.2781101e-16)
(100.5904 3.5203581 1.2781097e-16)
(100.88455 3.7312993 0)
(101.01703 4.274083 0)
(101.44601 4.5095487 1.2588252e-16)
(101.51332 5.1079385 -1.2585143e-16)
(102.09917 5.3715563 1.2459008e-16)
(102.18493 6.0657919 -6.2643425e-17)
(102.84389 6.3191772 -6.1918296e-17)
(99.652651 4.2148366 -1.4190412e-16)
(99.622598 4.7284609 1.4190587e-16)
(100.06005 5.0109566 0)
(100.04377 5.5708842 0)
(100.54968 5.8826258 0)
(100.53877 6.5224082 0)
(101.12032 6.8803488 0)
(101.11481 7.6205192 0)
(101.78558 8.0150628 0)
(99.296378 6.4124496 -1.5993685e-16)
(99.160267 7.0090062 1.5943381e-16)
(99.629286 7.464439 -1.5943805e-16)
(99.465422 8.1201037 1.5885879e-16)
(99.971301 8.6200812 -1.5884831e-16)
(99.789905 9.354947 0)
(100.35284 9.9032699 0)
(100.16501 10.738179 0)
(100.80939 11.328329 0)
(97.530142 7.8596395 0)
(97.353254 8.2937147 -1.8342726e-16)
(97.656547 8.7455538 1.8336894e-16)
(97.405329 9.2270504 0)
(97.703986 9.7380956 1.8365895e-16)
(97.389977 10.324352 -1.8362911e-16)
(97.758167 10.919425 0)
(97.412611 11.651407 9.1934546e-17)
(97.891019 12.352871 -1.8392938e-16)
(97.577617 9.8276908 2.1200262e-16)
(97.257014 10.108373 2.1373959e-16)
(97.298245 10.60721 -2.1374658e-16)
(96.845235 10.971145 2.1571598e-16)
(96.800119 11.763554 -4.3265175e-16)
(96.196846 12.493176 4.3472849e-16)
(96.103482 13.518146 -4.3656406e-16)
(95.73501 14.502533 2.1871118e-16)
(95.661831 15.805299 0)
(93.018251 8.1943054 -2.5973606e-16)
(92.249887 8.1724062 2.5973461e-16)
(91.522821 8.377299 0)
(90.591813 8.7276464 0)
(89.47986 9.4241154 0)
(88.855563 10.462286 0)
(87.815602 12.091862 0)
(86.373524 14.354222 -1.4035232e-16)
(86.597111 15.481652 1.3897474e-16)
(87.029045 15.294498 1.3906347e-16)
(95.406844 16.886292 0)
(97.564775 13.174901 9.195471e-17)
(100.63512 12.270715 0)
(101.7926 8.8569131 0)
(102.9955 7.1057658 0)
(103.52073 4.2677801 5.5706099e-17)
(103.93195 2.493339 5.1120956e-17)
(103.24365 0.65292833 4.796994e-17)
(88.012641 14.266069 -1.4030732e-16)
(95.791067 17.746444 0)
(98.141704 13.990084 0)
(101.378 12.897334 7.7668113e-17)
(102.54634 9.2902794 0)
(103.76671 7.3759492 -6.0606298e-17)
(103.806 4.6176889 -1.1096492e-16)
(104.26692 2.866158 -1.0177624e-16)
(103.78765 0.74528978 -9.5502114e-17)
(87.662374 12.540418 0)
(95.43669 18.271086 0)
(97.775149 14.95991 9.1526796e-17)
(101.22855 13.945713 -7.7663745e-17)
(102.57969 10.239385 0)
(103.97982 8.2726846 6.0610386e-17)
(104.52811 5.1293196 5.525387e-17)
(105.06332 2.9978381 5.0655376e-17)
(104.33594 0.87459739 4.7532166e-17)
(86.901357 12.510466 1.4246284e-16)
(95.48584 18.97444 0)
(98.3812 15.750439 -1.8281693e-16)
(102.08316 14.60717 0)
(103.45165 10.709017 0)
(104.80846 8.5072311 -5.9486272e-17)
(104.93389 5.4225194 -5.4210454e-17)
(105.47203 3.3811039 0)
(104.99427 0.97832242 -4.6526205e-17)
(85.357659 12.115115 -1.4246053e-16)
(94.75605 19.775152 -1.1007641e-16)
(98.026625 16.730517 9.128531e-17)
(101.95946 15.758323 0)
(103.50943 11.779362 0)
(105.23689 9.5349216 5.9486246e-17)
(105.75675 6.0533074 5.4210428e-17)
(106.41755 3.5317838 0)
(105.68187 1.1264926 4.6526199e-17)
(84.464391 12.967616 0)
(94.621326 20.593819 1.1014221e-16)
(98.615597 17.558761 -9.0615314e-17)
(102.90475 16.446738 0)
(104.4892 12.252557 0)
(106.02741 9.7928409 -5.8137978e-17)
(106.23634 6.3883535 -5.2982232e-17)
(106.89415 3.9523079 0)
(106.45038 1.2352725 -4.5337085e-17)
(82.91511 12.933111 0)
(93.664608 21.737744 0)
(98.2112 18.749353 9.0615233e-17)
(102.83126 17.760317 -3.7380476e-17)
(104.60931 13.44584 -3.2574405e-17)
(106.63575 10.884451 8.6818798e-17)
(107.20685 7.0639209 7.9128547e-17)
(108.00073 4.1718354 0)
(107.28237 1.3958815 6.7674094e-17)
(82.091101 14.640271 0)
(93.663497 22.881499 -5.5287587e-17)
(98.845878 19.667148 0)
(103.84906 18.4676 3.7365532e-17)
(105.69522 13.923894 3.2561958e-17)
(107.61024 11.130064 -4.13663e-19)
(107.79009 7.3661068 -5.1906774e-17)
(108.55841 4.547004 0)
(108.16835 1.5181777 -2.2337011e-17)
(79.916259 14.326518 -7.4488099e-17)
(92.660311 24.865807 5.5274192e-17)
(98.469615 21.379204 0)
(103.88629 20.06944 0)
(105.94588 15.370709 0)
(108.17907 12.385148 -5.6047665e-17)
(108.86976 8.1925827 4.1179218e-19)
(109.81137 4.8675925 0)
(109.12217 1.6830775 0)
(110.41048 1.8192918 0)
(110.47124 5.1520454 0)
(109.63208 8.3330119 -1.1163686e-18)
(109.40073 12.452386 2.9170427e-17)
(107.12889 15.604855 0)
(105.04159 20.633418 -4.611982e-18)
(99.385034 22.228062 -5.0038956e-19)
(92.774854 26.442526 -4.6002854e-17)
(79.482172 16.764565 1.4049994e-16)
(111.58278 1.9022162 -1.0494391e-17)
(111.86343 5.4821167 -1.4306781e-18)
(110.83562 9.1833444 1.2758364e-17)
(110.09699 13.645101 -4.3826594e-20)
(107.70018 16.966908 -1.3321651e-17)
(105.38467 22.255765 1.7372122e-17)
(99.420378 24.217517 -5.6299724e-18)
(91.901881 29.219231 5.9645074e-17)
(77.768019 22.15033 -7.2309468e-17)
(112.80036 1.9725373 2.0956556e-17)
(112.64896 5.6056466 0)
(111.81453 9.1525228 2.4590916e-17)
(111.44249 13.597764 -1.3268995e-17)
(109.09737 17.086221 1.3481289e-17)
(106.86957 22.691977 -3.2750379e-17)
(101.01445 24.925225 -2.6644664e-17)
(93.495238 30.680264 1.3624088e-17)
(79.659854 25.173025 2.0347721e-18)
(114.11837 2.0488736 -1.047978e-17)
(114.21567 5.9657631 -1.4014818e-18)
(113.18218 10.063035 -1.0802382e-17)
(112.34499 14.852521 1.5150864e-17)
(109.93354 18.568176 5.6007416e-18)
(107.54952 24.463906 1.7520781e-17)
(101.55775 27.162414 2.1416356e-17)
(93.598125 33.529609 7.2731986e-18)
(80.193402 30.084695 -8.3291304e-18)
(115.53996 2.1345905 2.5081798e-18)
(115.11283 6.0463018 -2.7098165e-18)
(114.30465 9.9231886 -1.5072045e-18)
(113.84095 14.684268 4.8714028e-18)
(111.5389 18.508126 -5.6658755e-18)
(109.30656 24.698291 -6.2948826e-18)
(103.5482 27.635971 -5.5272814e-18)
(95.753846 34.701226 6.2399346e-18)
(82.124268 32.078794 -1.0107572e-17)
(117.03731 2.2227263 -2.5379048e-18)
(116.89023 6.4332534 2.7423938e-18)
(115.87256 10.867056 -1.48431e-18)
(114.90878 15.974964 -2.0979591e-20)
(112.63245 20.03325 -1.8040861e-18)
(110.26176 26.511627 4.2707239e-18)
(104.51777 29.985475 -5.4500857e-18)
(96.260238 37.632025 6.1680539e-18)
(83.72532 36.511182 0)
(118.6004 2.3036838 -2.4092139e-18)
(117.88567 6.4913038 -1.3381529e-18)
(117.14029 10.591159 -1.4166695e-18)
(116.50028 15.657472 -1.6185134e-18)
(114.37011 19.787793 -1.7686443e-18)
(112.14055 26.524923 4.3223625e-18)
(106.66868 30.211018 -1.0189256e-17)
(98.736111 38.456169 1.312458e-17)
(84.969094 38.845631 -8.1503493e-18)
(120.2288 2.373149 7.1434151e-18)
(119.84137 6.8854235 5.1340059e-18)
(118.77151 11.606156 7.079183e-18)
(117.75114 16.950689 7.6889686e-18)
(115.69348 21.30702 5.3927851e-18)
(113.3775 28.2982 -1.9877079e-18)
(108.01846 32.537286 -5.233476e-18)
(99.836054 41.40177 -9.7043692e-19)
(87.693953 42.143817 -9.1239401e-18)
(121.93068 2.4295571 -1.3929296e-17)
(120.94146 6.8878654 -5.1984382e-18)
(120.19407 11.131637 -1.8051048e-17)
(119.40991 16.485821 -4.6975388e-18)
(117.49177 20.864635 1.1766383e-17)
(115.32463 28.052632 6.0480499e-18)
(110.31125 32.427816 -2.8442554e-17)
(102.62574 41.944416 5.8129071e-18)
(88.717364 44.22465 1.7619262e-17)
(91.797479 46.441636 -1.7009185e-17)
(104.14239 44.503433 6.6196397e-18)
(111.98965 34.510728 4.169218e-17)
(116.84292 29.715875 -5.86736e-18)
(119.02725 22.304173 2.7669326e-18)
(120.82892 17.748447 8.6980941e-18)
(121.98476 12.140856 1.2483018e-17)
(122.97712 7.2401958 -6.2080202e-19)
(123.70141 2.4733139 1.8753011e-17)
(93.220207 47.532578 6.4930045e-17)
(107.22617 44.835978 5.4461679e-18)
(114.47982 34.280514 -5.7986596e-17)
(118.79575 29.19122 -1.8328494e-18)
(120.83972 21.662251 -1.1718713e-17)
(122.54782 17.116467 -1.0422554e-17)
(123.39275 11.611349 -2.2156272e-17)
(124.23014 7.2769157 0)
(125.54099 2.5030195 -9.0110502e-18)
(96.237515 49.55245 -8.3056359e-17)
(108.90115 46.93454 5.3676603e-17)
(116.26868 35.82367 3.0978476e-17)
(120.58894 30.676308 -1.7722497e-18)
(122.55889 22.984232 2.4685137e-17)
(124.10322 18.328646 9.5657239e-21)
(125.37096 12.498947 3.4769405e-18)
(126.34923 7.5552161 1.7380266e-17)
(127.44104 2.524373 1.6651672e-17)
(97.905085 50.220516 -1.5777967e-17)
(112.24853 47.065473 7.489264e-18)
(118.98313 35.320479 -4.302296e-18)
(122.48162 29.870429 0)
(124.32342 22.146673 -2.5096713e-17)
(125.82695 17.558847 0)
(126.87637 11.894668 1.926185e-17)
(127.64762 7.5452058 -3.5665214e-17)
(129.39601 2.5350368 -8.2353189e-19)
(101.18311 51.974847 -6.767769e-18)
(114.16997 48.73456 -3.989497e-17)
(120.92431 36.502213 4.0439511e-18)
(124.42475 31.105852 0)
(126.1783 23.297093 -2.4408347e-17)
(127.48826 18.695295 2.075202e-17)
(128.7515 12.68585 1.2127167e-18)
(129.89477 7.8455788 3.566648e-17)
(131.39688 2.5290741 -1.6224415e-17)
(103.03175 52.657027 -6.4849459e-17)
(117.71861 48.619404 -2.9787632e-17)
(123.6874 35.758064 -1.7318994e-19)
(126.26277 30.045917 -3.1472456e-18)
(127.87899 22.279127 -1.2596074e-19)
(129.20519 17.799547 -4.1147946e-17)
(130.58448 12.001929 1.1711391e-18)
(131.25839 7.7811532 -1.7655778e-17)
(133.44374 2.509857 0)
(106.86616 54.43338 4.4563836e-17)
(119.88187 49.779278 4.414611e-17)
(125.66378 36.289497 -7.7506806e-20)
(128.14346 30.940267 -2.9555731e-18)
(129.74939 23.243345 2.1084252e-17)
(130.92007 18.851988 2.1616462e-17)
(132.2792 12.791381 1.1325719e-18)
(133.53348 8.0933878 -1.0377834e-18)
(135.52945 2.4785844 0)
(109.08641 55.070584 0)
(123.66187 49.255891 -3.6733654e-18)
(128.44543 35.265384 3.1323065e-18)
(130.05084 29.771572 -4.1911094e-17)
(131.46358 22.11891 -1.2758662e-18)
(132.6149 17.869341 3.6146802e-17)
(134.17676 11.851644 -3.2806758e-17)
(135.00788 8.002846 3.1104173e-17)
(137.64697 2.4316442 2.6616376e-17)
(113.49578 56.645566 8.5425309e-17)
(126.13892 49.979606 5.369376e-17)
(130.36306 35.20733 -2.7895982e-18)
(131.6154 30.247907 4.4254035e-17)
(133.08167 22.855701 -1.2732453e-18)
(134.36195 18.869789 -3.6827376e-17)
(136.0571 12.85292 3.5446673e-17)
(137.28207 8.2858618 -3.249712e-17)
(139.78073 2.3913364 -1.7132417e-18)
(142.11391 2.315214 -2.5035048e-17)
(138.86708 8.1810287 2.7637777e-17)
(137.77136 11.656575 0)
(136.04471 17.76399 -2.1121947e-18)
(134.97472 21.755321 3.7918498e-17)
(133.51784 28.952365 3.6327981e-17)
(132.98463 33.807767 0)
(130.29855 48.714786 -9.8285392e-18)
(116.47207 56.936052 -8.3574703e-17)
(144.21527 2.1907166 0)
(141.18496 8.3994785 -2.8590608e-17)
(139.80494 12.612174 0)
(137.80904 18.694461 -2.0381461e-18)
(136.4332 22.16828 -6.8653626e-17)
(134.99922 29.078103 -3.9397948e-17)
(135.00423 32.875976 3.5099592e-17)
(133.44308 48.443153 -3.295471e-17)
(122.91775 57.927095 4.325908e-17)
(146.3949 2.0164914 0)
(142.86991 8.2242896 0)
(141.60204 11.385988 -2.7944976e-17)
(139.6398 17.600145 0)
(138.30394 21.145503 3.5287863e-17)
(136.67159 27.682415 -3.3865954e-17)
(137.12726 31.106395 -3.2265386e-17)
(137.61416 45.834558 -1.7379155e-18)
(127.31102 57.174022 -2.6213923e-17)
(148.58698 1.8162165 0)
(145.20681 8.4008674 0)
(143.63657 12.329363 2.8517192e-17)
(141.22785 18.414583 2.8077899e-17)
(139.64026 21.519187 3.2624666e-17)
(137.77892 27.757197 3.7043158e-17)
(138.52948 29.778314 0)
(140.21004 44.310265 8.7694576e-18)
(135.57142 56.936194 -3.3470401e-17)
(150.74833 1.6005446 3.1362641e-19)
(147.01581 8.1927665 -3.4439318e-19)
(145.42627 11.031235 0)
(143.22548 17.425931 -1.8375248e-18)
(141.49173 20.612815 -6.6933612e-17)
(139.26416 26.669375 2.1838999e-18)
(139.71719 28.086069 3.0577312e-17)
(142.97243 40.144676 -8.9592991e-18)
(141.08399 55.088327 -2.7622027e-17)
(152.86863 1.3598834 -2.8981052e-19)
(149.33687 8.3698764 3.1879106e-19)
(147.41752 11.931966 0)
(144.81466 18.206664 -3.1322286e-17)
(142.81967 21.0975 3.6387727e-17)
(140.08265 26.90229 -2.1524471e-18)
(140.33135 27.04455 -3.162146e-17)
(143.92322 37.26037 0)
(151.10546 52.966813 2.9791896e-17)
(154.93259 1.096786 2.6489227e-19)
(151.27275 8.0704498 1.9013963e-17)
(149.48381 10.738737 -7.555857e-19)
(146.91475 17.266207 2.563841e-17)
(144.7066 20.320094 3.2011449e-17)
(141.61444 26.452364 0)
(140.64066 26.030007 0)
(144.33927 31.607906 -1.3418633e-17)
(155.76098 50.135339 0)
(157.10719 0.69393001 0)
(153.53676 8.1798711 -1.9704272e-17)
(151.25173 11.441582 0)
(148.43653 17.921571 -2.8834622e-17)
(146.03621 20.79301 -2.9036632e-17)
(142.43686 26.849095 3.2163463e-17)
(140.81583 25.895417 0)
(143.14622 28.854542 1.0964505e-17)
(163.58962 45.737938 1.4981726e-16)
(158.27851 0.48238021 0)
(155.51126 7.7472806 0)
(153.67146 10.216638 -6.6994593e-19)
(150.90991 17.013846 -8.4971811e-19)
(148.36262 19.983137 1.7877289e-18)
(144.54607 26.999805 -3.3220038e-17)
(141.39357 26.642185 0)
(140.75783 23.275438 0)
(161.88905 34.507939 -1.5395924e-16)
(160.57234 -0.11186114 -3.442917e-19)
(157.73933 8.0729626 -1.0555271e-19)
(155.01473 11.006547 1.6947677e-17)
(152.04368 17.444804 0)
(149.31623 20.521301 0)
(145.33047 27.227494 -1.8155065e-18)
(140.89883 27.192594 -3.2797687e-17)
(137.16618 26.014641 1.3502827e-18)
(170.83326 35.027356 0)
(162.52549 -0.088562923 -2.6902685e-19)
(159.43017 8.1035093 -1.0988304e-19)
(157.3267 10.632704 -1.5407485e-17)
(154.16544 18.226158 0)
(150.63865 22.109144 0)
(146.66264 28.416906 1.6455003e-18)
(141.35673 28.007969 9.4047009e-17)
(139.86275 25.698688 -1.2016618e-18)
(169.38879 30.874336 -3.7067829e-16)
(164.54867 0.00428919 0)
(161.5974 8.3661312 1.7148517e-17)
(158.89622 11.513278 0)
(155.32098 18.580655 1.0795305e-18)
(151.95025 22.418443 -1.1775208e-18)
(147.10008 29.013372 -1.505577e-18)
(141.17518 28.106787 -1.1768713e-16)
(139.88168 23.50623 9.9833813e-19)
(157.65321 26.533309 3.5072321e-16)
(166.00608 -0.16365434 2.9985218e-18)
(163.14299 8.3146118 -1.6453722e-17)
(160.8412 10.937232 1.8351115e-17)
(157.41943 19.409987 2.7251318e-17)
(153.17989 24.139415 -3.4195715e-17)
(148.40899 30.404267 3.7492761e-17)
(140.18663 27.514133 5.8419921e-17)
(136.42378 20.051669 2.4720893e-17)
(140.80038 29.907555 0)
(167.30685 -0.56711307 -3.0050572e-18)
(165.18947 8.3704551 8.9598552e-18)
(162.49883 11.91383 -1.7752343e-17)
(158.51429 19.796169 -3.1358702e-18)
(154.33772 24.556271 3.2847459e-17)
(148.31993 31.254321 -2.8856536e-18)
(137.29383 27.112292 0)
(132.2709 19.585236 -2.4309949e-17)
(111.23227 41.987271 0)
(168.79936 -0.49516071 -3.0463072e-18)
(166.8442 8.1227008 -8.6529353e-18)
(164.44606 11.210038 1.0646516e-17)
(160.77801 20.502651 -2.2897319e-17)
(155.66661 26.251657 -8.8517115e-19)
(148.82637 32.749914 -3.2020429e-17)
(133.85228 24.914505 5.3013354e-17)
(127.34879 15.817469 -2.4288365e-17)
(86.88136 49.196066 2.6677059e-16)
(170.21204 -0.5312328 2.8869668e-18)
(168.47735 7.8978217 7.694442e-20)
(165.98932 11.955824 -9.9362968e-18)
(161.98914 20.916546 6.1503015e-19)
(156.66544 26.783369 -6.6347638e-19)
(148.1323 33.565878 -2.8904243e-17)
(129.56128 25.479465 -1.0211739e-16)
(116.93013 15.536727 2.351674e-17)
(57.576773 35.565568 -2.5283412e-16)
(171.05467 -1.0937271 5.2058624e-20)
(170.17466 7.5083362 -5.5283005e-20)
(168.11848 11.22774 2.5655297e-18)
(164.50913 21.409135 1.1105497e-17)
(157.93162 28.456659 -2.002546e-17)
(148.07323 35.29479 5.4737695e-17)
(125.23717 24.718684 9.7245068e-17)
(102.03285 3.7200702 -4.8909222e-17)
(-7.2980238 -23.868189 2.6885976e-16)
(171.93586 -1.3100449 -9.8095278e-18)
(171.5585 7.0510185 1.8800474e-20)
(169.55289 11.668748 -3.5161855e-18)
(165.81908 21.683884 -1.0768616e-17)
(159.0761 29.085179 1.8718719e-17)
(146.41959 36.247247 -2.6346326e-17)
(116.0505 23.231566 -4.5393699e-17)
(74.364574 -2.2855063 4.6953404e-17)
(-30.610369 -33.21259 -2.5616703e-16)
(-28.798125 -25.636135 -4.1989107e-16)
(58.394492 -9.0405497 -1.6476412e-18)
(107.20216 21.543216 -7.8057173e-19)
(145.19163 37.514893 6.6609061e-19)
(160.08795 30.601917 0)
(168.32706 21.882174 -2.2229527e-20)
(171.57267 10.825835 5.5004144e-18)
(172.9962 6.28806 7.8909149e-18)
(172.876 -1.3213762 2.1268076e-17)
(-28.737429 -21.370056 4.0542378e-16)
(46.144931 -12.361144 0)
(101.93409 22.701272 0)
(144.10641 38.693016 -5.8771074e-17)
(161.69904 30.707419 0)
(169.89219 21.530571 -1.186356e-18)
(172.8577 10.652865 -2.001698e-17)
(174.12481 5.7942102 -7.5262111e-18)
(173.24097 -1.8439196 1.4243213e-17)
(-29.235715 -19.573673 1.8883231e-18)
(28.540367 -24.233899 -1.5241963e-18)
(94.245452 22.725091 0)
(142.7597 40.05421 5.7479219e-17)
(162.60359 31.852902 0)
(172.32316 21.345963 1.2048107e-18)
(174.60139 9.7387536 1.502661e-17)
(175.22502 4.5159276 2.5834817e-19)
(173.17599 -2.3317597 -2.5218969e-17)
(-29.981864 -19.32087 7.0390059e-16)
(0.53157766 -45.668256 -1.5243216e-16)
(84.924749 21.202753 5.5959468e-20)
(141.60895 41.282199 0)
(164.21435 31.956623 1.3542386e-17)
(173.84356 20.762807 0)
(175.74882 9.3390177 -2.1505643e-19)
(176.19334 3.9170857 3.1021568e-19)
(173.01961 -2.64734 -1.0321074e-19)
(-28.439664 -19.690395 -6.7812122e-16)
(-20.818523 -58.523319 -1.0540121e-17)
(72.894964 21.808236 -1.0892141e-16)
(139.29975 42.78664 5.7939126e-19)
(165.1871 32.922142 -7.8407426e-18)
(176.20684 20.277661 0)
(177.24822 8.2750423 -3.2616464e-17)
(176.94891 2.3698615 0)
(172.67866 -2.9754138 0)
(-25.720666 -17.764981 1.6254554e-18)
(-25.447693 -58.346894 1.5074189e-16)
(56.689438 15.367055 2.0256219e-16)
(136.68082 43.39384 -4.6143718e-17)
(166.93621 32.824407 -5.3508273e-18)
(177.67255 19.416886 3.6494275e-17)