/*--------------------------------*- C++ -*----------------------------------*\
  =========                 |
  \\      /  F ield         | OpenFOAM: The Open Source CFD Toolbox
   \\    /   O peration     | Website:  https://openfoam.org
    \\  /    A nd           | Version:  11
     \\/     M anipulation  |
\*---------------------------------------------------------------------------*/
FoamFile
{
    format      ascii;
    class       volScalarField;
    location    "0.175";
    object      p;
}
// * * * * * * * * * * * * * * * * * * * * * * * * * * * * * * * * * * * * * //

dimensions      [0 2 -2 0 0 0 0];

internalField   nonuniform List<scalar> 
880
(
79.99999999999999
80.00000000222659
80.00024500687665
80.12629458335411
80.00000000000001
80.00000000792781
80.00059416863199
80.32599277152785
80
80.00000010172609
80.00192781473015
80.80418390056751
79.99999999999996
79.99999993174195
80.00651599111973
81.69685200789313
79.99999999970954
80.00000000070099
80.00000003742601
80.00000455345617
80.00000006451167
80.00000083664469
80.00005048532532
80.0001043389294
80.02511014362419
80.04708028084946
80.11274504601214
80.03620716918169
84.02762851800979
86.5583969146808
88.42605010291791
89.34800865358802
80.00002981997081
80.00016675493868
80.00119344781825
80.00124962763161
80.00151714719014
80.004047960516
80.00978154995809
80.01531173166607
80.31960351159503
80.54500907785641
80.83082456567365
81.14306861643946
90.44865146205299
91.99935036457133
93.275549169117
93.69222613306907
89.76796007347389
87.69419037923683
87.11548176014253
86.52450224624074
82.22845177103105
82.70193788468265
83.10021343203448
83.26399234369258
80.05872093626414
80.12355436314999
80.19407612191834
80.26419924058767
80.00453183943765
80.01257316919958
80.02597807527017
80.03537228469084
80.03767063290819
80.03302358566047
80.02516147175477
80.01581163979908
80.31884220225486
80.3196226689404
80.28840373384396
80.23978646941657
83.29531896214729
83.08836199534869
82.77849092450199
82.39244017494276
86.15666617032809
86.00664926299305
85.67309005538553
85.14865357368168
84.56025885380298
81.97454887856728
80.17670595565794
80.00787965855143
83.62905533554033
81.46167108574085
80.10857699756031
80.0028060520268
85.39994220025805
80.89046447004975
80.03991664764406
80.00011058180553
99.81226145188469
80.89478701801994
80.01273799560813
80.0002424329728
80.00068271469732
80.01809478746263
82.36621888424767
128.4734309360112
80.00266757906857
80.05415285936968
84.14385336032356
133.3029499533449
80.00771814781118
80.12528162261003
86.92897950139631
139.8536840792983
80.02032859230579
80.29226088108986
90.71757447401887
145.185250778895
150.3196415404227
95.37157390017326
80.55131426577616
80.04278830813955
154.4569541048876
100.9859615900786
81.02145956467344
80.08489403460931
157.5964819927779
107.3954021460653
81.69651366092458
80.14336974780214
157.5414178372601
113.8792051510029
82.83027065641001
80.24751266911622
80.3914465254292
84.25914919050173
119.1496247807618
154.1225201726695
80.54070047960363
84.57987209497745
113.012750613905
140.9683553965297
80.68192952955677
83.42488031277061
103.4381333483041
124.9925383850901
80.23134173421249
81.93604167037739
92.90307391405756
104.8541915202231
80.44965156374975
82.46968952466058
87.32984972657296
80.61558589761555
80.40538459737213
81.35204212351331
81.81902468156477
58.34174705845022
80.17696516785472
80.73719634553647
79.51001653245514
46.95557669598693
80.02702727819306
80.34916501561788
77.18544864424992
45.00422902426754
44.4329161392311
75.56854498061597
79.88195283176536
79.98303442824169
44.07039533233489
74.47183228765056
79.56063360685772
79.97646025483553
44.83354100965431
73.77002913829499
79.41642712249647
79.97832340173881
42.5438547016162
72.31255834027414
79.30872516664175
79.98385035321975
46.03849363666444
72.75475332394323
79.47731916446254
79.99125956502274
48.77233753182924
74.20128127240729
79.71771312211258
79.99680229430199
50.1206560331254
75.47566903205447
79.84958752729504
79.998747962961
53.98501027384746
77.33118960896503
79.96063486049208
79.99955725362372
68.48271281553835
77.72614454555702
79.8135154853465
79.99568078413613
66.64999944887028
77.62195453359907
79.82974869210659
79.99626863082416
63.12968337276794
77.40791529679599
79.84530577144342
79.99689504612543
59.52960429001483
77.10927689659073
79.85680590463363
79.99752114003481
53.98501027380829
77.3311896088739
79.96063486059116
79.99955725332444
50.12065603315908
75.47566903192539
79.84958752711744
79.99874796276613
48.77233753178653
74.20128127226992
79.71771312190431
79.99680229413906
46.03849363665684
72.75475332375201
79.47731916448548
79.99125956500768
79.9830344283609
79.88195283186802
75.56854498068149
44.43291613897117
79.976460254814
79.5606336068912
74.47183228767096
44.07039533220831
79.97832340183459
79.41642712255116
73.77002913804834
44.83354100952257
79.9838503532533
79.30872516689878
72.3125583401323
42.54385470160296
45.00422902411799
77.18544864424474
80.34916501552949
80.02702727831122
46.95557669592856
79.51001653242695
80.73719634552756
80.17696516789324
58.34174705828713
81.81902468159446
81.35204212350489
80.40538459753579
80.61558589758796
87.32984972637894
82.46968952423489
80.44965156407955
80.39144652524821
84.25914919112968
119.1496247815163
154.1225201727756
80.54070047953893
84.57987209489984
113.0127506143263
140.9683553966539
80.68192952892636
83.42488031294673
103.4381333482132
124.9925383850232
80.23134173434099
81.93604166992309
92.90307391408746
104.8541915202092
157.5414178373495
113.8792051510792
82.83027065578131
80.24751266972655
157.59648199313
107.3954021460872
81.69651366110955
80.14336974764082
154.4569541050305
100.9859615909288
81.0214595657943
80.08489403471872
150.3196415403105
95.37157389965547
80.5513142650736
80.04278830820213
80.00068271474638
80.01809478744988
82.36621888406582
128.4734309358959
80.00266757939153
80.05415285963988
84.14385336018198
133.3029499530963
80.00771814821039
80.12528162272442
86.92897950147855
139.8536840791541
80.02032859231529
80.29226088162127
90.71757447429236
145.1852507789962
80.00024243297689
80.00011058176202
80.00280605219508
80.00787965856787
80.01273799525609
80.03991664748939
80.10857699745141
80.17670595557955
80.89478701789461
80.89046447011378
81.46167108560701
81.97454887843583
99.81226145175886
85.39994220029151
83.62905533558693
84.56025885378298
80.01581163990262
80.23978646953782
82.39244017506032
85.14865357379088
80.02516147168166
80.28840373402296
82.7784909246205
85.67309005544394
80.03302358565051
80.31962266903115
83.08836199521424
86.00664926263256
80.03767063277026
80.31884220216986
83.29531896225268
86.15666617037222
80.00453183940662
80.05872093602504
82.22845177115222
89.7679600736201
80.01257316895796
80.12355436320449
82.70193788488453
87.69419037922648
80.02597807539522
80.19407612173785
83.10021343199105
87.1154817599549
80.03537228459302
80.26419924050728
83.26399234383132
86.52450224600277
93.69222613300181
81.14306861635669
80.01531173149507
80.00124962776962
93.27554916900525
80.83082456575957
80.00978154976269
80.00119344777747
91.99935036462796
80.54500907797659
80.00404796005738
80.00016675482711
90.44865146196659
80.31960351143266
80.00151714703568
80.00002982025774
89.34800865348561
80.03620716932248
80.00010433894495
80.00000455366863
88.42605010284824
80.11274504597795
80.00005048523185
80.00000003743813
86.55839691463578
80.04708028080083
80.00000083653656
80.00000000068715
84.02762851797165
80.02511014350586
80.00000006443115
79.99999999984689
79.99999999999999
80.00000000222707
80.00024500692122
80.1262945832044
80
80.00000000782892
80.00059416862281
80.32599277155782
80
80.00000010158541
80.00192781468736
80.80418390057119
80.00000000000001
79.99999993163652
80.00651599105649
81.69685200778282
80.31099303728928
80.74423176273943
81.71322209364185
84.86853332198581
80.7442317627423
81.39089990352869
83.56547660202418
89.30267097621439
81.71322209360117
83.56547660200208
88.35611174792236
96.91554365299038
84.86853332204343
89.30267097631038
96.91554365311974
107.8308298662013
119.8040659959847
110.0074941967715
105.4546844164743
97.17688050702742
117.1862246353309
114.5085874924645
114.4819058459676
109.9012396946243
117.4621459231605
116.5606172035849
116.2937415381594
114.3110849150906
117.1083244272317
116.5556156663691
116.3795243880215
114.9992817726699
114.0146070235016
113.7002659100036
112.9626142592269
110.7478277613996
114.9108239524922
113.9571976104369
113.1294452285893
110.9022285600312
115.0141858736207
114.0304739147061
113.3102828940081
111.176138722801
115.3472249953091
114.0979781448164
113.3843958694085
108.4564669687789
85.99847725895761
76.26492786952254
76.81684929603216
77.98185621443537
78.46272857414681
73.4423651834657
76.2373406767547
77.67948438162244
71.71572732000556
73.47898552048504
76.86753723246174
78.25928354299026
62.28020309717991
71.29090375415193
75.92402549487669
77.41974890150773
78.90886487503982
79.92973514252796
80.82037287177732
81.45331022767735
78.68304437040659
79.71990482549705
80.6402226981796
81.357300609617
79.02844010188549
79.79406602895295
80.54848394694488
81.24197937446144
78.43821980889741
79.56775617764357
80.63423267798132
81.27380563285779
81.59923984254976
82.12878100145694
103.4730030650218
141.1322877900757
81.5732451431705
82.40406383990211
110.413933057799
141.6398394408259
81.54357740869737
82.87386927080108
114.0772072858362
140.0621621766118
81.64695277343773
83.19314462286867
118.1794205035705
142.9427181104796
193.5635408596703
185.6619785118295
181.0418801503215
176.8898442816247
195.7602731156485
188.14222666598
182.1891206116306
177.3542781283913
194.7432897656954
189.5362002858086
183.101323587462
177.8306858949519
192.9711873100491
190.9446575424761
184.5088130390914
178.4149227392478
176.411803774198
176.806580747796
175.8430729261716
176.9215920920797
176.6477805608738
176.5689113887248
175.0277427679442
177.568191681115
176.5017361991029
175.8587014655454
174.7495527937147
177.7994084659059
177.0125040949898
176.0206061810085
174.9106149283575
178.0786913516965
173.4004051908384
157.2474699468928
139.9699894438777
117.36227652465
176.4491459234726
161.652024024009
142.827744191801
126.0895190357946
177.8213455145698
165.7386093425942
146.3768166802489
133.3280477714519
178.2702666224526
169.6039380851095
152.5155437549072
150.6682831663846
72.22378181458761
17.11696688549114
5.131737611061324
6.874159603184036
56.96942616639029
11.34912122968319
5.198569790582165
6.621913336523646
39.37969624107029
7.007307317104176
5.422746823400573
7.337554832968558
22.37479269439374
4.293350629882744
5.830086221204242
7.50241668196754
10.59817527133294
13.98384681043735
17.62617630481067
18.90079199256439
10.47212511069228
14.34841429595645
18.01742477510046
19.74796701802304
10.96379434347627
14.71183684753819
18.01500497542507
21.16326112340133
11.24757432250706
15.30258200209318
18.99609181904942
23.0062727121559
28.57034110153614
30.22226218308507
30.67888827777078
32.36293667272444
28.94318986689637
31.98826660330576
31.80322061886203
33.74204432248159
28.0788551636568
32.4343923982959
32.50301509396084
33.69927017257869
26.12112234445581
31.96245702383457
33.07486574698866
36.43849532558536
26.35972148431446
24.75927486449546
27.42194619229124
28.30044906687931
25.23141711708277
22.20760502375872
21.78091700185128
21.91914089313053
22.31445252812143
21.82036973797571
21.99690350308652
21.91311334950021
17.30588916321881
19.7160474512349
20.70125128577754
20.54227026145388
20.209668448946
19.62909912328258
19.34733151391455
19.19331778211474
21.08363242208328
19.98205652741055
19.34073984801174
19.13373544581239
21.23710848286998
20.87603207277561
20.44867059686481
20.10915799712187
26.302725047738
24.78912002058917
23.51991762998587
22.85798509294042
19.19331778211592
19.13373544581687
20.10915799712182
22.85798509293795
19.3473315139141
19.34073984800832
20.44867059686939
23.51991762999748
19.62909912328246
19.98205652741049
20.87603207278245
24.78912002061496
20.20966844894226
21.08363242207732
21.2371084828785
26.30272504776102
28.30044906689584
27.42194619233775
24.75927486453236
26.35972148434623
21.91914089314371
21.78091700187817
22.20760502376669
25.23141711707515
21.91311334949554
21.99690350308076
21.82036973798302
22.31445252813022
20.54227026145297
20.70125128577786
19.7160474512309
17.30588916321799
36.43849532560007
33.07486574703631
31.96245702389003
26.12112234455534
33.69927017258985
32.5030150939991
32.43439239833982
28.07885516374582
33.74204432248583
31.8032206188906
31.98826660334237
28.94318986697256
32.3629366727324
30.6788882778006
30.22226218309499
28.57034110158039
18.90079199266786
17.62617630488014
13.98384681046173
10.59817527131664
19.74796701813322
18.01742477518047
14.34841429600763
10.47212511069339
21.16326112350479
18.01500497549722
14.71183684758857
10.96379434347837
23.0062727122605
18.99609181913118
15.30258200215658
11.24757432251585
6.87415960320097
5.131737611052768
17.116966885364
72.22378181449152
6.621913336542376
5.198569790583042
11.34912122965284
56.96942616634337
7.337554832983144
5.422746823403501
7.007307317103657
39.37969624105996
7.502416681979774
5.830086221208039
4.29335062988112
22.37479269439806
117.3622765245505
139.9699894438871
157.2474699468328
173.4004051906895
126.0895190357661
142.8277441918195
161.6520240239406
176.449145923367
133.3280477714356
146.3768166802529
165.7386093425216
177.8213455144903
150.6682831663641
152.5155437549195
169.6039380850872
178.2702666223827
176.9215920919667
175.843072926047
176.8065807475072
176.4118037746757
177.5681916810559
175.0277427678418
176.5689113885422
176.6477805612826
177.7994084658912
174.7495527937565
175.858701465489
176.5017361994477
178.0786913517047
174.9106149284349
176.0206061809294
177.0125040952877
176.8898442814735
181.0418801501062
185.6619785114538
193.5635408594393
177.3542781281782
182.1891206114639
188.1422266656038
195.7602731153884
177.830685894655
183.1013235873028
189.5362002854478
194.7432897654636
178.4149227389245
184.5088130389578
190.9446575420895
192.9711873098098
141.1322877898675
103.4730030648985
82.12878100153192
81.59923984259856
141.6398394406159
110.4139330576235
82.40406383994845
81.57324514322829
140.0621621765105
114.0772072856319
82.87386927082571
81.54357740875302
142.9427181103268
118.1794205033387
83.19314462288689
81.64695277351622
81.45331022786476
80.82037287176246
79.92973514223193
78.90886487510056
81.35730060981243
80.64022269813363
79.7199048251773
78.68304437048532
81.24197937466384
80.54848394693312
79.79406602869237
79.02844010198402
81.27380563303832
80.63423267791677
79.5677561773861
78.43821980898646
77.9818562142446
76.81684929589747
76.26492786954005
85.99847725910219
77.67948438139449
76.23734067663797
73.44236518353789
78.46272857426693
78.25928354273802
76.86753723234601
73.47898552060714
71.71572732010382
77.41974890125597
75.92402549473069
71.2909037543138
62.28020309729485
110.7478277613887
112.9626142591005
113.7002659101087
114.0146070234641
110.9022285599667
113.1294452285259
113.9571976105849
114.9108239524327
111.1761387227082
113.310282893951
114.0304739148607
115.0141858735497
108.4564669686634
113.3843958693871
114.0979781449907
115.3472249952148
114.9992817723935
114.3110849150134
109.9012396946537
97.1768805071158
116.3795243877596
116.2937415381064
114.4819058459495
105.4546844164842
116.5556156660985
116.5606172034756
114.5085874924421
110.0074941967054
117.1083244269914
117.4621459230623
117.18622463524
119.8040659958477
55.45742045162464
77.34454499414035
79.90712466813001
79.99910972745394
54.7068637116766
76.84643839932339
79.87563196477782
79.99863524951648
56.13991631695974
76.78593082759043
79.8694389999677
79.99840612956116
57.03301777496555
76.86240174435976
79.86354192367817
79.99805173719034
79.99568078431913
79.81351548514502
77.72614454555061
68.48271281558424
79.9962686308052
79.82974869200052
77.62195453359743
66.64999944892324
79.99689504624796
79.84530577132885
77.40791529676811
63.12968337280515
79.9975211400437
79.85680590459017
77.10927689659485
59.52960428997221
79.99805173705683
79.99840612957053
79.99863524956294
79.99910972728688
79.86354192355782
79.86943899990202
79.87563196466606
79.90712466807391
76.86240174436743
76.7859308275176
76.84643839940993
77.34454499415405
57.03301777492078
56.13991631687092
54.70686371160314
55.45742045153634
)
;

boundaryField
{
    back
    {
        type            empty;
    }
    inlet
    {
        type            zeroGradient;
    }
    front
    {
        type            empty;
    }
    top
    {
        type            zeroGradient;
    }
    outlet
    {
        type            fixedValue;
        value           uniform 80;
    }
    bottom
    {
        type            zeroGradient;
    }
    wall
    {
        type            zeroGradient;
    }
}


// ************************************************************************* //
