/*--------------------------------*- C++ -*----------------------------------*\
  =========                 |
  \\      /  F ield         | OpenFOAM: The Open Source CFD Toolbox
   \\    /   O peration     | Website:  https://openfoam.org
    \\  /    A nd           | Version:  11
     \\/     M anipulation  |
\*---------------------------------------------------------------------------*/
FoamFile
{
    format      ascii;
    class       volScalarField;
    location    "0.1725";
    object      Ma;
}
// * * * * * * * * * * * * * * * * * * * * * * * * * * * * * * * * * * * * * //

dimensions      [0 0 0 0 0 0 0];

internalField   nonuniform List<scalar> 
880
(
1.11801663592382
1.118016635913017
1.11801518569174
1.117355035629355
1.11801663592382
1.118016635875546
1.118012417833006
1.116241363578399
1.11801663592382
1.118016635747684
1.11800071046842
1.113932302016136
1.118016635923821
1.1180166358268
1.117951407757523
1.103696988363107
1.118016635925121
1.118016635910815
1.118016635620787
1.118016603440592
1.118016637693956
1.118016617516028
1.118016298062798
1.11801665010148
1.117736898145532
1.117474777896129
1.117002397751003
1.117814421057226
1.075125492657163
1.047194190753416
1.034675918049146
1.031506701902462
1.118016452225706
1.118015387921193
1.118010946682591
1.118007741286815
1.118000926415223
1.117968406453562
1.117916817081799
1.117890087945094
1.114864327836014
1.112105455914268
1.109621433787438
1.1084468982644
1.029335548563771
1.021584243907985
1.024781723394086
1.028034975429013
1.078936195743967
1.10445349030452
1.115026965651476
1.1239232113716
1.100868161994631
1.100886757183233
1.104689017634526
1.111225241267357
1.11747945687498
1.116949789590625
1.116642693198105
1.1168997694133
1.117984461752515
1.117933879615725
1.117862667933804
1.117765529826427
1.117711190274769
1.117706879307746
1.11774028933388
1.117802983229426
1.117601519258352
1.118142125705245
1.118457316424563
1.118631566115736
1.117902853111511
1.122061322379521
1.124628501232037
1.125745570931123
1.133590816929991
1.142548429960575
1.146718709135389
1.147276880328095
1.144656851587207
1.125359811957828
1.118589282176419
1.117880884583356
1.141305179359293
1.12468830668315
1.118434935783443
1.117948937051463
1.117929427200674
1.122343518208389
1.118221976941256
1.117996994575899
0.9805040831782589
1.114569169748628
1.118023505888201
1.118011979478519
1.118012340882661
1.117861513523063
1.096464888906043
0.7527490694725054
1.117995553658098
1.11758706369896
1.079019213515971
0.7426234060628103
1.117974742300525
1.11682476138772
1.053803818273212
0.723474383779389
1.117875782502056
1.115765725857617
1.02951176996431
0.7338669130187854
0.7467727719029997
1.001914373662141
1.113581425775145
1.117758474776852
0.7604893074361168
0.9797029363710918
1.111078106791004
1.117433926344825
0.7805227589230704
0.9566107349399393
1.106726470404346
1.117082613243649
0.8013556574314417
0.9434475200629425
1.101325200507374
1.116306482908925
1.11540387588046
1.093700688598481
0.9527396135446902
0.8354909886468576
1.114219789992043
1.097694593313993
0.994818348852428
0.9045635552741451
1.116473839399161
1.107136155314756
1.059954619166736
1.011151856287985
1.113187561396225
1.114324256795729
1.105038088786238
1.123111519357836
1.115032571099221
1.118394012857551
1.162018838588308
1.307185603093342
1.115327181508427
1.131471697105249
1.187971105478369
1.423756409592931
1.11707626514341
1.132227660034503
1.181160650261675
1.385388759275537
1.118299162640769
1.125850658684628
1.156022785299278
1.125468546967286
0.9560659081642077
1.130857653722891
1.121619080127087
1.118189068768068
0.8448280929545275
1.10310315432707
1.118308611244122
1.118094906480852
0.7649701168775203
1.0779967937151
1.116154707866289
1.118040859128248
0.6939663964369495
1.055710637379648
1.114566520817044
1.117973833311091
0.7384367534814151
1.056755223717802
1.11492627000304
1.117992608245473
0.8153524274637542
1.070093064100754
1.116045578654922
1.118002977006411
0.8889402134433816
1.085239772624237
1.117013514917562
1.118011311046622
0.9684048508818045
1.099694623888746
1.117770123320462
1.118015240820966
0.9433219556807211
1.097970771996454
1.116863774156115
1.117992479518823
0.942723040203126
1.098145549446662
1.116926783884383
1.117994810527684
0.9398029187710251
1.097097936480395
1.116973309467269
1.117997637079235
0.9343431021082498
1.096269619140536
1.117067914598819
1.118001463396743
0.9684048508827012
1.099694623891542
1.11777012332465
1.118015240824881
0.8889402134437001
1.085239772626767
1.117013514919448
1.118011311048533
0.8153524274648223
1.070093064102621
1.116045578655456
1.118002977007445
0.7384367534798449
1.056755223719814
1.114926270002621
1.117992608245475
1.118189068767037
1.121619080126085
1.130857653721677
0.9560659081633264
1.118094906479983
1.118308611243392
1.103103154326391
0.844828092952486
1.118040859127196
1.116154707866334
1.077996793716762
0.7649701168760875
1.117973833310665
1.114566520814947
1.055710637380551
0.693966396435562
1.12546854696482
1.156022785299051
1.125850658686094
1.118299162640144
1.385388759273487
1.181160650262044
1.132227660033681
1.117076265143625
1.423756409593574
1.187971105478069
1.131471697103801
1.115327181508116
1.307185603093173
1.162018838589566
1.118394012857731
1.115032571101013
1.115403875881227
1.093700688594094
0.9527396135400822
0.8354909886470816
1.114219789992015
1.097694593313558
0.9948183488500134
0.9045635552738751
1.116473839388735
1.107136155311756
1.059954619167523
1.011151856288485
1.113187561405812
1.114324256796742
1.105038088784835
1.12311151935774
0.8013556574321065
0.9434475200625201
1.101325200506751
1.116306482902496
0.7805227589232888
0.9566107349404382
1.106726470397325
1.11708261324572
0.7604893074359522
0.9797029363718397
1.111078106806042
1.117433926341182
0.7467727719019326
1.001914373659152
1.113581425766164
1.117758474777217
1.118012340882185
1.117861513522361
1.096464888905299
0.7527490694719494
1.11799555365457
1.117587063696721
1.079019213518885
0.742623406063319
1.11797474229618
1.116824761383973
1.053803818271668
0.723474383780916
1.117875782500789
1.115765725865368
1.029511769967284
0.7338669130202686
1.118011979478393
1.117996994576478
1.117948937049763
1.117880884583453
1.11802350589222
1.118221976942795
1.118434935784787
1.118589282176838
1.114569169750659
1.122343518207476
1.124688306684492
1.125359811958956
0.9805040831797212
1.117929427200256
1.141305179358916
1.144656851587367
1.117802983228507
1.118631566114297
1.125745570930539
1.14727688032733
1.11774028933463
1.118457316422806
1.124628501231767
1.146718709135723
1.117706879307737
1.118142125704682
1.122061322380468
1.142548429962079
1.117711190276031
1.11760151925888
1.117902853111452
1.133590816931093
1.117984461752547
1.11747945687704
1.100868161994174
1.078936195742417
1.117933879618125
1.116949789590601
1.100886757182505
1.104453490303915
1.117862667932406
1.116642693199842
1.104689017636131
1.11502696565395
1.117765529827108
1.116899769414067
1.11122524126687
1.123923211372954
1.028034975429471
1.108446898264245
1.117890087947435
1.118007741285392
1.024781723395538
1.109621433785857
1.117916817084849
1.118010946683467
1.021584243907998
1.112105455912957
1.117968406457556
1.118015387921786
1.029335548563766
1.114864327835687
1.118000926417177
1.118016452223046
1.031506701903681
1.117814421056624
1.118016650101823
1.118016603439056
1.034675918050196
1.117002397752661
1.118016298065045
1.11801663562067
1.047194190754397
1.117474777897112
1.118016617517842
1.118016635910876
1.075125492658101
1.117736898146355
1.118016637693023
1.118016635924137
1.118016635923821
1.118016635912943
1.118015185691063
1.117355035623659
1.11801663592382
1.118016635876569
1.118012417832859
1.116241363577116
1.11801663592382
1.118016635748128
1.118000710468485
1.113932302016259
1.11801663592382
1.118016635829218
1.117951407758308
1.103696988364027
1.116469807603126
1.114361972636332
1.107655840348488
1.077506106487543
1.114361972637937
1.109434551158116
1.090240677436269
1.03148054019894
1.107655840349415
1.090240677436834
1.037036923607937
0.9360095449621371
1.077506106487171
1.031480540198395
0.9360095449612019
0.8170248528302706
0.7807149892692135
0.8244550154734869
0.9064765829642555
0.9817099310324373
0.8343105181202723
0.8445522807348503
0.8817242682525492
0.9347517155874565
0.8492947093682482
0.8697262045372397
0.9043333652554243
0.9364736660519551
0.878520470228467
0.8990128817563959
0.9249424977624227
0.9455885933265488
0.9582669392242777
0.9670320402103587
0.9793822706308722
1.000392941228195
0.9451235557218691
0.9626022005719299
0.9766631329960459
1.024354070528938
0.9283279285743932
0.951422130047219
0.9684520295493462
1.084571891758673
0.9138508867241849
0.929302216702707
0.9394509634318599
1.167264626171862
1.180661863332736
1.208436785778824
1.172390534389655
1.159922868979287
1.285972267541257
1.295352064582957
1.234442095989375
1.198299087045527
1.438592291156385
1.348323640786097
1.268242541345096
1.220402825163734
1.181875627052189
1.07737013439746
1.044428963468673
1.03503685129888
1.156130784253105
1.155814109347471
1.155768111720574
1.153596420062925
1.177231422953727
1.164878828022533
1.160170956525906
1.156173213297831
1.188013839389539
1.16818384758727
1.159619863858872
1.154046019853405
1.036087122574723
1.043645314347672
1.055597056233767
1.072609178713062
1.150420554984832
1.143197362818726
1.00722452863924
0.7224567094431746
1.152189480022576
1.142720445558068
0.9130544189756526
0.5628358125788625
1.150603090218722
1.138219638550809
0.7907292819150554
0.3578317542637908
1.091541800162783
1.084017089233688
0.624657860252122
0.1429673158311864
0.5439011393553775
0.6079425972041899
0.6449329171631619
0.6867524081547182
0.4837431173381717
0.5868401318250751
0.6405675939107464
0.6866745844555225
0.3591653680590413
0.5146824453453606
0.6096549905795045
0.6709508910221087
0.1623093918976292
0.3091986902201732
0.4557341580475238
0.5595242377429788
0.7259427930907406
0.7485729083945929
0.7414476071178189
0.7278634520666405
0.7259692234909724
0.7473070068217557
0.745162528004728
0.7330221153751292
0.7174299208726203
0.7447403342371319
0.7468617666635217
0.7396359227703549
0.639799589658138
0.6970779881108309
0.7195951192314278
0.7158194624398049
0.7555609762771646
0.8378767912018938
0.9422604035383226
1.077647746343725
0.7504065396558708
0.8281707049017749
0.9299694046923686
1.096541519605752
0.754058585585806
0.8137455933264905
0.9445525806037487
1.389440177998184
0.744239006769898
0.800745127074076
0.9666701299173778
1.931643307812609
1.303650740692448
1.55280161546306
0.5991065244103959
0.3527842424346188
1.378302779956387
1.305679835107475
0.469129660316657
0.4793019097592022
1.435705454502141
0.9619668504340028
0.4490819924105417
0.5198796407468677
1.130375089971878
0.4195231651460067
0.4689643132801508
0.4819065806416682
0.1778199684800382
0.04213433807942592
0.08234480930705643
0.06898124452826432
0.3405455033710126
0.189080470714348
0.07163493995931847
0.05848511995460162
0.4046187973813642
0.2687704762095444
0.1733317593127514
0.1124699797354422
0.3958468848166583
0.2756860392265071
0.1997189534067692
0.1184371520632485
0.2358131582583626
0.5713714946058784
0.7469812916641043
0.9586275821956578
0.07638672602322036
0.4146908688355288
0.6497287584332833
0.8872246477383936
0.08051445875499054
0.2204292123883196
0.4965910849770669
0.7934768132807444
0.1080550968739352
0.05030304684096659
0.3532055250057271
0.7990778274492178
1.09141967635192
1.090983873651344
0.882710105260297
0.5828441432762063
1.040568184059101
1.034526841993935
0.8518251780252192
0.5295751391182669
0.9960816327141813
0.8447806220888679
0.5876788228348393
0.3229765022546396
0.9422470910130882
0.5550417368630287
0.2473213856550746
0.09216438966382749
0.04416789509351705
0.05571356367334071
0.05880066203361171
0.05137435903588285
0.121644166394651
0.02324873783482801
0.03252952955456507
0.04553609860542315
0.2598651687554261
0.1298241938685217
0.07974513341019819
0.04972954824960834
0.4028444898331631
0.2880067054379096
0.2180719312651981
0.1954790604174118
0.05137435903586994
0.04553609860555713
0.04972954825072497
0.1954790604158046
0.05880066203334643
0.03252952955472682
0.07974513341031859
0.2180719312650496
0.05571356367290132
0.0232487378350858
0.1298241938687759
0.2880067054384673
0.04416789509354425
0.1216441663949975
0.2598651687560471
0.4028444898337398
0.5828441432761022
0.8827101052585252
1.090983873649547
1.091419676350678
0.5295751391184782
0.8518251780247919
1.034526841993979
1.040568184059552
0.3229765022548777
0.587678822835183
0.844780622089085
0.9960816327144296
0.09216438966407635
0.2473213856552764
0.5550417368634637
0.9422470910140777
0.7990778274495226
0.3532055250058546
0.05030304684111088
0.108055096873499
0.7934768132810294
0.4965910849773303
0.2204292123881388
0.0805144587548878
0.887224647738532
0.6497287584335851
0.4146908688350642
0.07638672602277267
0.9586275821955422
0.7469812916644433
0.571371494605686
0.2358131582570527
0.06898124452847573
0.08234480930569654
0.04213433807853229
0.1778199684810948
0.05848511995431932
0.07163493996024947
0.1890804707167024
0.3405455033736398
0.1124699797347387
0.1733317593132113
0.2687704762115135
0.4046187973836733
0.118437152062673
0.1997189534071424
0.27568603922806
0.3958468848186
0.3527842424332693
0.5991065244024804
1.552801615460236
1.303650740692212
0.4793019097597587
0.4691296603159888
1.305679835104578
1.378302779956051
0.5198796407475056
0.4490819924114435
0.961966850431668
1.435705454501542
0.4819065806425593
0.468964313281544
0.4195231651448039
1.130375089973015
1.077647746344061
0.942260403538795
0.8378767912024639
0.7555609762779322
1.096541519605932
0.929969404692681
0.8281707049021828
0.7504065396566175
1.3894401779978
0.9445525806040355
0.8137455933268347
0.7540585855862609
1.931643307811605
0.9666701299176802
0.8007451270746333
0.7442390067706357
0.7278634520672643
0.7414476071156562
0.7485729083950204
0.7259427930900603
0.7330221153753667
0.7451625280033234
0.7473070068215754
0.7259692234907499
0.7396359227703183
0.7468617666623812
0.7447403342369883
0.7174299208724225
0.7158194624404621
0.7195951192308302
0.6970779881097083
0.6397995896556163
0.6867524081551285
0.6449329171640931
0.6079425972042745
0.5439011393553704
0.6866745844557898
0.6405675939112004
0.5868401318249078
0.4837431173385726
0.6709508910219842
0.60965499057969
0.514682445345008
0.3591653680597637
0.5595242377423952
0.4557341580476199
0.3091986902200576
0.1623093918981786
0.7224567094444125
1.007224528640369
1.143197362818191
1.150420554984657
0.5628358125808623
0.9130544189778104
1.142720445557597
1.152189480022314
0.3578317542658752
0.7907292819176949
1.138219638550512
1.150603090218021
0.1429673158316355
0.6246578602529358
1.08401708923304
1.091541800162086
1.153596420061515
1.155768111720603
1.155814109349778
1.156130784253243
1.156173213295953
1.16017095652599
1.16487882802533
1.17723142295378
1.154046019851613
1.159619863859238
1.168183847589593
1.188013839389786
1.072609178711267
1.055597056233537
1.043645314349424
1.03608712257381
1.159922868980944
1.172390534391488
1.20843678577756
1.180661863331269
1.198299087047462
1.234442095990984
1.295352064580801
1.28597226754034
1.220402825166003
1.268242541346773
1.348323640783452
1.438592291155777
1.03503685130025
1.04442896347331
1.077370134396644
1.181875627052684
1.00039294122851
0.9793822706325345
0.9670320402097141
0.9582669392238762
1.024354070529498
0.97666313299666
0.9626022005706154
0.9451235557214521
1.084571891758883
0.9684520295490506
0.9514221300456183
0.9283279285744372
1.167264626171549
0.9394509634313207
0.9293022167011298
0.9138508867264158
0.9455885933286047
0.9364736660527521
0.9347517155883173
0.981709931033065
0.924942497764065
0.9043333652559443
0.8817242682533143
0.9064765829651954
0.8990128817584965
0.8697262045380494
0.8445522807352497
0.8244550154748566
0.8785204702325105
0.8492947093706327
0.8343105181205164
0.7807149892707633
0.9750957865735729
1.097395170111581
1.117386959474219
1.118011658092084
0.9799109880049997
1.096266481699864
1.117230064646684
1.11800853052999
0.9615002495888458
1.096788150998
1.117206364018228
1.118007254272447
0.9368041136190843
1.096210340866892
1.117148193119886
1.118005035921921
1.117992479517451
1.11686377415548
1.097970771996327
0.9433219556793268
1.117994810527518
1.116926783883679
1.098145549446556
0.9427230402030929
1.117997637078718
1.116973309469753
1.097097936479835
0.93980291877351
1.11800146339681
1.117067914600783
1.096269619139465
0.9343431021094316
1.118005035923174
1.118007254271612
1.118008530529146
1.118011658094498
1.117148193121374
1.117206364018126
1.117230064646058
1.117386959473726
1.096210340866964
1.096788150998501
1.096266481699605
1.097395170113123
0.9368041136187472
0.9615002495889269
0.9799109880047113
0.9750957865738966
)
;

boundaryField
{
    back
    {
        type            empty;
    }
    inlet
    {
        type            calculated;
        value           nonuniform List<scalar> 
16
(
1.11801663592382
1.11801663592382
1.11801663592382
1.11801663592382
1.118016635924026
1.118016635922769
1.118016635866048
1.118016631075341
1.118016631074941
1.118016635866029
1.11801663592283
1.118016635923947
1.11801663592382
1.11801663592382
1.11801663592382
1.11801663592382
)
;
    }
    front
    {
        type            empty;
    }
    top
    {
        type            calculated;
        value           uniform 0;
    }
    outlet
    {
        type            calculated;
        value           nonuniform List<scalar> 
16
(
1.117982279246334
1.117986680300461
1.117991473035445
1.117996653057879
1.118010120956925
1.118006206338219
1.118004488871696
1.118001454485801
1.117982279245173
1.117986680300197
1.117991473035172
1.117996653058012
1.118001454486842
1.118004488870763
1.118006206337542
1.118010120959347
)
;
    }
    bottom
    {
        type            calculated;
        value           uniform 0;
    }
    wall
    {
        type            calculated;
        value           uniform 0;
    }
}


// ************************************************************************* //
