/*--------------------------------*- C++ -*----------------------------------*\
  =========                 |
  \\      /  F ield         | OpenFOAM: The Open Source CFD Toolbox
   \\    /   O peration     | Website:  https://openfoam.org
    \\  /    A nd           | Version:  11
     \\/     M anipulation  |
\*---------------------------------------------------------------------------*/
FoamFile
{
    format      ascii;
    class       volScalarField;
    location    "0.19";
    object      p;
}
// * * * * * * * * * * * * * * * * * * * * * * * * * * * * * * * * * * * * * //

dimensions      [0 2 -2 0 0 0 0];

internalField   nonuniform List<scalar> 
880
(
79.99999999999999
80.00000000388829
80.00040750049318
80.20815530264966
80.00000000000001
80.00000001475439
80.00092425240898
80.46507187489436
80.00000000001424
80.0000001087754
80.00278290699835
81.01811616179978
79.99999999999534
79.99999994172225
80.00887355526436
81.999160702632
79.99999999959961
80.00000000043272
79.99999999404304
80.00000815873902
80.00000012182527
80.0000020517565
80.00010043398422
80.00010622396718
80.02994524776521
80.05695637497737
80.12641114792812
80.05658884772718
84.39434855720202
86.95934465775359
88.91755376863084
89.8612340678707
80.00004408114269
80.00019756324433
80.00116884412608
80.00187240063386
80.00203932542298
80.00562680303972
80.01325641524738
80.02133870154086
80.38189408178305
80.65199404598275
80.97222120841717
81.33354163713004
91.00597126256955
92.59927794968047
93.81951404780429
94.12399391430762
89.82083193608329
87.60267998697589
86.99997570374484
86.42404589476344
82.57953645462041
83.05816093940489
83.46186191114764
83.61730260117818
80.08253533209844
80.16704061037245
80.25767012481219
80.3479978020396
80.00673530933244
80.01831454347123
80.03854108655088
80.05607437141038
80.06419580408031
80.06024849397188
80.04941299599874
80.03508296770435
80.43048094115694
80.468150460198
80.43839306802967
80.3847962590491
83.64345118838315
83.53999579000515
83.26895091561042
82.91842996249491
85.90182213650718
85.68271535983152
85.64081709594878
85.38127373087362
84.96440940458893
82.54338194120183
80.3116987887763
80.02083023743947
84.16869183769353
82.02928400201476
80.22469913795071
80.01009214152525
86.86641489928293
81.48602565256155
80.11504779733491
80.00182025612897
104.0552708569472
81.61953031881615
80.04774509290151
80.00040158881427
80.0011288181976
80.03601418384707
83.29774691795542
134.1620290334646
80.00430594213145
80.08366786982327
85.38864914072391
138.7231333438404
80.01249178879092
80.19509484633379
88.82080389554559
144.9783415319154
80.03312630092387
80.4492583064373
93.42074695972087
149.558961145024
154.0020806338058
99.16960096836782
80.8721669340662
80.07155438559181
156.5640849053683
105.8738729456749
81.62145643365102
80.14503933713316
158.2919522263601
113.3305844701569
82.76178524732875
80.25548789840103
157.8929142268698
119.7412237550506
84.53974164220585
80.44868739304621
80.73341718877582
86.69361815808176
123.9758798463733
153.3355694109394
80.96758074539412
86.81930316690664
116.0148643249581
139.1372980888853
81.1285470585448
85.09100788127212
105.8264638931219
122.6037028200937
80.52553789921174
82.99340652537487
94.66251183000112
102.8521451482476
80.73336400953809
83.2895957348632
87.69257089135962
78.99628610093923
80.63291975236147
81.75461278624863
81.74003224568681
55.81421864693458
80.31586021257475
80.99804204062616
79.26554571084466
44.18516192114632
80.09332720849478
80.52453751009863
76.88940142372628
42.86416530159546
43.22719366956456
75.08200581911254
80.00848733596899
79.98271247698079
42.05488089873877
74.09109672709026
79.59197507865974
79.96984224764849
43.10848091178163
73.43352591479882
79.35444265778023
79.96735594011001
41.21751182471148
71.87098902768862
79.1496327951115
79.97028173667722
45.06263284435868
72.15434799714109
79.27856596624062
79.98337349740045
48.46897742545713
73.40842879940921
79.56779581907489
79.99350108325582
49.86724735006535
74.61608168824284
79.75365471141222
79.99739430726936
53.57594109686471
76.44776943445812
79.92570131285703
79.99906962511871
65.03229013355264
77.07362870198418
79.73261750728177
79.99225195152296
62.52028293771778
76.86773134441628
79.750467139834
79.99340522525091
59.60670108047979
76.44818026824043
79.76173937265176
79.99453963381787
56.9493347165098
75.99211814971974
79.76601138460317
79.99549188404298
53.57594109683707
76.44776943441806
79.92570131292442
79.99906962495734
49.86724735007341
74.61608168818411
79.75365471132346
79.9973943071591
48.46897742541879
73.40842879935302
79.56779581896491
79.99350108315876
45.06263284433408
72.15434799705218
79.27856596624579
79.9833734973903
79.98271247703977
80.00848733602497
75.08200581908639
43.22719366931222
79.96984224762645
79.59197507868505
74.09109672704344
42.05488089856311
79.96735594016188
79.35444265782104
73.43352591463888
43.10848091164866
79.97028173670402
79.14963279523806
71.87098902761433
41.21751182466893
42.86416530143642
76.88940142368685
80.52453751004992
80.09332720854327
44.18516192101307
79.2655457107914
80.99804204060007
80.31586021259319
55.81421864676953
81.74003224566589
81.75461278623379
80.63291975244955
78.99628610091877
87.69257089126609
83.28959573463023
80.73336400956305
80.7334171886954
86.69361815837368
123.9758798469293
153.3355694110955
80.9675807453493
86.81930316691913
116.014864325217
139.1372980889891
81.12854705846783
85.09100788144403
105.826463893138
122.6037028200765
80.52553789912362
82.99340652514431
94.66251183004141
102.852145148244
157.8929142269843
119.7412237552438
84.53974164197615
80.44868739337207
158.2919522265202
113.3305844704099
82.76178524782493
80.25548789830432
156.5640849053686
105.8738729460491
81.62145643391028
80.14503933724313
154.00208063381
99.16960096804684
80.87216693368926
80.0715543856186
80.00112881821816
80.03601418385222
83.29774691788562
134.1620290334002
80.00430594230005
80.08366786996524
85.38864914066177
138.7231333437208
80.01249178902027
80.19509484631666
88.82080389551015
144.9783415317493
80.03312630093239
80.4492583068342
93.42074696000441
149.5589611451549
80.00040158881986
80.00182025610114
80.01009214163805
80.0208302374335
80.0477450927053
80.11504779726381
80.22469913791478
80.31169878872954
81.61953031875495
81.48602565259606
82.02928400194179
82.54338194113258
104.0552708568735
86.86641489929504
84.16869183770984
84.9644094045819
80.0350829677446
80.38479625911309
82.91842996256472
85.38127373093747
80.04941299595127
80.43839306813223
83.26895091566645
85.64081709595153
80.06024849399184
80.46815046030906
83.5399957899221
85.68271535964814
80.06419580406173
80.43048094129513
83.64345118841493
85.90182213653306
80.00673530969593
80.08253533145893
82.57953645482209
89.82083193608578
80.01831454366953
80.1670406097213
83.05816093968207
87.60267998691623
80.03854108684006
80.25767012431074
83.46186191122885
86.99997570362909
80.05607437140954
80.34799780200376
83.61730260125782
86.42404589461952
94.12399391429665
81.33354163707926
80.0213387017653
80.00187240267576
93.81951404780615
80.97222120835669
80.0132564144884
80.00116884238574
92.59927794971016
80.65199404620068
80.00562680409031
80.00019756125329
91.00597126251833
80.38189408179935
80.00203932526686
80.00004408189305
89.86123406782538
80.0565888477759
80.00010622388371
80.0000081587139
88.91755376861897
80.12641114794786
80.00010043403152
79.99999999405584
86.95934465775129
80.05695637494935
80.00000205169569
80.00000000041773
84.39434855718392
80.02994524769707
80.00000012179072
79.99999999967895
79.99999999999999
80.00000000388533
80.00040750051565
80.20815530253313
79.99999999999993
80.00000001471274
80.00092425240406
80.46507187490208
80.00000000002869
80.00000010871713
80.00278290697392
81.01811616178355
79.99999999998131
79.99999994164155
80.00887355523014
81.9991607025799
80.47704826340859
81.01720695134762
82.13580525721899
85.5576990588313
81.01720695136648
81.79253980123254
84.19714789494344
90.18163007983524
82.13580525722216
84.19714789494799
89.21709859640997
97.89921569553574
85.55769905886234
90.18163007988404
97.89921569560978
108.7939001694662
120.6730338521369
110.9176112729319
106.3877127401932
98.07455205379054
118.1759193927893
115.4449021399033
115.3954889109818
110.8276958148593
118.3379831062598
117.4490748027545
117.1319014782943
115.2225071610652
117.7046954434299
117.245625268527
117.0818544506205
115.771309660344
114.3826909861623
113.9697998219512
113.0288386898915
110.5015942849187
115.2383113308925
114.2368900347087
113.2073025110133
110.6754320143024
115.378721091545
114.3075530467816
113.337964626868
110.9641747032835
115.749843653105
114.4215020184018
113.3764934160957
108.2633010794574
85.50185073123637
75.45809088794168
76.03572111671528
77.21038681722526
78.03125524237645
72.80976682402353
75.43475663956133
76.87243026853889
71.53489700014485
72.8626919958476
76.03297875596108
77.43520266083208
62.21791929874465
70.64692279069031
75.04987710673034
76.57709246417232
78.12271362553076
79.06822517481082
80.11707940432349
80.95472619244157
77.84956502724401
78.87998840024795
79.97479383319325
80.84955664094427
78.21603364707407
79.02936313941535
79.89121706720393
80.85275177682314
77.54386236557716
78.74293867604808
79.92183917960895
80.85849519774862
81.43605349245038
82.57038583662765
108.0294001962965
146.7702141515482
81.42310033210325
83.32192473549951
115.2718223551501
145.9580003648743
81.42809084168522
84.16346815233589
119.3915461490087
143.1653044514014
81.51309322629609
84.40939586761382
123.6988374906699
145.7775156666768
197.7826925720093
188.8324276990335
183.8275092817612
178.904457798422
199.6065506412935
191.2709515084644
185.0833123465088
179.5062699224883
198.9933792944342
192.8551467115084
186.1086949836933
179.9126345791447
196.6141316944866
194.3718891241193
187.6389849206747
180.7564621218784
178.2339280636672
181.7611356920771
181.208980236734
179.8638544464149
178.6203799887109
181.6151417303621
182.7659557059332
181.9107125116343
178.2800261133867
180.8515920042372
182.7642602586035
182.5430112972937
178.7536149079102
181.7157933114309
184.0804749578982
183.2760909036406
169.3598244079421
152.5576939744535
136.298129298933
114.5772243139861
172.0819719496992
155.7227742641092
137.218414069694
123.0659415029646
175.438137862902
159.4772155544309
140.3553465427268
128.2383604694819
176.0439216086947
164.1779067914185
145.6659505463125
144.1899176524276
70.04031768689769
16.53525717967097
4.647171247439522
5.759949977195726
55.41489286958438
10.91067673279967
4.669210663759643
5.561857842459875
37.96003228181731
6.720820415151416
4.814440782600742
6.217875580895218
21.3425351811583
3.897728251983162
5.09882412704499
6.404677827887141
9.099636488728178
12.45729880839339
16.28576569565297
18.85515854467169
9.004924258942655
13.02927347928019
17.0448447507214
20.12633306298824
9.467306412923852
13.4511606426004
17.32890807933443
21.69902924128175
9.751410604807727
14.22016565378785
18.77441290050587
23.73851291465559
29.04162949807455
31.33047948733764
31.55980882656287
32.89730274858436
28.90046636017591
32.89058189216844
32.92040808982876
34.30834118551959
27.96855468888179
33.08135321644929
33.73336058687604
34.80144261328738
25.89994337994408
32.0961001734213
34.0964461467564
37.5577822898675
27.49815531030537
26.64073711807016
29.68956796610471
29.32071486650965
25.17366602680387
22.75580626722859
23.8788978548343
23.66834454938764
22.45659818190537
21.47699960128003
22.50011177476185
22.6398264588333
17.16036850248693
18.87593962155251
20.58358010296839
20.80719241115209
20.90384172828677
20.64700641244029
20.38200624057422
20.1408603939151
22.33014674380222
21.59935798106929
20.98186478689087
20.56319866677585
22.72076347213496
22.18895178633339
21.81440464979928
21.63063488384011
27.46204755256909
25.93998360491729
24.57663545819581
23.90641157082717
20.14086039391551
20.5631986667746
21.63063488384181
23.90641157082331
20.38200624057455
20.98186478689173
21.81440464980604
24.57663545819401
20.6470064124415
21.59935798107042
22.18895178634235
25.93998360491923
20.90384172828937
22.33014674380298
22.72076347214278
27.46204755257379
29.32071486651265
29.68956796611715
26.64073711808461
27.49815531031005
23.66834454939356
23.87889785484793
22.75580626724143
25.17366602680152
22.63982645883764
22.50011177476372
21.47699960128893
22.45659818191076
20.8071924111589
20.5835801029725
18.87593962155287
17.16036850248489
37.55778228985835
34.09644614674596
32.0961001734149
25.89994337998388
34.80144261328633
33.73336058686702
33.08135321643341
27.96855468890157
34.30834118551459
32.92040808982109
32.89058189215082
28.90046636018035
32.89730274858096
31.55980882655783
31.33047948731214
29.04162949805837
18.85515854474659
16.28576569569265
12.45729880840714
9.099636488708464
20.12633306307052
17.04484475077739
13.02927347932062
9.004924258943309
21.69902924135314
17.32890807938891
13.45116064263951
9.467306412924303
23.73851291471951
18.7744129005696
14.22016565383972
9.751410604814918
5.759949977190011
4.647171247412923
16.53525717954024
70.04031768681897
5.561857842457865
4.669210663748448
10.91067673276236
55.41489286951754
6.217875580888158
4.814440782590964
6.720820415146516
37.9600322817729
6.404677827885669
5.098824127035819
3.897728251976845
21.3425351811401
114.5772243139405
136.2981292988626
152.5576939743968
169.3598244078661
123.0659415029197
137.2184140695539
155.7227742639766
172.0819719495366
128.2383604694032
140.3553465425869
159.4772155542216
175.4381378626817
144.1899176523214
145.6659505461363
164.1779067911374
176.043921608429
179.8638544464926
181.2089802368638
181.7611356920519
178.2339280639933
181.9107125116279
182.7659557059543
181.6151417303922
178.620379989044
182.5430112972075
182.7642602586107
180.8515920043008
178.2800261137085
183.2760909035004
184.080474957815
181.7157933115149
178.7536149082381
178.9044577983117
183.8275092815913
188.8324276987927
197.7826925718626
179.5062699223446
185.0833123463518
191.2709515082161
199.6065506411381
179.9126345789566
186.1086949835571
192.8551467112687
198.9933792942908
180.7564621216354
187.6389849205591
194.3718891238691
196.6141316943373
146.7702141514217
108.02940019623
82.57038583664722
81.4360534924736
145.9580003647406
115.2718223550659
83.32192473550501
81.42310033213012
143.1653044512957
119.3915461489061
84.16346815233724
81.42809084172423
145.7775156665548
123.6988374905658
84.40939586761924
81.51309322633202
80.95472619253557
80.1170794043219
79.06822517467192
78.12271362555506
80.84955664104146
79.97479383318455
78.87998840010579
77.84956502726884
80.85275177693246
79.89121706718825
79.02936313927903
78.21603364709836
80.8584951978583
79.92183917958656
78.74293867589117
77.54386236560244
77.21038681711975
76.03572111662403
75.45809088793025
85.50185073126904
76.87243026842009
75.43475663947801
72.80976682405432
78.0312552424235
77.43520266070956
76.03297875587911
72.86269199590433
71.53489700019898
76.57709246405535
75.04987710662546
70.64692279075337
62.21791929882745
110.5015942849552
113.0288386898165
113.9697998219167
114.382690986119
110.675432014304
113.2073025109293
114.2368900347151
115.2383113308587
110.9641747032531
113.3379646267577
114.307553046777
115.3787210915074
108.2633010794093
113.3764934159961
114.4215020184158
115.7498436530545
115.7713096601833
115.2225071610355
110.827695814882
98.07455205384498
117.081854450477
117.1319014782869
115.3954889109654
106.3877127401889
117.245625268391
117.449074802694
115.4449021398769
110.9176112728727
117.7046954433209
118.3379831062152
118.1759193927233
120.6730338520595
55.00948510154252
76.55556006262874
79.84941706878902
79.99823880873042
53.52744514749493
75.98109714098977
79.79099680431733
79.99713706224921
54.25850541833998
75.71474348259345
79.77527891182285
79.99668327248605
54.54381717028529
75.72103330565548
79.76944531904178
79.99619566171081
79.9922519515986
79.73261750719848
77.07362870198415
65.03229013351861
79.99340522524487
79.75046713977233
76.86773134442048
62.52028293771165
79.99453963387941
79.76173937259439
76.44818026822941
59.60670108049798
79.99549188405499
79.76601138457423
75.99211814971096
56.94933471650332
79.99619566164127
79.99668327248462
79.99713706226385
79.9982388086499
79.76944531897489
79.77527891178364
79.79099680424326
79.84941706876276
75.72103330564136
75.71474348257782
75.98109714103512
76.55556006264162
54.54381717025097
54.2585054182914
53.52744514745238
55.00948510149839
)
;

boundaryField
{
    back
    {
        type            empty;
    }
    inlet
    {
        type            zeroGradient;
    }
    front
    {
        type            empty;
    }
    top
    {
        type            zeroGradient;
    }
    outlet
    {
        type            fixedValue;
        value           uniform 80;
    }
    bottom
    {
        type            zeroGradient;
    }
    wall
    {
        type            zeroGradient;
    }
}


// ************************************************************************* //
