/*--------------------------------*- C++ -*----------------------------------*\
  =========                 |
  \\      /  F ield         | OpenFOAM: The Open Source CFD Toolbox
   \\    /   O peration     | Website:  https://openfoam.org
    \\  /    A nd           | Version:  11
     \\/     M anipulation  |
\*---------------------------------------------------------------------------*/
FoamFile
{
    format      ascii;
    class       surfaceScalarField;
    location    "0.19";
    object      phi;
}
// * * * * * * * * * * * * * * * * * * * * * * * * * * * * * * * * * * * * * //

dimensions      [0 3 -1 0 0 0 0];

internalField   nonuniform List<scalar> 
1652
(
1.706212168242967
0.5337381654508226
-1.554312234475219e-15
1.172474002819989
0.5337381652137811
1.909583602355269e-13
0.6387374696607736
0.5337254848726869
2.020605904817785e-14
0.5312886334565357
-1.193933840681893e-12
0.1051523449794175
1.706212168246046
1.067476330897871
1.172474002864661
1.067476329665352
0.6387397135114137
1.067436178012191
1.059068161386894
0.1064485863923576
1.706212168254429
1.601214496347353
1.172474003783072
1.601214493820883
0.6387456420517543
1.601100990466044
1.582092954161719
0.1080027407086779
1.706212168255747
2.134952661793874
1.172474002387803
2.134952658474547
0.638757829641653
2.134639091035891
2.10292386701044
0.1059692163171565
2.651191215266142
1.723711780224872
3.167429769074905
1.723711780168662
3.683668331188195
1.723711780332167
1.723711829796639
4.199906174957801
2.651191194022622
1.207473234130179
3.167429567303329
1.207473191664677
3.683659757689778
1.207473372441737
1.207476509605742
4.199895216311482
2.650966561380639
0.6906890733522155
3.167481759853932
0.6899910590717767
3.684291170047637
0.6892073870316053
0.689747273757331
4.199517975697782
2.64776610506971
0.1241258886272588
3.261949417088912
0.04902213353862006
3.890830153209276
0.02395374360933972
4.524146855485386
0.01546203124300466
4.164906766865836
0.03499770346219844
4.129904248650755
0.03499988403221999
4.09491412287416
0.03500034032045174
0.03493201420739001
4.059894910742626
4.164941831254283
0.06989530422707085
4.130048976055388
0.06971658508674455
4.095378571497698
0.06930511399273165
0.06895765193296832
4.060710131078713
4.172392623979269
0.09180455019799433
4.148012447314315
0.08514885024135693
4.127431764412171
0.07852768961947659
0.0727343741622456
4.108324994123711
4.572258408006197
0.008791245776874124
4.614524133885086
0.006652659144854411
4.653954379171091
0.00776505117471693
4.693892403035923
0.007029995788995713
4.674462961572498
0.08520999169931692
-0.06771353071780026
4.615557585835568
0.08025064368682061
-0.01617133436736923
4.561922966476018
0.07327905176562738
-0.00917478352806525
0.06416230137634849
4.515720815382668
-0.008690914992742993
4.164286110412208
0.004547270305991613
4.210225842295197
0.009101292011621021
4.245003646204133
0.01412614306162469
0.01833894050937368
4.267534682309679
4.062560172040017
0.0002756552920401001
4.066520523050821
0.0007897284154562145
4.072722350883478
0.001666548008700808
0.002661991779796535
4.080267856295672
4.059887911156638
4.059952005300155
4.060077573030007
4.060069622957038
4.060013708336404
-0.00340950309497412
4.059753248271294
-0.00350790303373949
4.059548202191103
-0.003228937022596967
-0.002716662810691495
4.059423753439543
4.086962470856361
-0.02047748822293211
4.088586810709537
-0.01981341571948314
4.087102500253182
-0.01725029551567431
-0.01419957684069678
4.08345454030105
4.280715556973975
-0.0538333879791309
4.278001413027462
-0.04356594605164027
4.264713576971913
-0.0341714281523966
-0.02614118738452065
4.242743862720113
4.486148438574804
-0.006402211645897993
4.474921114176324
-0.002761482765723577
4.46087702453718
0.0003228462630589513
4.434066948918974
0.0021682977159872
0.02230712477109503
4.399302692321059
0.001552633695255434
0.01111519203410166
4.214744820089527
0.002034932879482865
4.07803954520918
4.059437320370392
0.0162411109133016
4.358677249062418
-0.002005150828339519
0.008231674320550608
4.181424855218775
0.001347925631305258
4.071962644677733
4.059539120337444
0.009159593126053411
4.366333247106239
-0.09367740479830572
0.003059974455865255
4.141922948068974
0.0005460410001877358
4.065229974230193
4.05969514649922
0.03428694890223949
4.245959131034995
-0.1391658501520049
0.001565160987705483
4.111022534414513
0.0001574157861069514
4.061371680876695
4.059810048331375
0.09318592819612675
3.966569574066123
0.1846877725150319
3.967372222444955
0.2085813365736103
4.005355335192299
4.034474147880485
0.1306261737563649
0.09307042255459347
3.873290418866368
0.1826812096406904
3.874407870650637
0.176700250727005
3.912932552909731
3.847119548550877
0.09691272339324097
0.09251572415168591
3.780165616921058
0.1772121874300515
3.78250937737561
0.1203165972128302
3.832193935177898
3.664875078375127
0.06021106061476411
0.09142856206353212
3.687140272173968
0.1668320548828484
3.691770555789115
0.06013950950200309
3.757305676752155
3.488379742682891
0.04125701013432037
0.01013954807534323
3.282928155486706
0.04460460961175872
-0.1479186419221722
3.678138000962902
-0.08893715177376582
3.602573275724684
3.59468868188599
0.07456858433705416
3.083333734867117
0.04402559341683954
-0.1177292907032718
3.587697634725084
-0.08487354873533981
3.514876835776309
3.502642281865096
0.1178216020312819
2.908630233649248
0.02612650709206177
-0.07321428552364173
3.460876712591132
-0.07775694748751288
3.428122712709708
3.411759610841096
0.1466174580196647
2.74023700304456
0.008982365092944145
-0.02073457152697855
3.35007428922791
-0.06686530918964761
3.338067945634231
3.321993555961646
0.07558681169737336
3.208476716854828
0.005679433118525812
3.228308745475946
-0.09262836383119166
3.235767592838671
2.691458221817097
-0.01482526249977345
0.07016156630420822
3.09313022716693
0.03839742425935211
3.104051074405447
0.0007392560890403521
3.157083395944024
2.725850284007239
0.01437985031999656
0.0806181673001235
2.969248496781353
0.09282944828173068
2.980464762417061
0.1008829817566346
3.064534395388483
2.795814724232754
0.09367366106617969
0.09427745833511569
2.844410193068825
0.1504378654901568
2.853412356404741
0.206641322134204
2.942745615151598
2.829267214555206
0.2349337322092147
-0.2314132481164532
3.046998439521484
-0.5026398395479496
3.073547083309892
-0.7412110551365509
3.176393168733813
2.967772453433106
-0.8033207291218589
-0.2249241115809023
3.24910640816999
-0.474358276387057
3.295654677351883
-0.6580203087096461
3.376712326547054
2.705707175312341
-0.2745065256872948
-0.2147520244282523
3.448434311852299
-0.4332487510927412
3.497046753663154
-0.5846643735094915
3.555048828877279
2.319232534280662
-0.04397884683358123
-0.2069957650808699
3.646763251631948
-0.4059095794909636
3.687525119932777
-0.4961312645483603
3.684006636808374
1.998977604215455
-0.02661757703655061
0.2009241872982043
1.893274600003134
-0.01192326409775514
0.1958929217190844
3.74273296961414
0.09890597038502519
3.778906290249477
3.746331701755094
0.1660291872234164
1.849223802921849
-0.00710618493306571
0.1866773467119097
3.789858771818428
0.1038278458171004
3.862352160779397
3.850451007393176
0.1383887595951517
1.858561574375675
-0.00439861129309093
0.1836278490862356
3.816545823392008
0.1038014907322224
3.950085576828789
3.955068524053133
0.1113433151966858
1.88473340487621
-0.002534088739081952
0.1791484172304666
3.829859176895291
0.1036350472489426
4.042782067081361
4.059606787788018
-0.2271045878972921
2.286085145902237
0.03828938457790367
-0.04786914584678204
3.788525775920985
-0.002084191931119639
4.041705470967152
4.059620501795071
-0.1718699907896179
2.486347036813104
0.1008120846360512
-0.03135576246442373
3.797368343238795
-0.0009825122596376357
4.047703898859782
4.059794841201617
-0.1204899579620554
2.56776146174113
0.106798758121491
-0.01801250732040938
3.845781833488031
-0.0004170808534131876
4.055086167158997
4.059876994140676
-0.09750648636831721
0.1213747567090729
2.615995228939089
-0.01082826733099196
3.901124895554329
-0.000165989846675485
4.054362630338353
4.059892563044803
0.5432088881139139
-0.2244324223074297
-0.006374579352740092
-1.150191053511662e-12
1.169337214507578
-0.5002317094566728
-9.663381206337363e-13
1.713776341738974
-0.5240416400012973
2.55662158110681e-12
-0.5249552625562153
-3.204547738278052e-12
0.5295059650973488
-0.4380635452191113
-0.007817253917659993
1.168849043386894
-0.994060259132036
1.713891362294852
-1.047509616922322
-1.049912950314285
0.5094992494301165
-0.7079173446094691
-0.01092378892585842
1.166845359226498
-1.476275588591504
1.713989458104552
-1.570683891069071
-1.574883611740379
0.4916153026454037
-0.01554335160312203
-1.039884946087411
1.164642534804236
-1.95865208480163
1.714075468868266
-2.093689342720719
-2.099861453889083
-0.09750648636747583
-2.567761461739682
0.1213747567090152
2.615995228937701
-0.01082826732897058
-3.845781833490178
3.90112489555302
-0.0001659898458106213
-4.05508616715779
4.054362630333966
-4.059876994141612
4.059892563043253
-0.1204899579616497
-2.486347036811057
0.1067987581214913
-0.01801250732109971
-3.797368343242503
-0.0004170808555148398
-4.04770389886155
-4.059794841202868
-0.1718699907901483
-2.286085145900052
0.100812084635871
-0.03135576246610561
-3.788525775925608
-0.0009825122601401226
-4.041705470968899
-4.059620501795315
-0.2271045878971717
-1.884733404872612
0.03828938457772037
-0.04786914584792834
-3.829859176900069
-0.002084191931973844
-4.042782067080896
-4.059606787787652
-0.09890597037803539
3.746331701777013
-3.64676325165932
-0.1958929217066113
3.778906290271166
-3.68752511996027
-0.2009241872925268
3.742732969589843
-3.684006636776651
1.893274599982011
-1.998977604190911
-0.01192326409785057
-0.1038278458097268
3.850451007408896
-0.1866773466984317
3.86235216079527
-0.1660291872176715
3.789858771804069
1.84922380290793
-0.007106184933053712
-0.1038014907252351
3.955068524060982
-0.1836278490719923
3.950085576835691
-0.1383887595893908
3.816545823386627
1.858561574367196
-0.004398611293018613
-0.1036350472419686
-0.1791484172154059
-0.1113433151911684
-0.002534088738998588
0.4961312645516345
-2.319232534261414
-0.0266175770364375
0.4059095795054376
-3.555048828855838
0.2069957650874209
-3.497046753682228
-3.448434311873787
0.5846643735142757
-2.705707175298361
-0.04397884683293591
0.4332487511070944
-3.376712326534499
0.2147520244354432
-3.295654677361552
-3.249106408185878
0.6580203087174297
-2.967772453427894
-0.274506525686072
0.4743582764013321
-3.176393168727641
0.224924111586543
-3.07354708331178
-3.046998439529488
0.7412110551439212
-2.829267214555446
-0.8033207291240102
0.5026398395598423
-2.94274561515184
0.2314132481217032
-2.853412356400602
-2.844410193062041
0.07558681170164716
3.208476716864272
-3.321993555977315
0.005679433126881683
3.228308745490097
-3.338067945645914
-0.09262836382786499
3.235767592826422
-3.350074289207301
2.691458221808309
-2.740237003034569
-0.01482526249981619
0.07016156630831949
3.093130227172212
0.03839742426760251
3.104051074414299
0.0007392560932926173
3.157083395938996
2.725850284002098
0.01437985031991751
0.08061816730623861
2.96924849677334
0.0928294482885812
2.980464762421221
0.1008829817607941
3.064534395385492
2.795814724230168
0.09367366106631259
0.09427745833753376
0.1504378654980464
0.2066413221377094
0.234933732209068
0.1466174580236719
-2.908630233642112
0.008982365092991329
-0.02073457151357305
-3.460876712580852
-0.06686530918676181
-3.428122712725881
-3.411759610850704
0.1178216020335032
-3.083333734858257
0.02612650709249864
-0.07321428551537512
-3.587697634725807
-0.07775694748180195
-3.514876835808644
-3.502642281868851
0.07456858434094926
-3.282928155479524
0.04402559341630108
-0.1177292907008792
-3.678138000951886
-0.0848735487348421
-3.602573275722074
-3.594688681892895
0.01013954808109963
-3.488379742686799
0.044604609613629
-0.1479186419058067
-3.757305676754134
-0.08893715176566835
-3.691770555790108
-3.687140272171297
0.09318592819624849
3.966569574066258
-4.059810048331406
0.1846877725152994
3.967372222443969
-4.061371680876017
0.2085813365726272
4.00535533519043
-4.111022534414768
4.034474147878324
-4.245959131034995
0.1306261737561828
0.09307042255486964
3.873290418867092
0.1826812096412903
3.874407870646807
0.1767002507261974
3.912932552907483
3.847119548548547
0.09691272339279022
0.09251572415091741
3.780165616922421
0.1772121874282852
3.782509377379676
0.1203165972124409
3.832193935181989
3.664875078377217
0.06021106061453763
0.0914285620652095
0.1668320548869121
0.06013950950351277
0.04125701013297778
-4.059695146499563
-0.0001574157854945524
-4.059539120337633
-0.0005460410001907334
-4.059437320370214
-0.001347925630885594
-0.002034932879998674
-4.059423753438574
-4.065229974229613
-0.001565160987077374
-4.071962644677974
-0.003059974456400993
-4.078039545209403
-0.00823167432087818
-0.01111519203472772
-4.083454540300544
-4.141922948068888
-0.03428694890168099
-4.181424855218796
-0.009159593125992238
-4.214744820089384
-0.01624111091355418
-0.0223071247712664
-4.24274386272038
-4.366333247106058
-0.1391658501520221
-4.358677249062411
-0.09367740479794207
-4.399302692320799
-0.002005150828360336
-4.434066948919055
0.001552633695152739
-0.002716662810593684
-4.059548202189372
-0.01419957684049183
-4.087102500253699
-0.02614118738397053
-4.264713576972301
-4.460877024536924
0.002168297716200973
-0.003228937022720757
-4.059753248270726
-0.01725029551495416
-4.088586810712211
-0.03417142815202123
-4.278001413027257
-4.474921114174272
0.0003228462632666185
-0.00350790303384696
-4.060013708337904
-0.01981341571904527
-4.086962470868249
-0.04356594605178327
-4.280715556973896
-4.486148438574231
-0.002761482766034717
-0.003409503095918809
-4.060069622962194
-0.02047748822344136
-4.0802678563065
-0.05383338797878107
-4.267534682311754
-4.515720815381775
-0.006402211645800182
-0.0002756552956906244
4.059887911186967
-4.059894910778914
-0.004547270306089479
4.062560171961401
-4.060710131016281
-0.08520999170481575
4.164286110432078
-4.108324994131817
4.674462961580553
-4.69389240304788
-0.06771353071770123
-0.0007897284158608908
4.059952005319858
-0.009101292013561024
4.066520522986969
-0.08025064369216028
4.210225842316898
4.615557585840916
-0.01617133436754717
-0.001666548008420365
4.060077573036425
-0.014126143068252
4.072722350861195
-0.07327905177025662
4.245003646216568
4.561922966477738
-0.009174783528360764
-0.002661991782338835
-0.01833894051689727
-0.0641623013794731
-0.008690914992856708
-0.07273437416579187
-4.653954379178874
0.007029995789233467
-0.0689576519474589
-4.127431764406876
-0.03493201421295855
-4.095378571484983
-4.094914122885637
-0.07852768962702256
-4.614524133887901
0.007765051174856819
-0.06930511398579359
-4.148012447308178
-0.03500034027064958
-4.130048976076077
-4.129904248580579
-0.08514885024729379
-4.572258408003374
0.00665265914444052
-0.06971658510308754
-4.172392623969403
-0.03499988404746501
-4.164941831246275
-4.164906766854569
-0.09180455020260941
-4.524146855479057
0.008791245776542611
-0.06989530424406137
-4.199517975677185
-0.03499770347218667
-4.199895216329121
-4.199906174945433
-0.6897472737546636
-3.890830153206867
0.01546203124321066
-1.207476509594785
-3.684291170036708
-1.723711829792673
-3.68365975770325
-3.68366833118549
-0.6892073870305182
-3.26194941708889
0.02395374360951286
-1.207473372436793
-3.167481759847119
-1.723711780331952
-3.167429567313144
-3.167429769073965
-0.6899910590713572
-2.647766105070906
0.04902213353855622
-1.207473191660342
-2.650966561377313
-1.723711780169388
-2.651191194026818
-2.651191215266597
-0.6906890733518261
-2.10292386701186
0.1241258886269299
-1.207473234126487
-2.134639091036512
-1.72371178022646
-2.134952658474507
-2.134952661793408
1.706212168246007
0.5337381654477638
1.172474002824116
0.53373816521351
0.6387374696641523
0.5337254848740309
0.5312886334586269
0.1051523449796247
1.706212168246564
1.067476330894546
1.172474002865238
1.067476329664458
0.6387397135118478
1.067436178013713
1.059068161390432
0.1064485863918352
1.706212168253656
1.601214496344317
1.17247400378124
1.60121449382264
0.6387456420506746
1.601100990467066
1.582092954165658
0.1080027407080992
1.70621216825297
1.172474002384305
0.6387578296384601
0.105969216316074
0.1049929623557616
0.1049929623561166
0.1045815843882385
0.1064017579251699
0.1049301078697439
0.1070376077292502
0.1041402746127971
0.1059097635144766
0.1064017579253942
0.104581584388874
0.1061063349962568
0.1061063349966781
0.1063535898903776
0.1059938052354618
0.1002715500048617
0.1092921643074334
0.1070376077300087
0.1049301078701707
0.1059938052360854
0.1063535898909165
0.1055346600340982
0.1055346600332875
0.09679424850655648
0.1081439912338552
0.1041402746139017
0.1059097635148893
0.1002715500056919
0.1092921643082414
0.09679424850746643
0.1081439912329801
0.09645581008970508
0.09645581009051554
-0.03960348771875039
0.1347661638007623
-0.06522468605615878
0.1322692328476901
-0.09447225215836735
0.1368932594223966
0.1338570275213685
-0.008230950147363414
0.1415917815084004
-0.01904259132960001
0.1416053340822546
-0.03110244002432716
0.147400161294888
0.150074997564122
-0.003780778819862829
0.1439824392245148
-0.01119018226644936
0.1475018410817094
-0.01766396332118292
0.1524774925228823
0.1547619578579304
-0.002636063143550971
0.1457598690635927
-0.008221945673878128
0.1520316170755759
-0.0122488842551558
0.1553399828880815
0.1566231256733926
0.1569465572585844
0.007934626735315253
0.1575847769389362
0.005630766465266224
0.1585992958233844
0.006726738441128921
0.006675718130862152
0.1592892844925486
0.1561880769427225
0.006624517346456638
0.1572910801873289
0.0041676953492083
0.1588783918359438
0.00518150884989127
0.003119475020122386
0.1627987397303557
0.1542376952708203
0.003925745905676015
0.1560788095811763
0.001937621940016343
0.1585775201432061
0.002844929828968223
-0.01064154316173593
0.1727989822742755
0.1491762954096741
0.15071392571383
0.1537691821707821
0.1435634893577624
0.1475379640548164
-0.05515806261887199
0.1398536276523372
-0.007451376686981037
0.1393671174452629
-0.007354685049000192
-0.008128911892329754
0.1402026264925604
0.1504706968876872
-0.04212135203854464
0.1465168649910024
-0.002506527210643927
0.1449972233626249
-0.004383272387667808
-0.005332217799256522
0.143647582241259
0.1565320056480408
-0.02534350889510661
0.1524865226107699
0.002734305689075317
0.1497035697794349
-2.860490059564125e-05
-0.0007690270456951476
0.1465863104410549
0.118632964699763
0.1227730131478963
0.1244195739544151
0.1251098251742915
0.1414560408544819
-0.00620867805848288
0.1432089890490111
-0.002870645983049425
0.1450884388503726
-0.000144826315477492
0.002247415050716794
0.1462949117186825
0.1431811541947996
-0.004217335909352277
0.1434235944289994
-0.001468835590547585
0.1448316169543772
-9.712828878777335e-05
0.002200094356804183
0.1460985738009734
0.1443378952993724
-0.0004711061694198104
0.1436491680960031
0.0007323068307199254
0.1440207488699428
0.00113320363507402
0.001924194653203315
0.1453981315008708
0.1262273741585844
0.1285996198541512
0.1313270242747775
0.1344714262111381
0.1467132073533008
0.001698401325737342
0.1475762917356404
-0.003879026136379249
0.1519683246510961
-0.1044956144894444
-0.1188467671786483
0.1250059076832917
0.1466425350126186
0.001949184952432959
0.1462499589139933
-0.005063608566101108
0.1376574844198988
-0.102241381175143
-0.08254386677545988
0.09614794980873999
0.1460689747018604
0.001887352327938518
0.1435461507567118
-0.004163252081558655
0.09676577369311952
-0.06216958192638949
-0.04846147550348467
0.05856226790792651
0.1369877879612556
0.130789138102901
0.06150212359804869
0.009184138052666935
0.1357838461126621
0.115037492049394
0.1378491183176372
0.09089966975862107
0.1410060842229648
0.05300301881165426
0.03365932144177497
0.144913955300396
0.1249018649745996
0.0820557983174498
0.1354256363959755
0.0767075748008299
0.1401754041697623
0.04426137759313531
0.02606307435226007
0.1439845772690587
0.09805495418824337
0.0378488843842717
0.1242749640858828
0.04673972680807625
0.1343961298126834
0.03028338512516682
0.01688771571993597
0.1399955940686455
0.04272361350682118
0.08553077759172133
0.111998222715288
0.1250411290134455
0.1503541956902353
0.03488628994671283
0.1527856680713518
0.0376067480778044
0.1502125838302761
0.02674503818667273
0.00882502643755112
0.148177780734639
0.1503096950814624
0.02453593067388249
0.1550328411528986
0.02792152114473179
0.1551025847732404
0.02029484165522288
0.01045072514547629
0.1509021027503701
0.1469685460447168
0.01402451154203144
0.153847306875783
0.01530374792573963
0.1547175949023704
0.01223817669442362
0.007366190996878186
0.1525808491151824
0.1357084915584151
0.1443840906725124
0.1450510442208644
0.1453955932534478
0.1492829734185659
-0.009063034192524633
0.16146840924701
0.008751475831379585
0.1897732566318123
0.07432997706817068
0.1832899712041511
0.2471412989763438
0.1515078095884787
-0.001368022953646686
0.1615953690365063
0.008472388543532161
0.1880337095072965
0.05946010502535004
0.1212757415155206
0.2560433641698586
0.1552800483288466
0.002291529411738602
0.1616771323802014
0.01351720211661067
0.1908361210495197
0.0417446888103663
0.02946791498446472
0.2926665997263835
0.1536892808919096
0.1785746920132159
0.2332886951971409
0.2747518926516677
0.1271731159444512
-0.6781074776578068
0.01539309818787838
-0.1606416927781745
-0.0006258839274143222
-0.02608004334335112
-0.01976063688057654
-0.003713730248276067
0.09087081996587973
-0.5074118479479203
0.00483930202992621
-0.07317458393786831
-0.004855214086201888
-0.01462694064444511
-0.01282018261779622
-0.008312033578645607
0.04897252540860327
-0.2593914713911727
0.0004281261409160627
-0.02375725862917568
-0.007417988943961959
-0.00503785768859941
-0.00610042314004899
-0.0104288682552461
0.01821899132684468
-0.004443623734638269
-0.007649821515077673
-0.01070819780981674
-0.002277332798364453
-0.01033703527412581
-0.0004000478579119764
-0.00588731146919684
0.0005847597367471848
-0.002296297171757028
-0.0007082922686999643
0.000121279205918836
-0.007289622524812775
-0.007905997991436171
-0.005365283839459252
-0.004599675425607956
-0.003555886358549223
-0.001332380609316799
0.0001900401569879251
-0.003883476869753946
-0.009795357052311649
-0.004426402696550161
-0.008102541552288371
-0.002780494170950963
-0.006329124799984921
-0.0007415777161217801
0.001419962208275907
-0.007410920915844142
-0.01058319330109533
-0.009937516795152729
-0.009029829454112293
-0.007599596901816368
0.02618830099037332
0.01434380774106588
0.05265096372653228
0.0744081558447013
0.07367655478016658
0.08533730274662625
0.1013602569058231
0.09340799726112112
0.01070531867365961
0.002091398168103414
0.04226408271166526
0.04349503284360454
0.06670235722410456
0.06053152050708305
0.07644373847341926
0.09113312951203251
-0.001119990152908715
-0.002717693940359867
0.02694936401104933
0.01624587655587521
0.05477543359507332
0.03230762154441554
0.04670910041725594
0.0827723806852247
-0.008827023609155028
0.008953232061318615
0.04138728315217861
0.08780189754644746
0.07975295792757134
-0.07129446496338791
0.08294149532241803
0.06302681831981638
-0.06302329047028654
0.07588624667134303
0.04456476439338505
-0.05334100934659063
0.06883537047122908
-0.0341506235482434
0.02658368277664577
0.05045532418670614
0.07423793235074255
-0.05450770129881575
0.05678415760055681
-0.04629115900922187
0.03738986027234439
-0.03629483527658832
-0.02078655374576566
0.02208297629904586
0.06406335324079425
-0.03593450096810127
0.04662728042178377
-0.02782178033814766
0.02749961684970509
-0.01751117253397987
-0.007073159429523471
0.01384252063918504
0.05235763783370841
0.02581836401096468
0.008909049712833045
0.002399395453830791
0.001030549098266158
0.001081101327702762
0.0005791381196905004
-0.0008584079006191854
0.000234651718270959
-0.001949123145669668
-0.002452876048667941
-2.074729277268261e-15
0.008874771366758759
0.005610299179595792
0.005731110599462116
0.0009920346512504001
0.00311954714064875
-0.00156322241343575
-0.002468690745941905
4.371503159461554e-16
0.01672818275659885
0.009730654053361622
0.01172928391185141
0.004604806897284978
0.006316286873544519
0.00223499331864126
0.001885308331717111
-1.665334536937735e-16
0.01979916096077738
0.01242763030419653
0.005652166886671306
9.527101330064625e-15
-0.002452876048671792
-0.0002346517182737415
-0.002468690745948698
-0.003119547140654329
0.001885308331702622
-0.006316286873539641
-0.005652166886644841
0.006374579352720722
-0.001949123145673724
-0.0005791381196935813
-0.001563222413443501
-0.00573111059946136
0.002234993318644886
-0.01172928391185007
-0.01242763030416307
0.007817253917671151
-0.0008584079006205246
-0.00103054909826495
0.0009920346512425314
-0.008874771366746852
0.004604806897291456
-0.01672818275660651
-0.01979916096075574
0.01092378892588808
0.001081101327706585
-0.002399395453831568
0.005610299179589651
-0.01384252063917318
0.009730654053358198
-0.02208297629906075
-0.02658368277664096
0.0155433516031365
-0.04456476439339999
-0.03415062354822643
0.05045532418671162
-0.06302681831980431
-0.05334100934657889
0.0688353704712312
-0.0797529579275513
-0.06302329047028871
0.07588624667135491
-0.07129446496336223
-0.09340799726108404
0.08294149532238981
-0.03738986027234765
-0.02078655374575592
-0.05678415760054584
-0.03629483527658071
-0.07423793235073457
-0.04629115900923422
-0.05450770129880665
-0.09113312951201283
-0.02749961684968545
-0.007073159429524536
-0.04662728042176777
-0.01751117253397968
-0.06406335324078961
-0.02782178033814454
-0.03593450096810039
-0.08277238068520917
-0.008909049712835758
-0.0258183640109699
-0.052357637833704
-0.08780189754643705
-0.04138728315215526
-0.04670910041724086
-0.00895323206130319
-0.03230762154434043
0.008827023609116004
-0.01624587655576551
0.002717693940378157
0.007599596901789185
-0.05477543359503792
-0.07644373847340868
-0.0269493640109834
-0.06053152050701033
0.001119990152919012
-0.04349503284339673
-0.002091398168016845
0.007410920915810013
-0.06670235722407675
-0.1013602569058024
-0.04226408271157853
-0.08533730274658288
-0.01070531867356654
-0.07440815584447297
-0.01434380774091151
0.003883476869780779
-0.07367655478014615
-0.05265096372645074
-0.02618830099024638
-0.0001212792057877395
-0.0005847597366686816
-0.0007082922685734683
0.0004000478579703013
-0.002296297171665469
0.002277332798422764
-0.005887311469178709
-0.01033703527419634
0.00371373024830013
0.00355588635860114
0.0001900401570996343
0.005365283839501241
-0.001332380609223596
0.007289622524852541
-0.004599675425583045
-0.007905997991494249
0.008312033578677363
0.006329124800028917
0.001419962208315237
0.008102541552323501
-0.0007415777160565337
0.009795357052352112
-0.002780494170940805
-0.004426402696584925
0.01042886825528115
0.00902982945413577
0.009937516795203331
0.01058319330114435
0.01070819780985415
0.0006258839274983757
-0.01976063688054745
-0.01539309818734088
-0.02608004334313968
-0.1271731159434231
-0.1606416927774279
-0.6781074776588311
-0.2471412989764282
0.004855214086251012
-0.0128201826177968
-0.004839302029716997
-0.01462694064439422
-0.0908708199651711
-0.07317458393760963
-0.5074118479481661
-0.2560433641698487
0.007417988943994034
-0.006100423140027046
-0.0004281261408305599
-0.005037857688598116
-0.04897252540830341
-0.02375725862912091
-0.2593914713911906
-0.2926665997262506
0.007649821515110839
0.004443623734675245
-0.01821899132675872
-0.274751892651562
-0.1897732566318859
0.1832899712039655
-0.1614684092469862
0.07432997706833233
-0.1492829734185441
0.008751475831186073
-0.009063034192596575
-0.1481777807347163
-0.1880337095073411
0.1212757415154703
-0.1615953690364549
0.0594601050252187
-0.1515078095884033
0.008472388543234954
-0.001368022953760151
-0.1509021027504067
-0.1908361210494338
0.02946791498444162
-0.1616771323800211
0.04174468881019244
-0.1552800483287558
0.01351720211634411
0.002291529411744597
-0.1525808491151574
-0.2332886951969588
-0.1785746920129893
-0.1536892808918153
-0.1453955932533808
-0.1502125838305134
0.008825026437816907
-0.1527856680712828
0.02674503818698637
-0.1503541956904041
0.03760674807758246
0.03488628994824861
-0.1449139553002126
-0.1551025847732781
0.01045072514575351
-0.1550328411529437
0.02029484165552042
-0.1503096950816986
0.02792152114477231
0.02453593067494175
-0.1439845772688748
-0.1547175949023585
0.007366190997190492
-0.1538473068758226
0.01223817669460925
-0.1469685460449692
0.0153037479258975
0.014024511542574
-0.1399955940684399
-0.1450510442207891
-0.1443840906724807
-0.1357084915584844
-0.1250411290129839
-0.1410060842229468
0.03365932144070827
-0.1378491183175602
0.05300301881143177
-0.135783846112601
0.0908996697582406
0.1150374920493031
-0.1250059076833453
-0.1401754041697598
0.02606307435145028
-0.1354256363958962
0.04426137759296223
-0.124901864974541
0.07670757480054424
0.08205579831740761
-0.09614794980878844
-0.1343961298126353
0.01688771571945646
-0.1242749640858205
0.03028338512501005
-0.09805495418826454
0.04673972680797034
0.03784888438431488
-0.05856226790802668
-0.1119982227152146
-0.08553077759172865
-0.04272361350687702
-0.009184138052698534
-0.1519683246511081
-0.118846767178746
-0.1475762917356462
-0.1044956144890997
-0.1467132073533218
-0.003879026136375474
0.001698401325618493
-0.1462949117187109
-0.1376574844200742
-0.08254386677549364
-0.1462499589140268
-0.1022413811749631
-0.146642535012622
-0.005063608566092559
0.001949184952350469
-0.146098573800985
-0.09676577369333048
-0.04846147550339808
-0.1435461507567483
-0.06216958192641769
-0.1460689747018623
-0.004163252081586244
0.00188735232788384
-0.1453981315009014
-0.06150212359796173
-0.1307891381028414
-0.1369877879613107
-0.1344714262112034
-0.1450884388503813
0.002247415050916246
-0.1432089890489447
-0.0001448263153273066
-0.1414560408545521
-0.002870645983265613
-0.00620867805845951
-0.1402026264925061
-0.1448316169543696
0.002200094356932136
-0.1434235944289457
-9.712828867836087e-05
-0.1431811541948138
-0.001468835590718393
-0.004217335909353248
-0.1436475822412304
-0.1440207488699467
0.001924194653273315