/*--------------------------------*- C++ -*----------------------------------*\
  =========                 |
  \\      /  F ield         | OpenFOAM: The Open Source CFD Toolbox
   \\    /   O peration     | Website:  https://openfoam.org
    \\  /    A nd           | Version:  11
     \\/     M anipulation  |
\*---------------------------------------------------------------------------*/
FoamFile
{
    format      ascii;
    class       volScalarField;
    location    "0.19";
    object      T;
}
// * * * * * * * * * * * * * * * * * * * * * * * * * * * * * * * * * * * * * //

dimensions      [0 0 0 1 0 0 0];

internalField   nonuniform List<scalar> 
880
(
500
500.0000000069456
500.0007289592531
500.3720206433932
500.0000000000001
500.0000000263233
500.0016563297884
500.8296115665399
500.000000000089
500.0000001942107
500.0050046646982
501.8041225977268
499.9999999999712
499.9999998960733
500.0160845604775
503.5129587376027
499.9999999995458
500.0000000018736
499.9999999449532
500.0000086782221
500.0000002208641
500.0000036860299
500.0001742789561
500.0004669566182
500.0553274443984
500.1095854550228
500.2609508675222
500.0791899554508
508.0547554312547
513.3476107549187
517.7619227114735
519.8971582163304
500.0000822434909
500.0003559146404
500.0020953566431
500.0033502299606
500.003516088152
500.0104062978063
500.0262773959216
500.0414702856138
500.7463359060912
501.3289777322354
502.0051285880099
502.7092669898874
522.2744170824047
525.125085241986
527.1334973484328
527.6063604653755
520.5402638076517
517.1820650056645
516.2376319976818
515.0969921554282
505.2582192533028
506.3879294266986
507.3115795950741
507.4136226659652
500.1576080857372
500.3184564577858
500.4956225911372
500.6529217685305
500.0120469384407
500.0327169025013
500.0688180874632
500.0999629770286
500.1141725860257
500.1070576220686
500.0877584832254
500.0622955829469
500.7918315505811
500.8529034295414
500.7934506571809
500.6893477557877
507.2926239576529
506.9311713235998
506.2048247238421
505.3552878867042
513.7676075079456
512.5947282796827
511.7194912496807
510.456291094751
509.1476961714006
504.5592419863914
500.555456241905
500.0370056512496
507.3635593697535
503.5950425856116
500.4009917674018
500.0179559596214
512.2302062593045
502.633327449935
500.2052534168328
500.003237139453
541.6407208308
502.9311275174146
500.0854409041631
500.0007157326608
500.0020144188068
500.0654441293788
506.0855032428764
584.684657568876
500.0076853861603
500.154123550904
510.1929240565458
593.6360188719254
500.0222917075038
500.3674286769859
516.8678988716891
603.2267148889896
500.0591573312778
500.8609253908433
525.6100298397923
610.3648378907202
617.3279491903468
536.2096828907107
501.704993490541
500.1277763369205
622.3294974249532
548.1152481612136
503.214375253645
500.2591613885617
626.5002937693305
560.6101559355919
505.5375214387692
500.4558663128306
627.647183458792
571.1182415264061
509.1223711458674
500.7996039695404
501.3055006880771
513.6701912650962
577.9071123385057
623.3617432905309
501.7115614503012
513.7453756922566
566.5641230092145
606.6023278144093
501.9991261318876
510.4539877447887
550.6714220458254
584.279636187977
500.9279034750102
506.159312799457
530.8660082354248
552.9646317019493
501.2821354677597
506.7920831451558
519.689957205345
519.827132670511
501.0817784087774
504.1187951064273
508.0959075210272
488.3606836579835
500.5061505860554
502.9580647406944
507.6507397671706
489.912376953009
500.1559576101409
502.2105288369633
510.7495941120676
534.1196139741578
541.8466279607156
509.1471829990132
500.7845718409005
499.9577965550106
533.0710278629921
507.1216340999351
499.7579627613276
499.8980703524177
526.4922313892779
504.0675079406767
499.214504700547
499.8758305953467
513.4665741904432
499.0621592265888
498.7321403269692
499.9011471341925
496.4350662877342
495.0656230704275
498.8634236385635
499.962805553257
477.5900148325463
494.0524422809688
499.3904576854187
499.9892193697825
463.5830869821991
493.7026284998809
499.6497039212553
499.9958067361929
463.9748484605763
495.1251366933927
499.8921579358063
499.9984289977706
493.911701371468
496.9506538972752
499.4387704620015
499.9811019384503
487.8878246222728
496.4938518505469
499.5278267336706
499.9854936814226
480.2376287107006
495.696333471786
499.5985739992068
499.9893671665648
472.7564571946973
494.7746778958119
499.6159959898302
499.991553928259
463.9748484605672
495.1251366934322
499.8921579361697
499.9984289976048
463.5830869823073
493.7026284998579
499.6497039211784
499.9958067360327
477.5900148325115
494.0524422808814
499.3904576851399
499.9892193696118
496.4350662876002
495.0656230701954
498.8634236385169
499.9628055532186
499.9577965550957
500.7845718411032
509.1471829991863
541.8466279604049
499.8980703523874
499.7579627614292
507.1216341000024
533.0710278628422
499.8758305954105
499.2145047005998
504.0675079404186
526.4922313889201
499.9011471342263
498.7321403270979
499.0621592263356
513.4665741902072
534.119613974528
510.7495941123499
502.2105288369141
500.1559576102366
489.9123769529924
507.6507397671907
502.9580647406727
500.5061505860476
488.36068365777
508.0959075210563
504.1187951064282
501.0817784089226
519.8271326704935
519.6899572051835
506.7920831447589
501.2821354678054
501.3055006878777
513.6701912655988
577.9071123392521
623.3617432908619
501.7115614501643
513.7453756922396
566.5641230095532
606.6023278146654
501.9991261317527
510.4539877450304
550.6714220458083
584.2796361880258
500.9279034748646
506.1593127990557
530.8660082354379
552.9646317019457
627.6471834589815
571.1182415267942
509.1223711455124
500.7996039700764
626.5002937696447
560.6101559359718
505.537521439596
500.4558663126066
622.3294974250832
548.115248161782
503.2143752541113
500.2591613886791
617.3279491904447
536.2096828902048
501.7049934897885
500.1277763368647
500.0020144188171
500.0654441294213
506.0855032428013
584.6846575688943
500.0076853864176
500.1541235512253
510.1929240565088
593.6360188718628
500.0222917078244
500.3674286769842
516.867898871664
603.2267148888611
500.0591573311964
500.8609253915207
525.6100298402584
610.3648378909628
500.0007157326472
500.0032371393629
500.0179559597777
500.0370056512667
500.0854409038963
500.2052534167009
500.4009917673159
500.5554562417933
502.9311275173403
502.6333274499837
503.5950425854961
504.5592419862681
541.6407208307093
512.2302062593395
507.3635593698003
509.1476961714085
500.0622955830026
500.6893477558825
505.3552878868381
510.4562910949231
500.0877584831851
500.7934506573702
506.204824723953
511.7194912496976
500.1070576221398
500.8529034297604
506.931171323453
512.5947282793607
500.1141725860372
500.791831550865
507.2926239577391
513.7676075080045
500.0120469390397
500.1576080847377
505.2582192536576
520.5402638076757
500.0327169028736
500.318456456742
506.3879294271819
517.1820650055238
500.0688180879939
500.4956225903017
507.3115795951938
516.2376319974609
500.0999629770442
500.6529217685187
507.4136226661336
515.0969921552273
527.6063604653868
502.709266989792
500.0414702861411
500.003350233555
527.133497348483
502.0051285878695
500.0262773946412
500.002095353554
525.1250852420834
501.3289777325908
500.0104062997329
500.000355911176
522.2744170823755
500.7463359061232
500.0035160880145
500.0000822448642
519.8971582162943
500.0791899555387
500.0004669563966
500.0000086779543
517.7619227115107
500.2609508676187
500.0001742790404
499.9999999449707
513.3476107549651
500.1095854550011
500.0000036859307
500.0000000018314
508.0547554312555
500.0553274443044
500.0000002208142
499.9999999996391
500.0000000000001
500.0000000069418
500.0007289592729
500.3720206431844
499.9999999999995
500.0000000262781
500.0016563297842
500.8296115665506
500.0000000001794
500.0000001941557
500.0050046646691
501.8041225976929
499.9999999998818
499.999999895958
500.016084560437
503.5129587375244
500.8514936329049
501.8076907107359
503.7702046309088
509.7839664004978
501.8076907107707
503.16432616924
507.3326294483689
517.6861019388134
503.7702046309208
507.3326294483815
515.8613307778274
530.6548020157555
509.7839664005461
517.686101938897
530.6548020158748
548.7303456306622
568.4267170562308
553.4515894690978
544.9148083445452
531.4129924611847
565.3912596621187
560.8503594248665
559.0648042461502
552.0269114270416
565.9100955587498
564.3110472914723
562.863497519795
559.8503464400139
564.9489265702538
564.1364259565129
563.6210260797657
561.8525551404452
560.2926736395535
559.8365678764719
558.484695586879
554.8847950154531
561.326072460145
559.6425283209363
557.9595166093037
554.4932294043657
561.404382135553
559.4159769931166
557.6302888442269
554.2982266730581
561.8693797318344
559.4537573298269
557.5609984173658
548.9033938375626
516.4419941327267
498.2932314023648
498.694082501771
500.0651966090501
504.6091325696236
494.0900983496387
498.5880468625481
500.7793980790836
492.0218557492179
493.904895307474
499.5804171607619
502.3691336059338
470.0318657530534
488.8931300371085
497.8434927609604
500.9715141209368
501.05564182414
501.8969688581241
502.7656676589307
503.266569461072
501.943806919528
502.9092502513399
503.6972400790905
503.9958994930171
503.4030721626813
504.094771684567
504.5315859769347
504.8001829297759
502.3831070429747
503.8563639308186
504.937348819241
505.0493244093223
503.3884284538197
504.8939803466449
547.2324131099729
608.5473230645133
504.0608289702066
506.7518426721593
561.2295095951331
615.4460120413023
504.6842292122433
509.0974436204642
572.5058200917109
616.9222958548104
505.0305431280857
510.1654995630757
581.6227309699752
622.2705301774679
663.5419428907387
656.3964766969243
653.6957099302091
650.5575369161813
671.460438572542
662.1949137055952
656.5718276833115
651.8668895172081
676.4836704062924
668.0788437331204
659.6668438069288
652.9501519653203
676.7739856053405
671.6678139716286
662.335589541486
654.2103132167171
651.5284758224753
656.6858077473458
657.7200081357008
657.2869363713437
652.1489825504959
656.1838110045275
658.7141312128697
658.5548048189722
651.8321205801418
654.9811169996899
657.8727068367207
658.0000325813734
652.3505743893006
655.7842548743729
658.7195991481208
658.0392666002545
646.6973255246611
627.3896078591356
606.5729337745739
581.5442862902378
648.6201653343816
629.7512551725786
607.1607391487744
609.7026192536633
650.5694897031625
633.021320169855
617.8030184053038
637.1612735744128
650.2173116244601
638.8819530594237
634.7661364931205
623.0274256017719
540.0938778653876
462.1637202737376
346.7980059535032
347.3250819463467
531.4158449808297
424.3234166670035
294.995718545966
279.133187593545
483.0370185868147
359.8903921848391
269.1923570962205
258.3761503020484
383.7505072855653
288.5908216832287
262.866643207827
252.9117273863181
385.0826429648623
419.5382727112265
445.2285597079074
452.4996662422272
323.5861506388474
374.2130275462491
413.8730045538201
437.9364832276122
293.8733881251462
343.3691690930399
389.1748875268127
429.127511480312
287.8110166763133
340.0524661636756
392.0273103244415
434.0188790532432
492.5700217245819
463.1715213949134
434.9437541587741
422.2430594758583
482.3930707733317
472.0560783408126
446.8492798666292
434.4660754416932
462.8767994524822
473.2302401389504
461.2821434455958
455.7519441850114
445.5557076234687
469.1716532643385
470.3311086841772
482.8004853386142
401.4658163527019
408.7186018052499
426.5839112195525
423.7635671060839
401.7505628677598
404.0660956289466
411.3998548004304
403.3437986169759
409.527443839197
410.0656304620241
411.0685266256231
395.9709480984591
390.3627820828426
399.1151166020344
397.092018591394
379.3720125260616
363.5747912501748
356.2890526936591
354.0686261796624
353.2768510113245
377.3544982366082
366.6094018495907
362.5389242412811
361.1644996948253
389.3113143675612
381.9876696849719
379.7720769156346
379.521711716662
413.5554355857869
406.054102595547
400.5203183935985
397.7737714721275
353.2768510113243
361.1644996948256
379.521711716682
397.7737714721161
354.0686261796465
362.5389242412764
379.7720769156876
400.52031839364
356.2890526936231
366.6094018495571
381.9876696850188
406.054102595625
363.5747912501218
377.3544982365487
389.3113143675644
413.5554355858084
423.7635671060373
426.5839112195258
408.7186018052545
401.465816352706
403.3437986169636
411.3998548004686
404.0660956289817
401.7505628677559
395.9709480984112
411.0685266255953
410.0656304620442
409.5274438392112
379.372012526026
397.0920185913672
399.1151166020024
390.3627820828004
482.8004853385543
470.3311086840997
469.1716532642492
445.5557076236286
455.7519441850012
461.2821434455723
473.2302401388355
462.8767994524981
434.4660754416921
446.8492798666602
472.0560783407461
482.3930707731689
422.24305947587
434.9437541588298
463.1715213948553
492.5700217242727
452.4996662426283
445.2285597083792
419.5382727117925
385.0826429649904
437.936483228075
413.8730045544408
374.2130275468725
323.5861506389432
429.127511480691
389.1748875273852
343.3691690935493
293.8733881251772
434.0188790535819
392.0273103250238
340.0524661642449
287.811016676401
347.3250819463163
346.7980059525131
462.1637202735017
540.0938778653883
279.1331875933224
294.9957185454036
424.3234166668351
531.4158449807552
258.3761503017968
269.19235709584
359.890392184935
483.0370185867728
252.9117273861642
262.8666432074808
288.590821683246
383.7505072856412
581.5442862902465
606.572933774643
627.3896078592048
646.6973255246903
609.7026192536578
607.1607391486743
629.7512551725021
648.620165334262
637.161273574334
617.8030184051415
633.0213201696488
650.5694897029584
623.0274256017098
634.7661364929045
638.8819530591327
650.2173116242128
657.2869363714968
657.7200081359684
656.6858077474388
651.5284758227768
658.5548048190141
658.7141312129565
656.183811004646
652.1489825507803
658.0000325813307
657.8727068367775
654.9811169998188
651.8321205804842
658.0392666001488
658.719599148062
655.7842548745322
652.3505743896843
650.557536916176
653.6957099301212
656.3964766967603
663.5419428906898
651.8668895171127
656.5718276831847
662.1949137053822
671.4604385724307
652.9501519650684
659.6668438067679
668.0788437328595
676.4836704061012
654.2103132163786
662.3355895413159
671.6678139713342
676.7739856050958
608.5473230643681
547.2324131098874
504.8939803466902
503.3884284538684
615.4460120411262
561.2295095950087
506.7518426721708
504.0608289702396
616.9222958546362
572.5058200915605
509.0974436204654
504.684229212283
622.2705301772492
581.6227309698288
510.1654995630809
505.030543128117
503.2665694612705
502.7656676589529
501.8969688578659
501.0556418242072
503.9958994932052
503.6972400791267
502.9092502510542
501.943806919599
504.800182929971
504.5315859769819
504.0947716842556
503.4030721627634
505.0493244095134
504.937348819288
503.8563639304714
502.3831070430384
500.0651966088326
498.6940825015764
498.2932314022882
516.4419941328481
500.7793980787505
498.5880468624105
494.0900983496578
504.6091325697813
502.3691336055111
499.5804171606575
493.9048953075919
492.0218557493191
500.9715141205129
497.8434927608115
488.8931300372476
470.0318657531902
554.8847950155662
558.4846955868542
559.8365678765194
560.292673639584
554.4932294044403
557.9595166092276
559.6425283210376
561.3260724601977
554.2982266730473
557.6302888440988
559.4159769932135
561.4043821356042
548.9033938374912
557.5609984172582
559.4537573299469
561.8693797318832
561.85255514024
559.8503464400311
552.0269114271474
531.412992461297
563.6210260795373
562.8634975198228
559.0648042461927
544.91480834456
564.136425956347
564.3110472913914
560.8503594248235
553.4515894690343
564.9489265701332
565.9100955586529
565.3912596620122
568.4267170561384
460.3929948402978
494.8518040872113
499.7529877397954
499.9969350185132
454.693532113001
493.5434143976867
499.6492509869063
499.9950117751139
458.4644828386872
493.3550181730628
499.6267606916796
499.994174203471
464.6198940735717
493.8884208892935
499.620301544846
499.9931209073583
499.9811019385097
499.4387704618497
496.9506538972682
493.9117013713924
499.9854936813863
499.5278267335502
496.4938518505307
487.8878246223311
499.9893671666789
499.5985739992244
495.6963334717174
480.2376287109001
499.9915539283114
499.6159959898817
494.7746778957291
472.7564571947347
499.9931209072655
499.994174203432
499.9950117752032
499.9969350185509
499.6203015447875
499.6267606915794
499.6492509866897
499.752987739752
493.8884208892508
493.3550181730806
493.5434143978276
494.8518040873516
464.6198940734327
458.4644828385167
454.6935321128649
460.3929948402196
)
;

boundaryField
{
    back
    {
        type            empty;
    }
    inlet
    {
        type            zeroGradient;
    }
    front
    {
        type            empty;
    }
    top
    {
        type            zeroGradient;
    }
    outlet
    {
        type            fixedValue;
        value           uniform 500;
    }
    bottom
    {
        type            zeroGradient;
    }
    wall
    {
        type            zeroGradient;
    }
}


// ************************************************************************* //
