/*--------------------------------*- C++ -*----------------------------------*\
  =========                 |
  \\      /  F ield         | OpenFOAM: The Open Source CFD Toolbox
   \\    /   O peration     | Website:  https://openfoam.org
    \\  /    A nd           | Version:  11
     \\/     M anipulation  |
\*---------------------------------------------------------------------------*/
FoamFile
{
    format      ascii;
    class       volScalarField;
    location    "0.335";
    object      Ma;
}
// * * * * * * * * * * * * * * * * * * * * * * * * * * * * * * * * * * * * * //

dimensions      [0 0 0 0 0 0 0];

internalField   nonuniform List<scalar> 
880
(
1.11801663592382
1.118016635313871
1.117946635089224
1.104314305761384
1.11801663592427
1.118016634252797
1.117909542120082
1.099398873285359
1.118016635914411
1.118016629198496
1.117801027894982
1.092874366625619
1.118016635858915
1.118016601043143
1.117516863925093
1.074232006521279
1.118016636397609
1.118016634922834
1.118016611591856
1.118016208113398
1.118016424493081
1.118015069688593
1.11800950925137
1.118021904909864
1.116706218969909
1.115741296553336
1.114398840631645
1.113976181218992
1.036743993854861
1.000388838480932
0.9793111748452836
0.9766693071804019
1.118011907063332
1.118001270298125
1.117985225734777
1.117898365631015
1.117924732560798
1.1175707466656
1.117009982623144
1.116001219741309
1.105881561181344
1.099520792983874
1.091205872084999
1.083656722677361
0.965670084850456
0.9654192724240677
0.9633951949633766
0.9855762621622357
1.043614066115065
1.077614334691857
1.091933574650898
1.104733676872232
1.069767293378121
1.069195208402683
1.073812124268362
1.081332449680844
1.11228186562045
1.107622014853799
1.103120904379978
1.100676584947687
1.117471440143174
1.116733903940396
1.115656190495176
1.114360701330519
1.113167354130685
1.112297388438231
1.111722526781632
1.111525896567212
1.100285295805386
1.102100346639034
1.105899965632813
1.110820574097268
1.089703768689221
1.099510718466515
1.107922916402337
1.115474278678749
1.111711190761815
1.12042380337612
1.123713924256619
1.128050699566705
1.130819672339256
1.122886814444252
1.1160269061127
1.111408308420482
1.104001019629809
1.127601145581073
1.12203887985203
1.111627308825585
0.8859097459207802
1.122478281903943
1.126296117348339
1.112469551472981
0.6163187331230726
1.060856801558772
1.127141045843782
1.114403702290653
1.113108493496539
1.123175054232441
0.9828874245049164
0.5392142097559112
1.111598708662983
1.113364758852692
0.9193887043602035
0.5712693932359796
1.110555600240147
1.091345970844648
0.8452949330864956
0.5888269389152193
1.107180915825094
1.055577808040345
0.7926558460225076
0.620880603836575
0.6654742192929077
0.7655373239536091
1.004597944492069
1.099750364462832
0.7137894060575579
0.7813306170060825
0.9536477117813776
1.085321873917415
0.7643306785902567
0.815154681497648
0.9260389647499957
1.062415014219829
0.8116104648091609
0.8659711276846994
0.9286861039413913
1.035183332335895
1.010973082374985
0.9810272180307673
0.9430074795290181
0.8715792865448557
1.027673483139504
1.040972990034862
1.030360826644093
0.9534750633519317
1.050381725837595
1.102543158319812
1.12405904553782
1.059402861056674
1.069841090907829
1.145184435239499
1.211087904792954
1.186331214901121
1.085576507764046
1.183411790138867
1.291957431002267
1.384016846970454
1.106736149664187
1.211759123643908
1.344533791522841
1.572168275364782
1.121280695048688
1.213819506476499
1.375053386570674
1.791134376705869
1.129586206737302
1.199282554314244
1.341217594857258
1.846195042705428
1.479772261443953
1.291680016638604
1.18914479442622
1.134429498467578
1.091717763040743
1.256465750154875
1.176967087843756
1.13416858570203
0.980549872580753
1.234473764701148
1.167344359718269
1.130972581261362
0.849734332364224
1.196776613764292
1.153599737890874
1.12723465271618
0.7745488416404723
1.137108769080303
1.132270169732297
1.122009731178719
0.7249479206867988
1.077940407246471
1.112822637264517
1.118264136257455
0.7087711644361857
1.035259078025476
1.105755222216387
1.117571286431764
0.7093731390415318
1.038224384102655
1.108203532220882
1.11766050967368
0.6862004866364155
0.9629300045594057
1.08300552510171
1.115185962360525
0.702653213962191
0.9607623869524829
1.082433904538568
1.115044696746139
0.7310943136807581
0.958861074916831
1.082246122391693
1.114899991931521
0.7460757954798235
0.9643119662838758
1.083906822714662
1.114949634049689
0.70937313904202
1.038224384104924
1.108203532224702
1.117660509679104
0.708771164436895
1.035259078028744
1.105755222217604
1.11757128643462
0.7249479206886591
1.077940407249494
1.112822637265666
1.118264136260532
0.7745488416406967
1.137108769084137
1.132270169733159
1.122009731179693
1.134429498466885
1.189144794425885
1.291680016637014
1.47977226145079
1.134168585701427
1.176967087843242
1.256465750154577
1.091717763042074
1.130972581259398
1.167344359717595
1.234473764706006
0.9805498725808695
1.127234652714788
1.153599737888184
1.196776613767887
0.8497343323648263
1.846195042708733
1.341217594857258
1.199282554316109
1.129586206737615
1.791134376706472
1.375053386572075
1.213819506476547
1.121280695048572
1.572168275364605
1.34453379152291
1.211759123644871
1.106736149660356
1.384016846969478
1.291957431003471
1.183411790140756
1.085576507758721
1.010973082372356
0.9810272180277287
0.9430074795266442
0.8715792865445351
1.027673483139293
1.040972990035295
1.030360826642233
0.9534750633508324
1.050381725841183
1.102543158320968
1.124059045536518
1.059402861056039
1.069841090905263
1.145184435241447
1.211087904792308
1.186331214899864
0.8116104648094308
0.8659711276845263
0.9286861039398623
1.035183332328133
0.7643306785906833
0.8151546814978337
0.9260389647504526
1.062415014218809
0.7137894060581074
0.7813306170064932
0.9536477117824087
1.085321873915325
0.6654742192934179
0.7655373239528509
1.004597944487718
1.099750364461344
1.113108493496835
1.123175054233649
0.9828874245064506
0.5392142097573452
1.111598708657206
1.11336475885018
0.9193887043610544
0.5712693932367181
1.110555600232278
1.091345970838506
0.8452949330864912
0.5888269389163574
1.107180915822237
1.055577808042018
0.7926558460238384
0.6208806038367033
1.114403702291166
1.112469551473551
1.111627308822798
1.111408308419976
1.127141045848835
1.126296117349983
1.122038879853438
1.116026906113409
1.060856801563257
1.12247828190537
1.127601145584885
1.12288681444619
0.6163187331250516
0.8859097459233727
1.104001019629252
1.13081967233913
1.111525896564965
1.110820574094242
1.115474278676627
1.128050699564863
1.111722526782857
1.105899965630021
1.10792291640081
1.123713924256738
1.112297388438317
1.102100346637972
1.099510718468931
1.120423803380063
1.113167354133318
1.100285295805807
1.089703768689117
1.111711190762534
1.117471440143853
1.112281865625431
1.069767293375977
1.043614066113757
1.116733903943783
1.107622014856797
1.069195208401233
1.077614334691342
1.115656190492722
1.103120904382051
1.073812124270118
1.091933574655845
1.114360701332441
1.100676584949511
1.081332449680319
1.104733676875759
0.9855762621630242
1.083656722677532
1.116001219745831
1.117898365628454
0.9633951949642759
1.091205872084028
1.117009982626889
1.117985225735828
0.9654192724234508
1.099520792984788
1.117570746672745
1.118001270300671
0.9656700848511398
1.105881561183764
1.117924732564759
1.118011907060168
0.9766693071810166
1.113976181218875
1.118021904910329
1.118016208110897
0.9793111748448812
1.114398840632536
1.118009509254774
1.118016611590678
1.000388838477657
1.115741296554748
1.118015069691087
1.118016634924372
1.036743993846292
1.11670621897167
1.118016424495729
1.11801663639447
1.11801663592376
1.118016635313558
1.117946635089373
1.104314305757055
1.118016635923289
1.11801663425555
1.117909542120413
1.099398873265051
1.118016635913724
1.118016629201166
1.117801027895545
1.092874366606055
1.118016635857181
1.118016601046081
1.11751686392617
1.074232006507619
1.094369507490072
1.085107349830459
1.065257088792277
1.016995898592482
1.08510734985875
1.070647211739034
1.035990758001468
0.962483274515251
1.06525708884976
1.035990758048488
0.9713737061462631
0.868511891590661
1.016995898618823
0.9624832745506429
0.8685118916208558
0.7597076116977098
0.7326374140396481
0.7709508928588021
0.8439124768984514
0.9155893176353778
0.7878018569177353
0.7928533338438539
0.8231274811518186
0.8689195585280676
0.7761462617881673
0.81510751557547
0.8454898890251876
0.8674004159392383
0.8107584902702009
0.8535795820644354
0.8757680209993042
0.8873879545064721
0.9029745837948611
0.9144436850037174
0.9338150146623285
0.9707231088270742
0.9007532142309093
0.915044076619653
0.9387610736824746
0.9926408961633776
0.8894226346044667
0.9117893917992513
0.9400405551939948
1.056127136980275
0.8410050503876607
0.8666798446774006
0.9031601884091265
1.143088240629808
1.151607371531177
1.191450095579712
1.16293786047932
1.155280468402551
1.272214020756437
1.297487961917807
1.243836763842785
1.21218188378729
1.427686404160923
1.361526869541371
1.293683106618998
1.249200655895072
1.161431631362164
1.098408194480942
1.085625729533754
1.086901916240958
1.153999803290849
1.154763576557093
1.153047780408991
1.149913525773035
1.192237678043375
1.176493296910727
1.163430094261126
1.150767680724729
1.217443962109708
1.19055594517182
1.16912366287719
1.14728200245657
1.081783803872772
1.071697839618559
1.060904259584487
1.043455305116095
1.139203013509278
0.9411349511910414
0.6288816169697643
0.3971537560356063
1.122645380193209
0.7952571030191186
0.435924933773458
0.2029844336517843
1.086517604763817
0.6201547659211621
0.216875492909636
0.01551773484902618
0.9315873073393088
0.401176781681884
0.05497311312232929
0.08474356351600576
0.3614299560819905
0.4475315308036482
0.4920467982796843
0.5646587245092464
0.2703659264320786
0.414294668516416
0.4894608422129785
0.5624808536071209
0.1357068071086469
0.3328917857693849
0.4629367626179801
0.5490312297279683
0.01968463584796662
0.1812606101703274
0.3367352533252412
0.4606483286525964
0.6295774669975741
0.6971619167330325
0.7580561205104134
0.8060580764733224
0.6285512928329096
0.6902499067622793
0.7526887042643656
0.8034219407667476
0.6193880466100169
0.6789743017777211
0.7458656443350752
0.8020919020951213
0.5634391321283522
0.6648308231615565
0.74099842104174
0.8006970554841673
0.8563497264163167
0.9266014898210507
1.013313414350059
1.125936494156336
0.8509075495835396
0.9137627239586277
0.9951199507267852
1.140977178901514
0.8491038658233411
0.9022097818092817
1.011562116360779
1.454768741458924
0.8475089756608232
0.896249365121382
1.037789558260381
2.028690428597145
1.349220436524831
1.491007523396232
0.7963195540902797
1.764833625946694
1.43417266492976
1.274879029076192
1.159155642700993
1.87532744685926
1.476230960096844
0.8915634490849554
1.329927196723756
1.83104816010768
1.142622880342282
0.411670979108524
1.558228376687369
1.766791707325419
1.232945782602443
0.74699981233032
0.6255405111429848
0.4153718400802168
1.315782431095044
0.9050504142855914
0.6652118427754683
0.3281124666881913
1.275308222304433
0.9317801038707771
0.590019363148644
0.2244072202403376
1.220177820311425
0.9048802520273248
0.5401095564612027
0.17063393997204
0.2565057920835886
0.03146008406293269
0.2193217745154847
0.4042080957664852
0.2992330811772493
0.2022580499576128
0.07388982101286568
0.3388375806338781
0.2715375797753162
0.3043954801405105
0.1195788068350585
0.2296428593130956
0.2168543179324562
0.3162578385539718
0.1913806784048286
0.1406095363535021
0.3590681008423013
0.3938915142993145
0.4088805428359427
0.415004501157368
0.3556115135784653
0.3580842838526893
0.3684984025443584
0.352266998598577
0.2810018508236835
0.2295112669224354
0.2174917127167782
0.1737288237105752
0.2654745268554593
0.1713286430199233
0.14206755842307
0.0875633911582297
0.05779026555279582
0.06477711678646819
0.07316355391063173
0.07510798824745717
0.1136120703375275
0.05387214995788229
0.03722047201751015
0.06302622364006275
0.3001208615203472
0.2316660833066559
0.1433785873295119
0.05767085334418538
0.3838776165224523
0.3405131137160714
0.2758418889374001
0.2205610456764976
0.0751079882474779
0.06302622364001413
0.05767085334289598
0.220561045676111
0.07316355391053267
0.03722047201736561
0.1433785873283818
0.2758418889377414
0.06477711678631896
0.05387214995744461
0.2316660833059383
0.3405131137165564
0.05779026555272391
0.1136120703372851
0.3001208615200054
0.3838776165225136
0.4150045011571908
0.4088805428357752
0.3938915142986931
0.3590681008418881
0.3522669985983172
0.3684984025440376
0.3580842838519958
0.3556115135778421
0.1737288237103848
0.2174917127165134
0.2295112669220264
0.2810018508231373
0.08756339115828275
0.1420675584231423
0.1713286430199155
0.2654745268553966
0.1406095363537191
0.1913806784034607
0.3162578385516399
0.2168543179304989
0.2296428593126651
0.1195788068341299
0.3043954801380935
0.2715375797727849
0.338837580633133
0.07388982101312946
0.2022580499552654
0.2992330811746798
0.4042080957659095
0.2193217745155608
0.03146008406113983
0.2565057920803092
0.4153718400758104
0.625540511142433
0.7469998123403763
1.232945782619695
0.3281124666854122
0.6652118427740895
0.905050414290157
1.315782431101981
0.2244072202389209
0.5900193631477529
0.9317801038715269
1.275308222307352
0.1706339399715901
0.5401095564603194
0.904880252026302
1.220177820313343
1.764833625945853
0.7963195540929633
1.49100752339214
1.349220436522893
1.875327446863525
1.159155642709611
1.274879029073839
1.434172664928256
1.831048160112192
1.329927196730906
0.8915634490836813
1.476230960096397
1.766791707330679
1.558228376695968
0.4116709791096101
1.14262288034236
1.125936494155679
1.013313414350038
0.9266014898204512
0.8563497264164195
1.140977178900997
0.995119950726345
0.9137627239578181
0.8509075495828015
1.454768741458299
1.011562116360201
0.9022097818084721
0.8491038658221175
2.02869042859633
1.037789558259806
0.896249365120711
0.8475089756594467
0.8060580764735007
0.7580561205110362
0.6971619167340298
0.6295774669977074
0.8034219407664337
0.7526887042649368
0.6902499067628205
0.6285512928329273
0.8020919020943067
0.7458656443354597
0.6789743017785973
0.6193880466100646
0.8006970554832697
0.7409984210427967
0.6648308231625102
0.5634391321288965
0.5646587245087419
0.4920467982790213
0.4475315308038774
0.3614299560828971
0.5624808536064904
0.4894608422120851
0.4142946685168987
0.2703659264331683
0.5490312297272995
0.4629367626172543
0.3328917857698417
0.1357068071094037
0.4606483286515442
0.3367352533246468
0.1812606101700928
0.01968463584832688
0.3971537560368666
0.6288816169723136
0.94113495119188
1.139203013507494
0.2029844336529323
0.4359249337762402
0.7952571030213846
1.122645380191429
0.01551773484887493
0.2168754929116272
0.620154765923699
1.086517604761453
0.08474356351562362
0.05497311312306864
0.4011767816821986
0.9315873073355271
1.149913525771963
1.153047780411016
1.154763576562714
1.153999803293311
1.150767680723062
1.16343009426328
1.176493296915278
1.192237678045438
1.147282002454408
1.169123662878991
1.19055594517635
1.217443962111558
1.043455305112311
1.060904259585891
1.071697839621318
1.081783803875281
1.155280468406945
1.162937860486009
1.191450095578796
1.151607371530355
1.212181883793119
1.24383676384954
1.297487961916985
1.272214020756142
1.249200655901528
1.29368310662559
1.361526869539857
1.427686404161529
1.086901916240347
1.085625729538561
1.098408194479402
1.1614316313645
0.9707231088277992
0.9338150146625072
0.91444368500135
0.9029745837930109
0.992640896164157
0.9387610736813718
0.9150440766168133
0.9007532142282711
1.056127136981322
0.9400405551922597
0.9117893917947454
0.8894226346010227
1.14308824063085
0.9031601884092633
0.8666798446769762
0.8410050503879062
0.8873879545069424
0.8674004159390674
0.8689195585267208
0.9155893176254194
0.8757680209982892
0.8454898890223603
0.8231274811477903
0.8439124768833208
0.8535795820618287
0.8151075155705102
0.792853333837389
0.770950892846894
0.8107584902700129
0.7761462617862942
0.7878018569109502
0.7326374140349556
0.6430174376253213
1.014232264295322
1.102746293877474
1.117142055806087
0.6835685382957474
0.9939815295486808
1.096923190329764
1.116570111041405
0.7067744914663691
0.9880558106475404
1.092190550310037
1.115896121228739
0.732401101767719
0.9759890591533501
1.087584058436196
1.115313872537893
1.115185962359002
1.083005525101584
0.96293000455889
0.6862004866348607
1.115044696745864
1.082433904537646
0.960762386951433
0.7026532139629381
1.114899991931807
1.082246122393669
0.9588610749161666
0.7310943136815435
1.114949634049584
1.083906822717172
0.9643119662836234
0.7460757954793575
1.115313872538684
1.115896121227082
1.116570111041771
1.117142055810269
1.087584058438992
1.092190550311238
1.096923190331328
1.102746293879587
0.9759890591543777
0.9880558106487125
0.9939815295500091
1.014232264296195
0.7324011017674177
0.7067744914662768
0.6835685382954543
0.6430174376255805
)
;

boundaryField
{
    back
    {
        type            empty;
    }
    inlet
    {
        type            calculated;
        value           nonuniform List<scalar> 
16
(
1.11801663592382
1.118016635923584
1.11801663592307
1.118016635908937
1.118016636016
1.118016635917386
1.118016628860735
1.118016457418221
1.118016457417388
1.118016628860287
1.118016635917466
1.118016636015728
1.118016635923759
1.118016635923572
1.118016635922765
1.118016635908338
)
;
    }
    front
    {
        type            empty;
    }
    top
    {
        type            calculated;
        value           uniform 0;
    }
    outlet
    {
        type            calculated;
        value           nonuniform List<scalar> 
16
(
1.114343029310182
1.114180706420071
1.114017507969499
1.11407879785371
1.116818699115759
1.116115801345057
1.115272011347334
1.114541414822353
1.114343029308371
1.114180706419521
1.114017507969792
1.114078797853844
1.114541414823019
1.115272011345398
1.116115801345813
1.116818699120072
)
;
    }
    bottom
    {
        type            calculated;
        value           uniform 0;
    }
    wall
    {
        type            calculated;
        value           uniform 0;
    }
}


// ************************************************************************* //
