/*--------------------------------*- C++ -*----------------------------------*\
  =========                 |
  \\      /  F ield         | OpenFOAM: The Open Source CFD Toolbox
   \\    /   O peration     | Website:  https://openfoam.org
    \\  /    A nd           | Version:  11
     \\/     M anipulation  |
\*---------------------------------------------------------------------------*/
FoamFile
{
    format      ascii;
    class       volScalarField;
    location    "0.118";
    object      Ma;
}
// * * * * * * * * * * * * * * * * * * * * * * * * * * * * * * * * * * * * * //

dimensions      [0 0 0 0 0 0 0];

internalField   nonuniform List<scalar> 
880
(
1.443353270571932
1.443353270571932
1.443353270571918
1.443351994173639
1.443353270571932
1.443353270571932
1.443353270576875
1.443341894589091
1.443353270571932
1.443353270571933
1.443353270645829
1.443331633923945
1.443353270571932
1.443353270571932
1.443353273368442
1.443235866386588
1.443353270571932
1.443353270571932
1.443353270571933
1.443353270542105
1.443353270571932
1.443353270571932
1.443353270571935
1.443353270571932
1.443353568374196
1.443352015983654
1.44329225331061
1.443643794847751
1.43263778019965
1.404957669613614
1.388172118265679
1.383626118447807
1.443353233899657
1.443353130715274
1.443352718695288
1.443352888610723
1.443351714925579
1.443349571414965
1.443348447668061
1.443349339963743
1.442418642794043
1.442007987257036
1.441870627847459
1.44169153449408
1.380864632816808
1.374374406369896
1.378729353096968
1.366642057712184
1.393137034124757
1.422215481316978
1.445673765422885
1.458290623924935
1.440672265216422
1.437321006153529
1.439630087531741
1.442152025624563
1.44334105214244
1.443308646069376
1.443285923757276
1.443315193820017
1.44335226271792
1.443350901917563
1.443347864296225
1.443346569887381
1.443347237580434
1.443349621756876
1.443352104567084
1.443353106176371
1.44334085084265
1.443361136656194
1.443361041712336
1.443355069295915
1.443885626671429
1.444604121369903
1.444277419984793
1.443697335737594
1.461462202775733
1.45983059194369
1.455853805129097
1.450774070607978
1.446300676843302
1.443408154325984
1.443353388983166
1.443353262042213
1.443930812370484
1.443356915734304
1.443353276972919
1.443353269849608
1.443413873382574
1.443355411338899
1.443353322378552
1.443353267158888
1.422154165131292
1.443253106345835
1.443355553629261
1.443353602929291
1.443353380392084
1.443354277850566
1.442490330440262
1.264693908698668
1.44335317197743
1.443344284980752
1.438954846622373
1.160581888251056
1.443352544377787
1.443320792296073
1.433891248786864
1.110939516209809
1.44334954291482
1.443300535826296
1.429163151111741
1.096997442696312
1.092537037162349
1.423509336733851
1.443260114899679
1.443348471046168
1.099400208556016
1.419420309069834
1.443239410207884
1.443342504572097
1.099460293127199
1.413559521803522
1.443180598332662
1.443342363719086
1.098255125448013
1.406934237695775
1.443120632555654
1.443332211317307
1.443328952274292
1.443056465281121
1.397536273705976
1.078990134405424
1.443318383070203
1.442844817666414
1.38592202719756
1.098241406814263
1.443304646543368
1.44278846599491
1.390462314400001
1.145121903683407
1.443320788889472
1.442812968447733
1.405455254334192
1.247402259600522
1.443248068332917
1.442979704088543
1.437073830428772
1.430346544722822
1.443171799711751
1.444617662227455
1.457173997536988
1.56441569621379
1.443344652626402
1.444321288075676
1.452317017404082
1.508768543597816
1.443365202361866
1.443338045579118
1.431597652605159
1.316511342803228
1.181437093329521
1.422429458178752
1.443201187168048
1.443356380101634
1.111339901093077
1.414130117553313
1.442863872474857
1.4433512544333
1.092149128833007
1.41223506211331
1.442942899692099
1.443352868702758
1.037584509307919
1.406424131965051
1.442814146198954
1.443352241866219
1.130084387282067
1.419510011210125
1.443101885695965
1.443352780894208
1.254455202008554
1.43224775022867
1.443282337751148
1.443353148794421
1.350482079830883
1.439046718813125
1.443335944721911
1.443353251399184
1.417302165647854
1.442784202003542
1.443356618107366
1.443353273790437
1.360477321271627
1.438456121704663
1.443258406491163
1.443352589006442
1.363624384265232
1.438630523614059
1.443260591785552
1.443352594939929
1.360097222790356
1.438488275352037
1.443262088894916
1.443352598777453
1.355513337131656
1.438621899640486
1.443275439292922
1.443352653640326
1.417302165654906
1.442784202008871
1.443356618116544
1.443353273776296
1.350482079834469
1.43904671881945
1.443335944740485
1.44335325139787
1.254455202006563
1.432247750222052
1.443282337749323
1.443353148793521
1.130084387274484
1.419510011193522
1.443101885693312
1.443352780899443
1.443356380088709
1.443201187153103
1.422429458174994
1.181437093327075
1.443351254416366
1.442863872465379
1.414130117550315
1.111339901090071
1.443352868714154
1.442942899679164
1.412235062114149
1.092149128826458
1.443352241865115
1.442814146193911
1.406424131949308
1.037584509309359
1.316511342812389
1.431597652616511
1.443338045600109
1.443365202375015
1.50876854361259
1.452317017415351
1.444321288089872
1.443344652651248
1.56441569621277
1.457173997548919
1.444617662227152
1.443171799717833
1.430346544720951
1.437073830434032
1.442979704096243
1.443248068303091
1.443328952281625
1.443056465271281
1.397536273701636
1.078990134397682
1.443318383070517
1.442844817650879
1.385922027190572
1.098241406813281
1.443304646525488
1.442788465993244
1.390462314407293
1.145121903683593
1.443320788876185
1.442812968445403
1.405455254339524
1.247402259601848
1.098255125433949
1.406934237689141
1.443120632528462
1.443332211316093
1.099460293113949
1.413559521770445
1.443180598336268
1.443342363714935
1.099400208557457
1.419420309078321
1.443239410181372
1.443342504578821
1.092537037158892
1.423509336755908
1.44326011492068
1.443348471050602
1.443353380381345
1.443354277841607
1.442490330444739
1.264693908703586
1.443353171984004
1.44334428499216
1.438954846608079
1.160581888264232
1.443352544387632
1.44332079230447
1.433891248786019
1.110939516196601
1.443349542927133
1.443300535803021
1.429163151107212
1.096997442697865
1.443353602929439
1.443353267152567
1.443353269848765
1.443353262043898
1.443355553640993
1.443353322375697
1.443353276960034
1.443353388991166
1.443253106342614
1.443355411335471
1.443356915745006
1.443408154328976
1.422154165131062
1.443413873382308
1.443930812366159
1.446300676844233
1.443353106187935
1.443355069295847
1.443697335724691
1.450774070603902
1.443352104571707
1.443361041716281
1.444277419965769
1.455853805128663
1.443349621745854
1.443361136656721
1.444604121378952
1.459830591945763
1.443347237578159
1.4433408508419
1.443885626663037
1.461462202782016
1.443352262733633
1.443341052153811
1.440672265204429
1.393137034124359
1.443350901933603
1.443308646072256
1.437321006152581
1.422215481324505
1.443347864303214
1.443285923742857
1.439630087535185
1.445673765429091
1.443346569893337
1.443315193808712
1.44215202562715
1.458290623931131
1.366642057709999
1.441691534468685
1.44334933997291
1.443352888617938
1.378729353092062
1.441870627824828
1.443348447671006
1.4433527186893
1.374374406360151
1.442007987281536
1.443349571411723
1.443353130721061
1.380864632817355
1.442418642845074
1.443351714929189
1.443353233894883
1.383626118442626
1.443643794807355
1.443353270571932
1.443353270539296
1.388172118267767
1.443292253344659
1.443353270571932
1.443353270571933
1.40495766960809
1.443352015987718
1.443353270571932
1.443353270571933
1.432637780197552
1.44335356837777
1.443353270571932
1.443353270571934
1.443353270571932
1.443353270571933
1.443353270571259
1.443351994243069
1.443353270571931
1.443353270571932
1.443353270576721
1.443341894660168
1.443353270571932
1.443353270571932
1.443353270644787
1.443331633932527
1.443353270571932
1.443353270571932
1.44335327337628
1.443235866388762
1.443350186211515
1.443339174182816
1.443267551455979
1.441419019419293
1.443339173973252
1.443336746996177
1.443250491128511
1.434126921703219
1.443267551464017
1.443250491101625
1.439444877588875
1.384506395804593
1.441419019430712
1.434126921736353
1.38450639601073
1.201913879582437
1.03412987481274
1.123414457248876
1.277629785159168
1.369218520208551
1.084967064998943
1.107490092119621
1.167930541777377
1.24257898967565
1.130879938892372
1.158112495486986
1.201200281544804
1.251482866440677
1.175010123550768
1.197026924754997
1.23120765785328
1.266116063013437
1.272672167402297
1.278029362179174
1.285510771229669
1.282803573392536
1.259797548072578
1.27532554246551
1.283288844893356
1.309522511898206
1.237013477298698
1.26777883206615
1.277919782606273
1.395721782393748
1.171502481041285
1.188554089144158
1.199695603893522
1.515461661194919
1.407541211533628
1.542734194179201
1.533843518998071
1.504075780979334
1.500879241952651
1.637238357944105
1.591571351553545
1.543058213888406
1.681620323518789
1.736075857680109
1.626642976181266
1.556075403742898
1.274751655115408
1.298192338926671
1.267982304963421
1.277803215352502
1.485444011643346
1.4723553444992
1.464701725021715
1.459897247731738
1.511498047948512
1.490430112076299
1.477072765204538
1.469091750396289
1.52263478678536
1.502176226332159
1.487077235415885
1.476264627397234
1.316776985962571
1.363842869519184
1.402908886987428
1.421315441928853
1.452484869253684
1.446293044683127
1.443784798790612
1.243919368106166
1.458813070855956
1.449068985919794
1.444435156065497
1.092299632027155
1.464186244287712
1.451900297076913
1.444656034085496
0.9434833419447142
1.431368094011572
1.438912090890399
1.439984012837853
0.6826808320279083
0.8480810225575992
0.8531529985918368
0.8801167738636052
0.9196906319084769
0.7397354449891947
0.8116471012050498
0.873678430631553
0.9207067544110733
0.6087782800106252
0.7346674164479861
0.8406785225991678
0.9089400775795945
0.3932214641091131
0.5588111926726602
0.6903815118146732
0.8018611778522925
0.9465811333312391
0.959421388049559
0.9707928217455749
0.9759378202554905
0.9488248674783025
0.9606943001589111
0.9733686721876467
0.980650884901728
0.9452532236942101
0.9602976752010464
0.9758238479805279
0.9841994690608317
0.8765094209853734
0.9085483696304455
0.9258766530240561
0.9305347700262611
0.9810256781403283
1.006815615961111
1.059810130928347
1.161427983094215
0.9858786100110137
1.009409299537731
1.066858815516531
1.217714240919919
0.9901859209194896
1.007146092261861
1.093717340939059
1.54002966319489
0.9509570242421399
0.9722284357564521
1.108001388591179
2.139501243105248
1.397291140657801
1.712223728752795
0.6718070077574557
0.3744196781618369
1.479436493668276
1.520892427433048
0.4953753576218315
0.1807706950009667
1.530079451942733
1.192371637540497
0.2460176077708805
0.1005094596727528
1.20958511365
0.6689693445606589
0.03378124250300053
0.04688274628562571
0.1959070164668956
0.09184178909959996
0.03296305433903979
0.09978066011715864
0.09274639245446972
0.08317051968216163
0.113416856809084
0.1964553338556478
0.05627333783342318
0.1134712272421074
0.1989098056229957
0.319950098531559
0.02543481335737864
0.1119686821430137
0.2798472900877499
0.3560202739003099
0.5709984134119137
1.032380722490858
1.306198246015853
1.453122251538057
0.263196050347709
0.7605639181707183
1.128216422607336
1.351467810258464
0.06879362656249079
0.3597751970132844
0.8099041422356469
1.241025212642294
0.1650650197373792
0.1332145759905139
0.5805624313521229
1.373481106273807
1.647720199835775
1.897415532386723
2.602917984148394
2.206103516208582
1.580432072271015
1.876154160833072
2.286307167346111
1.389033011123922
1.553162299021631
2.080735115787722
1.504256137276831
0.5970671748722917
1.358150774277934
1.504650300672939
0.1746734457580961
0.4234289012489036
0.4498394575380969
0.4333142288575294
0.3488460977303676
0.2134818130565242
0.2941491178411553
0.3076475820184084
0.2986375141194072
0.2220803937314035
0.5958134890068187
0.1248553244293089
0.1548959585373708
0.1888173953618549
1.264414218793166
0.6975535726277773
0.4200922417247366
0.2992075654135799
0.2134818130560435
0.2220803937311203
0.1888173953614687
0.2992075654083428
0.3488460977293918
0.2986375141198018
0.154895958536049
0.4200922417207146
0.4333142288573997
0.307647582017092
0.1248553244282072
0.6975535726253299
0.4498394575381912
0.2941491178392362
0.5958134890065921
1.264414218791368
2.206103516207561
2.602917984156009
1.897415532396301
1.647720199845552
1.389033011122081
2.286307167341903
1.876154160835642
1.580432072277494
0.5970671748722974
1.504256137272551
2.080735115792072
1.553162299023571
0.4234289012493042
0.1746734457576538
1.504650300671633
1.358150774278949
1.373481106276506
0.580562431352261
0.1332145759907346
0.1650650197394584
1.241025212644622
0.809904142235345
0.3597751970085188
0.06879362656074083
1.351467810262209
1.128216422606721
0.7605639181647874
0.2631960503427825
1.453122251543246
1.306198246014037
1.032380722486227
0.5709984134066358
0.09978066011262213
0.03296305433672416
0.09184178909262436
0.1959070164630724
0.1964553338547205
0.1134168568061872
0.08317051968806803
0.09274639246230867
0.3199500985290344
0.1989098056178211
0.1134712272477395
0.05627333784020465
0.3560202738981937
0.2798472900829134
0.1119686821483333
0.02543481335996852
0.3744196781665601
0.6718070077557105
1.712223728753409
1.397291140658984
0.1807706950042541
0.4953753576234894
1.520892427436459
1.479436493674581
0.1005094596738601
0.2460176077707974
1.192371637544322
1.530079451948871
0.04688274627792004
0.03378124250215522
0.6689693445699055
1.20958511365497
1.161427983094515
1.059810130926235
1.006815615958703
0.9810256781337975
1.217714240921383
1.066858815515777
1.009409299535778
0.9858786100059979
1.540029663200158
1.093717340940783
1.007146092260459
0.9901859209162465
2.139501243114251
1.108001388596834
0.9722284357630787
0.950957024247831
0.9759378202444473
0.9707928217423724
0.9594213880554422
0.946581133324214
0.9806508848940407
0.9733686721849871
0.9606943001655061
0.9488248674770733
0.9841994690552923
0.9758238479792027
0.9602976752083203
0.9452532236955701
0.9305347700273351
0.9258766530239754
0.9085483696366765
0.8765094209844394
0.9196906318980588
0.8801167738628943
0.8531529985995199
0.8480810225583582
0.9207067544005136
0.8736784306302786
0.811647101208451
0.7397354449886969
0.9089400775702853
0.8406785225979619
0.7346674164467499
0.6087782800098227
0.8018611778344678
0.6903815118169794
0.5588111926698994
0.3932214641032881
1.243919368104818
1.443784798804495
1.446293044684651
1.452484869250522
1.09229963202703
1.444435156081483
1.449068985914387
1.458813070852909
0.9434833419480098
1.444656034106978
1.451900297053356
1.46418624429077
0.6826808320375488
1.439984012862546
1.438912090912813
1.431368093984889
1.45989724773443
1.464701725024403
1.47235534450194
1.485444011647568
1.469091750397166
1.477072765207105
1.490430112077762
1.511498047951104
1.476264627396355
1.487077235418178
1.502176226330592
1.522634786788708
1.421315441928338
1.402908886986278
1.363842869515632
1.316776985960495
1.504075780983523
1.533843519004221
1.542734194186133
1.407541211535736
1.543058213895587
1.591571351558144
1.637238357949886
1.500879241955562
1.55607540375145
1.626642976184077
1.736075857687337
1.681620323523705
1.277803215360304
1.267982304965455
1.298192338929904
1.274751655114313
1.282803573399508
1.2855107712365
1.2780293621686
1.272672167381905
1.30952251190683
1.283288844896512
1.275325542456879
1.259797548061699
1.395721782405393
1.277919782610454
1.267778832063275
1.237013477300336
1.515461661214768
1.199695603912517
1.18855408914772
1.171502481030402
1.266116063018193
1.251482866439521
1.242578989668457
1.369218520228711
1.231207657870097
1.201200281555055
1.167930541739529
1.277629785140344
1.197026924772827
1.158112495494566
1.107490092070674
1.12341445710849
1.175010123540551
1.130879938868477
1.084967064971716
1.034129874728799
1.425141700896562
1.442011841754581
1.443340192758993
1.443353222785603
1.426312344008385
1.44189251993023
1.443333123851522
1.443353157455654
1.397512341161437
1.440925262430579
1.443319616969769
1.443353056423001
1.360260800858839
1.439333489180668
1.443299042231413
1.443352857930916
1.443352588999717
1.443258406492438
1.438456121703993
1.360477321251896
1.443352594932256
1.443260591777184
1.438630523626583
1.363624384269683
1.443352598785721
1.443262088884
1.438488275363599
1.360097222800719
1.443352653664067
1.443275439280935
1.438621899664964
1.355513337144179
1.443352857936719
1.4433530564311
1.443353157485207
1.443353222813374
1.443299042227415
1.443319616970859
1.44333312385758
1.443340192773096
1.439333489184303
1.440925262436185
1.44189251992015
1.442011841765993
1.360260800867592
1.397512341170758
1.426312344011256
1.425141700897203
)
;

boundaryField
{
    back
    {
        type            empty;
    }
    inlet
    {
        type            calculated;
        value           nonuniform List<scalar> 
16
(
1.443353270571932
1.443353270571932
1.443353270571932
1.443353270571932
1.443353270571932
1.443353270571932
1.443353270571932
1.443353270574486
1.44335327057347
1.443353270571932
1.443353270571932
1.443353270571933
1.443353270571932
1.443353270571932
1.443353270571932
1.443353270571932
)
;
    }
    front
    {
        type            empty;
    }
    top
    {
        type            calculated;
        value           uniform 0;
    }
    outlet
    {
        type            calculated;
        value           nonuniform List<scalar> 
16
(
1.443352328480463
1.44335233102063
1.443352318799778
1.443352299079895
1.443353198743572
1.44335311056021
1.443352966932129
1.443352591402649
1.443352328476113
1.443352331015187
1.443352318804408
1.443352299094735
1.443352591405661
1.443352966935691
1.443353110577521
1.443353198761085
)
;
    }
    bottom
    {
        type            calculated;
        value           uniform 0;
    }
    wall
    {
        type            calculated;
        value           uniform 0;
    }
}


// ************************************************************************* //
