/*--------------------------------*- C++ -*----------------------------------*\
  =========                 |
  \\      /  F ield         | OpenFOAM: The Open Source CFD Toolbox
   \\    /   O peration     | Website:  https://openfoam.org
    \\  /    A nd           | Version:  11
     \\/     M anipulation  |
\*---------------------------------------------------------------------------*/
FoamFile
{
    format      ascii;
    class       volScalarField;
    location    "5.2";
    object      p;
}
// * * * * * * * * * * * * * * * * * * * * * * * * * * * * * * * * * * * * * //

dimensions      [0 2 -2 0 0 0 0];

internalField   nonuniform List<scalar> 
5472
(
108.26435
106.5062
104.75489
103.00981
101.30752
99.632332
98.037206
96.503837
95.06023
93.734896
92.483223
91.387969
90.412165
89.538858
88.84546
88.307417
87.942736
87.64396
87.458631
108.68468
107.09152
105.47073
103.8396
102.24008
100.64334
99.120688
97.622774
96.199142
94.908651
93.667609
92.561431
91.573801
90.714555
89.992003
89.401497
88.938829
88.64504
88.480108
109.07534
107.61497
106.12171
104.60655
103.11209
101.61645
100.14604
98.697634
97.330497
96.041584
94.826872
93.732057
92.716873
91.85928
91.101764
90.475907
89.993445
89.680959
89.506882
109.39418
108.05724
106.69563
105.33223
103.93906
102.52131
101.10635
99.727099
98.393183
97.111079
95.943768
94.845231
93.839906
92.96367
92.192877
91.556336
91.046048
90.718918
90.497254
109.61283
108.40681
107.19892
105.96593
104.68043
103.35416
102.01641
100.68068
99.391733
98.165302
97.006188
95.913613
94.917495
94.032723
93.244224
92.589222
92.085151
91.705083
91.475784
109.77663
108.69036
107.62735
106.51233
105.31953
104.09564
102.83899
101.58262
100.35835
99.143777
98.016197
96.95319
95.963352
95.061793
94.2695
93.619097
93.090879
92.696829
92.448594
109.90745
108.95407
107.97616
106.9505
105.88201
104.7481
103.58403
102.40291
101.20737
100.06326
98.970873
97.923801
96.950874
96.04937
95.267763
94.591071
94.057845
93.65299
93.364598
109.9888
109.14114
108.2641
107.3469
106.37419
105.34891
104.26383
103.13526
102.02001
100.94061
99.866474
98.849866
97.890259
97.008694
96.227106
95.54869
95.012221
94.569354
94.280225
110.02961
109.28393
108.48774
107.65407
106.78061
105.84675
104.84787
103.81231
102.7567
101.70605
100.68726
99.715549
98.774343
97.908521
97.128747
96.464519
95.910561
95.474352
95.163299
110.04613
109.35715
108.66717
107.93887
107.1434
106.28202
105.3638
104.4059
103.43095
102.45634
101.48373
100.53191
99.611574
98.766178
97.994331
97.332394
96.771976
96.333962
96.001183
110.01677
109.40035
108.79843
108.15314
107.44135
106.65746
105.80977
104.92504
104.01935
103.10534
102.19157
101.28048
100.3992
99.571445
98.819851
98.167029
97.600748
97.159568
96.80892
109.96565
109.44099
108.90814
108.31832
107.69047
106.99134
106.2327
105.41701
104.56307
103.70413
102.8339
101.95773
101.11103
100.31253
99.587016
98.949002
98.423986
97.94063
97.588586
109.90986
109.45658
108.9726
108.4461
107.87214
107.2325
106.54875
105.82045
105.05389
104.25262
103.43901
102.60775
101.79095
101.01304
100.29613
99.66291
99.110873
98.664263
98.316039
109.84464
109.44501
109.02508
108.57639
108.0662
107.4818
106.84246
106.16501
105.45064
104.70869
103.95391
103.17131
102.40527
101.66875
100.97642
100.35879
99.818746
99.360115
99.008862
109.73651
109.38989
109.0242
108.6299
108.17916
107.67222
107.10686
106.49853
105.84146
105.15121
104.4326
103.6889
102.95926
102.25322
101.58776
100.99838
100.46768
100.01095
99.658695
109.6938
109.38532
109.06347
108.69766
108.28052
107.81072
107.2871
106.74172
106.15757
105.53289
104.85974
104.1615
103.47158
102.80141
102.15906
101.5769
101.06116
100.61643
100.26329
109.57436
109.31221
109.05328
108.75395
108.39016
107.96249
107.48488
106.97421
106.43307
105.85344
105.22557
104.57563
103.92407
103.29284
102.68798
102.14612
101.6254
101.18494
100.83238
109.50389
109.27775
109.03682
108.75886
108.43574
108.06181
107.64337
107.18494
106.69339
106.15133
105.56637
104.949
104.33008
103.727
103.13703
102.59838
102.11327
101.69009
101.34013
109.44823
109.26009
109.04985
108.80081
108.50049
108.14876
107.76061
107.34599
106.89635
106.40166
105.86413
105.29001
104.7104
104.13609
103.58901
103.06153
102.58206
102.16627
101.81884
109.37648
109.2164
109.03801
108.82607
108.5623
108.24352
107.89089
107.50584
107.08135
106.6183
106.1101
105.57854
105.03033
104.46843
103.92412
103.43354
102.97886
102.57931
102.23539
109.3669
109.217
109.04598
108.84442
108.59959
108.31121
107.99653
107.65106
107.26512
106.83398
106.35277
105.85028
105.3409
104.83513
104.32711
103.82155
103.36483
102.96995
102.63465
109.34345
109.22022
109.07452
108.89262
108.66591
108.3937
108.09119
107.76304
107.40761
107.00863
106.55862
106.06726
105.5517
105.0522
104.57292
104.0993
103.66196
103.27176
102.93808
109.32792
109.21717
109.09068
108.93283
108.73107
108.48816
108.21243
107.902
107.5584
107.18056
106.77489
106.34455
105.87711
105.38187
104.89621
104.42159
103.98351
103.59234
103.25754
109.33905
109.24227
109.12732
108.98235
108.79986
108.57673
108.32046
108.02718
107.69486
107.31152
106.87989
106.42316
105.96186
105.50447
105.04266
104.59404
104.16869
103.7817
103.44949
109.3534
109.2722
109.17376
109.05026
108.89182
108.69392
108.46017
108.19909
107.91077
107.58403
107.2149
106.79235
106.31897
105.82957
105.3402
104.86987
104.426
104.02656
103.68013
109.37744
109.31087
109.2219
109.11004
108.96349
108.77687
108.54417
108.26873
107.95168
107.59534
107.20338
106.78106
106.341
105.87181
105.40171
104.94322
104.51241
104.12878
103.78775
109.40515
109.38029
109.32715
109.24709
109.14245
109.00523
108.82736
108.6052
108.33474
108.01816
107.65419
107.23461
106.74518
106.21603
105.67613
105.15765
104.69403
104.27099
103.90294
87.497204
87.641178
87.942749
88.30207
88.801407
89.377714
89.985843
90.635667
91.311812
91.976445
92.677004
93.328695
93.952688
94.536554
95.024865
95.426225
95.652123
95.710185
95.574824
88.48105
88.627687
88.900149
89.261984
89.781057
90.345914
90.976695
91.664192
92.341146
93.01601
93.695633
94.260352
94.816701
95.280516
95.646891
95.891646
95.980463
95.886284
95.606921
89.457061
89.577216
89.819599
90.220814
90.722761
91.296556
91.954604
92.659428
93.335715
94.025555
94.656741
95.196816
95.701435
96.071114
96.353617
96.484983
96.460098
96.291955
95.932497
90.420738
90.494983
90.746165
91.14078
91.649679
92.241088
92.910012
93.607261
94.275117
94.925044
95.503568
96.014934
96.446774
96.752807
96.977493
97.048873
96.990522
96.859777
96.551778
91.363701
91.419847
91.669384
92.038429
92.568211
93.149909
93.821681
94.490307
95.128124
95.732097
96.27408
96.746552
97.12202
97.385443
97.582774
97.666841
97.654499
97.604816
97.462262
92.27959
92.332261
92.546805
92.929832
93.445758
94.02781
94.689996
95.328563
95.940793
96.5162
97.020707
97.444936
97.797803
98.061156
98.267483
98.423621
98.513589
98.597376
98.650129
93.187871
93.213394
93.400909
93.797604
94.286602
94.881713
95.504422
96.115593
96.724204
97.260307
97.739572
98.159963
98.504196
98.808124
99.075933
99.315109
99.555468
99.781992
100.02111
94.069129
94.069107
94.253824
94.627318
95.098569
95.689116
96.27605
96.898254
97.482959
97.997193
98.46842
98.889753
99.271175
99.624328
99.973646
100.32602
100.67873
101.06315
101.46188
94.921309
94.903628
95.052914
95.416032
95.885374
96.457771
97.038629
97.64884
98.195824
98.717371
99.18654
99.643448
100.06588
100.49043
100.92084
101.3493
101.82729
102.31738
102.77603
95.755477
95.68709
95.83754
96.188735
96.644347
97.200651
97.772202
98.361578
98.908046
99.434866
99.927222
100.41605
100.88238
101.37645
101.85167
102.37908
102.91917
103.41365
103.88905
96.550275
96.428712
96.598952
96.915705
97.374894
97.909853
98.476058
99.05528
99.602936
100.14413
100.66293
101.17977
101.69037
102.22761
102.75832
103.31957
103.83848
104.34877
104.8043
97.299197
97.178649
97.334089
97.61014
98.076637
98.581922
99.155991
99.727601
100.28468
100.83776
101.37588
101.92326
102.47391
103.02922
103.57227
104.12087
104.61394
105.08841
105.44905
98.00122
97.889671
98.005093
98.28513
98.737633
99.223154
99.81067
100.36728
100.93835
101.5033
102.06339
102.62752
103.18332
103.73696
104.27128
104.77214
105.20473
105.57179
105.82275
98.682185
98.5624
98.637853
98.929498
99.34773
99.848346
100.42975
100.97989
101.57113
102.12994
102.69854
103.26002
103.8078
104.34155
104.82818
105.2554
105.59517
105.8551
106.02003
99.323711
99.184722
99.241943
99.535731
99.92329
100.43767
100.99333
101.55817
102.14414
102.70146
103.27972
103.81969
104.34351
104.82137
105.23909
105.578
105.83879
106.04784
106.17239
99.92127
99.758146
99.808528
100.08681
100.46867
100.99488
101.53154
102.10152
102.66712
103.22522
103.77379
104.27477
104.76677
105.17168
105.51066
105.76624
105.97292
106.13768
106.25054
100.48688
100.3003
100.35232
100.6027
100.99113
101.50238
102.02071
102.59477
103.14632
103.68673
104.18744
104.66062
105.08744
105.40985
105.68742
105.86496
106.01424
106.12285
106.15886
100.99316
100.7888
100.84107
101.07871
101.47494
101.95655
102.46599
103.01807
103.53255
104.03883
104.51364
104.93834
105.27409
105.53271
105.73116
105.83195
105.89853
105.86071
105.75459
101.4696
101.27357
101.29947
101.51638
101.90342
102.3647
102.88827
103.4102
103.88941
104.36473
104.77971
105.13017
105.37822
105.56324
105.65062
105.65307
105.58088
105.38447
105.14511
101.87978
101.6724
101.68947
101.90163
102.27868
102.71907
103.21125
103.69008
104.15861
104.58623
104.93092
105.19503
105.35891
105.45205
105.42804
105.32608
105.13601
104.89025
104.61467
102.27482
102.05274
102.04812
102.26236
102.6239
103.07119
103.55037
103.99247
104.41276
104.74669
105.0184
105.19663
105.27488
105.26655
105.15363
104.97674
104.75215
104.54052
104.349
102.59255
102.35533
102.35214
102.54849
102.8865
103.30125
103.72985
104.16008
104.52714
104.80791
105.01727
105.1144
105.11721
105.03087
104.88062
104.69121
104.50514
104.35375
104.20357
102.90328
102.64237
102.62815
102.82616
103.18296
103.60646
104.01421
104.36165
104.63649
104.8552
104.98294
105.00397
104.94072
104.79809
104.63007
104.46288
104.30372
104.1565
103.99122
103.04914
102.83834
102.81605
103.00229
103.32123
103.69344
104.06757
104.38893
104.66448
104.83919
104.9043
104.881
104.78084
104.63909
104.49339
104.32711
104.1439
103.96254
103.72692
103.29978
103.02888
103.01174
103.2348
103.59379
103.9788
104.29459
104.55683
104.73873
104.82862
104.817
104.70531
104.5357
104.35313
104.16587
103.96012
103.74188
103.47451
103.1181
103.39929
103.1168
103.08384
103.29267
103.62324
103.97175
104.29745
104.54859
104.71629
104.7769
104.74899
104.64674
104.49898
104.35281
104.1276
103.82106
103.42855
102.92367
102.34555
103.46965
103.17059
103.19589
103.50182
103.89452
104.24166
104.51122
104.68623
104.75272
104.70604
104.54674
104.31823
104.03881
103.68993
103.28361
102.80182
102.27124
101.72723
101.21273
95.20658
94.510103
93.572207
92.136044
90.192133
87.58201
84.150719
79.879846
74.439291
67.944113
60.337147
51.585865
42.199654
32.740334
24.303952
18.337085
16.295813
19.146623
26.506493
95.069506
94.341854
93.322132
91.931224
90.144584
87.815625
84.979704
81.456499
77.239017
72.299235
66.448946
60.051336
53.276932
46.538997
40.475723
36.139105
34.491109
36.17863
41.394295
95.345888
94.616744
93.64614
92.423254
90.853832
88.994649
86.735005
84.069529
81.058186
77.408587
73.481522
69.163081
64.577687
60.154739
56.384842
53.758945
52.788731
53.93843
57.51245
96.050944
95.49691
94.75018
93.734886
92.556344
91.097849
89.344413
87.453151
85.291205
82.831054
80.19339
77.313316
74.593568
71.994439
69.819223
68.271368
67.663827
68.439391
70.781029
97.189426
96.866972
96.306935
95.560822
94.785441
93.672248
92.390925
91.114535
89.610139
87.979273
86.257013
84.53484
82.703112
80.862586
79.362456
78.343589
78.178569
78.912836
80.244501
98.634259
98.510313
98.138466
97.66345
97.044587
96.286169
95.520643
94.694309
93.720081
92.671291
91.403202
90.085053
88.78759
87.482484
86.265759
85.300135
84.735082
84.872246
85.983501
100.2431
100.26215
100.05973
99.739555
99.314098
98.801396
98.328395
97.798986
97.075357
96.217354
95.202337
94.176593
92.943498
91.513732
90.321178
89.32964
88.466903
87.868932
87.740138
101.8186
101.92624
101.82664
101.59411
101.29578
100.9713
100.68011
100.22407
99.673797
98.925596
98.020151
96.92669
95.479661
94.092059
92.608378
90.727135
88.715724
87.175475
86.196276
103.16693
103.3436
103.29132
103.14014
102.96985
102.79577
102.60306
102.28785
101.78878
101.0328
100.14201
99.004243
97.550432
95.836153
93.521341
90.686936
87.812498
85.283676
82.883796
104.30508
104.50381
104.48762
104.43275
104.34499
104.2887
104.17632
103.89824
103.42769
102.82166
101.88684
100.44748
98.66539
96.174229
92.752074
88.711402
84.551207
80.055537
75.301753
105.18123
105.35441
105.37505
105.35758
105.33576
105.31752
105.18249
104.93214
104.52528
103.76084
102.50535
100.74629
98.412476
94.897174
90.007116
84.115957
77.164094
68.814217
59.642265
105.73523
105.86158
105.88768
105.86384
105.82748
105.75229
105.57483
105.27631
104.76124
103.85613
102.53699
100.6842
98.198381
94.500716
89.45711
83.219079
75.473538
65.944362
55.008775
106.02762
106.12365
106.1459
106.09703
106.03665
105.91196
105.67282
105.3135
104.77986
104.1195
103.01695
101.51053
99.662611
96.589912
92.529572
87.288762
80.772999
73.027169
64.455774
106.21432
106.33851
106.36712
106.34562
106.33156
106.23099
106.03956
105.8206
105.48972
104.92676
103.93629
102.78426
101.09295
98.70411
95.507221
91.543903
86.841622
81.673661
76.429736
106.39742
106.52881
106.57079
106.62027
106.65469
106.62124
106.51402
106.16142
105.54283
105.22193
104.53107
102.93215
100.9687
98.627822
95.98304
93.131705
90.152504
87.236997
84.845222
106.42725
106.51492
106.56762
106.637
106.6037
106.44174
106.05718
105.56919
104.95816
103.76127
102.15811
100.06825
97.654293
95.119455
92.888625
90.959472
89.352504
87.966435
87.14276
106.2179
106.27004
106.38368
106.45042
106.40366
106.23977
105.67439
104.87704
102.73486
100.0653
97.311827
94.170476
91.037812
88.620721
87.051953
86.052699
85.666734
86.077371
86.987763
105.60454
105.63533
105.7551
105.79525
105.74404
105.59085
105.1919
104.48482
102.78899
99.150519
93.421036
86.337576
79.702563
74.690433
71.331144
70.215832
71.608752
75.010078
79.225258
104.80063
104.78254
104.76058
104.63865
104.35208
103.9303
103.23584
102.09742
99.974646
96.168192
91.207254
85.374138
78.528297
71.715204
66.417275
63.454722
63.448105
66.321178
71.256869
104.30862
104.23371
104.14872
103.96047
103.61071
103.13813
102.46
101.48693
99.978016
97.655584
94.283782
89.990483
85.040416
79.864771
75.377817
72.340621
71.407573
72.917522
76.494057
104.21082
104.18263
104.16215
104.04493
103.87558
103.66369
103.35857
102.91936
102.24354
101.2644
99.803157
97.787001
95.259163
92.312233
89.387323
87.048221
85.647495
85.241459
85.888181
104.19212
104.2435
104.28894
104.29001
104.32518
104.36103
104.34356
104.27838
104.10209
103.82983
103.32556
102.50601
101.36945
100.06769
98.758804
97.398766
95.671882
93.706197
92.276238
104.0077
104.09185
104.14538
104.24052
104.3536
104.43797
104.54432
104.59254
104.65395
104.55376
104.09706
103.24771
102.33139
101.22147
99.579506
97.42952
95.014805
92.821133
90.62882
103.6214
103.66138
103.7887
103.91039
104.03359
104.14917
104.3191
104.38589
104.42062
104.3647
103.94546
103.42498
102.8751
101.75879
100.43047
98.21643
95.537459
92.746003
89.985909
102.77803
102.84939
103.03256
103.15272
103.27416
103.38559
103.45442
103.60969
103.54477
103.59313
102.58688
101.33272
101.28508
100.92261
100.16267
98.935661
97.468166
95.987004
94.681099
101.79608
101.8101
101.91105
101.96929
102.02464
102.07125
102.12303
102.22301
102.26787
102.85077
103.68897
103.76257
102.29388
100.24976
98.400399
97.395871
97.109682
97.381418
98.033204
100.73314
100.73554
100.72541
100.68942
100.64904
100.60353
100.56163
100.46978
100.28674
99.550293
98.424404
97.662545
97.213369
97.265878
97.560652
97.837445
98.008116
98.188724
98.522699
37.915697
52.4524
66.663196
78.413415
87.429961
94.110664
99.099505
102.08725
103.03908
102.70781
101.50878
99.840398
98.003728
95.915687
93.798957
91.751403
89.652947
87.697414
85.704985
49.773714
60.214298
71.033932
81.242274
90.817741
97.9403
103.06658
106.66684
108.1883
108.22915
107.20804
105.44547
103.37735
101.273
98.988829
96.917466
94.775245
92.750092
90.722485
63.298817
70.846085
79.418654
87.923939
95.525378
101.51877
105.86432
109.43993
111.58859
111.93269
111.14831
109.73351
107.74936
105.72989
103.53352
101.40895
99.385785
97.337764
95.294317
74.742465
79.963859
86.076464
92.345997
98.228738
103.3543
107.44707
110.81381
112.88339
113.50264
112.92261
111.8206
110.2862
108.50263
106.62235
104.65295
102.80359
100.94164
98.97212
82.767992
86.451099
90.795812
95.464241
100.21421
104.7421
108.49891
111.39781
112.96032
113.21716
112.7766
111.92532
110.86207
109.46443
107.94915
106.32866
104.74862
103.21052
101.52423
87.738357
89.948463
92.861873
96.510815
100.58229
104.51136
107.81772
110.33457
111.70269
111.95621
111.60394
110.98117
110.27732
109.27643
108.16723
106.9164
105.65912
104.4261
103.07187
88.177387
89.509047
91.80474
94.857639
98.159598
101.4838
104.73312
107.44306
109.28965
110.09809
110.38104
109.94737
109.4119
108.68465
107.89752
106.96592
105.97809
105.02939
103.94402
85.920359
86.547961
87.762881
89.475502
92.026769
95.434327
99.081926
102.56134
105.4065
107.32413
108.20998
108.34568
108.27797
107.91437
107.37956
106.74178
105.95682
105.2377
104.41392
80.813343
79.345263
78.80451
79.603783
81.664495
84.998047
89.322375
94.107462
98.445783
101.87565
104.17494
105.50971
105.94605
106.62633
106.62959
106.2926
105.75006
105.15707
104.56396
70.811775
67.215878
64.880275
64.376142
65.821865
69.573168
75.277807
81.64629
87.948277
93.794255
98.766218
102.21047
104.00972
105.13295
105.64908
105.61623
105.29668
104.82687
104.39546
50.679219
42.906784
37.26951
36.008479
39.644052
47.006688
56.414435
66.660865
76.880506
86.460576
94.926868
100.85914
101.19617
103.24265
104.12076
104.424
104.35426
104.07496
103.78785
43.308867
30.673516
20.349781
18.090723
23.052787
33.633864
46.739633
60.527742
73.52086
83.994059
91.725608
96.438298
99.162006
101.05247
102.1966
102.7989
103.00154
102.94627
102.8909
55.708904
47.59915
41.909851
40.446021
43.278017
49.692487
58.517974
67.980813
76.980472
84.641386
90.496723
94.526814
97.360165
99.288429
100.60424
101.40428
101.79845
101.92469
102.04765
71.462713
67.513251
65.602217
66.145911
68.583637
72.421128
77.38301
82.443528
87.117573
91.223014
94.376033
96.703111
98.45617
99.68564
100.58154
101.22084
101.53239
101.66208
101.74731
82.923557
81.692695
81.435947
82.273263
84.148469
86.441603
89.086798
91.903455
94.323807
96.390725
98.066309
99.289742
100.20781
100.88639
101.33779
101.72984
101.92983
101.98726
101.96323
87.279018
87.886682
88.470841
89.525425
91.321896
93.287687
94.952314
96.594012
98.04137
99.199404
100.19804
100.93244
101.46046
101.8573
102.10732
102.30459
102.43246
102.45506
102.3832
88.276374
89.807213
91.388477
93.114483
94.938692
96.640542
97.941817
99.093474
100.18571
101.0249
101.68726
102.16699
102.49095
102.70874
102.82624
102.90729
102.93932
102.9352
102.8253
83.50856
87.528549
90.802692
93.509208
96.007495
98.196155
99.66717
100.6589
101.58675
102.37744
102.91315
103.27977
103.48094
103.56643
103.56443
103.5188
103.5005
103.40229
103.21578
77.138394
83.206308
88.643598
92.85598
95.923113
98.133605
99.802084
101.20334
102.62084
103.71454
104.24122
104.33459
104.34269
104.30114
104.17558
104.01506
103.90255
103.78942
103.58155
81.124695
85.934573
90.467602
94.341721
97.439249
100.07116
102.05506
103.07457
102.94095
103.1589
103.99961
104.4755
104.55367
104.55681
104.41823
104.25529
104.06334
103.92234
103.74115
87.412938
89.497673
91.809515
94.148609
96.259127
98.157992
99.769583
100.94892
101.91031
103.30097
104.43287
104.35253
104.53191
104.45302
104.33112
104.15135
103.93099
103.74701
103.59175
91.704465
91.777813
92.330691
93.379676
94.559065
95.726206
96.80371
97.729811
99.53465
102.03778
103.24491
103.55112
103.83688
103.77892
103.71665
103.58944
103.42727
103.2301
103.10271
88.373074
86.549068
85.669476
86.178596
88.499432
91.980797
95.350303
98.349267
100.46385
101.89471
102.54989
102.71529
102.80114
102.79222
102.78201
102.72266
102.63415
102.5274
102.4682
87.714392
86.086203
85.691561
86.32334
87.424632
89.188074
91.782346
94.641427
97.340948
99.436878
100.61261
101.18284
101.53739
101.75934
101.87894
101.95165
101.94421
101.92841
101.96226
93.729765
93.350356
93.762777
95.020764
97.018016
98.762903
99.766542
100.36453
100.86341
101.09109
101.17213
101.2144
101.29265
101.37968
101.45024
101.54851
101.60191
101.62652
101.6662
98.808721
99.444136
99.715285
99.386858
98.545497
97.8684
98.185116
99.467484
100.46661
100.88621
101.19875
101.4063
101.46873
101.47199
101.44934
101.41239
101.34654
101.23955
101.18498
99.056655
99.761658
100.60193
101.67466
102.74051
103.41424
103.52003
103.0735
102.45525
101.97597
101.7086
101.51594
101.34247
101.21948
101.12998
101.07964
101.01791
100.92304
100.81672
83.785704
81.887509
80.077951
78.34875
76.657208
75.104579
73.591385
72.287251
71.058524
69.984745
69.05631
68.1849
67.509223
66.891015
66.463019
66.176495
66.036205
66.101915
66.38974
88.596078
86.525401
84.454031
82.522471
80.591624
78.804504
77.077456
75.468028
74.018216
72.639174
71.493975
70.402666
69.52378
68.76958
68.209029
67.841509
67.633367
67.665825
67.866022
93.032824
90.812834
88.568484
86.418448
84.330471
82.297103
80.42508
78.575339
76.922103
75.321643
73.932441
72.681333
71.584541
70.701627
69.988506
69.524068
69.246591
69.241341
69.421646
96.742589
94.467379
92.189169
89.910363
87.727488
85.553817
83.524732
81.546063
79.695535
77.955612
76.342041
74.940403
73.66845
72.631172
71.786618
71.205768
70.859137
70.803894
70.979098
99.534471
97.387702
95.186956
92.948534
90.726637
88.531946
86.384825
84.32363
82.336833
80.467574
78.709663
77.136613
75.737353
74.549722
73.580989
72.890688
72.466915
72.356461
72.519983
101.4351
99.590611
97.591549
95.514182
93.35645
91.199858
89.029635
86.906403
84.85113
82.870001
81.009447
79.298243
77.76231
76.45475
75.364712
74.565773
74.068897
73.908001
74.0484
102.64436
101.12702
99.403442
97.56396
95.578178
93.518631
91.406533
89.281676
87.185974
85.145282
83.189002
81.380971
79.736018
78.312305
77.132743
76.228435
75.649276
75.433885
75.558616
103.37666
102.17191
100.73694
99.142013
97.379514
95.481934
93.479383
91.425834
89.345205
87.282755
85.283323
83.385996
81.658679
80.113855
78.846228
77.862706
77.213857
76.945522
77.044918
103.75886
102.81457
101.66434
100.32278
98.785874
97.090737
95.248357
93.289351
91.288816
89.239261
87.231287
85.276713
83.488428
81.871646
80.5206
79.46915
78.736702
78.413396
78.500013
103.8569
103.15582
102.24893
101.14787
99.853232
98.358999
96.722829
94.902063
93.004397
91.023547
89.043461
87.07909
85.236048
83.561363
82.126114
81.017111
80.2433
79.854346
79.92516
103.57971
103.16649
102.53691
101.65848
100.61599
99.335634
97.900752
96.263133
94.489962
92.605599
90.676822
88.743292
86.874518
85.164094
83.672977
82.497622
81.697327
81.265248
81.290641
102.9536
102.82672
102.51251
101.89501
101.10194
100.05395
98.816065
97.372079
95.758374
94.003596
92.149062
90.268738
88.412327
86.687683
85.158884
83.920761
83.073524
82.642841
82.625017
102.30622
102.34928
102.23933
101.88454
101.32946
100.52677
99.498212
98.253871
96.809826
95.201783
93.452374
91.653196
89.832947
88.104132
86.559317
85.290982
84.378781
83.939992
83.901622
101.94187
101.9767
101.92891
101.75056
101.38033
100.79103
99.975816
98.931386
97.661977
96.213267
94.589304
92.881115
91.127265
89.426991
87.875674
86.593564
85.641822
85.169654
85.137446
101.95264
101.86204
101.77018
101.64069
101.36794
100.92532
100.29342
99.442453
98.350446
97.059288
95.576983
93.972445
92.297173
90.636114
89.097637
87.813871
86.845328
86.325379
86.295746
102.23205
102.00727
101.82314
101.6492
101.38684
101.02557
100.5139
99.815515
98.89312
97.75385
96.415162
94.920734
93.332893
91.734803
90.224673
88.944568
87.999432
87.438807
87.388266
102.57369
102.30602
102.04706
101.80066
101.49907
101.15423
100.69952
100.11369
99.337401
98.34679
97.142158
95.762017
94.264725
92.7337
91.270879
89.981475
89.047622
88.49345
88.402408
102.89858
102.63738
102.35056
102.05488
101.70565
101.3404
100.89189
100.36511
99.694702
98.831579
97.752548
96.484445
95.078658
93.612902
92.214172
90.948981
89.994657
89.467656
89.366032
103.20246
102.95719
102.67079
102.36023
101.99178
101.59972
101.14905
100.63737
100.03524
99.248502
98.293021
97.13181
95.822429
94.422334
93.063556
91.85836
90.893212
90.351915
90.258264
103.44016
103.22923
102.94468
102.63761
102.28521
101.88829
101.44813
100.92873
100.34476
99.607588
98.735821
97.66661
96.44975
95.123321
93.80254
92.622017
91.694091
91.151397
91.066002
103.45656
103.35697
103.1477
102.86626
102.55656
102.18838
101.76782
101.25794
100.68958
100.00959
99.167806
98.185382
97.029936
95.788978
94.535979
93.378211
92.471506
91.916684
91.821942
103.21197
103.25572
103.19015
103.0155
102.7772
102.44244
102.04665
101.57918
101.01836
100.36375
99.548436
98.616425
97.504396
96.308342
95.092334
93.948115
93.055364
92.53112
92.441248
102.68548
102.86478
102.98278
102.95412
102.82874
102.6127
102.2845
101.87218
101.35492
100.73953
99.980313
99.087359
98.059266
96.905302
95.734061
94.641536
93.732032
93.17786
93.068093
102.20968
102.44612
102.675
102.8251
102.83047
102.72248
102.49005
102.1357
101.66853
101.07019
100.34358
99.463989
98.434851
97.288467
96.082885
94.973421
94.096601
93.566615
93.475041
101.83222
102.06805
102.26353
102.45337
102.58247
102.60462
102.50941
102.28307
101.92455
101.42507
100.77706
99.970835
98.996366
97.895702
96.739061
95.62278
94.6917
94.087735
93.94704
101.41636
101.75163
102.06911
102.32592
102.52281
102.63537
102.62266
102.46893
102.15728
101.68867
101.06995
100.28825
99.304431
98.124502
96.885721
95.747212
94.833105
94.261356
94.132484
101.01184
101.21606
101.48248
101.76523
102.03889
102.27496
102.44399
102.48948
102.36543
102.06818
101.5927
100.93887
100.07458
98.980955
97.689304
96.384785
95.298521
94.562839
94.358653
66.888982
67.422066
68.156508
69.07318
70.21333
71.47894
72.920493
74.503088
76.212449
78.045161
79.979136
82.03525
84.158759
86.345662
88.616416
90.934306
93.268895
95.620429
97.961308
68.31004
68.935057
69.727202
70.664176
71.806163
73.065175
74.500065
76.078493
77.775539
79.591021
81.504969
83.506297
85.564201
87.67559
89.848949
92.050309
94.250461
96.451626
98.60769
69.861114
70.46839
71.276534
72.231292
73.364073
74.644261
76.063081
77.638303
79.327583
81.118613
83.001158
84.944919
86.94155
88.984422
91.050876
93.127699
95.197494
97.251855
99.246898
71.421456
72.024232
72.822864
73.788364
74.910797
76.198234
77.615787
79.170969
80.84516
82.612047
84.458746
86.351606
88.273248
90.23078
92.194751
94.161426
96.083967
97.978634
99.830355
72.964304
73.563402
74.351782
75.316324
76.43768
77.708531
79.117493
80.653898
82.309202
84.051224
85.848814
87.688085
89.531933
91.385499
93.229334
95.081393
96.891419
98.646641
100.34158
74.493493
75.08891
75.873251
76.82529
77.93756
79.201207
80.600714
82.120261
83.730513
85.443095
87.189317
88.952227
90.713662
92.463765
94.206394
95.942556
97.625504
99.226936
100.77853
75.992525
76.580912
77.361747
78.301354
79.398985
80.657403
82.022919
83.513703
85.090094
86.74879
88.432557
90.132746
91.827034
93.482356
95.113893
96.701291
98.260252
99.758598
101.1813
77.478967
78.053013
78.813105
79.752672
80.824739
82.061474
83.406219
84.861757
86.402496
88.007184
89.637772
91.259479
92.861516
94.404473
95.928156
97.405937
98.84743
100.21293
101.49554
78.916938
79.487649
80.221936
81.156056
82.217628
83.421136
84.7441
86.162777
87.652516
89.191318
90.761574
92.289228
93.790043
95.2479
96.675106
98.037941
99.357387
100.62867
101.80366
80.320113
80.875241
81.603008
82.510343
83.5599
84.730785
86.014144
87.378824
88.824895
90.300514
91.799048
93.262338
94.683468
96.030928
97.340206
98.618769
99.837651
100.98366
102.03858
81.691091
82.224078
82.945613
83.816023
84.841475
85.979175
87.232954
88.557089
89.945398
91.357678
92.778071
94.154789
95.466724
96.731972
97.949773
99.131092
100.24349
101.29199
102.26982
83.012911
83.521243
84.220383
85.062444
86.070537
87.184978
88.390987
89.668625
90.985146
92.32394
93.656903
94.96475
96.202339
97.391172
98.508295
99.581359
100.6077
101.56391
102.4446
84.274097
84.763741
85.439549
86.277326
87.248769
88.323853
89.474577
90.692893
91.947254
93.229761
94.494219
95.721953
96.874876
97.97581
99.014964
100.00209
100.93293
101.80559
102.6186
85.491427
85.970079
86.618991
87.422238
88.344979
89.38246
90.484705
91.657682
92.858821
94.077387
95.270513
96.404758
97.479177
98.498405
99.45814
100.36077
101.21822
102.00903
102.73719
86.635934
87.091555
87.708971
88.484046
89.389209
90.39547
91.462616
92.578077
93.710487
94.842168
95.954247
97.01243
98.02598
98.97546
99.866625
100.69777
101.48394
102.2076
102.86247
87.728401
88.171183
88.778228
89.516582
90.380708
91.335651
92.353211
93.400682
94.46849
95.527994
96.581329
97.585042
98.536878
99.420098
100.23141
100.98941
101.70742
102.37026
102.95544
88.737369
89.161267
89.740966
90.450325
91.283708
92.194749
93.168776
94.171191
95.185394
96.188128
97.177229
98.119095
98.995853
99.803455
100.54826
101.25057
101.90977
102.51731
103.05744
89.693352
90.097834
90.657432
91.343662
92.131016
93.003304
93.935769
94.893136
95.846856
96.780908
97.698057
98.575042
99.390301
100.14764
100.84768
101.50078
102.1078
102.66162
103.15353
90.568251
90.95691
91.488914
92.136454
92.895082
93.73368
94.624002
95.527112
96.427293
97.309005
98.17145
99.003092
99.772017
100.48281
101.13237
101.72674
102.2792
102.79164
103.24573
91.366746
91.743227
92.252868
92.876826
93.610843
94.416209
95.262896
96.118658
96.970042
97.809057
98.622614
99.401278
100.12096
100.77966
101.3807
101.93275
102.44577
102.91848
103.33494
92.101947
92.462944
92.957637
93.568801
94.27064
95.027154
95.825386
96.646794
97.454914
98.252737
99.024638
99.755266
100.43213
101.04815
101.6121
102.1384
102.62583
103.05518
103.42812
92.716087
93.066528
93.549844
94.126068
94.805582