/*--------------------------------*- C++ -*----------------------------------*\
  =========                 |
  \\      /  F ield         | OpenFOAM: The Open Source CFD Toolbox
   \\    /   O peration     | Website:  https://openfoam.org
    \\  /    A nd           | Version:  11
     \\/     M anipulation  |
\*---------------------------------------------------------------------------*/
FoamFile
{
    format      ascii;
    class       volVectorField;
    location    "10";
    object      U;
}
// * * * * * * * * * * * * * * * * * * * * * * * * * * * * * * * * * * * * * //

dimensions      [0 1 -1 0 0 0 0];

internalField   nonuniform List<vector> 
5472
(
(10.126016 2.4607514 1.6050052e-18)
(10.307874 2.4487552 -1.6712639e-18)
(10.500154 2.4551909 -1.6783255e-18)
(10.670306 2.4413848 -1.6996371e-18)
(10.861131 2.3996586 5.2654011e-18)
(11.051009 2.3469769 -3.9571577e-20)
(11.212496 2.2769381 -2.761457e-18)
(11.377983 2.1945498 9.6313692e-19)
(11.537963 2.0917626 0)
(11.672482 1.9925112 0)
(11.827762 1.861041 0)
(11.942434 1.7437647 -2.9355847e-18)
(12.074092 1.5904417 1.5042737e-18)
(12.158009 1.4533357 -2.5831215e-20)
(12.251212 1.26938 1.0039634e-18)
(12.329668 1.128 -5.1703359e-19)
(12.371155 0.91268162 -7.6853915e-19)
(12.431801 0.77172917 2.6487167e-19)
(12.445276 0.55989403 0)
(10.103146 2.2479885 -1.4692396e-18)
(10.257858 2.2483009 3.0272855e-18)
(10.436065 2.2642388 -1.5597962e-18)
(10.600328 2.2327819 -1.55923e-18)
(10.78386 2.2122316 2.618781e-20)
(10.947661 2.16344 0)
(11.099717 2.1115398 1.6550203e-18)
(11.278056 2.0369421 -3.3648872e-18)
(11.423634 1.9491758 4.3382903e-18)
(11.574489 1.8555809 8.8158566e-19)
(11.716589 1.7378514 0)
(11.834924 1.6288629 1.8184656e-18)
(11.956284 1.4924958 0)
(12.047975 1.3596896 4.555155e-19)
(12.145867 1.2039764 -4.6904219e-19)
(12.215419 1.0550457 0)
(12.285292 0.88421737 0)
(12.330593 0.73954723 -2.3241513e-19)
(12.3549 0.56215986 0)
(10.122586 2.0738637 0)
(10.253396 2.0884628 1.3810614e-18)
(10.438237 2.1163094 1.4106426e-18)
(10.608141 2.0979047 0)
(10.757181 2.0911453 -2.1490445e-20)
(10.897021 2.058346 -2.9396889e-20)
(11.063835 2.0125472 -1.5341901e-18)
(11.222255 1.9560354 0)
(11.353885 1.8822044 -1.5586262e-18)
(11.500014 1.8016559 -3.9801653e-18)
(11.632761 1.695192 1.4801011e-20)
(11.739803 1.6022178 -7.9738768e-19)
(11.872365 1.470013 -8.2185082e-19)
(11.959695 1.3489185 1.6847602e-18)
(12.063 1.2054351 1.2644782e-18)
(12.129269 1.0620263 4.2556563e-19)
(12.19696 0.91216987 2.111618e-19)
(12.230704 0.75829782 -3.1878425e-19)
(12.261885 0.59401239 1.0607476e-19)
(10.091435 1.8901258 0)
(10.214417 1.9296563 -1.2465249e-18)
(10.39914 1.9425666 -1.2718587e-18)
(10.503476 1.934421 2.5830712e-18)
(10.646283 1.9467425 -1.3605547e-18)
(10.810532 1.903946 0)
(10.960002 1.884759 -1.3882597e-18)
(11.101736 1.8179248 1.391343e-18)
(11.234873 1.7625654 -1.4400134e-18)
(11.390336 1.6825261 -2.1243367e-20)
(11.504705 1.5965442 -1.4768882e-18)
(11.642562 1.4967242 0)
(11.760524 1.3730615 0)
(11.849947 1.2686468 -7.4975259e-19)
(11.94947 1.1237589 -7.5452532e-19)
(12.011229 0.99676903 0)
(12.086023 0.84545818 -1.9076122e-19)
(12.121378 0.69547956 9.6873184e-20)
(12.162554 0.54318683 1.9194641e-19)
(10.120267 1.7354709 0)
(10.246717 1.7620807 0)
(10.371046 1.7832405 0)
(10.472641 1.8139486 -2.3430998e-18)
(10.661019 1.8097212 1.2204786e-18)
(10.771755 1.7919006 -3.6711801e-18)
(10.909777 1.7811607 5.0095359e-18)
(11.04481 1.7288873 -2.5460543e-18)
(11.181791 1.6940392 3.7566611e-21)
(11.326457 1.6232341 1.3015562e-18)
(11.444615 1.5490098 1.3176248e-18)
(11.576219 1.4580445 -2.6843057e-18)
(11.661181 1.3653785 2.0389492e-18)
(11.762252 1.2558237 -6.8799163e-19)
(11.844293 1.1293952 0)
(11.919158 1.0103837 6.9488058e-19)
(11.980727 0.8582556 -3.4814556e-19)
(12.028713 0.72491127 1.721523e-19)
(12.06373 0.57071583 -1.7103709e-19)
(10.092933 1.5661248 0)
(10.178896 1.6277789 -4.0867355e-18)
(10.309767 1.6468152 2.1080882e-18)
(10.431003 1.6792311 2.1437996e-18)
(10.577146 1.6772227 1.0857161e-18)
(10.663401 1.6776357 -1.0994551e-18)
(10.823003 1.6527435 2.2829448e-18)
(10.94495 1.6131021 1.1413848e-18)
(11.093681 1.5817864 2.316382e-18)
(11.21463 1.5105856 -2.3696247e-18)
(11.343476 1.461639 1.9892136e-20)
(11.457265 1.3702257 2.4237315e-18)
(11.566138 1.2829835 0)
(11.682412 1.1703209 -6.1989935e-19)
(11.76493 1.0648496 6.150831e-19)
(11.856842 0.93470096 -1.5487801e-18)
(11.909146 0.80690679 6.2060093e-19)
(11.965244 0.6703689 -1.5491252e-19)
(11.990147 0.52651346 5.3725428e-22)
(10.075675 1.4269339 3.632748e-18)
(10.213127 1.4561672 3.6929184e-18)
(10.315885 1.4923631 0)
(10.424063 1.5422717 -7.1421334e-21)
(10.541033 1.542133 -3.9368131e-18)
(10.633581 1.5603806 4.0364436e-18)
(10.793968 1.5312179 0)
(10.879554 1.525105 -1.0436392e-18)
(11.029527 1.4924882 -4.1979158e-18)
(11.127993 1.4476429 2.1532648e-18)
(11.263457 1.3962127 1.0716844e-18)
(11.371258 1.3138862 -1.0993828e-18)
(11.481418 1.2473085 0)
(11.573957 1.1408465 5.4921229e-19)
(11.655967 1.0457068 0)
(11.732498 0.92091749 -5.5498022e-19)
(11.78425 0.81285737 8.3908121e-19)
(11.835768 0.66923367 9.7628233e-22)
(11.86537 0.5510204 -1.0897319e-21)
(10.084353 1.2857402 1.6296357e-18)
(10.19303 1.3408486 -3.3294818e-18)
(10.249563 1.3839035 -3.3790807e-18)
(10.380427 1.3984224 3.4780978e-18)
(10.472678 1.4114637 -1.7844956e-18)
(10.588734 1.4413532 -1.7997379e-18)
(10.718045 1.4259825 0)
(10.80102 1.4228476 2.7850829e-18)
(10.95896 1.3874016 -1.5221474e-20)
(11.038662 1.3606017 -2.870693e-18)
(11.198645 1.2996127 2.932706e-18)
(11.269184 1.2443949 0)
(11.410073 1.1650443 0)
(11.479503 1.0777213 9.871446e-19)
(11.586828 0.98941106 -5.0775038e-19)
(11.649667 0.8776834 -1.0005035e-18)
(11.726499 0.76948436 2.535625e-19)
(11.770712 0.63074349 2.5477341e-19)
(11.817384 0.52206327 6.1690662e-20)
(10.07056 1.1494809 -1.4624632e-18)
(10.180271 1.178678 4.4719807e-18)
(10.24399 1.2417982 -4.6068621e-18)
(10.362298 1.2825761 3.1227342e-18)
(10.422456 1.2989745 0)
(10.550778 1.316882 1.6124041e-18)
(10.619141 1.313723 -1.6633438e-18)
(10.756841 1.3243101 0)
(10.862847 1.2923149 8.4328633e-19)
(10.96959 1.2831995 -1.7453135e-18)
(11.100783 1.2224503 -8.6545176e-19)
(11.176893 1.194281 -1.0950683e-20)
(11.312277 1.1049592 -2.6587721e-18)
(11.372044 1.0381324 4.5861938e-19)
(11.490659 0.93851649 -4.3915798e-19)
(11.535824 0.84970106 8.9961086e-19)
(11.626832 0.74077836 -4.4600632e-19)
(11.648801 0.62508962 2.2915471e-19)
(11.70194 0.51136874 2.2309754e-19)
(10.081934 1.0292507 -2.6380394e-18)
(10.173409 1.0680389 0)
(10.227687 1.1188738 1.3695743e-18)
(10.345033 1.1409361 -4.1837857e-18)
(10.413456 1.1931641 1.4407226e-18)
(10.53438 1.2096702 -1.4596976e-18)
(10.600553 1.2090222 1.4709869e-18)
(10.735031 1.2168635 -1.5131557e-18)
(10.806042 1.1991745 0)
(10.950332 1.2003179 7.67023e-19)
(11.033878 1.1449568 0)
(11.151776 1.1210489 7.8081483e-19)
(11.248682 1.033371 -1.1901553e-22)
(11.328676 0.99383558 -3.9434349e-19)
(11.42031 0.88669886 3.9602497e-19)
(11.477123 0.81860924 3.9770275e-19)
(11.562016 0.69986336 -3.1961471e-21)
(11.586564 0.61229896 -5.9886946e-19)
(11.64537 0.48651525 0)
(10.091643 0.90708151 0)
(10.157888 0.94010394 1.2036828e-18)
(10.22034 0.99656805 0)
(10.31025 1.0299918 1.2394412e-18)
(10.356182 1.0724086 -3.8364251e-18)
(10.462792 1.0874326 3.9145734e-18)
(10.525241 1.1211213 -1.3047814e-18)
(10.645651 1.1117792 4.0540235e-18)
(10.71132 1.1164801 0)
(10.840119 1.0981531 6.918717e-19)
(10.91371 1.0750057 0)
(11.0396 1.0529784 -1.3936324e-18)
(11.117612 0.98610095 2.8225429e-18)
(11.217387 0.94139708 -9.134744e-21)
(11.293195 0.84691646 -3.5753511e-19)
(11.370019 0.78077331 0)
(11.434761 0.6643149 0)
(11.475972 0.59008793 0)
(11.524407 0.46133079 -4.451477e-20)
(10.108592 0.78891511 4.1933992e-18)
(10.142109 0.84874856 -5.390624e-18)
(10.216072 0.8915882 2.1862845e-18)
(10.286347 0.92165306 -9.7526204e-21)
(10.346393 0.95862109 0)
(10.445543 0.97899408 -2.3129314e-18)
(10.502449 1.0178361 1.1974129e-18)
(10.616289 1.0282593 -1.194945e-18)
(10.684907 1.0410305 0)
(10.814289 1.0137302 -6.1113086e-19)
(10.883821 1.0029232 1.2320343e-18)
(11.014402 0.9601277 -1.5129877e-20)
(11.075512 0.92330018 -1.2638466e-18)
(11.193303 0.87364348 -2.5161312e-18)
(11.242266 0.80574309 2.2156409e-18)
(11.335272 0.74215249 -1.2671749e-18)
(11.37559 0.64628491 7.9520696e-19)
(11.440822 0.56838129 1.5906018e-19)
(11.462829 0.45448694 3.9069301e-20)
(10.08901 0.68788287 -6.5752889e-18)
(10.127744 0.7376567 3.8502695e-18)
(10.204663 0.77515359 0)
(10.238343 0.82566001 -4.9758211e-18)
(10.314581 0.84768221 4.086581e-18)
(10.382412 0.87303386 1.0375178e-18)
(10.451368 0.89857326 3.1484258e-18)
(10.540788 0.91539582 -2.1455086e-18)
(10.607997 0.93911118 -2.6917202e-18)
(10.716481 0.92582254 1.6492284e-18)
(10.77933 0.93027624 2.1912125e-18)
(10.896125 0.89599893 -3.3362007e-18)
(10.958097 0.87436872 2.2321699e-18)
(11.077549 0.81393126 -5.6940609e-19)
(11.123604 0.76516416 2.7673323e-19)
(11.227686 0.68229776 -4.804451e-21)
(11.256226 0.61054735 -7.0390433e-19)
(11.340276 0.52260085 -1.3945815e-19)
(11.354192 0.43608128 -3.5107286e-20)
(10.109958 0.59580868 2.5211752e-18)
(10.145268 0.65063759 3.4082694e-18)
(10.196307 0.68589547 -3.4989487e-18)
(10.237806 0.73006386 8.8981711e-19)
(10.315539 0.75864369 -2.69982e-18)
(10.362639 0.79546953 2.778281e-18)
(10.444391 0.81833232 9.284799e-19)
(10.50473 0.84819759 -4.7411282e-18)
(10.600662 0.85719499 3.3535675e-18)
(10.676721 0.86183515 -1.4658409e-18)
(10.757988 0.852349 0)
(10.861929 0.82157759 -4.9416819e-19)
(10.926666 0.80648163 -1.4817032e-18)
(11.032005 0.76187392 5.0879723e-19)
(11.082612 0.73197356 1.497151e-18)
(11.172332 0.65398725 4.9600845e-19)
(11.198979 0.5975242 -9.9625445e-19)
(11.266847 0.49616853 2.5072818e-19)
(11.270004 0.42613798 2.7871944e-19)
(10.068265 0.50009937 -3.7129824e-18)
(10.110766 0.54048185 3.0488944e-18)
(10.157748 0.58312362 0)
(10.20063 0.62570996 -7.8874601e-19)
(10.258645 0.65396543 3.2048415e-18)
(10.303004 0.69116409 -6.5339779e-18)
(10.369118 0.71176001 8.5764006e-19)
(10.427458 0.74697713 3.3834841e-18)
(10.520488 0.7648861 2.556519e-18)
(10.582388 0.78341134 -4.305728e-19)
(10.688416 0.76677065 0)
(10.755368 0.75508259 2.168088e-18)
(10.844748 0.725732 -8.8483859e-19)
(10.928814 0.69541037 8.7835906e-19)
(11.012939 0.65964408 -1.3242047e-18)
(11.093645 0.60747871 -2.2117873e-19)
(11.147872 0.55497748 0)
(11.210709 0.47061278 0)
(11.224364 0.4080188 -2.7477487e-20)
(10.103647 0.4224028 6.3767646e-19)
(10.139652 0.46536183 -6.087312e-18)
(10.17438 0.51280114 2.7435135e-18)
(10.219175 0.54884187 -3.5093892e-18)
(10.264143 0.58059131 -7.1124058e-19)
(10.321007 0.61128397 0)
(10.380226 0.62917331 -3.6569251e-18)
(10.442087 0.66061103 2.2441676e-18)
(10.511807 0.68487588 -7.5367234e-19)
(10.570713 0.71372161 -2.1368872e-21)
(10.659017 0.70901817 0)
(10.712952 0.70986516 0)
(10.801119 0.67294996 -3.8515398e-19)
(10.856901 0.65096829 -3.8615254e-19)
(10.943286 0.60880044 1.9333814e-19)
(10.995022 0.57284863 1.1632518e-18)
(11.074313 0.5125892 -7.7969079e-19)
(11.114271 0.45650797 9.7430552e-20)
(11.1625 0.38552356 2.4005249e-20)
(10.070479 0.34401547 4.1010661e-18)
(10.098924 0.38096026 -4.1979884e-18)
(10.131857 0.41806159 0)
(10.166195 0.45710673 6.194091e-19)
(10.202171 0.49637126 0)
(10.255574 0.52742398 6.4072177e-19)
(10.303956 0.55469711 6.4972658e-19)
(10.371057 0.57609823 0)
(10.431494 0.59575242 3.3065542e-18)
(10.512368 0.61503547 -2.356757e-18)
(10.589545 0.61980284 1.6824073e-18)
(10.666011 0.62897372 -1.3638607e-18)
(10.748773 0.60741592 1.3576722e-18)
(10.814646 0.59194869 -1.1717946e-20)
(10.892827 0.55110762 -1.3749017e-18)
(10.942768 0.51850644 -1.7043448e-19)
(11.016709 0.46107289 -1.7179147e-19)
(11.047268 0.41902358 -8.5033951e-20)
(11.10619 0.34571282 0)
(10.102841 0.281925 4.6859642e-18)
(10.125648 0.31632256 0)
(10.158054 0.34713139 0)
(10.194408 0.38115621 5.4844017e-19)
(10.232483 0.41068102 0)
(10.271333 0.44797354 -5.6425936e-19)
(10.311476 0.48140143 -5.7158579e-19)
(10.364204 0.50969983 -2.3085367e-18)
(10.409073 0.53441569 2.3490744e-18)
(10.473803 0.55057789 0)
(10.527657 0.55933064 -2.6640611e-18)
(10.605172 0.56507672 2.1008282e-18)
(10.670923 0.55462235 1.194983e-18)
(10.74599 0.54448692 -2.4059848e-18)
(10.811593 0.51541163 2.4090667e-18)
(10.874147 0.48616848 -1.8092671e-18)
(10.935222 0.43680916 6.0256216e-19)
(10.979136 0.39556502 0)
(11.032962 0.32836711 0)
(10.073617 0.22401126 7.3608766e-18)
(10.081984 0.25988067 -3.7522642e-18)
(10.11345 0.28302079 3.8012049e-18)
(10.141497 0.31550029 -4.3620808e-18)
(10.173911 0.33610745 -3.9183717e-18)
(10.215453 0.36852324 3.9935763e-18)
(10.263149 0.3973513 2.0105227e-18)
(10.317871 0.42879709 -1.3181288e-20)
(10.373187 0.45598346 -2.0658496e-18)
(10.434318 0.47278936 0)
(10.492423 0.48327537 0)
(10.561562 0.48998057 2.6182198e-19)
(10.623242 0.48546244 0)
(10.702558 0.4745705 1.052375e-18)
(10.757666 0.4527392 -1.0612989e-18)
(10.830177 0.42457927 -5.2718232e-19)
(10.878085 0.38831922 6.6148502e-19)
(10.934077 0.34668524 -3.2952653e-19)
(10.974493 0.29202861 2.6311855e-19)
(10.08686 0.17944372 0)
(10.102427 0.20380695 0)
(10.128868 0.22720381 3.3541104e-18)
(10.143805 0.25416078 -3.4181232e-18)
(10.174593 0.27955684 3.8854022e-18)
(10.202771 0.30737736 -3.9530213e-18)
(10.243112 0.32954375 0)
(10.285384 0.36328896 4.486869e-19)
(10.337948 0.38995514 1.8027439e-18)
(10.394714 0.41341656 -1.8286348e-18)
(10.453315 0.4288243 1.8274249e-18)
(10.517544 0.43766613 -1.3423819e-20)
(10.578504 0.43674189 -3.6975255e-18)
(10.649786 0.43212546 1.859098e-18)
(10.705468 0.41474025 0)
(10.770789 0.39014718 -9.2417958e-19)
(10.819599 0.35880554 1.4486336e-18)
(10.87757 0.31771867 -6.3664818e-19)
(10.91304 0.27097547 2.3058191e-19)
(10.055228 0.14113966 1.1113457e-17)
(10.080089 0.15559606 -5.8365573e-18)
(10.097324 0.17579549 0)
(10.127219 0.19594778 -3.7558394e-19)
(10.15004 0.21859442 -3.801288e-19)
(10.181293 0.24125976 3.847864e-19)
(10.216628 0.26535881 0)
(10.254897 0.28974843 -3.9273538e-19)
(10.306466 0.31112785 3.1632558e-18)
(10.353096 0.33123665 -3.2055954e-18)
(10.414307 0.34858733 0)
(10.474519 0.36264612 0)
(10.537309 0.36856966 2.0273998e-19)
(10.601406 0.36724433 1.0155342e-19)
(10.663891 0.35744263 -1.0163352e-19)
(10.725431 0.33872997 0)
(10.77941 0.31120131 -4.5472661e-19)
(10.830784 0.280185 4.0545563e-19)
(10.870733 0.23773242 0)
(10.05851 0.11122612 -1.0116725e-17)
(10.07328 0.12396287 1.059e-17)
(10.088801 0.13596116 -1.5997389e-20)
(10.109842 0.14941676 -4.958506e-18)
(10.129493 0.17015111 0)
(10.162311 0.18955802 2.6984182e-18)
(10.188157 0.21705662 -5.635822e-18)
(10.235427 0.23839948 2.7647185e-18)
(10.269168 0.2624882 0)
(10.321357 0.27916716 -2.7891762e-18)
(10.36935 0.2928893 2.821077e-18)
(10.42735 0.30585472 1.4068148e-18)
(10.488518 0.3130564 -1.4190296e-18)
(10.550706 0.31325392 1.2352293e-18)
(10.613634 0.30577282 -1.3334978e-18)
(10.671567 0.28989303 0)
(10.730399 0.2674828 -4.4337323e-20)
(10.781172 0.23829803 -1.3210263e-19)
(10.828588 0.2020433 1.8723526e-19)
(10.054951 0.08058227 2.7815808e-19)
(10.067285 0.091200277 -5.6442611e-19)
(10.087285 0.10445749 4.570058e-18)
(10.099894 0.11382911 2.7535982e-19)
(10.126479 0.1212155 -3.1000423e-19)
(10.146982 0.13681194 -4.7508221e-18)
(10.176658 0.15159045 1.4945923e-19)
(10.215316 0.17350041 2.559048e-18)
(10.247615 0.19581656 -2.4379404e-18)
(10.29799 0.21443319 -1.5308435e-19)
(10.337008 0.23254405 0)
(10.394581 0.24343399 2.6132206e-18)
(10.444901 0.25585475 -2.6339631e-18)
(10.508299 0.25700826 -1.1564405e-18)
(10.567381 0.25967641 8.4866401e-20)
(10.62826 0.24774544 1.8567551e-18)
(10.6829 0.23277582 -5.8054286e-19)
(10.735326 0.21073364 -5.772368e-20)
(10.777047 0.1792835 -9.5673618e-21)
(10.032119 0.057225832 0)
(10.04511 0.06527466 2.477608e-19)
(10.059114 0.073661375 4.0117368e-18)
(10.078175 0.084413544 -4.4522213e-18)
(10.096769 0.093408761 4.2318741e-18)
(10.115137 0.10414927 -4.159905e-18)
(10.144088 0.11649555 1.3107662e-19)
(10.172256 0.12975109 -1.3178292e-19)
(10.213778 0.14522692 1.9860981e-18)
(10.256894 0.1584952 -2.0084223e-18)
(10.307254 0.17141239 2.0037952e-18)
(10.36309 0.18165392 -2.2238707e-18)
(10.420451 0.18767947 0)
(10.482992 0.18979629 1.0743588e-18)
(10.539593 0.18739712 -1.2152285e-18)
(10.602878 0.17936843 5.3691386e-19)
(10.657552 0.16573224 -5.0513444e-19)
(10.713827 0.14876573 -2.3433675e-19)
(10.755626 0.12279002 2.7180565e-19)
(10.029882 0.03270671 -9.3813302e-21)
(10.040875 0.04083831 -6.9640983e-18)
(10.052084 0.04472565 1.1013264e-19)
(10.073079 0.053209182 -1.7184383e-22)
(10.089141 0.059956735 1.1236287e-19)
(10.112153 0.067686342 0)
(10.136151 0.075715599 3.655743e-18)
(10.161485 0.086444537 -3.8125543e-18)
(10.19625 0.099014704 1.1580121e-19)
(10.229302 0.11136451 -1.8014787e-18)
(10.271051 0.12580014 3.8011724e-18)
(10.316614 0.13626154 -3.7521564e-18)
(10.367215 0.14805002 1.88427e-18)
(10.428471 0.1519534 0)
(10.49053 0.15828924 -9.0669792e-19)
(10.554372 0.15558423 9.3984365e-19)
(10.614343 0.1495424 -1.454489e-20)
(10.668634 0.1412389 4.0689426e-23)
(10.71619 0.12161307 -3.6249792e-21)
(10.011262 0.01856659 6.0718318e-18)
(10.019559 0.02168367 -6.0928133e-18)
(10.033536 0.024382602 6.0779852e-18)
(10.049349 0.027479445 9.7334669e-20)
(10.067636 0.030374529 0)
(10.090019 0.032786226 0)
(10.112687 0.037031958 -4.9771332e-20)
(10.141968 0.040523433 -3.1600696e-18)
(10.174032 0.044451313 3.2923657e-18)
(10.211794 0.049243601 3.2121941e-18)
(10.256252 0.052960257 -1.5651108e-18)
(10.30349 0.057682226 -1.7115424e-18)
(10.359034 0.0606171 0)
(10.41585 0.059782773 2.5541893e-20)
(10.476852 0.058433454 2.5437841e-20)
(10.541104 0.053586936 7.9843813e-19)
(10.603504 0.052499752 -8.2618513e-19)
(10.658976 0.047594899 1.8317921e-19)
(10.706504 0.033576513 -2.0196908e-19)
(10.008567 0.0049318739 -4.091674e-20)
(10.014312 0.0075815001 5.2761878e-18)
(10.023752 0.011439762 -6.8657848e-21)
(10.036506 0.015628066 -9.6398883e-21)
(10.052586 0.01993705 -5.4506793e-18)
(10.072208 0.024316461 0)
(10.095904 0.028705652 2.7164521e-18)
(10.124302 0.033076459 -2.7428943e-18)
(10.157789 0.037114017 -4.3535316e-20)
(10.196716 0.04038337 -2.1837189e-20)
(10.241006 0.042692694 -2.1881437e-20)
(10.290556 0.04366647 2.1901793e-20)
(10.344244 0.04401314 0)
(10.396677 0.044739349 1.3793861e-18)
(10.450232 0.049867905 -1.4123807e-18)
(10.504422 0.046726996 -6.9145756e-19)
(10.556884 0.057356262 7.0589997e-19)
(10.622763 0.056623439 3.5611109e-19)
(10.660785 0.050002764 -3.5022069e-19)
(12.478979 0.41932916 -1.2438781e-19)
(12.479129 0.22374917 -4.994558e-19)
(12.451175 0.092617102 4.8762342e-19)
(12.427939 -0.092885241 0)
(12.351701 -0.20737729 -9.0567106e-19)
(12.316303 -0.37915165 -1.7555892e-18)
(12.212256 -0.47878513 0)
(12.158908 -0.63164478 -2.7918379e-20)
(12.035896 -0.72278986 3.002337e-18)
(11.959957 -0.85266974 1.4460001e-18)
(11.84034 -0.95403591 -1.3618424e-18)
(11.683159 -1.0512449 2.5953332e-18)
(11.56295 -1.1675139 -2.4297619e-18)
(11.352441 -1.2079565 0)
(11.198641 -1.3471688 1.1330369e-18)
(11.01996 -1.3579734 -1.0438148e-18)
(10.790581 -1.4751062 -2.0588485e-18)
(10.619218 -1.4951775 1.9322676e-18)
(10.284677 -1.5252212 -9.2449727e-19)
(12.373441 0.40950223 -1.0838437e-19)
(12.364196 0.2102796 6.4731499e-19)
(12.342902 0.069508112 -4.2432341e-19)
(12.314957 -0.12076522 0)
(12.243026 -0.24391547 -8.0449462e-19)
(12.199793 -0.41783401 2.3136301e-18)
(12.083532 -0.51286774 0)
(12.020908 -0.67003362 0)
(11.869706 -0.74727522 0)
(11.790418 -0.87348343 0)
(11.635233 -0.93835023 2.4510975e-18)
(11.507429 -1.0263307 -3.5289886e-18)
(11.33601 -1.0828577 -3.4144145e-18)
(11.14378 -1.1290639 2.1280887e-18)
(10.959774 -1.1681395 -2.0560721e-18)
(10.763992 -1.179114 2.0112278e-18)
(10.572638 -1.1986512 -1.2039115e-20)
(10.400889 -1.1682298 -1.8074772e-18)
(10.135199 -1.1464315 1.7986566e-18)
(12.270357 0.43914883 0)
(12.264365 0.24967676 -3.8024278e-19)
(12.235819 0.10257741 -7.4280533e-19)
(12.190335 -0.075945379 -3.9009326e-21)
(12.129039 -0.21183326 -9.1005259e-21)
(12.061329 -0.37729638 1.3867353e-18)
(11.961344 -0.48612724 -2.6345015e-18)
(11.877363 -0.62828096 1.2535076e-18)
(11.733719 -0.71045834 2.4626309e-20)
(11.628279 -0.81893684 0)
(11.479153 -0.87718155 3.3644787e-18)
(11.342269 -0.94471026 1.8788241e-20)
(11.179739 -0.96695357 2.058341e-18)
(10.99257 -1.0026303 2.0090574e-18)
(10.814822 -0.97924122 2.8581637e-18)
(10.570764 -0.97984932 -3.6075501e-18)
(10.416842 -0.91014954 -4.9954547e-20)
(10.188065 -0.84885116 3.3685549e-18)
(10.022233 -0.75136891 1.7173619e-18)
(12.174368 0.38344893 3.3107987e-19)
(12.177158 0.20658411 -6.6075695e-19)
(12.153267 0.054958452 9.7269182e-19)
(12.110876 -0.11465484 0)
(12.043796 -0.25204214 1.8574065e-18)
(11.958317 -0.39732703 -3.005257e-18)
(11.858387 -0.50643443 2.3363131e-18)
(11.741114 -0.62420961 -5.5914576e-21)
(11.614317 -0.70081616 2.7113469e-20)
(11.482617 -0.76964452 -1.0641837e-18)
(11.320371 -0.81940316 0)
(11.189573 -0.84287302 -9.6093892e-19)
(11.017336 -0.85313093 9.7877529e-19)
(10.86583 -0.84493658 -1.7829503e-18)
(10.695785 -0.77924299 0)
(10.490862 -0.74571647 0)
(10.343971 -0.61107437 -1.6018688e-18)
(10.10791 -0.52755691 0)
(10.009122 -0.3354129 1.5400486e-18)
(12.078673 0.41427756 2.8801397e-19)
(12.071758 0.23608 -2.8622372e-19)
(12.042821 0.083275485 4.9569617e-21)
(11.985476 -0.086460289 -5.5504441e-19)
(11.91918 -0.21919327 5.3393249e-19)
(11.831519 -0.35697688 -2.667491e-21)
(11.72212 -0.4582808 -1.0264488e-18)
(11.603315 -0.5643654 0)
(11.480998 -0.62132224 -1.9468655e-18)
(11.350635 -0.67742663 9.3121178e-19)
(11.204806 -0.70115347 0)
(11.068962 -0.70248766 0)
(10.909447 -0.68910926 -1.6823533e-18)
(10.781381 -0.62978167 -1.6654894e-18)
(10.633697 -0.56434387 1.6080757e-18)
(10.483393 -0.46283099 3.10881e-18)
(10.372332 -0.31009458 1.5590563e-18)
(10.187238 -0.1808638 -1.3985803e-18)
(10.160252 0.07165635 -1.832605e-20)
(12.008212 0.38203607 0)
(11.997102 0.21028496 2.5102558e-19)
(11.96239 0.055537919 -1.2321335e-18)
(11.910426 -0.099729644 4.8678072e-19)
(11.840369 -0.23036581 1.4318775e-18)
(11.736063 -0.35306174 -9.4701904e-19)
(11.62915 -0.44244577 -1.8434082e-18)
(11.497913 -0.5268691 1.7677456e-18)
(11.360243 -0.56690425 -8.9580174e-19)
(11.228734 -0.60108467 1.6712277e-18)
(11.088075 -0.59054705 0)
(10.944973 -0.57929018 0)
(10.823307 -0.51298189 -1.5544433e-18)
(10.68849 -0.44594216 4.4857107e-18)
(10.612274 -0.3347214 -5.7404974e-18)
(10.490533 -0.1933679 2.7607246e-18)
(10.466636 -0.041295382 -5.4052881e-18)
(10.329329 0.14776667 1.2864988e-18)
(10.407358 0.39723335 2.504328e-18)
(11.891241 0.38890864 5.4896757e-20)
(11.882926 0.22891765 2.1935168e-19)
(11.856239 0.065097101 -4.2861232e-19)
(11.811457 -0.080193988 0)
(11.726795 -0.20896026 -8.4289339e-19)
(11.636717 -0.31370754 2.4706573e-18)
(11.532126 -0.40021342 -1.6000204e-18)
(11.406438 -0.45812324 7.9697349e-19)
(11.285404 -0.49257844 -1.5590433e-18)
(11.157369 -0.49396217 4.5323824e-18)
(11.040284 -0.47470669 -2.9016596e-18)
(10.914261 -0.42747899 0)
(10.814737 -0.35234415 1.3695895e-18)
(10.700768 -0.26053429 2.7070892e-18)
(10.664335 -0.11483177 -3.8601009e-18)
(10.584351 0.014550675 3.7904797e-18)
(10.630766 0.21519211 -3.6403627e-18)
(10.585412 0.40834646 -2.3794811e-18)
(10.752131 0.65111644 -1.171578e-18)
(11.826962 0.36135467 1.4243776e-19)
(11.834642 0.22127375 1.8925957e-19)
(11.788327 0.052502225 -3.7339533e-19)
(11.725302 -0.073941272 0)
(11.639531 -0.19676394 1.4627997e-18)
(11.539989 -0.28983019 -7.2770808e-19)
(11.432362 -0.36216018 0)
(11.307377 -0.40425389 -1.3949081e-18)
(11.192463 -0.42436977 6.8999909e-19)
(11.075153 -0.40176736 0)
(10.978397 -0.3758612 -1.3168089e-18)
(10.874927 -0.29285708 1.2818191e-18)
(10.814318 -0.22114451 1.2449851e-18)
(10.754324 -0.079194603 -2.4199973e-18)
(10.750536 0.036378663 2.3058932e-18)
(10.749957 0.20498768 -1.1181835e-18)
(10.84211 0.36910438 -1.0851795e-18)
(10.9067 0.53176396 -1.0422379e-18)
(11.187549 0.74029221 -1.0001971e-18)
(11.698843 0.36525965 3.2921198e-19)
(11.722974 0.22244522 -1.6287293e-19)
(11.678718 0.0560052 0)
(11.643979 -0.062759624 0)
(11.5661 -0.18050855 -1.2793212e-18)
(11.473538 -0.26136304 1.2650922e-18)
(11.374903 -0.31777413 0)
(11.253039 -0.34294192 6.0986459e-19)
(11.155193 -0.3461089 -5.9945871e-19)
(11.054924 -0.30980615 0)
(10.969082 -0.26817497 1.1505956e-18)
(10.897386 -0.16917018 1.5026379e-20)
(10.873231 -0.09595818 1.2352381e-20)
(10.870195 0.05112473 0)
(10.913496 0.13206437 -4.1613968e-18)
(10.991779 0.31503801 3.9748664e-18)
(11.130806 0.36288264 4.8326102e-18)
(11.300679 0.52911864 -6.4850136e-18)
(11.608249 0.54929523 4.4448604e-18)
(11.644445 0.36316386 0)
(11.658391 0.20603932 2.0728744e-21)
(11.595875 0.060893495 0)
(11.556442 -0.041696166 0)
(11.459521 -0.15836752 5.5452157e-19)
(11.368669 -0.21973052 8.6554562e-21)
(11.265925 -0.27040261 -5.5244955e-19)
(11.168835 -0.28327198 -1.6414589e-18)
(11.084648 -0.27487191 2.1137906e-18)
(11.003301 -0.22472699 0)
(10.952906 -0.17150918 -1.0319974e-18)
(10.931509 -0.076192876 -6.0419759e-18)
(10.942871 -0.012369603 2.9016546e-18)
(10.996464 0.11183847 0)
(11.073959 0.16186134 -3.6808261e-18)
(11.238541 0.28758963 4.408513e-18)
(11.383161 0.24446296 -3.4131008e-18)
(11.64774 0.32489772 4.0825786e-18)
(11.876162 0.12780062 0)
(11.532302 0.36408004 -2.482974e-19)
(11.551276 0.18858358 1.2470535e-19)
(11.512301 0.072425174 0)
(11.487356 -0.045273272 -9.8724445e-19)
(11.407327 -0.13981185 1.4608151e-18)
(11.33021 -0.1860463 -4.8083148e-19)
(11.230558 -0.23302556 -1.4629207e-18)
(11.151739 -0.23082886 3.3323263e-18)
(11.076697 -0.2075851 -1.8597414e-18)
(11.019764 -0.15590265 0)
(10.99853 -0.10846692 8.9981975e-19)
(11.014844 -0.0294993 5.3270911e-18)
(11.050254 0.019991355 -3.4203482e-18)
(11.154676 0.098086425 0)
(11.246318 0.10781884 0)
(11.457815 0.12134723 -1.5593598e-18)
(11.563988 0.020868859 7.4869954e-19)
(11.84775 -0.059360793 -2.1564871e-18)
(11.896057 -0.34925404 0)
(11.496634 0.35644401 -2.1545744e-19)
(11.474026 0.18988163 6.4605659e-19)
(11.438649 0.087945472 -6.4290399e-19)
(11.396149 -0.038393978 0)
(11.324256 -0.10275788 1.2917167e-18)
(11.257075 -0.15872499 -1.6797623e-18)
(11.168937 -0.19001461 0)
(11.097543 -0.17905535 8.3759012e-19)
(11.044235 -0.15071683 8.2716147e-19)
(11.02679 -0.1127256 0)
(11.03326 -0.072530103 0)
(11.08261 -0.019274452 -7.7435802e-19)
(11.139624 0.0054080175 -2.2802334e-18)
(11.278834 0.016814683 -1.8976945e-20)
(11.361074 -0.030462628 2.1248695e-18)
(11.563783 -0.12068645 1.3715586e-18)
(11.605483 -0.25828022 -6.6175802e-19)
(11.810522 -0.45900886 1.2690836e-18)
(11.696718 -0.76410059 0)
(11.425372 0.33476907 0)
(11.401483 0.1908132 -7.478511e-19)
(11.401514 0.084882011 1.4870687e-18)
(11.333803 -0.034127778 -1.1120122e-18)
(11.284146 -0.086393511 0)
(11.204547 -0.14102824 0)
(11.149253 -0.14710883 0)
(11.086807 -0.14508531 -7.2384433e-19)
(11.058075 -0.12303995 -7.1642322e-19)
(11.060459 -0.10128882 0)
(11.085693 -0.069460732 -6.9754373e-19)
(11.149823 -0.061204663 -6.8205665e-19)
(11.214944 -0.068398323 -6.6227488e-19)
(11.350739 -0.13427305 2.580039e-18)
(11.398399 -0.21979103 -2.4892799e-18)
(11.542295 -0.39408363 -6.0316054e-19)
(11.513778 -0.53102687 3.4854305e-18)
(11.596337 -0.79239511 -5.5874911e-18)
(11.364277 -1.0151185 3.228196e-18)
(11.334996 0.3089123 -4.0677734e-20)
(11.310294 0.20514489 8.1257552e-20)
(11.333764 0.083535553 8.0876856e-19)
(11.259554 -0.011308654 -1.9427471e-18)
(11.231886 -0.068649528 9.5600639e-19)
(11.156648 -0.11609293 0)
(11.118545 -0.11595031 0)
(11.076663 -0.12101803 6.3312982e-19)
(11.074863 -0.11052594 -2.4964012e-18)
(11.086672 -0.10645217 -6.448488e-19)
(11.129203 -0.092821171 5.8135061e-19)
(11.191931 -0.13058408 2.9639896e-18)
(11.25588 -0.16938042 5.8050685e-19)
(11.347479 -0.30266826 0)
(11.353791 -0.40114814 1.6414173e-18)
(11.405553 -0.6135255 0)
(11.304778 -0.73668591 -3.0757996e-18)
(11.280797 -0.97329554 8.9006228e-18)
(11.008332 -1.0994088 -7.6482615e-18)
(11.282271 0.28712408 7.0052961e-20)
(11.257611 0.1969883 -6.9617389e-20)
(11.274606 0.063945964 0)
(11.203714 -0.0071991046 -8.4749512e-19)
(11.18563 -0.065207519 2.6314855e-19)
(11.113696 -0.097580045 1.1089361e-18)
(11.091415 -0.10433874 0)
(11.062665 -0.12441042 -2.753177e-18)
(11.070567 -0.12066341 1.6033791e-18)
(11.082487 -0.13335435 -2.6856647e-21)
(11.136885 -0.14895575 0)
(11.175674 -0.23221461 0)
(11.221821 -0.30115505 -5.0672198e-19)
(11.237907 -0.46552654 0)
(11.210382 -0.55824933 9.1984082e-22)
(11.160625 -0.77311498 9.3189579e-19)
(11.020994 -0.83930538 -2.7121565e-18)
(10.913484 -1.030925 6.9966148e-18)
(10.609849 -1.0554597 -3.3903908e-18)
(11.195302 0.2928711 2.1253149e-19)
(11.204335 0.19135342 -1.815001e-19)
(11.207119 0.065104218 0)
(11.159657 0.016291227 0)
(11.145993 -0.05516464 0)
(11.088056 -0.08407891 0)
(11.087948 -0.10281195 -1.9439482e-18)
(11.067554 -0.1285267 1.8917577e-18)
(11.086111 -0.13749526 2.3643477e-18)
(11.089796 -0.17079749 -9.2664885e-19)
(11.147961 -0.22151175 0)
(11.140448 -0.32586945 3.6309029e-18)
(11.162818 -0.41460615 -6.6394696e-18)
(11.109255 -0.5713046 3.4494098e-18)
(11.050458 -0.64725202 -4.2080963e-18)
(10.920608 -0.82813448 2.4515397e-18)
(10.774809 -0.8204243 -7.9497134e-19)
(10.592241 -0.96355474 -7.7394364e-19)
(10.317192 -0.8623077 7.4954026e-19)
(11.12436 0.27442454 2.0991638e-19)
(11.167735 0.15508416 -6.8259767e-19)
(11.136348 0.073195299 4.1844137e-19)
(11.126288 0.0072890736 -8.4465692e-19)
(11.084874 -0.063078055 8.3582893e-19)
(11.052561 -0.077649228 0)
(11.042583 -0.11927502 -4.2051994e-19)
(11.026208 -0.14179704 1.6679509e-18)
(11.055718 -0.17391156 -1.6346448e-18)
(11.038486 -0.22226386 -4.0651178e-19)
(11.082222 -0.30540649 -3.2196673e-18)
(11.029757 -0.40381902 3.148752e-18)
(11.013943 -0.50248052 -3.8592857e-19)
(10.889115 -0.63020662 2.2695919e-18)
(10.805036 -0.67740046 -2.2064377e-18)
(10.61848 -0.7827375 0)
(10.494662 -0.72257432 -5.6145003e-18)
(10.293041 -0.78726212 6.1295982e-18)
(10.099814 -0.61003663 0)
(11.065955 0.2641422 -3.6285097e-19)
(11.109835 0.1504373 3.6255725e-19)