/*--------------------------------*- C++ -*----------------------------------*\
  =========                 |
  \\      /  F ield         | OpenFOAM: The Open Source CFD Toolbox
   \\    /   O peration     | Website:  https://openfoam.org
    \\  /    A nd           | Version:  11
     \\/     M anipulation  |
\*---------------------------------------------------------------------------*/
FoamFile
{
    format      ascii;
    class       volScalarField;
    location    "0.0105";
    object      p;
}
// * * * * * * * * * * * * * * * * * * * * * * * * * * * * * * * * * * * * * //

dimensions      [0 2 -2 0 0 0 0];

internalField   nonuniform List<scalar> 
880
(
80
80
80
80
80
80
79.99999999999991
79.99999999986002
80
79.99999999999999
80
79.99999999422012
80
80
80
79.99999988621822
80
80.00000000000001
79.99999999999994
80
79.99999999999999
80
79.99999999999983
80
80
80
80.00000000000681
79.99999999972725
80.00004280251051
80.00007493086761
80.00007067663883
80.00006344378593
80
80
79.99999999999996
80
80
79.99999999999997
80
79.99999999999999
80.0000000077863
80.00000000798272
80.0000000083746
80.00000000081923
80.00006343411106
80.00006545411297
80.00006652725877
80.00003775767657
80.00041800586483
80.00014125651393
80.00000807869876
80.00000004936045
80.00000010883656
80.0000000425191
80.00000000302646
80.00000000000482
80.00000000000551
80.00000000000338
80.00000000000001
80
80
80.00000000000001
80
80
79.99999999999996
79.99999999999997
80
80.00000000000001
80
80.00000000000001
80.00000000000001
80.00000000000001
79.99999999999989
80
79.99999999999989
80
80.0000000000022
80
79.99999999999996
80
80
80
79.99999999999999
80
80.00000000000213
80
80
79.99999999999999
80.0000000343754
80.000000000087
80
79.99999999999999
79.99989611467946
79.99999997815604
80.00000000000001
79.99999999999999
79.99999999999991
79.99999999999999
80.00000000003365
80.00000035117758
80
80
80.00000000007968
80.00000124102242
80
80
80.00000000010658
80.00000132182299
80
80
80.00000000012982
80.00000138759066
80.00000145978865
80.00000000015578
80
80
80.00000153975557
80.00000000014664
80
80
80.00000162819879
80.00000000017775
79.99999999999997
79.99999999999999
80.0000017718752
80.00000000026867
80
80
79.99999999999993
80
80.00000000028044
80.00000193190647
80
80
80.0000000003008
80.00000173687873
80
80
80.00000000032801
80.00000152604736
80
79.99999999978023
79.99999996014132
79.99998478030264
80.00000000644175
80.00000220762635
80.00011534825683
79.93866378983023
80.00000000794162
80.00000264538649
80.00011504199065
79.83946447794425
80.00000000563819
80.00000205417851
80.00009754182018
79.83647860825036
80.00000000395701
80.0000015837293
80.00008237656705
79.84915783061537
79.88954399172908
80.00010308886344
80.00000110794142
80.00000000250641
79.89936400536094
80.0001048964415
80.00000098341607
80.00000000204919
79.90461864630575
80.00009314052056
80.00000083220648
80.00000000171897
79.83663867835578
80.000044814055
80.00000070715019
80.00000000184295
79.99923174727712
80.00000866428084
80.00000001428133
79.99999999999754
80.00016985614094
80.00000007461027
80.00000000001761
80
80.00000577551683
79.99999999905612
80
80
79.99992859690391
79.99999997331015
80
80
80.00414458446448
80.00000729147261
80.00000000486669
79.99999999999993
80.00414205994277
80.00000728951228
80.00000000483462
80
80.00403324331867
80.00000716628118
80.00000000471698
80
80.00344625688649
80.00000626365204
80.00000000417405
80
79.99992859684156
79.99999997326749
79.99999999999999
80
80.00000577544178
79.99999999901422
79.99999999999993
80
80.00016985611335
80.00000007461699
80.00000000001761
80
79.9992317473741
80.00000866439582
80.0000000142813
79.99999999997641
80.00000000256505
80.00000110805699
80.00010308892119
79.88954399175769
80.00000000209312
80.00000098343084
80.00010489648659
79.89936400540444
80.0000000016684
80.00000083227989
80.00009314051894
79.90461864646043
80.00000000184765
80.00000070716953
80.00004481418497
79.83663867825956
79.84915783053604
80.00008237650961
80.0000015836909
80.00000000395154
79.83647860812918
80.00009754174104
80.00000205406744
80.0000000055775
79.83946447791035
80.00011504187904
80.00000264538512
80.00000000788773
79.93866378986715
80.00011534821802
80.0000022075854
80.00000000651862
79.99999999999991
80.00000000000004
80.00000000032605
80.00000193199116
80.00000000000001
80
80.00000000030219
80.00000173684492
80.00000000000003
80
80.00000000030738
80.00000152602831
80
79.9999999997698
79.99999996010075
79.99998478030537
80.00000177204153
80.00000000024005
80
80
80.00000162833476
80.00000000021903
80
80
80.00000153975095
80.00000000018763
80
79.99999999999999
80.00000145985798
80.00000000012844
80
80
80
80
80.00000000003558
80.00000035105015
80
80
80.00000000008821
80.00000124104047
80
80
80.00000000010799
80.00000132187586
79.99999999999999
80
80.00000000011359
80.00000138761159
80
80
80
80
79.99999999999997
80
80
80.00000000000001
79.99999997816337
80.00000000012182
80
80
79.99989611467639
80.00000003437621
80.00000000000672
80
79.99999999999991
80
79.99999999999989
80
80
79.99999999999999
80
79.99999999999999
79.99999999999999
80
80
80
80
79.99999999999999
79.99999999999999
80.00000000000237
80
79.99999999999159
80.00000010877227
80.00041800584418
80.00000000000001
80.00000000000317
80.00000004252881
80.00014125641769
79.99999999999999
80
80.00000000299535
80.00000807869148
80
79.99999999999999
80.00000000000436
80.00000004931226
80.00003775771668
80.00000000085576
79.99999999999999
79.99999999999999
80.00006652722327
80.00000000850088
80
79.99999999999999
80.0000654541998
80.00000000804768
80.00000000000003
79.99999999999993
80.00006343408096
80.00000000764032
80
80
80.00006344385251
79.99999999972771
80
80
80.00007067660725
80.00000000000482
80
79.99999999999999
80.00007493093526
80.00000000000001
80
79.99999999999999
80.00004280249559
80
80
79.99999999999989
80
79.99999999999997
80
80
80.00000000000003
80.00000000000001
79.99999999999999
79.99999999987075
80
80
80
79.99999999419023
80
80
79.99999999999989
79.99999988616509
79.99999999962235
79.99999994632088
79.99999671866327
80.00003076126448
79.9999999462506
79.99999931397831
79.9998611271035
79.99711449294553
79.99999671866671
79.99986112711861
80.00002425990989
80.153213450338
80.00003076130909
79.99711449297949
80.15321345031538
85.52049670242064
115.9812523901674
88.1263082778089
80.78640222129729
80.01093778393627
125.4263369311942
92.71247792925514
81.45378886167161
80.02292771744213
125.9651884581868
92.98219533109007
81.49871892082608
80.02381139952229
125.9933651643954
92.96767570557755
81.48930576851136
80.02352175809465
80.02434289825797
80.02487432728994
80.02490020880536
80.01818259943855
81.61940513466314
81.65029752946987
81.65130137190451
81.65374526008989
93.50734651236557
93.62399059599352
93.63061507938792
95.11904668117047
127.4927836676236
127.9083038216409
127.938222408744
135.7586971260648
80.08001210166061
80.02015707530411
80.00066967262524
80.00000252565653
81.02184419331829
80.08411110491677
80.00018062673848
79.99998705604226
82.47877935028993
80.03661269270926
79.99544669553505
79.99994223465249
82.51544057332745
79.93976382399377
79.96860208978583
79.99860098596228
80.00000000389777
80.00000000014595
79.99999999999999
79.99999999999997
80.00000015717836
80.00000000233413
80.00000000002134
80
80.00000132894336
80.0000000836867
80.00000000280117
80.00000000001079
79.99999846309996
80.00000035421115
80.00000003276928
80.00000000014415
79.99999999999997
79.99999999999997
80.00000000007465
79.97535446383861
80
80
79.99999999997851
78.91086673522838
80
80
79.99999999999996
72.07939861203245
79.99999999999989
80
79.99999999999996
62.20107195839349
80.00095051115387
80.00149946080086
80.00152470669697
80.00152528259164
80.94069622434017
81.28153226845802
81.28844410477402
81.28819754743648
111.3685393082608
116.0476112798532
115.8740582049871
115.8402458815357
223.6366944726857
236.3018591774899
234.7861421676819
234.4895413957085
80.00152539572579
80.00152557034407
80.00152577022527
80.00157455838529
81.28817608503365
81.28817641920659
81.28817644967633
81.31141347989514
115.8399875882216
115.8400069095154
115.840008696421
115.8965338676013
234.4870218952035
234.4871209460593
234.4871368281762
234.4756046409139
80.00136734430716
80.00112077095122
80.00093773368617
80.00116094663538
80.98619683294207
80.86296807330173
80.75716427556526
80.49536159787841
112.5311859689469
110.9018488118811
109.158074172293
108.4811150804272
226.2163327394103
222.8101347410368
219.3829473722866
252.9162905779355
76.89776731715401
71.26444381337943
70.33192300113416
70.38247130289152
62.79049557383302
44.09868833534212
41.53743030079622
41.45567113318469
42.58896125818499
16.02352790744973
13.94439529980808
13.81893917381738
34.32924473514305
4.564605181874045
3.768619229844488
3.720529217301049
69.47034994393431
69.48737034498721
69.39734233162451
63.80020760998314
39.7743879086574
39.69348521832782
39.64602592117785
28.36550892497159
12.6130997997702
12.51087817656309
12.59422258214407
5.39568434908335
3.607540414119586
3.586417134660196
3.603777522825767
1.807327676935368
79.58860813357657
80.00787343826212
80.00090643022871
79.98182403818187
76.86285872120969
79.99864169779177
79.98158730776137
79.8603542291028
69.12800587593985
79.8399660103177
79.85964449542445
79.10992478659038
55.9307745651636
78.27099765605857
79.40777364004673
79.88636712392451
80.0527465949161
80.13612480997135
80.15624309620347
80.20924715373673
78.92573587748537
78.7318313741204
78.53871091781525
78.62842395769476
61.18195765597233
53.91646372619247
51.38164195079813
50.7520359517185
33.18256974544956
14.93487469009758
10.64016905860207
9.984460201759203
9.54894629041007
9.256487325639579
9.164995941758031
9.159614798248397
47.76535016253124
47.33658816193792
47.16813071384752
47.14946147885285
78.71483474927278
78.86045625616937
78.8835269568815
78.88262291862436
80.35868524449043
80.44110265861657
80.46099446218685
80.4617460789371
9.159614798248167
47.14946147883405
78.88262291865196
80.46174607893852
9.164995941787085
47.16813071379279
78.88352695699764
80.46099446218442
9.256487325627953
47.33658816199046
78.8604562560455
80.44110265857013
9.548946290413726
47.76535016257338
78.71483474922806
80.35868524442158
80.20924715368807
80.15624309617908
80.13612480991432
80.05274659477875
78.62842395759374
78.5387109178195
78.73183137424707
78.92573587736342
50.75203595174092
51.38164195082938
53.91646372617659
61.18195765598092
9.984460201755022
10.64016905860294
14.93487469010363
33.18256974545538
79.88636712392326
79.40777364003277
78.27099765605587
55.93077456514369
79.10992478658164
79.85964449540796
79.83996601031596
69.12800587592497
79.86035422909652
79.98158730764317
79.9986416977863
76.86285872119802
79.98182403816621
80.00090643019469
80.00787343824291
79.58860813358739
63.80020760995638
69.39734233157442
69.48737034494638
69.4703499438521
28.36550892497458
39.64602592121528
39.69348521840386
39.77438790871987
5.395684349118095
12.59422258213816
12.51087817656821
12.61309979977858
1.807327676936083
3.603777522826331
3.586417134657147
3.60754041412374
70.38247130273351
70.33192300121048
71.26444381348246
76.89776731719297
41.45567113330953
41.53743030079401
44.09868833533169
62.790495573746
13.81893917381476
13.94439529978192
16.02352790746921
42.58896125810295
3.720529217320566
3.768619229825005
4.564605181851014
34.32924473512123
80.00116094664915
80.00093773373442
80.00112077090462
80.00136734436967
80.49536159777074
80.75716427561429
80.86296807332248
80.98619683302191
108.481115080276
109.1580741722506
110.9018488118764
112.5311859688587
252.9162905778147
219.3829473721981
222.8101347409371
226.2163327392523
80.00157455839825
80.00152577032826
80.00152557033979
80.00152539580554
81.31141347985935
81.28817644979429
81.28817641933324
81.28817608497948
115.8965338674096
115.8400086964224
115.8400069095299
115.8399875881483
234.4756046406199
234.4871368280678
234.4871209460077
234.4870218951432
80.00152528246856
80.00152470676565
80.00149946082433
80.00095051117134
81.28819754746112
81.28844410485461
81.28153226828314
80.94069622450139
115.8402458814927
115.8740582050346
116.0476112797706
111.3685393083575
234.4895413956237
234.7861421677085
236.3018591773453
223.6366944728026
79.97535446383381
80.00000000007459
79.99999999999997
79.99999999999997
78.9108667352137
79.99999999997848
80
80
72.07939861204504
79.99999999999996
80
80
62.20107195841553
79.99999999999996
80
79.99999999999989
79.99999999999997
80
80.00000000014616
80.00000000391216
80
80.00000000002201
80.00000000233376
80.0000001571763
80.00000000001077
80.0000000028236
80.00000008368806
80.00000132893481
80.00000000014398
80.00000003277901
80.00000035421593
79.9999984630728
80.00000252564516
80.0006696726244
80.0201570752829
80.0800121016502
79.99998705604128
80.00018062673604
80.08411110491461
81.02184419329645
79.99994223465264
79.99544669553278
80.03661269270729
82.47877935028693
79.99860098595933
79.96860208978609
79.9397638239912
82.51544057332228
80.01818259954113
80.02490020875531
80.02487432725358
80.02434289836452
81.65374525995892
81.65130137188169
81.65029752952734
81.61940513472166
95.1190466810567
93.6306150793262
93.6239905958559
93.50734651242051
135.7586971259681
127.9382224086425
127.9083038214652
127.4927836676473
80.02352175816472
80.02381139950546
80.02292771749518
80.01093778401615
81.48930576843446
81.49871892089284
81.45378886157516
80.78640222126603
92.9676757055734
92.98219533093082
92.71247792917995
88.12630827774022
125.9933651643714
125.9651884578511
125.4263369310992
115.9812523901226
80.00111513148831
80.00000209311898
80.00000000149888
80
80.00238757676213
80.00000385925512
80.00000000245439
80.00000000000004
80.00260445447954
80.00000407418135
80.00000000254572
79.99999999999991
80.00307099937926
80.00000457697473
80.0000000028288
80
80
80.0000000048462
80.00000729150349
80.00414458447422
80
80.00000000487992
80.00000728940519
80.0041420600211
80
80.0000000047808
80.00000716632437
80.00403324319625
79.99999999999996
80.00000000424507
80.00000626338692
80.00344625685186
80
79.99999999999999
80
79.99999999999987
80.00000000283565
80.00000000254603
80.00000000244013
80.00000000146365
80.00000457705212
80.00000407403662
80.00000385940871
80.0000020930277
80.00307099930259
80.00260445432217
80.00238757683192
80.00111513151215
)
;

boundaryField
{
    back
    {
        type            empty;
    }
    inlet
    {
        type            zeroGradient;
    }
    front
    {
        type            empty;
    }
    top
    {
        type            zeroGradient;
    }
    outlet
    {
        type            fixedValue;
        value           uniform 80;
    }
    bottom
    {
        type            zeroGradient;
    }
    wall
    {
        type            zeroGradient;
    }
}


// ************************************************************************* //
