/*--------------------------------*- C++ -*----------------------------------*\
  =========                 |
  \\      /  F ield         | OpenFOAM: The Open Source CFD Toolbox
   \\    /   O peration     | Website:  https://openfoam.org
    \\  /    A nd           | Version:  11
     \\/     M anipulation  |
\*---------------------------------------------------------------------------*/
FoamFile
{
    format      ascii;
    class       volScalarField;
    location    "0.2725";
    object      Ma;
}
// * * * * * * * * * * * * * * * * * * * * * * * * * * * * * * * * * * * * * //

dimensions      [0 0 0 0 0 0 0];

internalField   nonuniform List<scalar> 
880
(
1.11801663592382
1.118016635747801
1.117994483442813
1.110705121998023
1.11801663592382
1.11801663541921
1.117975009645238
1.107266302284095
1.118016635923697
1.118016635415463
1.11791487581815
1.102361813696726
1.118016635916871
1.118016637321134
1.117744926401884
1.08601127982618
1.118016636045367
1.118016635790092
1.11801663087511
1.118016197801571
1.118016703402197
1.118015935183562
1.118012124821208
1.118020225810906
1.117220389408923
1.116546751603252
1.115628043706913
1.115811887556196
1.050965509043274
1.016860211547906
0.9984785354007778
0.993640937088818
1.11801591983217
1.118011322728575
1.118006258687921
1.117963252324293
1.117933246330112
1.117773863753786
1.117486410578149
1.11705820223101
1.109757993195156
1.104726547796306
1.098633808947397
1.093164768678797
0.9876995822433924
0.9833274940163136
0.981131027241728
0.9994516921430857
1.054307325355702
1.084577459447729
1.096952806354278
1.107226176548063
1.080579142313631
1.080762849059915
1.085050057959448
1.091912059010777
1.114831051999738
1.11221684186035
1.109808530460092
1.10826178471362
1.117767210892376
1.11740722578244
1.11687956969173
1.116288569145391
1.115773269395654
1.115303969105734
1.114912345310397
1.114762332003396
1.108600836152139
1.110618716622117
1.11365634769012
1.117221346162562
1.100147409349577
1.108222874630707
1.115855280279755
1.122530046865082
1.11597603748885
1.122367964155139
1.128480984217374
1.134225040902725
1.136534612995476
1.127998948191745
1.120412316505285
1.114802709450665
1.135981819851844
1.132036317505981
1.122388457434138
1.115048750736918
1.048206071782675
1.129953969935244
1.124142670452059
1.115636439584702
0.7693800131683577
1.100495354544727
1.124445066393342
1.116179925709505
1.11642212328484
1.121404958402449
1.04626465357455
0.6111474880222353
1.116734681156343
1.116001810868561
0.997882153778656
0.628097885256559
1.116628596407873
1.106960627235166
0.9345681771417697
0.6321679705970193
1.115624850813246
1.093140571081379
0.8816354887726443
0.6519042788047772
0.6775724726512456
0.8406128811956958
1.069933292855799
1.113286357113398
0.7068751001437387
0.8142946355097116
1.039810021732776
1.108274410376849
0.743434714318551
0.8256561144180866
1.00606239878741
1.100596388057624
0.7909769888745642
0.8637087989610485
0.986906525328514
1.088423872136487
1.073580825513211
1.001615829697465
0.9234730807226925
0.854017486872953
1.07258148502866
1.04681776965755
1.010513458718662
0.9366619783902176
1.08625553163719
1.097223322439142
1.101187509268292
1.041115128814796
1.088690640213025
1.12563482759534
1.179770418344216
1.164610726467045
1.093137941973018
1.158000488148198
1.243623086431645
1.351787935384959
1.105288157769853
1.178631916107943
1.282880266530347
1.554883041945432
1.115528872763625
1.178335378470066
1.287499120209366
1.730879449052765
1.121113327772714
1.16625225708201
1.260228198906577
1.501544832711729
1.154009443099232
1.236483937509839
1.156916490834992
1.12372082668338
0.9991526051785795
1.205461768829575
1.146888750618587
1.123208964058747
0.8812538056903905
1.172916841134047
1.137857460951597
1.120959924945295
0.7460433057262783
1.126092972076691
1.127290466312562
1.119448000843108
0.7041477202382175
1.079723075038748
1.115020755409473
1.118390183928319
0.7461967460191891
1.051534566349468
1.109764147997001
1.117816951891623
0.7505920874073395
1.037335197785441
1.109366895917812
1.117772073368644
0.8088811551870746
1.059341685509079
1.113363831046676
1.117911730873416
0.8049565612661423
1.029090151035499
1.106466061623139
1.117471320792051
0.8003131899624413
1.025794349617263
1.105807764142695
1.117450936696317
0.786632558248473
1.021530259904045
1.104772678425395
1.117417534036396
0.776839927922891
1.02029488838625
1.104480593656894
1.117400620102211
0.8088811551882159
1.059341685511939
1.113363831050738
1.117911730878754
0.7505920874073804
1.037335197787933
1.109366895918931
1.117772073371517
0.746196746020087
1.051534566351427
1.109764147998279
1.117816951893601
0.7041477202374943
1.07972307504162
1.115020755410219
1.118390183928866
1.123720826681976
1.156916490833047
1.236483937508944
1.154009443098946
1.123208964058459
1.146888750617503
1.205461768829201
0.9991526051766594
1.120959924943767
1.137857460950446
1.172916841138213
0.881253805688849
1.119448000842169
1.127290466310413
1.12609297207972
0.7460433057255901
1.501544832712919
1.260228198905752
1.166252257082092
1.121113327772643
1.730879449054176
1.28749912020952
1.178335378468897
1.115528872765824
1.554883041946672
1.282880266530451
1.17863191610862
1.10528815777052
1.351787935385127
1.243623086433504
1.15800048815102
1.093137941969209
1.073580825511099
1.001615829696953
0.9234730807193834
0.8540174868726516
1.072581485028734
1.046817769658728
1.010513458717347
0.9366619783896214
1.086255531640814
1.097223322436077
1.101187509267746
1.041115128814956
1.088690640205839
1.125634827595977
1.179770418344673
1.164610726466909
0.7909769888742967
0.8637087989600778
0.9869065253276984
1.088423872128091
0.7434347143187512
0.8256561144179757
1.006062398786678
1.100596388056952
0.7068751001442117
0.8142946355098735
1.039810021735768
1.108274410374518
0.6775724726514
0.8406128811953911
1.069933292852139
1.113286357112323
1.116422123284443
1.121404958402402
1.046264653575028
0.6111474880220852
1.116734681151344
1.116001810867578
0.9978821537809012
0.6280978852583939
1.11662859640165
1.106960627226502
0.9345681771408519
0.6321679705989494
1.115624850810222
1.093140571086203
0.8816354887729586
0.6519042788042907
1.116179925709902
1.115636439585588
1.115048750734342
1.114802709450335
1.124445066399578
1.124142670452666
1.122388457435654
1.120412316505655
1.100495354547834
1.129953969935532
1.132036317509223
1.12799894819375
0.7693800131713663
1.048206071783228
1.135981819851421
1.13653461299526
1.114762332001542
1.11722134616092
1.122530046864011
1.134225040901118
1.114912345311323
1.113656347687878
1.115855280278476
1.128480984217177
1.115303969105566
1.110618716621075
1.108222874632686
1.122367964159085
1.115773269397785
1.108600836152779
1.100147409349139
1.115976037489239
1.117767210892978
1.114831052003223
1.080579142311935
1.054307325354247
1.117407225785918
1.112216841861835
1.080762849058793
1.084577459447004
1.116879569689482
1.109808530461416
1.08505005796136
1.09695280635773
1.116288569146798
1.10826178471443
1.091912059010042
1.107226176551287
0.9994516921438907
1.093164768678454
1.117058202235477
1.117963252322084
0.9811310272428588
1.098633808946543
1.117486410582335
1.118006258688464
0.9833274940153193
1.104726547795751
1.11777386375983
1.118011322730406
0.9876995822446952
1.109757993196461
1.117933246333297
1.118015919828618
0.9936409370903664
1.115811887556516
1.118020225811083
1.118016197799572
0.9984785354017
1.115628043708006
1.118012124824639
1.118016630874749
1.016860211548786
1.11654675160437
1.118015935184879
1.118016635791087
1.05096550904305
1.11722038941019
1.118016703404307
1.118016636042788
1.118016635923821
1.118016635746135
1.11799448344227
1.110705121779228
1.11801663592382
1.118016635422506
1.117975009645194
1.107266302222419
1.118016635921987
1.118016635417139
1.117914875818402
1.102361813684306
1.118016635915401
1.118016637323421
1.117744926402684
1.086011279823547
1.105007239818826
1.098380960069745
1.083205111875175
1.039703748804924
1.09838096014719
1.087534232338021
1.057215080431068
0.9876362769601045
1.083205111916752
1.057215080459816
0.9950324372454901
0.892853367354158
1.03970374881166
0.987636276970152
0.8928533673594726
0.7808077647423959
0.7502189577662401
0.7906822182865393
0.8666413401275695
0.9391607645528335
0.8060514911161022
0.8121945337014197
0.843954983485794
0.8916320302561384
0.7998448109566156
0.8341131358706535
0.8665464626731425
0.8913662167792309
0.8332361242984664
0.8701014690185347
0.8921959893365778
0.9050665703294291
0.9221327681428579
0.9303268569723296
0.94707250702537
0.9783492013345655
0.9162928566795607
0.9305989956442177
0.9499648445980077
1.000019170408571
0.9020134224286279
0.9238065066296151
0.9478614297334138
1.06280154542684
0.8622532116314547
0.8842969347899521
0.9137811495859518
1.149449354092234
1.158898738394035
1.195418344216599
1.163162474445746
1.153587785357346
1.276775786406815
1.2953162267352
1.238720511895318
1.205250532799188
1.432948872417536
1.355317784499772
1.284957107500741
1.238469099631111
1.167371475448659
1.095684310195868
1.079606242103192
1.074958335163996
1.148992367934535
1.145671849506209
1.143368594987794
1.142597145997425
1.183335263402219
1.165806538039532
1.151592991951512
1.142146695666048
1.205091353333626
1.177839982950066
1.153829117625419
1.137042905879937
1.062022746716035
1.051294868645321
1.041329846403458
1.02416024670556
1.143777873283848
1.067236261331717
0.8024522820397277
0.5216913116293511
1.140440517814707
1.005576640537486
0.6263367515079912
0.3259326970620683
1.12912867789307
0.9082334495302831
0.4312611082375244
0.1121735892231743
1.007517748866452
0.6906545788224995
0.2440876967102287
0.02860854130462986
0.4348980197072063
0.5219113773514473
0.5592165221201212
0.6071964639855736
0.3576357632651763
0.4986349087144802
0.5592421296104424
0.6058936861336859
0.2172661086144319
0.4197345223287124
0.5296154893551362
0.5870082171551947
0.06769124279155497
0.2375732235695269
0.380360339334099
0.4691686710025853
0.6243029268683957
0.6666031436067714
0.7154490035863884
0.7812598425408178
0.6321063300373855
0.6759775236472749
0.7210008079317842
0.7766962717767972
0.6281211786994229
0.6779408151790784
0.7225561783423422
0.7720152896318057
0.550280626029055
0.6311423223269534
0.7116150239734689
0.7669286568920891
0.8496983838303712
0.9219079624210103
1.020297099245941
1.119898843920939
0.8435299671786874
0.9106168481675432
1.003026130971504
1.134401905873558
0.8352591355701454
0.8989142732025098
1.015554125298355
1.436498880646573
0.8307219433990118
0.8921326012285671
1.042786699648768
2.000420608219645
1.34200416417777
1.539071831535278
0.68675527824823
1.162935015201482
1.424940061105692
1.300416733821577
0.9510760455965712
1.457239651750115
1.466296901485426
0.914947105847598
1.02279147776301
1.443401934654814
1.128177695443587
0.3776462810010042
1.166110777715055
1.38772506023704
0.7225549193698075
0.5475930380352715
0.4375662954905306
0.3398431319156877
1.017081818185254
0.750371039225816
0.5494860594751819
0.2917609672989188
1.097672963404147
0.8298184748890095
0.5572349661204443
0.2211024151967567
1.078068149598917
0.8237616146788276
0.5349089109185665
0.1997002251899853
0.09435295268532398
0.2536483018317121
0.437274899137257
0.6441301040384947
0.1800111825187692
0.08276459258875683
0.3245993365375087
0.5980065951609657
0.1975806464280876
0.1122144844331271
0.187952692498725
0.4885522170744212
0.1742530789341024
0.1389311101617866
0.111306953095877
0.4308512044798035
0.6182640507536934
0.5822959837294153
0.5434974133435645
0.5173381614904559
0.7066594989980641
0.6485110552431937
0.5915639919123574
0.5403657431234069
0.7312773043906625
0.6216491765284878
0.4751474858044745
0.3323485060390032
0.724352608737409
0.5148731345721823
0.2809563250884617
0.09936118961005271
0.0658592567354873
0.08729122450423037
0.08979615809852889
0.08358288990209045
0.1639188924706051
0.0927944220651324
0.08505090827355059
0.08985916069459408
0.4491363973688123
0.3338810856803439
0.2046519593092551
0.08277122473133001
0.4771865270246852
0.425193481058828
0.3436863117405627
0.2793703227576594
0.0835828899022633
0.08985916069438421
0.08277122472977401
0.2793703227572741
0.0897961580990073
0.08505090827299992
0.2046519593078267
0.3436863117404864
0.0872912245048824
0.09279442206388908
0.3338810856792412
0.4251934810591856
0.06585925673631265
0.1639188924695566
0.4491363973680943
0.4771865270245992
0.5173381614902653
0.5434974133427197
0.5822959837288539
0.6182640507534524
0.5403657431228611
0.5915639919117482
0.6485110552426647
0.706659498997851
0.3323485060381584
0.475147485804154
0.6216491765282083
0.731277304390318
0.09936118960988934
0.2809563250878569
0.514873134571646
0.7243526087372444
0.430851204479813
0.1113069530959883
0.1389311101604293
0.1742530789323748
0.4885522170741106
0.1879526924989053
0.1122144844325323
0.1975806464262278
0.5980065951604605
0.3245993365370429
0.08276459258919852
0.1800111825169032
0.6441301040379472
0.4372748991364112
0.2536483018312719
0.09435295268372776
0.3398431319128279
0.4375662954895166
0.5475930380404672
0.7225549193781573
0.2917609672962035
0.5494860594733209
0.7503710392277921
1.017081818189961
0.2211024151947796
0.5572349661180687
0.8298184748887919
1.097672963406272
0.1997002251884711
0.5349089109162509
0.8237616146776136
1.078068149600025
1.162935015213961
0.686755278249463
1.539071831531747
1.342004164177256
1.457239651756068
0.9510760456050114
1.300416733818222
1.424940061105239
1.443401934658243
1.022791477771301
0.9149471058440515
1.46629690148471
1.387725060240427
1.166110777722611
0.3776462810011181
1.128177695443479
1.11989884392116
1.020297099246214
0.9219079624210623
0.8496983838319289
1.134401905873394
1.003026130971396
0.9106168481673678
0.8435299671794233
1.436498880645687
1.015554125297844
0.8989142732020374
0.8352591355700147
2.000420608218031
1.042786699648043
0.8921326012280353
0.8307219433983899
0.7812598425414508
0.7154490035865645
0.6666031436072514
0.6243029268692261
0.776696271777327
0.7210008079310414
0.6759775236471545
0.6321063300382612
0.7720152896320549
0.7225561783424527
0.6779408151784708
0.6281211786999232
0.7669286568902192
0.7116150239709563
0.63114232232381
0.5502806260269945
0.6071964639855052
0.5592165221205487
0.5219113773505059
0.4348980197077729
0.605893686134472
0.5592421296112747
0.4986349087137977
0.357635763266002
0.5870082171564878
0.529615489356227
0.4197345223284708
0.2172661086152902
0.4691686710044062
0.3803603393349578
0.2375732235695087
0.06769124279196918
0.5216913116317748
0.8024522820412876
1.067236261330755
1.143777873282393
0.3259326970647948
0.6263367515100714
1.005576640537346
1.140440517813542
0.1121735892252954
0.4312611082396907
0.9082334495307423
1.129128677891534
0.0286085413042838
0.2440876967112027
0.6906545788220588
1.007517748863934
1.142597145995677
1.143368594988434
1.145671849509575
1.148992367935044
1.142146695663669
1.151592991952084
1.165806538042483
1.183335263402965
1.137042905877284
1.153829117626169
1.177839982952964
1.205091353334331
1.02416024670258
1.041329846403946
1.051294868647575
1.062022746716333
1.153587785360946
1.16316247444949
1.195418344215653
1.158898738392918
1.205250532803235
1.238720511899223
1.295316226734547
1.27677578640576
1.238469099635426
1.284957107504467
1.355317784499126
1.432948872416675
1.074958335167505
1.07960624210574
1.095684310193914
1.167371475447416
0.9783492013351071
0.9470725070258275
0.9303268569707187
0.9221327681424943
1.000019170409117
0.9499648445977191
0.9305989956423993
0.9162928566788275
1.06280154542782
0.9478614297324649
0.9238065066275101
0.9020134224274158
1.149449354093925
0.9137811495865762
0.8842969347902329
0.8622532116335293
0.9050665703307392
0.8913662167794784
0.8916320302569791
0.9391607645520316
0.8921959893370283
0.8665464626728269
0.8439549834863904
0.8666413401258888
0.8701014690187364
0.8341131358705552
0.8121945337013644
0.7906822182856026
0.8332361243024422
0.79984481096031
0.8060514911157534
0.750218957766893
0.7892358142566134
1.046877152591658
1.11081896751667
1.117811264662588
0.781507275135893
1.034498963998648
1.108070699113363
1.117646866975391
0.7821539393152068
1.032038282441849
1.106302093299678
1.117504074937471
0.7654006677555562
1.025102440480688
1.104998652623745
1.117426554839983
1.117471320790275
1.106466061622414
1.029090151034755
0.8049565612654527
1.117450936696244
1.105807764141655
1.02579434961695
0.8003131899627337
1.117417534036365
1.104772678427742
1.021530259903278
0.7866325582504183
1.117400620102293
1.104480593659452
1.020294888385784
0.7768399279238283
1.117426554841094
1.11750407493601
1.11764686697521
1.117811264666033
1.10499865262615
1.106302093299899
1.108070699113457
1.110818967518373
1.025102440481374
1.032038282442718
1.034498963999855
1.04687715259343
0.7654006677552968
0.7821539393145699
0.78150727513538
0.7892358142571011
)
;

boundaryField
{
    back
    {
        type            empty;
    }
    inlet
    {
        type            calculated;
        value           nonuniform List<scalar> 
16
(
1.11801663592382
1.11801663592382
1.118016635923707
1.118016635921612
1.118016635971552
1.118016635880994
1.118016636529559
1.118016531753252
1.118016531752492
1.118016636529404
1.11801663588092
1.118016635971384
1.11801663592382
1.11801663592382
1.11801663592338
1.118016635921349
)
;
    }
    front
    {
        type            empty;
    }
    top
    {
        type            calculated;
        value           uniform 0;
    }
    outlet
    {
        type            calculated;
        value           nonuniform List<scalar> 
16
(
1.117287967709452
1.117271143274707
1.117239272085255
1.117220394679549
1.117747258617606
1.117541510726322
1.11735744287823
1.117254597307538
1.117287967707509
1.117271143274473
1.117239272085404
1.117220394679751
1.117254597308531
1.11735744287642
1.117541510726463
1.117747258621209
)
;
    }
    bottom
    {
        type            calculated;
        value           uniform 0;
    }
    wall
    {
        type            calculated;
        value           uniform 0;
    }
}


// ************************************************************************* //
