/*--------------------------------*- C++ -*----------------------------------*\
  =========                 |
  \\      /  F ield         | OpenFOAM: The Open Source CFD Toolbox
   \\    /   O peration     | Website:  https://openfoam.org
    \\  /    A nd           | Version:  11
     \\/     M anipulation  |
\*---------------------------------------------------------------------------*/
FoamFile
{
    format      ascii;
    class       volScalarField;
    location    "0.28";
    object      Ma;
}
// * * * * * * * * * * * * * * * * * * * * * * * * * * * * * * * * * * * * * //

dimensions      [0 0 0 0 0 0 0];

internalField   nonuniform List<scalar> 
880
(
1.11801663592382
1.118016635703488
1.117990857308689
1.109983738896082
1.11801663592381
1.118016635425736
1.117969503463751
1.106353055640038
1.118016635922356
1.118016635256398
1.117904258328771
1.10128032730279
1.118016635913947
1.118016636760433
1.117722163750287
1.084631626684617
1.118016636067602
1.118016635774207
1.118016628202846
1.11801616459155
1.11801669614407
1.11801584528206
1.118011787044211
1.118020325199209
1.117167659010645
1.116460824875348
1.115498894149745
1.115619318487561
1.049245608070885
1.014805692966797
0.9961133298553468
0.9914505610254548
1.11801566352616
1.118010650717909
1.118005250177327
1.117957540888975
1.117937558968267
1.117751601990733
1.117438810752713
1.116951887256282
1.109286542647519
1.104119599894442
1.097763798977346
1.09204086700347
0.9846376909638033
0.9812267343250823
0.9786772685827865
0.9975937503970211
1.052949631041507
1.083621142031681
1.096148302578152
1.106565292368991
1.079222913221029
1.079269325193255
1.083644456190365
1.090581437654589
1.114554783014399
1.111722233556334
1.109074571455149
1.107364080135993
1.117738644740656
1.117340299272523
1.116757210454488
1.116095121249225
1.115516203706054
1.115032277178393
1.114596713897279
1.114418031362274
1.107628323612051
1.10967757361146
1.11284652213397
1.116551022686377
1.098896551926662
1.107129995204683
1.114787186267934
1.121709201498587
1.115548227892867
1.121861355990667
1.127195127009785
1.133652969583169
1.135489577650445
1.127424866528109
1.12022251736128
1.114415490710023
1.133336866130281
1.131732035263277
1.122625311862403
1.114653080108118
1.033863124154052
1.129533484391238
1.124608857581464
1.11528654716639
0.7491867400867377
1.09721973735953
1.125151365869117
1.11592556784691
1.116009624177739
1.12193391223055
1.03992898771054
0.6014302541115428
1.116360928235099
1.115970878308228
0.9897407115870193
0.6201179714425334
1.116240080653221
1.105653007349729
0.9245576374863859
0.62702889010555
1.115098650655656
1.089858469910052
0.8706996413769306
0.6481538432087773
0.6755484003940193
0.8299551912154406
1.063644414927218
1.112385554789419
0.7069551003210359
0.806854266629661
1.030351152893786
1.106569606870254
0.7458095410669521
0.8215663918510624
0.9953800587018609
1.097647786223972
0.7931516765781316
0.8625874217692479
0.976750660332996
1.083827546974159
1.067190450624374
0.9980716367888084
0.9255035438613507
0.8562937019920818
1.067640186153351
1.045189721419779
1.013084371511475
0.9393420160579971
1.082100440420862
1.097770814132566
1.104579085282391
1.043631788646066
1.086183300447238
1.128201407703667
1.184749015980815
1.167083682494674
1.091918300165768
1.16162661908805
1.249977281460468
1.354897454470909
1.105106842760375
1.182964940148153
1.290858104321101
1.55566855641203
1.115948183243941
1.182505989685314
1.297020139908276
1.754565253596866
1.12178548920865
1.170153420294182
1.268215137698208
1.536745238318664
1.173521697004389
1.243599186888412
1.160652978128837
1.124609275089755
1.014659734520187
1.212800047795281
1.150126938121247
1.124151069276162
0.8924370249939557
1.181101958749375
1.141102177470878
1.121739613715143
0.7550026911813935
1.135031320944867
1.129879075782191
1.119887232166861
0.7065590772930312
1.085100127012643
1.116246381068754
1.118550012877585
0.7398096522669488
1.053770820092204
1.109644567692769
1.11783646377819
0.745647270539202
1.035307838528577
1.108710606163705
1.117731941351428
0.795746858604924
1.056251887625584
1.112748050917353
1.117887383562528
0.7912096597952789
1.021232105886235
1.104569674462363
1.117347796944514
0.7889136145764503
1.018129050207999
1.103841960888271
1.117315841771171
0.7822359481988871
1.014188382344471
1.102723540917957
1.117267363253807
0.7742170996386714
1.013446945088898
1.102527872048193
1.11724319866244
0.7957468586051857
1.056251887627026
1.112748050919422
1.117887383565214
0.7456472705389705
1.035307838529866
1.10871060616428
1.117731941352857
0.7398096522673343
1.05377082009332
1.109644567693393
1.117836463779199
0.7065590772924306
1.085100127014149
1.116246381069156
1.118550012877856
1.124609275089053
1.160652978128235
1.24359918688851
1.173521697004939
1.1241510692759
1.150126938120825
1.212800047795512
1.014659734519195
1.121739613714181
1.141102177470308
1.181101958751629
0.8924370249926752
1.119887232166256
1.129879075781109
1.135031320946665
0.7550026911809993
1.536745238322062
1.26821513769821
1.170153420294496
1.121785489208709
1.754565253599096
1.29702013990901
1.182505989684954
1.115948183244832
1.555668556412685
1.290858104321497
1.182964940148429
1.105106842760113
1.354897454470803
1.249977281461342
1.161626619088847
1.091918300164045
1.067190450622815
0.9980716367881414
0.9255035438595822
0.8562937019919301
1.067640186153207
1.04518972142078
1.013084371510867
0.9393420160577032
1.08210044042341
1.0977708141315
1.104579085282128
1.043631788646141
1.086183300444753
1.128201407703556
1.184749015980826
1.167083682494501
0.7931516765780826
0.8625874217687334
0.9767506603320307
1.083827546969675
0.7458095410672687
0.8215663918509749
0.9953800587011413
1.097647786223421
0.7069551003213063
0.8068542666296907
1.030351152895257
1.106569606868903
0.6755484003941272
0.8299551912150391
1.063644414924917
1.112385554788866
1.116009624177613
1.121933912230644
1.039928987710624
0.6014302541114057
1.116360928232539
1.115970878307806
0.989740711588077
0.6201179714429915
1.116240080649982
1.105653007345196
0.924557637485893
0.6270288901069253
1.11509865065406
1.089858469912337
0.8706996413770474
0.6481538432085288
1.11592556784686
1.115286547166474
1.114653080106385
1.114415490710149
1.125151365872485
1.124608857582107
1.122625311863587
1.120222517361753
1.0972197373612
1.129533484391538
1.131732035265058
1.127424866529436
0.749186740088211
1.033863124154382
1.133336866129977
1.135489577650245
1.11441803136279
1.11655102268282
1.121709201498393
1.133652969582316
1.114596713900876
1.112846522126859
1.114787186268
1.127195127009503
1.115032277184038
1.109677573603407
1.107129995206373
1.121861355992508
1.115516203712944
1.107628323606176
1.09889655192645
1.115548227893177
1.117738644745266
1.114554783016672
1.079222913218862
1.052949631040724
1.117340299268491
1.111722233561452
1.079269325189314
1.083621142031838
1.116757210447083
1.109074571460725
1.083644456188346
1.0961483025806
1.116095121249376
1.107364080135753
1.090581437652822
1.106565292371186
0.9975937503971654
1.092040867004877
1.116951887257846
1.117957540880367
0.9786772685833025
1.097763798975229
1.117438810742279
1.118005250197803
0.9812267343257662
1.104119599897098
1.117751601993109
1.118010650729885
0.9846376909634096
1.1092865426459
1.117937558966287
1.118015663523114
0.9914505610265114
1.115619318487483
1.118020325199122
1.118016164588847
0.9961133298557141
1.115498894150489
1.118011787045926
1.118016628202382
1.014805692967108
1.116460824875935
1.118015845282534
1.118016635774861
1.049245608070498
1.117167659011283
1.118016696145222
1.118016636066201
1.11801663592382
1.11801663570257
1.117990857308468
1.109983738757312
1.118016635923784
1.118016635427525
1.117969503463713
1.106353055598715
1.118016635922165
1.118016635257354
1.117904258328904
1.101280327294314
1.118016635913298
1.118016636761549
1.117722163750715
1.084631626682655
1.10380810530539
1.096855685572351
1.081093711814857
1.036922525323829
1.096855685622364
1.085592859865303
1.054648840588068
0.9845462723976022
1.081093711841217
1.054648840607113
0.9921343078583098
0.8898999088474696
1.036922525328702
0.9845462724041552
0.8898999088508172
0.7782685367496419
0.7481171677929325
0.7883164335246282
0.8638789626788463
0.9362548824811227
0.8038305850299389
0.809793016320953
0.841320280611184
0.8887362030315499
0.7966470662109824
0.8316626480014538
0.8638770241987844
0.8883054189657772
0.8302614053781348
0.8681764681629229
0.8902316702844545
0.9028515047681294
0.9195518280847323
0.9281962175750772
0.945382323217402
0.9772894597104259
0.9142587428175155
0.9284455886091721
0.9484954701675899
0.9990184573315328
0.9003863340950088
0.9219787560606426
0.946790132578478
1.061831936969184
0.8597751348077568
0.8819623155780892
0.912127526986295
1.148371303433579
1.158051111267535
1.194944095666726
1.163026284278178
1.15369102024151
1.276390295094678
1.295717148213029
1.239373872270438
1.206090094811508
1.432536671063513
1.356281607948852
1.286153906210916
1.239835407293081
1.166046666049392
1.095866508155835
1.080519951809173
1.077143796026073
1.149151349672714
1.145751659861283
1.143953250674978
1.142978578548875
1.18414712471306
1.166577100112272
1.152181647310314
1.14184778643784
1.206390930674101
1.179218547283009
1.154512554499562
1.137196944169915
1.064747829761353
1.053661468234903
1.043797740011184
1.026040533530796
1.144070027946026
1.054884871546274
0.7836758605869366
0.5050829270547668
1.139507665810624
0.9848552880571219
0.6035764486293581
0.306626574000729
1.127194925678982
0.8773047601153035
0.4031059504631627
0.09263014031558708
1.003875713060658
0.6525580973870545
0.2172748050478724
0.0302875276366916
0.4257724175168121
0.5126916174402163
0.5454552623021379
0.5975976330987277
0.3476155613615016
0.4903940075278724
0.5481454261945297
0.596631430587786
0.2073971605812873
0.4125127096598878
0.5211375282729662
0.5785740464272504
0.06268090608366259
0.2326147671994556
0.3744144307420406
0.4612259192470923
0.6226453130601994
0.6692008088987081
0.719905035956534
0.7877293491911789
0.6285846416302966
0.6774383613899108
0.7250825723577669
0.7832838678533375
0.6242255117058865
0.6785274021738147
0.724608789826371
0.7775494930640535
0.5496233597596744
0.6352968372027114
0.7153742815879816
0.7747023326948193
0.8524879919454389
0.9257513284758573
1.021118422846075
1.120054612460645
0.8474291396306599
0.9137491676556433
1.003725349250731
1.134731347893057
0.8403966874985067
0.9021550327812955
1.016894429922406
1.438085215881022
0.8359334169971235
0.8954382847587818
1.044394741077635
2.004310162403962
1.338924660819817
1.528872371800136
0.7014399001281812
1.262979573021006
1.424559070650749
1.292946557923342
0.9863623436894545
1.527630590554955
1.467883187426969
0.9036261732205271
1.063325861093201
1.509213543836762
1.129823195065559
0.3779030705559481
1.213384784242221
1.447260609532322
0.7579940498850778
0.5749402842873104
0.4688136983131384
0.3538172763003603
1.048406095962442
0.773307866409491
0.5676852864980428
0.2944079470132911
1.123716622839952
0.8471961322684495
0.5619075314767167
0.2189984311096086
1.101280746013054
0.8396151943822937
0.5364567678579446
0.1976239451391929
0.1273927815666445
0.2185140459825103
0.415036015823156
0.6212490407880178
0.201943515514529
0.05650426198340239
0.293700410468358
0.5730467752049454
0.2057603843007812
0.132716330560289
0.1534884544308269
0.4570039945723924
0.1736964754401593
0.1620271312979684
0.08425140015314633
0.3892469423719696
0.5828797497016371
0.5497365312472061
0.5213450460441138
0.5075966947866885
0.656860310851208
0.6013368518266118
0.5625315854438606
0.527233892963191
0.6744149514551891
0.5582200202456084
0.4396193689170153
0.3218864457005232
0.6803487777075744
0.4924804131410304
0.2785142297848592
0.09958255595171037
0.0631927393821044
0.08615458522916682
0.09113234759845586
0.08592883080626749
0.1659890364544342
0.0935209051694476
0.08372509517653651
0.09228050373776629
0.4438241532967664
0.3309096032794118
0.2012280716150121
0.07679102245679696
0.4721560894347718
0.4185989622783488
0.3346931929463872
0.2681955693459587
0.08592883080637662
0.09228050373758344
0.07679102245541666
0.2681955693456597
0.09113234759869708
0.0837250951761585
0.2012280716136989
0.3346931929459772
0.0861545852293895
0.09352090516877599
0.3309096032782506
0.4185989622779073
0.06319273938238126
0.1659890364535627
0.4438241532956834
0.4721560894341548
0.5075966947859283
0.5213450460431465
0.549736531246292
0.5828797497008802
0.5272338929621394
0.5625315854428555
0.6013368518255221
0.6568603108501256
0.3218864456994451
0.4396193689159346
0.5582200202443829
0.6744149514539626
0.09958255595144798
0.2785142297843147
0.4924804131402709
0.6803487777067236
0.3892469423713681
0.08425140015262235
0.162027131297599
0.173696475439188
0.4570039945716023
0.1534884544304662
0.1327163305603304
0.2057603842997879
0.5730467752041231
0.2937004104676521
0.05650426198357381
0.2019435155138612
0.6212490407872409
0.4150360158222472
0.2185140459818201
0.1273927815665951
0.3538172762990665
0.4688136983134713
0.5749402842916729
0.7579940498923412
0.2944079470117384
0.5676852864969093
0.7733078664104808
1.048406095965435
0.2189984311083382
0.5619075314749086
0.8471961322674619
1.123716622840573
0.1976239451381566
0.5364567678561155
0.839615194380549
1.101280746012947
1.262979573036435
0.7014399001294188
1.52887237179696
1.33892466081929
1.527630590561524
0.9863623436977644
1.292946557920775
1.424559070650291
1.509213543840534
1.06332586110119
0.903626173218176
1.467883187426284
1.447260609535743
1.21338478425037
0.3779030705568143
1.129823195065799
1.120054612460691
1.021118422846257
0.925751328476009
0.8524879919463293
1.134731347892765
1.003725349250704
0.9137491676556715
0.8474291396311571
1.43808521588011
1.016894429922264
0.9021550327812756
0.8403966874986204
2.004310162402517
1.044394741077443
0.8954382847587482
0.8359334169970871
0.7877293491917627
0.7199050359568178
0.6692008088991527
0.6226453130605305
0.7832838678535139
0.7250825723576624
0.6774383613902898
0.6285846416306055
0.7775494930637287
0.7246087898261847
0.6785274021740981
0.6242255117061696
0.7747023326943921
0.7153742815874352
0.6352968372014296
0.5496233597592721
0.5975976330980072
0.545455262301401
0.5126916174395065
0.4257724175170663
0.5966314305874768
0.5481454261941758
0.4903940075273481
0.3476155613619661
0.5785740464273846
0.5211375282730304
0.412512709659692
0.2073971605818039
0.461225919247825
0.3744144307422245
0.2326147671994838
0.06268090608389176
0.505082927056002
0.7836758605877945
1.054884871545935
1.14407002794529
0.3066265740022009
0.6035764486305023
0.9848552880571394
1.139507665809787
0.09263014031666929
0.4031059504643669
0.8773047601155982
1.127194925677912
0.03028752763648242
0.2172748050484904
0.6525580973868592
1.00387571305903
1.142978578548359
1.143953250675782
1.145751659863034
1.14915134967323
1.141847786436425
1.15218164731067
1.166577100113589
1.184147124713854
1.137196944168132
1.154512554499561
1.179218547284307
1.20639093067491
1.026040533528802
1.043797740010967
1.053661468235661
1.064747829761639
1.153691020244194
1.163026284281068
1.194944095667047
1.158051111266913
1.206090094814533
1.239373872273529
1.295717148213616
1.276390295094352
1.239835407296287
1.286153906214109
1.356281607949684
1.432536671063705
1.077143796028689
1.080519951811448
1.095866508154772
1.166046666048457
0.9772894597116053
0.9453823232143953
0.9281962175738842
0.9195518280848108
0.9990184573317382
0.948495470164169
0.9284455886078334
0.9142587428174793
1.061831936969785
0.9467901325750555
0.9219787560588311
0.9003863340948728
1.148371303434976
0.9121275269843301
0.8819623155782144
0.85977513481069
0.9028515047693664
0.8883054189655381
0.8887362030318006
0.9362548824803029
0.8902316702848924
0.8638770241981046
0.8413202806112962
0.8638789626776098
0.8681764681628934
0.8316626480009277
0.8097930163206604
0.788316433523947
0.830261405381495
0.7966470662138696
0.8038305850294061
0.7481171677932548
0.7728560246489374
1.043132975946388
1.10998916015629
1.117764760293793
0.7673039671484899
1.029567479167235
1.106897876157088
1.117568086662353
0.7695499351972007
1.026863787692732
1.104834588764477
1.117386690191708
0.7566935055621554
1.019191090682013
1.103252127353083
1.117281107927375
1.117347796943631
1.104569674462049
1.021232105885812
0.7912096597949242
1.117315841771132
1.103841960887747
1.018129050207826
0.788913614576801
1.117267363253874
1.102723540919046
1.014188382344088
0.7822359481997044
1.117243198662466
1.102527872049446
1.013446945088612
0.7742170996389157
1.11728110792789
1.117386690190946
1.117568086662294
1.11776476029556
1.103252127354281
1.104834588764667
1.106897876157261
1.109989160157225
1.019191090682366
1.026863787693175
1.029567479167815
1.04313297594727
0.7566935055619427
0.7695499351967712
0.7673039671480445
0.7728560246489584
)
;

boundaryField
{
    back
    {
        type            empty;
    }
    inlet
    {
        type            calculated;
        value           nonuniform List<scalar> 
16
(
1.11801663592382
1.11801663592381
1.118016635923496
1.118016635921205
1.11801663597706
1.118016635879319
1.118016636104844
1.118016513987007
1.118016513986251
1.118016636104703
1.118016635879316
1.118016635977033
1.11801663592382
1.118016635923785
1.118016635923437
1.118016635921066
)
;
    }
    front
    {
        type            empty;
    }
    top
    {
        type            calculated;
        value           uniform 0;
    }
    outlet
    {
        type            calculated;
        value           nonuniform List<scalar> 
16
(
1.117127948571219
1.117096392634525
1.117046230111985
1.117017330724728
1.117685696142561
1.117439504442453
1.117206137065871
1.117066967920494
1.1171279485703
1.117096392634394
1.117046230112112
1.11701733072483
1.11706696792097
1.117206137064946
1.117439504442584
1.117685696144408
)
;
    }
    bottom
    {
        type            calculated;
        value           uniform 0;
    }
    wall
    {
        type            calculated;
        value           uniform 0;
    }
}


// ************************************************************************* //
