/*--------------------------------*- C++ -*----------------------------------*\
  =========                 |
  \\      /  F ield         | OpenFOAM: The Open Source CFD Toolbox
   \\    /   O peration     | Website:  https://openfoam.org
    \\  /    A nd           | Version:  11
     \\/     M anipulation  |
\*---------------------------------------------------------------------------*/
FoamFile
{
    format      ascii;
    class       volScalarField;
    location    "0.0625";
    object      p;
}
// * * * * * * * * * * * * * * * * * * * * * * * * * * * * * * * * * * * * * //

dimensions      [0 2 -2 0 0 0 0];

internalField   nonuniform List<scalar> 
880
(
80
80
80
80.00000179059843
80
80
79.99999999999991
80.00005936327973
80
79.99999999999999
80.00000000000088
80.00076962852415
80
80
80.00000000002595
80.00052258913584
80
80.00000000000001
79.99999999999994
80.00000000007323
79.99999999999999
80
79.99999999999983
80
79.9999999946949
79.99999998513958
80.00205241387806
79.99291776101481
80.32134233258249
81.61702222647415
82.96457183169375
83.70322957080013
80.00000024672593
80.00000035583831
80.00000041670893
80.00000015487836
80.0000120697825
80.00001925016132
80.00002358701337
80.00001054361876
80.01540245986899
80.01793760557288
80.02064035745721
80.01590564757971
84.17000543404156
84.70828939695143
85.02247592439811
85.32951368375676
85.04176213455906
83.74999169114301
82.40120731943615
81.20373843592755
80.03989792040537
80.04721949312764
80.04156951134031
80.01959048715702
80.00006689689523
80.00007907200441
80.00006724952829
80.00003207727814
80.00000138416931
80.00000138835804
80.00000096312361
80.00000033657233
80.00000004143978
80.00000000095244
79.99999999998863
80.00000000000001
80.0000064080692
80.00000037843397
80.00000000304367
79.99999999918732
80.00428613066933
80.00031081080272
80.00000449456245
79.99999982805346
80.35692131406029
80.04112104479236
80.00114641271274
79.9999998675395
79.99999756302073
79.99999990457444
80.00000000003097
80
79.99999784261453
79.99999980287546
79.99999999007549
79.99999999987472
79.99995476654006
80.00003686043247
80.00000231120821
80.0000000595284
80.22520945436257
79.99360586742885
79.99975202407349
79.99999966376345
79.99999941123527
79.99994250494397
80.00399108231525
86.43619715804688
80.00000070803266
80.00003760136711
80.04723576538787
93.80092664714908
80.00000244121858
80.0001286165861
80.10225800502062
99.15728868569046
80.0000033599497
80.00018164186942
80.13763903258743
102.7379501820473
104.3453600648097
80.16029557432014
80.00022596168984
80.00000431095579
106.1018656661402
80.19546953493185
80.0003010683652
80.00000577728638
107.4103105731022
80.22275378793658
80.00036236802404
80.00000728877717
109.4329886100064
80.28857278919313
80.00054545496803
80.00001124823265
80.00001026237558
80.00049561495504
80.30478084042167
111.976044244125
80.00001269892955
80.00061519452403
80.35665735005425
113.2969560394006
80.00001682364356
80.0007653097135
80.3874152781961
111.352996537106
80.00001178788615
80.00041697492678
80.17538255746265
99.91032597455192
79.9998693708979
80.00140812599479
80.34847115985933
86.7808817667558
79.99992350160069
79.99579195128244
79.87962684242748
73.23326424157746
79.99998698110623
79.99338044124922
79.39165567564702
63.17447200370783
79.99998820065242
79.99161742888928
78.78230789159875
55.19578669912708
54.86505104829875
79.09379133868046
79.99588230163656
79.99999254641611
54.73235811421825
79.18848667071573
79.9965367897114
79.99999417030915
57.85273807654617
79.47780831662337
79.9981694834193
79.99999705654817
57.36095575119212
79.40840354454625
79.99785428503482
79.9999966598038
65.50916700882362
79.81038879714733
79.99947579818027
79.99999915452862
73.26122743587379
79.96285796972445
79.99992797244772
79.99999990773753
77.57848186985447
79.99164110756143
79.99998548067076
79.99999998356043
78.83799763576403
79.99380759919762
79.99998510483984
79.99999996952326
76.16442445037178
79.93166441756134
79.99958636635554
79.99999888974625
76.22051181014723
79.93170348889727
79.99958619800009
79.99999888704522
76.30109865034092
79.93146856880269
79.99958395740936
79.99999886547397
76.58225540986713
79.93311622689312
79.99958613516699
79.99999885121284
78.83799763561142
79.99380759895097
79.99998510448459
79.99999996981325
77.57848186946286
79.99164110723805
79.99998547985363
79.99999998364476
73.26122743581573
79.96285796985461
79.99992797244715
79.99999990780138
65.50916700897247
79.81038879783348
79.9994757982372
79.99999915432099
79.99999254689652
79.9958823026921
79.09379133867171
54.86505104825511
79.9999941707167
79.99653678989641
79.18848667105102
54.73235811424842
79.999997056081
79.99816948391089
79.47780831667941
57.85273807720058
79.99999665991011
79.99785428517839
79.40840354532322
57.36095575079424
55.19578669846626
78.7823078912398
79.99161742824722
79.99998820052782
63.17447200312056
79.39165567516514
79.99338044046245
79.99998698014481
73.23326424143617
79.87962684181463
79.99579195130545
79.99992350094996
86.78088176692221
80.34847115969228
80.00140812575839
79.99986937194267
80.00001026212449
80.00049561551873
80.30478084076135
111.9760442447337
80.00001269906018
80.00061519475364
80.35665735005314
113.2969560393403
80.00001682416864
80.00076530971904
80.38741527773841
111.3529965370496
80.0000117888151
80.00041697492291
80.17538255712789
99.91032597445053
109.4329886111283
80.28857278862247
80.00054545578116
80.00001124811587
107.4103105741527
80.22275378902923
80.00036236819116
80.00000728895253
106.1018656662975
80.19546953596578
80.00030106908713
80.00000577713875
104.3453600644871
80.16029557344069
80.00022596169569
80.00000431079314
79.99999941166432
79.9999425054704
80.00399108229816
86.43619715734386
80.0000007075913
80.00003760083162
80.04723576552769
93.80092664708957
80.00000244097373
80.0001286165669
80.10225800559898
99.15728868590554
80.00000335965203
80.00018164203797
80.13763903187497
102.7379501828177
79.99999966367622
80.00000005970448
79.99999999987615
80
79.9997520233871
80.00000231111375
79.99999999053919
79.99999999985054
79.99360586757676
80.0000368607423
79.9999998025654
79.99999990441871
80.22520945437222
79.9999547665996
79.99999784263477
79.99999756303367
79.99999999999991
79.99999999919223
79.99999982821168
79.99999986770464
79.99999999998947
80.00000000292658
80.00000449551086
80.0011464127293
80.00000000103137
80.00000037843317
80.00031081026113
80.04112104487373
80.00000004156323
80.00000640793377
80.00428613124822
80.35692131382733
80.0000013835518
80.00006689631647
80.03989792010111
85.04176213435987
80.00000138783773
80.00007907213154
80.04721949312386
83.74999169065752
80.00000096296134
80.00006725024548
80.04156951120683
82.40120731931924
80.00000033641487
80.00003207768141
80.01959048710937
81.20373843557537
85.32951368385126
80.01590564865617
80.00001054322126
80.00000015457442
85.0224759243048
80.02064035871484
80.00002358686146
80.00000041687662
84.70828939783038
80.01793760547831
80.00001925038499
80.00000035565036
84.17000543386924
80.01540245716149
80.00001206954293
80.00000024689191
83.7032295710649
79.99291776298007
80
80.00000000007533
82.9645718314392
80.00205241221184
80
79.99999999999999
81.61702222666277
79.99999998501353
80
79.99999999999999
80.32134233221178
79.99999999460005
80
79.99999999999989
80
79.99999999999997
80
80.00000180111896
80.00000000000003
80.00000000000001
79.99999999999999
80.0000593610051
80
80
80
80.00076962910289
80
80
80.00000000003128
80.00052258909659
79.99997007853777
79.99996953458515
80.00078615342329
80.0802730918698
79.99996955030188
79.99956441540236
79.99908265207925
80.3441886674491
80.00078614340343
79.99908264139542
80.11972444692616
83.22962256629094
80.08027309514436
80.34418866404538
83.22962257197172
99.28958228158746
129.1224741493835
107.294164184293
96.32723071274413
86.45377089285171
126.3803633794944
120.4887736295358
116.629441046746
106.2950671856829
123.2659530196761
122.1452870750057
121.6566894039921
117.6109821865586
124.042878159725
123.6914760961898
124.3191048375558
122.7746236965628
125.6504372532508
126.4535867963504
126.7318221692663
129.4555892180643
126.7218103101079
127.8884724000458
128.1785582687374
132.0740227050132
125.4218570171145
126.364994160174
126.6449103204479
130.7523401062739
126.2246135546146
127.5101396108745
127.8720544814482
129.1852727364678
108.9898724706081
89.70469069974439
83.53141630331645
82.13098091133966
96.75684854963606
78.79728257418365
80.40006706034394
81.26041160028096
86.75172487380895
76.88836399704205
80.48662287154778
81.95092326960983
73.09176106749194
76.98300193002449
80.73355326892678
81.89805817028416
80.96526639420927
80.16978389087416
80.00848327873955
80.00006915117632
80.86119787998014
80.22704983208841
80.01480678397496
80.00014710512725
81.375731342458
80.38505656173666
80.02766051655277
80.00031666600603
80.83355598273856
80.04817283701259
79.98548650267314
79.99928052376774
79.9999975520343
79.99999657464365
80.00007934082956
91.05122947149536
79.99999839613179
79.999996828625
80.00013286988812
99.1289688186601
79.99999694517081
79.99999699041426
80.00018199905523
105.4476972298117
79.9999948454263
79.99999797468489
80.00021582185683
108.1007935242536
177.7346538292871
188.9437132597237
198.6590178316229
207.5782153142821
205.4920445786191
202.2524036629204
205.8241644513157
214.9276500911216
207.7913456016901
200.3686519783503
206.0790323777741
215.0273477184136
222.8016093608303
207.4316975702278
207.2621906407957
215.0962903533735
210.4926327982709
211.6598668809144
212.1027684621117
212.5765432311526
219.0830918905597
220.1573320565378
220.3383609964857
220.2793615670008
219.7423462392851
220.8347683584193
220.8753679400173
220.7606538298167
220.69589381798
222.2219052049146
222.2746127411789
222.009489920939
212.9094686793735
210.6156836280983
198.3091753413351
163.6277960249744
220.4801626613364
217.1671609536614
204.3859081246192
177.5397355102215
220.6846657573973
217.2804909480955
203.4138733336641
187.7306346889876
222.6345120261555
220.7563657392326
207.892527356557
212.4402239176773
100.2205879119673
29.845711855212
11.09916557933225
7.633432623623831
83.83967656241721
18.44865205766444
8.405021242249461
6.126174891600132
52.30606828119117
12.42784788828299
8.344891200390228
6.978331264248613
30.63714836776212
5.098612187717647
8.998286949763356
8.490281078761319
8.300019247762405
8.418154447045216
9.058458529947201
7.634280180822937
5.77246694620812
6.167512211625365
7.010552953821638
5.601125740134114
6.618719094077187
7.283573175250496
7.9584161254079
6.753642343860989
8.38558993527575
9.383771693439162
9.322492273821181
7.221984035870624
28.59482815293238
47.56338071252712
56.89866156196368
63.4614374635007
21.1644529094381
39.80317515684914
48.12274484104503
59.73914932464429
18.69195377591315
37.4865731896364
45.87808585143051
59.01619035050318
12.55960462396788
26.68689130519506
40.20934605999383
53.02850125768766
48.30223052695538
31.12309322743064
31.12552079016372
34.69616751959234
38.51970832243351
18.16979042534782
8.78716684409938
15.96535515304204
29.72604833618788
11.37804401352065
5.403826904379725
5.39293286078914
18.79433705165926
3.854899745085677
2.265798842522732
5.952596964794695
7.949212941935225
7.962303866993873
8.204652672188494
10.68820314695242
8.741519955332283
12.07431305384008
14.89732794354154
23.97358227826461
22.95337484532685
24.23307305633877
22.63666949210851
22.40831528901258
33.25544033423144
30.05608186213832
24.91830872876564
19.69909756912704
10.68820314693853
23.97358227824176
22.40831528902053
19.69909756913687
8.204652672185482
14.89732794350295
22.6366694921206
24.91830872877478
7.962303866989775
12.07431305382709
24.23307305626581
30.05608186202901
7.949212941939816
8.741519955345286
22.95337484528281
33.25544033405752
34.69616751940017
31.12552078997323
31.12309322729473
48.30223052659425
15.96535515299551
8.787166844107885
18.16979042530878
38.51970832227386
5.392932860797385
5.403826904374268
11.37804401347982
29.72604833611492
5.952596964802638
2.26579884252543
3.854899745083775
18.79433705164106
53.02850125765146
40.20934606009505
26.68689130537956
12.55960462401071
59.01619035038716
45.87808585142209
37.48657318976233
18.6919537759304
59.73914932454737
48.12274484088824
39.80317515693834
21.1644529094076
63.46143746338227
56.89866156176707
47.56338071260566
28.59482815285438
7.634280180703566
9.058458530092581
8.41815444706303
8.30001924771706
5.601125740112681
7.010552953857579
6.167512211658428
5.772466946220713
6.753642343859642
7.958416125435968
7.283573175284913
6.618719094091244
7.221984035879564
9.322492273832843
9.383771693468038
8.385589935288113
7.633432623409174
11.09916557911734
29.84571185516131
100.2205879119019
6.126174891572922
8.405021242161123
18.44865205758037
83.83967656193593
6.978331264210438
8.344891200300607
12.42784788826758
52.30606828094954
8.490281078714686
8.998286949710712
5.098612187730982
30.63714836770449
163.6277960246953
198.3091753413744
210.6156836281461
212.9094686799992
177.5397355099279
204.3859081246249
217.1671609540939
220.4801626622101
187.7306346888191
203.413873333915
217.2804909485534
220.6846657578861
212.4402239176143
207.8925273567459
220.7563657396763
222.6345120267192
212.5765432321286
212.1027684628331
211.6598668811199
210.4926327976609
220.279361567746
220.3383609968983
220.1573320568699
219.0830918906148
220.7606538299323
220.875367940392
220.8347683588084
219.7423462388238
222.0094899210888
222.2746127416801
222.2219052052802
220.6958938173325
207.5782153155078
198.6590178315848
188.9437132596642
177.7346538290098
214.9276500918309
205.8241644512387
202.2524036629278
205.4920445784013
215.0273477189991
206.0790323777448
200.3686519782083
207.7913456013629
215.0962903540352
207.2621906407209
207.4316975700867
222.8016093604258
91.05122947149093
80.00007934067621
79.99999657454651
79.99999755206092
99.12896881858555
80.00013286975039
79.99999682852869
79.99999839621709
105.4476972296604
80.00018199369126
79.99999699036499
79.99999694528353
108.1007935240192
80.00021582672613
79.99999797468868
79.9999948455884
80.00006915122854
80.00848327873737
80.16978389118979
80.96526639374059
80.00014710515134
80.01480678394336
80.22704983241901
80.86119787935557
80.00031666598252
80.02766051652895
80.38505656203968
81.3757313419695
79.99928052377629
79.98548650257591
80.04817283737447
80.83355598199094
82.13098091112487
83.53141630322803
89.70469069938179
108.9898724705156
81.26041160007804
80.40006706030476
78.79728257385041
96.75684854966472
81.95092326934399
80.48662287152661
76.88836399682054
86.75172487416175
81.8980581700348
80.7335532688755
76.98300192984989
73.09176106763636
129.4555892177144
126.7318221688783
126.4535867963497
125.6504372536899
132.0740227047581
128.1785582685757
127.8884723999385
126.7218103103657
130.7523401061168
126.6449103204246
126.364994160013
125.421857017095
129.1852727363905
127.8720544813685
127.5101396107873
126.2246135548771
122.7746236968433
117.6109821861424
106.2950671862079
86.45377089284594
124.3191048378455
121.6566894035826
116.6294410471357
96.32723071425906
123.6914760966513
122.1452870747607
120.4887736300158
107.294164184541
124.0428781599523
123.2659530194776
126.3803633795503
129.1224741501259
78.75389361382069
79.98950428937609
79.99995493133372
79.99999989773765
78.15337357860291
79.97831249855949
79.99988743864991
79.99999971278713
77.61485095421186
79.96108246969767
79.99977178097917
79.99999937391931
76.23170617515817
79.93116168397619
79.99960113957599
79.99999892413639
79.99999889008443
79.99958636621615
79.93166441743749
76.16442444986106
79.99999888728725
79.99958619839374
79.93170348842305
76.22051181006574
79.99999886513658
79.99958395779682
79.93146856863895
76.30109865012601
79.99999885019412
79.99958613566058
79.93311622545558
76.58225540964605
79.99999892397112
79.99999937371003
79.99999971169758
79.99999989654191
79.99960113966783
79.9997717809697
79.99988743846522
79.99995493081214
79.93116168428584
79.96108246917058
79.97831249906194
79.98950428898488
76.23170617473744
77.6148509536919
78.15337357855464
78.75389361396198
)
;

boundaryField
{
    back
    {
        type            empty;
    }
    inlet
    {
        type            zeroGradient;
    }
    front
    {
        type            empty;
    }
    top
    {
        type            zeroGradient;
    }
    outlet
    {
        type            fixedValue;
        value           uniform 80;
    }
    bottom
    {
        type            zeroGradient;
    }
    wall
    {
        type            zeroGradient;
    }
}


// ************************************************************************* //
