/*--------------------------------*- C++ -*----------------------------------*\
  =========                 |
  \\      /  F ield         | OpenFOAM: The Open Source CFD Toolbox
   \\    /   O peration     | Website:  https://openfoam.org
    \\  /    A nd           | Version:  11
     \\/     M anipulation  |
\*---------------------------------------------------------------------------*/
FoamFile
{
    format      ascii;
    class       volVectorField;
    location    "0.0625";
    object      U;
}
// * * * * * * * * * * * * * * * * * * * * * * * * * * * * * * * * * * * * * //

dimensions      [0 1 -1 0 0 0 0];

internalField   nonuniform List<vector> 
880
(
(25 -7.768126373978579e-16 0)
(25 -5.804862950367135e-16 0)
(25 -6.881602922800466e-15 0)
(25.00000014317212 -1.532734794723838e-07 0)
(25 1.210301178234613e-15 0)
(25 -1.471579514052269e-15 0)
(25.00000000000002 -1.664700254447593e-13 0)
(25.00000472283775 -1.757918228892143e-05 0)
(25 0 0)
(25.00000000000001 1.704590777240664e-15 0)
(25 -1.943845289118622e-12 0)
(24.99997933620372 -7.487504770911544e-05 0)
(25 0 0)
(25 -1.058794152545905e-15 0)
(25.00000000011808 -9.585404337944532e-11 0)
(24.9994050072938 -0.001022940332573072 0)
(25 -8.037090432278406e-16 0)
(25 -7.986667703868216e-16 0)
(25.00000000000001 -2.463511624208825e-14 0)
(25.00000000000002 1.261697439520496e-11 0)
(25 -1.477214994935211e-15 0)
(25 3.34664275694222e-15 0)
(25.00000000000003 1.088586413954864e-14 0)
(25 -3.138466974809204e-14 0)
(25.00000001581496 -1.304157042204314e-08 0)
(24.99999985693935 1.341407209346957e-07 0)
(25.00015763189542 0.0002871925961736823 0)
(24.9996139372535 -0.001144796059832625 0)
(24.96605770829707 0.03659747765477285 0)
(24.85044293923539 0.2070012556821419 0)
(24.77887195947958 0.4235900583851097 0)
(24.78916239943339 0.5625258405388099 0)
(24.99999996522242 -3.103659711835862e-08 0)
(24.9999999354982 -5.22888155020383e-08 0)
(24.99999991801122 -6.318393543875789e-08 0)
(24.9999999764991 -2.764392115908257e-08 0)
(24.99999937028955 1.85965388962444e-06 0)
(24.99999954086441 3.082545976776704e-06 0)
(24.99999964961615 3.767877271839523e-06 0)
(24.99999890956701 1.506628792333756e-06 0)
(24.99945282652354 0.002328225412886168 0)
(24.99938066797344 0.002732975515172229 0)
(24.99944048582739 0.003147563380908286 0)
(24.99883946526367 0.002332743837178698 0)
(24.79051831781668 0.6391432333383747 0)
(24.80478806341653 0.7268029107703466 0)
(24.82859788360931 0.7660718723326635 0)
(24.7356968483869 0.8185106459530448 0)
(24.97609587306784 0.835235618715528 0)
(25.1554744273514 0.6662022718626081 0)
(25.21395150438987 0.3714316771346342 0)
(25.13684646457668 0.1503416376363083 0)
(24.99928859957711 0.006298401650134996 0)
(24.9996839465015 0.00736395479511475 0)
(25.00000336844526 0.006524776691838022 0)
(25.00091914126262 0.003000404608518665 0)
(24.99999901092951 1.095719595568236e-05 0)
(25.00000016644164 1.275365414138539e-05 0)
(25.0000010456442 1.085890755380496e-05 0)
(25.00000150688558 5.0208299449142e-06 0)
(24.99999976115139 -1.817673055254579e-07 0)
(24.99999972091256 -1.938256856379123e-07 0)
(24.99999976904033 -1.431249116955657e-07 0)
(24.99999989379908 -5.676907548135769e-08 0)
(24.99999998048677 -9.310395218066323e-09 0)
(24.99999999902046 -4.48159869374338e-10 0)
(24.99999999999998 -4.908635417739886e-12 0)
(24.99999999999999 -8.417570092891337e-14 0)
(25.00000048798452 9.350131358510103e-07 0)
(25.00000003565576 5.091134432987183e-08 0)
(25.00000000044503 3.232962097246669e-10 0)
(24.99999999996405 -1.446384765754553e-10 0)
(25.00038054899718 0.0005832649020561381 0)
(25.0000338796769 3.70808297614702e-05 0)
(25.00000055357881 4.7182482930351e-07 0)
(24.99999999536384 -2.719665253034341e-08 0)
(25.04379631469334 0.0376289205944944 0)
(25.00529349549517 0.003896659926514501 0)
(25.00015565844011 0.0001027854273811018 0)
(25.00000033085703 -2.910551688732097e-07 0)
(24.99999974151515 -3.392317366365017e-07 0)
(24.99999999617473 -1.436628192246244e-08 0)
(24.99999999996112 -2.968002570387517e-11 0)
(25 8.810560118081186e-14 0)
(24.99999987456465 -5.49579106514163e-07 0)
(24.99999999953761 -3.200445204141308e-08 0)
(25.00000000012659 -1.505339683687894e-09 0)
(24.99999999999757 -3.360795325730747e-11 0)
(24.99992528979697 7.336421658482926e-06 0)
(24.99999745786709 5.160251777159497e-06 0)
(24.99999990117034 3.605344032690126e-07 0)
(24.99999999125857 -5.404534041321212e-09 0)
(24.9985044672154 0.04266846832329006 0)
(25.00066105762012 -0.0008353728184691032 0)
(25.00000934257446 -3.81934486672893e-05 0)
(24.9999999994096 -5.207115348008017e-08 0)
(25.00000009035603 -7.884946892436831e-08 0)
(24.9999891542851 -1.186563933068121e-05 0)
(24.99878911071472 -0.0004463157439901973 0)
(24.17011632902988 0.370165754236836 0)
(24.99999995834605 -1.066544775902436e-07 0)
(24.99999190510218 5.433172816582237e-06 0)
(24.99338133737704 0.00534682973709836 0)
(23.22713259348541 1.334127291514946 0)
(24.99999963337618 -3.550445628543558e-07 0)
(24.99999214675982 1.957255194337879e-05 0)
(24.99114588523986 0.01377254327828928 0)
(23.03204261207886 2.345145767849795 0)
(24.99999946209207 -5.10633458979465e-07 0)
(24.99999091156535 2.773998552141493e-05 0)
(24.99019407218986 0.01892610035218576 0)
(23.11653993455339 2.834559835762199 0)
(23.04822828682903 3.042853439428336 0)
(24.98829678701102 0.02220470185880265 0)
(24.99998805058899 3.468698702291801e-05 0)
(24.99999931690634 -6.587725389841782e-07 0)
(22.99709127320211 3.21109609993275 0)
(24.98676950044152 0.02682991601361922 0)
(24.99998598439221 4.591966542467433e-05 0)
(24.99999905509883 -8.784982658783543e-07 0)
(22.83970668610543 3.363938208228758 0)
(24.98294409284953 0.03062386917800313 0)
(24.9999787150916 5.545211006219654e-05 0)
(24.99999887276342 -1.106970846415067e-06 0)
(22.73766643353001 3.583264266933667 0)
(24.98063373254102 0.04032760829139086 0)
(24.99997609375253 8.50170623045926e-05 0)
(24.99999815112875 -1.693428082040832e-06 0)
(24.99999826672254 -1.656014060474442e-06 0)
(24.99997680956627 7.619365551431815e-05 0)
(24.9784289634653 0.04188091369202984 0)
(22.56223025650625 3.89921303918002 0)
(24.99999791727753 -2.002509834486897e-06 0)
(24.99996790521762 9.427023427571869e-05 0)
(24.97477183083149 0.0492921127030595 0)
(22.5360458239983 4.062702730644945 0)
(24.999997297329 -2.653539953591426e-06 0)
(24.99996392242565 0.0001185355328252764 0)
(24.97372842118338 0.05392859134624143 0)
(22.72269971126259 3.906601813240251 0)
(24.99999797969974 -1.933868615620774e-06 0)
(24.99996180656377 8.31982948042963e-05 0)
(24.97399089996646 0.03837733294711729 0)
(23.71902971900053 2.82771375614125 0)
(24.99998977649013 -2.132604413285909e-05 0)
(25.00035135490813 7.84216127020726e-05 0)
(25.04090925688287 0.04039539308414517 0)
(25.52367368568119 1.526091504218348 0)
(25.00000092775185 -8.142456640620825e-06 0)
(24.99967525486848 -0.0006435250756911019 0)
(25.0017913704513 -0.02853838619164747 0)
(25.25582562146572 -0.5965883051795843 0)
(24.99999886727227 -2.049831064480274e-06 0)
(24.99930685793609 -0.0008014811163452283 0)
(24.92552699442622 -0.06559486975788728 0)
(23.47367800895324 -1.504085378499338 0)
(24.99999876542354 -1.578796535469604e-06 0)
(24.99880687102043 -0.0007721594871992186 0)
(24.81568406453448 -0.06432045542908754 0)
(21.56108193137477 -0.941860885894921 0)
(21.16125809844492 -0.4687048509541384 0)
(24.85748408173995 -0.06159900154216396 0)
(24.99948704214152 -0.0005307594291150501 0)
(24.99999945111118 -1.071047236815544e-06 0)
(21.37536868601769 0.1104266427975281 0)
(24.87244099522532 -0.03896574708565562 0)
(24.99952045960111 -0.0003710417289211617 0)
(24.99999945963718 -7.808502335163029e-07 0)
(21.97755741528841 0.02487700325552575 0)
(24.92043005072697 -0.03330306561811118 0)
(24.99978230713287 -0.0002275462976882567 0)
(24.99999979849757 -4.22157964236319e-07 0)
(21.7357228309094 0.1697801394868451 0)
(24.90302030530664 -0.0325482062754346 0)
(24.99970517821657 -0.000253499009792282 0)
(24.99999970581491 -4.752673993661919e-07 0)
(22.97804808760847 0.3818993061940288 0)
(24.96265790989537 -0.01137422502157363 0)
(24.99991421571892 -6.297388536584117e-05 0)
(24.99999991301787 -1.157028505021961e-07 0)
(24.18013093315041 0.2539146499344586 0)
(24.99265872037534 -0.003079559251408133 0)
(24.99998954811085 -9.285543512955791e-06 0)
(24.99999999122642 -1.282514932511109e-08 0)
(24.81396470247747 -0.005270901871539589 0)
(24.9993309050729 -0.0009581726296020392 0)
(24.99999939907404 -1.999870673484371e-06 0)
(24.99999999968482 -2.462776725958441e-09 0)
(25.00385917864118 -0.1523331447902008 0)
(25.00041016518295 -0.001232339463877024 0)
(25.00000143777227 -3.395050077540674e-06 0)
(24.99999999992642 -5.377627363274622e-09 0)
(24.50899265060171 -0.003605012905225553 0)
(24.98960903811681 -1.331492789097874e-05 0)
(24.99993599395863 -2.443682606274185e-08 0)
(24.99999982967794 -8.078349527019241e-12 0)
(24.51069698703868 -0.01613895916048704 0)
(24.98966345873953 -4.194341123368969e-05 0)
(24.99993602668558 -6.741642945850325e-09 0)
(24.99999982929144 4.689743235589585e-10 0)
(24.50721249385431 -0.04053600915080832 0)
(24.98971194080065 -9.953526374579947e-05 0)
(24.99993584381303 1.199051907405896e-07 0)
(24.99999982627349 2.393422598472398e-09 0)
(24.49442374782823 -0.02955006178775616 0)
(24.98973048806562 0.0001412464686842828 0)
(24.99993583799025 1.022091147261638e-06 0)
(24.99999982321634 3.921265169560794e-09 0)
(25.00385917870016 0.1523331447803209 0)
(25.00041016522762 0.001232339477246019 0)
(25.00000143783636 3.395056070296165e-06 0)
(24.99999999987509 5.402402851360154e-09 0)
(24.81396470254419 0.005270901892821322 0)
(24.99933090512707 0.0009581726256554244 0)
(24.99999939919765 1.99989551777003e-06 0)
(24.99999999967123 2.461828909089514e-09 0)
(24.18013093315087 -0.2539146498435852 0)
(24.99265872035534 0.003079559297204291 0)
(24.99998954810341 9.285578074563366e-06 0)
(24.9999999912238 1.282270182462033e-08 0)
(22.97804808751225 -0.3818993062462104 0)
(24.96265790977395 0.01137422501693081 0)
(24.99991421570537 6.297387792189334e-05 0)
(24.99999991304768 1.156998995096435e-07 0)
(24.99999945101809 1.071013798201989e-06 0)
(24.99948704196947 0.0005307595110080309 0)
(24.85748408167077 0.06159900148315023 0)
(21.16125809837877 0.4687048509724281 0)
(24.99999945957346 7.809093210988923e-07 0)
(24.99952045959448 0.0003710417180873169 0)
(24.87244099516462 0.03896574711742034 0)
(21.37536868596429 -0.1104266428649599 0)
(24.99999979857026 4.221676777549012e-07 0)
(24.99978230705763 0.0002275462736268903 0)
(24.9204300507261 0.03330306563962632 0)
(21.97755741520572 -0.02487700327930044 0)
(24.99999970580724 4.752487870443846e-07 0)
(24.99970517818384 0.0002534990291594213 0)
(24.90302030521494 0.03254820621163901 0)
(21.73572283093165 -0.1697801394028176 0)
(21.56108193145183 0.9418608858182869 0)
(24.81568406462713 0.06432045539606328 0)
(24.99880687111517 0.0007721593565132147 0)
(24.99999876547557 1.578758399519777e-06 0)
(23.47367800902171 1.50408537859715 0)
(24.92552699449846 0.06559486975831957 0)
(24.99930685805774 0.0008014811407363136 0)
(24.9999988673997 2.04982646040667e-06 0)
(25.25582562146797 0.596588305189546 0)
(25.00179137055093 0.02853838621420913 0)
(24.99967525487536 0.0006435250738852288 0)
(25.00000092783879 8.142530141905148e-06 0)
(25.52367368565643 -1.526091504227926 0)
(25.04090925692584 -0.04039539308497874 0)
(25.00035135493968 -7.842157768823105e-05 0)
(24.99998977633852 2.132604219160353e-05 0)
(24.9999982667684 1.656010407627598e-06 0)
(24.99997680947597 -7.619367067311892e-05 0)
(24.97842896341617 -0.04188091369299954 0)
(22.562230256412 -3.899213039166128 0)
(24.99999791726065 2.002502017662727e-06 0)
(24.99996790517185 -9.42702348822182e-05 0)
(24.97477183081187 -0.04929211268605304 0)
(22.53604582400295 -4.062702730638092 0)
(24.99999729724313 2.653538343166031e-06 0)
(24.99996392242546 -0.0001185355158896788 0)
(24.97372842125629 -0.0539285913272553 0)
(22.72269971126983 -3.906601813243404 0)
(24.99999797955804 1.933851240301554e-06 0)
(24.99996180656678 -8.319826583669407e-05 0)
(24.97399090001068 -0.03837733293647648 0)
(23.71902971901034 -2.827713756140223 0)
(22.73766643337891 -3.583264266945602 0)
(24.98063373263083 -0.04032760825839041 0)
(24.9999760936265 -8.501708526519706e-05 0)
(24.99999815114028 1.693432658944738e-06 0)
(22.8397066859984 -3.363938208211771 0)
(24.98294409265797 -0.03062386918121446 0)
(24.99997871508175 -5.545211730415034e-05 0)
(24.99999887273423 1.106971487553742e-06 0)
(22.99709127326601 -3.211096099920359 0)
(24.98676950030234 -0.02682991604300852 0)
(24.99998598425636 -4.591967802823743e-05 0)
(24.99999905512649 8.784969897700194e-07 0)
(23.04822828664415 -3.042853439494131 0)
(24.98829678718935 -0.02220470183610539 0)
(24.999988050607 -3.46869943961514e-05 0)
(24.99999931693084 6.58772499201762e-07 0)
(25.00000009028927 7.885090763583079e-08 0)
(24.99998915419174 1.186564132230551e-05 0)
(24.9987891107358 0.0004463157527274018 0)
(24.17011632912827 -0.370165754241743 0)
(24.99999995841462 1.066516620039376e-07 0)
(24.99999190520178 -5.433172805016791e-06 0)
(24.99338133729965 -0.005346829753129804 0)
(23.22713259353288 -1.334127291492398 0)
(24.99999963341389 3.550442053044162e-07 0)
(24.99999214675346 -1.957255572229352e-05 0)
(24.99114588525199 -0.01377254329017296 0)
(23.0320426119684 -2.345145767875651 0)
(24.99999946213859 5.106332904619569e-07 0)
(24.99999091153962 -2.773999195912354e-05 0)
(24.99019407219245 -0.01892610034000182 0)
(23.11653993465224 -2.83455983571679 0)
(24.99999999942323 5.207093073456989e-08 0)
(24.99999999123116 5.405706418481383e-09 0)
(24.99999999999746 3.229692666107402e-11 0)
(25 -2.783875644988706e-14 0)
(25.00000934268044 3.819345514019471e-05 0)
(24.99999990118441 -3.605378558446867e-07 0)
(25.00000000005526 1.511269195195191e-09 0)
(24.99999999998764 2.942095675120358e-11 0)
(25.00066105759655 0.0008353728082423356 0)
(24.99999745781963 -5.160243904202895e-06 0)
(24.99999999958602 3.199949945404214e-08 0)
(24.99999999620027 1.435918825600971e-08 0)
(24.99850446721354 -0.04266846832112715 0)
(24.99992528979191 -7.336415588721525e-06 0)
(24.99999987456205 5.495776109559888e-07 0)
(24.9999997415104 3.392288001039823e-07 0)
(25.00000000000002 6.428061567047711e-14 0)
(24.9999999999628 1.451207047089153e-10 0)
(24.99999999533782 2.718069224486655e-08 0)
(25.00000033082783 2.91058554802046e-07 0)
(25 5.046571786767816e-12 0)
(25.00000000046231 -3.234511729189665e-10 0)
(25.00000055343167 -4.718337505903125e-07 0)
(25.00015565844058 -0.0001027854077134106 0)
(24.99999999900775 4.476698649043284e-10 0)
(25.00000003565594 -5.091124192223239e-08 0)
(25.00003387976032 -3.708078836748733e-05 0)
(25.00529349548345 -0.003896659941646767 0)
(24.99999998046816 9.312208933399447e-09 0)
(25.00000048800245 -9.350233526436481e-07 0)
(25.00038054890046 -0.0005832649474174992 0)
(25.04379631473308 -0.03762892054399439 0)
(24.99999976124933 1.81754676941071e-07 0)
(24.9999990110166 -1.095720253483624e-05 0)
(24.99928859963212 -0.006298401703081557 0)
(24.97609587307388 -0.8352356187188562 0)
(24.99999972099289 1.938213274091699e-07 0)
(25.00000016643056 -1.275362386076659e-05 0)
(24.99968394651388 -0.007363954774952316 0)
(25.1554744274203 -0.6662022718780081 0)
(24.99999976906835 1.431373793867872e-07 0)
(25.0000010455347 -1.085889307145484e-05 0)
(25.0000033684681 -0.00652477668795046 0)
(25.21395150441599 -0.3714316771294341 0)
(24.99999989382077 5.677502137018963e-08 0)
(25.00000150682092 -5.020866087192686e-06 0)
(25.00091914126738 -0.003000404561478954 0)
(25.13684646464312 -0.1503416376467724 0)
(24.73569684834142 -0.8185106459094003 0)
(24.99883946509139 -0.002332743943286377 0)
(24.99999890962336 -1.50664103534671e-06 0)
(24.99999997654724 2.763223697753942e-08 0)
(24.82859788364798 -0.7660718723326181 0)
(24.99944048562292 -0.003147563400997259 0)
(24.99999964963787 -3.767873772022452e-06 0)
(24.99999991798739 6.318876693731646e-08 0)
(24.80478806330291 -0.7268029108461678 0)
(24.9993806678672 -0.002732975366455992 0)
(24.99999954086375 -3.082577457025567e-06 0)
(24.99999993552392 5.229306053602042e-08 0)
(24.79051831784953 -0.6391432333193295 0)
(24.99945282684596 -0.002328225043503526 0)
(24.9999993703008 -1.859630203517145e-06 0)
(24.99999996519777 3.103290860594329e-08 0)
(24.78916239939664 -0.5625258405324532 0)
(24.99961393727751 0.001144795626713708 0)
(25 -2.579443746976182e-14 0)
(25.00000000000001 -1.250963969907461e-11 0)
(24.77887195949163 -0.4235900583905355 0)
(25.00015763196346 -0.000287192418321305 0)
(25 5.786810595746405e-16 0)
(25.00000000000001 2.938432650305514e-14 0)
(24.85044293918009 -0.2070012556437637 0)
(24.99999985697286 -1.341445253716344e-07 0)
(25 2.132870684974536e-16 0)
(25.00000000000001 3.54314134011303e-15 0)
(24.96605770829292 -0.03659747759983285 0)
(25.00000001580782 1.303697620305414e-08 0)
(25 -1.634052898550266e-15 0)
(25.00000000000002 -5.335711537972599e-15 0)
(25 1.420908939734042e-15 0)
(25 2.153555229112114e-15 0)
(25 6.292910696457473e-15 0)
(25.00000014206724 1.547814661729676e-07 0)
(24.99999999999999 -2.843418720158383e-19 0)
(25 1.669716561814469e-15 0)
(25 1.516384200316536e-13 0)
(25.00000472294 1.757776020731731e-05 0)
(25 -1.366459512028481e-15 0)
(25 -1.62968245721752e-15 0)
(25 2.388579601745566e-12 0)
(24.9999793366 7.487492491418004e-05 0)
(25 -1.483497803131827e-15 0)
(25 -4.721629656763983e-16 0)
(25.00000000011711 9.764173151129649e-11 0)
(24.99940500743095 0.001022940292462641 0)
(25.00000587673414 1.385628058062051e-09 0)
(25.00001737588093 1.883630492612596e-05 0)
(25.00009434526806 0.0001856965122354158 0)
(25.00034133146938 -0.001848519756681935 0)
(25.00001737470278 -1.883606652461398e-05 0)
(25.00007707109401 -1.109354265568699e-09 0)
(25.00047773437422 -0.0008649651742507659 0)
(24.94143546537688 -0.04740510206306287 0)
(25.00009434697287 -0.0001856942477882788 0)
(25.0004777341933 0.0008649649150131808 0)
(24.9829277162942 1.633373479499217e-09 0)
(24.54103142032009 -0.1148093169841767 0)
(25.0003413311504 0.001848520126049205 0)
(24.94143546535829 0.04740510007244517 0)
(24.54103142080506 0.1148093182436009 0)
(22.36508298734046 -3.455690748281391e-10 0)
(20.09272969896545 2.42383185530623 0)
(21.18030498643725 3.029368796126263 0)
(23.56849200057955 1.973811325227447 0)
(24.50843026541524 0.789897226102191 0)
(20.64796816508416 4.582255355313269 0)
(20.91116822980906 4.729711325106778 0)
(22.11613630491839 4.287901960985599 0)
(23.16904066090659 3.177214544891788 0)
(21.43154899749616 5.393032944097917 0)
(22.01464815402936 5.240988807525895 0)
(22.54617732271159 5.117899353169852 0)
(23.09020059354589 4.663159414139859 0)
(21.95419519913051 5.446867914467314 0)
(22.92507456186225 5.636673723931158 0)
(23.13453231855925 5.574847842981614 0)
(23.38740713876256 5.320352505106838 0)
(23.55048651205103 5.670468880201363 0)
(23.63601510002452 5.790475048983745 0)
(23.66921348948966 5.804946885252193 0)
(23.44563892109008 6.058082509374104 0)
(23.53391818857716 5.875058324325078 0)
(23.71825111726539 5.967405533268555 0)
(23.76932810421705 5.965295631446046 0)
(23.71296627825786 6.457035880815023 0)
(23.46833794996202 5.770425361874855 0)
(23.68762818892441 5.792005206180898 0)
(23.73294172571601 5.785060250303315 0)
(24.90765678319295 6.423800118045681 0)
(22.14506295816373 5.508945013963417 0)
(22.25365011384815 5.519155317027064 0)
(22.27896812148321 5.520490343300906 0)
(26.39240627794814 7.513357616342181 0)
(25.56038378507619 4.464433510260273 0)
(27.06634479001178 1.647413678212259 0)
(26.38900505919388 0.2399905727578829 0)
(25.60996002989054 0.07041368668093051 0)
(27.00757820492707 3.566693833213363 0)
(28.44004797987153 0.3600559484752634 0)
(26.85600838307267 -0.2942212284895434 0)
(25.86406454632621 -0.1520970053588525 0)
(29.32306067169141 2.312485050206758 0)
(28.09407847994565 -0.4847844787172445 0)
(26.99542988882742 -0.4854347360224034 0)
(26.10948728686208 -0.2766598244597834 0)
(21.60449485339426 1.850747330657989 0)
(21.67979085944407 1.093405905910724 0)
(22.87419050437101 0.02357914331473283 0)
(24.03652696437544 -0.3601203179885534 0)
(25.1732151629633 0.04807887131825188 0)
(25.02609563916311 0.007953380961729793 0)
(25.00134358945255 0.0002394620532764671 0)
(25.00001338697896 -2.80133261215907e-06 0)
(25.3254324248758 -0.02425545348062748 0)
(25.0589896883159 0.004930047438961963 0)
(25.00357478315012 0.0004314344453467474 0)
(25.00004306622353 -1.751329588978734e-06 0)
(25.52888853810007 -0.1163049860704107 0)
(25.12085994099816 -0.0300958756120728 0)
(25.00863699993046 -0.002476118102142305 0)
(25.00011983471081 -4.712676352058935e-05 0)
(24.60887844739157 -0.2060086760619791 0)
(24.90905591364048 -0.05475462073862972 0)
(24.99197997003742 -0.005125524417866411 0)
(24.99999580066371 -0.0001064220974799392 0)
(24.9999994698674 -7.444663663669098e-07 0)
(24.9999999778129 2.355950946429337e-07 0)
(24.99998962832383 -1.371508188561677e-05 0)
(24.15923862202269 1.416018088074745 0)
(24.99999948054012 -6.204053014031366e-07 0)
(24.99999990771571 2.588956584697775e-07 0)
(24.99999823467706 -2.473514824558764e-05 0)
(22.76151722362224 1.905126056839734 0)
(24.99999970200099 -2.622232467736942e-07 0)
(24.9999997644183 1.242314612044182e-07 0)
(25.00000227760822 -2.394101214729432e-05 0)
(21.21098551510437 1.457708489281745 0)
(24.99999913944994 -4.529863675741235e-08 0)
(24.99999973900665 1.261079026497178e-08 0)
(24.99999468862096 3.677564296671107e-06 0)
(18.39979569728451 0.03955962090864166 0)
(16.4971607380934 6.922281673520933 0)
(17.16286167924958 8.828253575195989 0)
(17.68366797743221 9.978050081231572 0)
(17.93009602850876 10.69885772665642 0)
(13.65402754612656 7.231836417896394 0)
(15.79831194218099 9.281757164719783 0)
(17.02530074233961 10.57676865309049 0)
(17.52741931349862 11.3037243180737 0)
(11.6829095293216 6.698142609897025 0)
(14.52009804442053 9.191561630342751 0)
(16.34893162105258 10.66806973170405 0)
(17.12960542292874 11.33796891759235 0)
(10.9391076079365 4.528690022935821 0)
(13.41015395922138 7.766957347309674 0)
(14.21098465922947 9.914822240269197 0)
(15.06071505410187 10.54419430331876 0)
(17.9774732332784 10.93879272416533 0)
(17.99244561230866 10.97527003063071 0)
(17.94057117031797 10.99718426136501 0)
(17.93221590168178 11.03179128180785 0)
(17.66729572236037 11.53715562625514 0)
(17.71767066147586 11.54787980533935 0)
(17.71674337450535 11.54127404410384 0)
(17.74849008315202 11.52660799603077 0)
(17.28976486110412 11.55525993473612 0)
(17.31778051286166 11.58265135432688 0)
(17.32039952368167 11.58480008994436 0)
(17.33929695134956 11.58180736454392 0)
(15.57688913847245 10.66654453433876 0)
(15.67874853557695 10.68020565687266 0)
(15.68361340218923 10.67489490192588 0)
(15.62145006242806 10.64327433070386 0)
(17.75744873805079 11.1736747813567 0)
(17.87618865557644 11.11575363630102 0)
(18.60927358024159 10.51614188815141 0)
(20.46874985625471 8.54982721021608 0)
(17.71707640834545 11.50504993630895 0)
(17.93265045947789 11.36591631554436 0)
(18.88638988140432 10.8602243468504 0)
(20.9902316404513 10.33684392543632 0)
(17.35760157269067 11.52758332210756 0)
(17.5855543634392 11.39879343671292 0)
(18.93576325797449 11.23261016613889 0)
(25.21250276383058 14.87638946895427 0)
(15.82871955581536 10.68931250477009 0)
(16.09709110316842 10.61500873919014 0)
(18.42004452273139 11.45678914457262 0)
(33.81399667458692 19.69071368456243 0)
(25.0045744839013 4.217380904156494 0)
(23.49812913984739 -4.129084492951673 0)
(6.114243050667805 -4.752326191593758 0)
(2.436583873328739 -0.6020279253003405 0)
(25.16144485078742 4.211644629166968 0)
(18.59721435360033 -5.476072067652814 0)
(0.9252400344051702 -5.925766237140713 0)
(-3.307757594017768 -1.057713960335745 0)
(25.63914134967169 1.473745084526802 0)
(11.23593908544108 -8.920128660654473 0)
(-1.104204494159356 -5.02484278930205 0)
(-1.267772770787226 -1.112928841797103 0)
(15.34832033276543 -6.433512501671527 0)
(4.286199070448916 -2.484458856394647 0)
(-2.787451467766095 -2.461213478767829 0)
(-1.57706348099689 -0.9855900354634766 0)
(2.019335582006476 -0.04391804489212797 0)
(2.473055907257318 0.3798251422003333 0)
(3.380106116117534 0.7863666871414952 0)
(2.277131285939401 2.710069158755167 0)
(-3.78146017177568 0.03477864552758681 0)
(-3.094630671943149 1.41908115892937 0)
(-1.206417470541832 3.019396834200215 0)
(-0.64472947170016 4.976465395902759 0)
(-1.267437918098924 -0.01778493188699747 0)
(-0.729698232536251 1.646204020211619 0)
(0.5399404007058488 4.044041400669204 0)
(0.07189930297893687 6.614488226211864 0)
(-1.583087440576576 -0.03172981028639014 0)
(-1.479773076442176 1.51223377712879 0)
(-0.3871725547626324 4.28532572874712 0)
(-0.2951194512894742 7.466729890993887 0)
(18.54368688576368 -5.839845644670512 0)
(22.24644710072533 -4.02008962170974 0)
(23.86163307623266 -3.358409913508974 0)
(24.73090597531488 -2.731548947221441 0)
(12.7471280895812 -5.658651524198222 0)
(18.62423724221903 -5.310170621023836 0)
(21.95970711009541 -4.972313161541269 0)
(24.64782217693822 -2.993577762363211 0)
(4.101080133705739 -3.436665397602269 0)
(11.94586815934365 -3.589531388773223 0)
(18.10786129038149 -5.317873838946857 0)
(26.25712563827289 -2.54727884748994 0)
(2.331686710729643 1.346065712158554 0)
(6.55697156366333 3.429613257994004 0)
(15.08456601702357 1.968089333319469 0)
(31.25594491800481 -0.6801902735070793 0)
(25.8017370554339 -6.091567973184495 0)
(28.87831561196542 -11.02317975854671 0)
(21.95828802075657 -12.26226986058047 0)
(14.21431439966068 -11.71694284431883 0)
(27.28844872160433 -9.094899682752706 0)
(29.72674595884405 -15.50441715562841 0)
(27.20105833546566 -15.89588089894543 0)
(13.12050162992913 -15.16843642939811 0)
(28.29604699811132 -9.470486958362466 0)
(26.2175326515207 -18.92921934926864 0)
(22.7781165013452 -16.55809098216899 0)
(10.77121403174763 -10.09474369741277 0)
(18.37859252008039 -12.26102420829836 0)
(11.04077226880841 -10.88040634853576 0)
(3.706767855903592 -12.77076666469626 0)
(1.731958727869954 -9.537699403838607 0)
(0.1762319619448989 -7.191904427845643 0)
(-0.8577406052186815 -6.600609075220734 0)
(-1.413595541811485 -6.322384030874836 0)
(-1.984608201991731 -3.094268017635569 0)
(3.395582137041338 -9.679164764359447 0)
(-0.6885995888312045 -10.99581200890669 0)
(-1.417812651103767 -10.53400207919482 0)
(-1.247652629955096 -4.962359492234246 0)
(6.303620611468876 -13.16568204432822 0)
(4.285880921576695 -12.60311051174289 0)
(2.866362469268459 -11.72573694159737 0)
(1.818890848962899 -5.560959051382273 0)
(10.07080757128565 -10.63430041385261 0)
(8.424142446876534 -9.460877292776457 0)
(7.510993886228647 -7.348530398926713 0)
(6.861393081039287 -2.375517500895577 0)
(-1.984608201989073 3.094268017652948 0)
(-1.24765262994531 4.962359492231433 0)
(1.818890848975981 5.560959051357917 0)
(6.86139308101792 2.375517500843824 0)
(-1.413595541808778 6.32238403088586 0)
(-1.417812651094497 10.53400207921457 0)
(2.866362469289724 11.72573694157928 0)
(7.510993886238229 7.348530398891605 0)
(-0.857740605218798 6.600609075225637 0)
(-0.6885995888199687 10.99581200891392 0)
(4.285880921604714 12.60311051175909 0)
(8.424142446892112 9.460877292774326 0)
(0.1762319619506129 7.191904427834539 0)
(3.395582137028803 9.679164764343469 0)
(6.303620611495712 13.16568204433202 0)
(10.0708075713051 10.63430041385612 0)
(14.21431439966751 11.71694284432566 0)
(21.95828802080885 12.2622698605362 0)
(28.87831561203663 11.02317975852757 0)
(25.8017370555325 6.091567973213524 0)
(13.12050162992925 15.16843642942311 0)
(27.2010583353999 15.89588089893214 0)
(29.72674595886242 15.50441715560637 0)
(27.28844872165821 9.094899682747268 0)
(10.77121403173876 10.09474369739981 0)
(22.77811650133214 16.55809098213593 0)
(26.21753265153724 18.92921934928122 0)
(28.29604699813907 9.470486958359748 0)
(1.731958727868304 9.537699403821573 0)
(3.706767855903537 12.7707666646972 0)
(11.04077226878418 10.88040634855283 0)
(18.37859252008124 12.26102420829797 0)
(31.25594491802817 0.6801902735106251 0)
(15.08456601703791 -1.968089333293262 0)
(6.556971563694666 -3.429613257960987 0)
(2.331686710706716 -1.346065712173701 0)
(26.25712563831765 2.547278847483986 0)
(18.10786129042931 5.317873838954224 0)
(11.9458681593571 3.589531388820991 0)
(4.101080133669691 3.436665397544851 0)
(24.64782217698861 2.993577762352989 0)
(21.95970711016894 4.972313161567401 0)
(18.62423724222351 5.310170621084534 0)
(12.74712808950258 5.658651524147003 0)
(24.73090597536801 2.731548947209835 0)
(23.86163307629479 3.358409913526164 0)
(22.2464471007245 4.020089621785196 0)
(18.54368688569661 5.839845644615732 0)
(2.277131285966821 -2.710069158666316 0)
(3.380106116043455 -0.7863666871202606 0)
(2.473055907231081 -0.3798251422718253 0)
(2.019335582005948 0.04391804488184366 0)
(-0.6447294716525489 -4.976465395932258 0)
(-1.206417470605315 -3.019396834138754 0)
(-3.094630671938229 -1.419081158951392 0)
(-3.781460171742822 -0.03477864553249005 0)
(0.07189930300344255 -6.614488226231881 0)
(0.5399404006899381 -4.044041400659729 0)
(-0.7296982325310151 -1.646204020213589 0)
(-1.267437918072085 0.01778493188553685 0)
(-0.2951194512910847 -7.466729891009552 0)
(-0.3871725547630905 -4.285325728760163 0)
(-1.479773076435174 -1.51223377712483 0)
(-1.583087440561472 0.03172981028444014 0)
(2.436583873403704 0.6020279252222893 0)
(6.114243050634167 4.752326191664181 0)
(23.49812913971581 4.129084492978809 0)
(25.00457448389799 -4.217380904159611 0)
(-3.307757593866851 1.057713960278245 0)
(0.9252400343868106 5.925766237149778 0)
(18.5972143535476 5.476072067610769 0)
(25.16144485086251 -4.211644629163791 0)
(-1.267772770674548 1.11292884175627 0)
(-1.104204494148616 5.024842789242821 0)
(11.23593908537772 8.920128660627684 0)
(25.63914134970929 -1.473745084574387 0)
(-1.577063480935007 0.9855900354360331 0)
(-2.78745146775068 2.461213478723182 0)
(4.2861990704042 2.484458856419134 0)
(15.34832033281435 6.433512501649803 0)