/*--------------------------------*- C++ -*----------------------------------*\
  =========                 |
  \\      /  F ield         | OpenFOAM: The Open Source CFD Toolbox
   \\    /   O peration     | Website:  https://openfoam.org
    \\  /    A nd           | Version:  11
     \\/     M anipulation  |
\*---------------------------------------------------------------------------*/
FoamFile
{
    format      ascii;
    class       volScalarField;
    location    "18.1";
    object      p;
}
// * * * * * * * * * * * * * * * * * * * * * * * * * * * * * * * * * * * * * //

dimensions      [0 2 -2 0 0 0 0];

internalField   nonuniform List<scalar> 
5472
(
102.84175
100.8213
98.785677
96.763324
94.77705
92.843628
90.965786
89.152188
87.418741
85.783692
84.228415
82.803673
81.530685
80.377658
79.349828
78.526733
77.815813
77.30129
76.873431
103.32285
101.44188
99.565262
97.69611
95.803555
93.945168
92.139361
90.378946
88.688831
87.081022
85.545653
84.129535
82.86265
81.707006
80.678569
79.817996
79.063882
78.502573
78.083377
103.77662
102.02644
100.27078
98.547905
96.785414
95.019473
93.281812
91.585182
89.932791
88.345333
86.836661
85.441918
84.172836
83.008951
81.980361
81.089253
80.337217
79.773877
79.336533
104.15129
102.58264
100.97134
99.336125
97.683215
96.028007
94.378945
92.75287
91.139262
89.583833
88.102634
86.720538
85.448335
84.290217
83.25306
82.346801
81.610329
81.023158
80.591245
104.49522
103.06802
101.57911
100.04902
98.52236
96.971255
95.412499
93.848933
92.284369
90.771465
89.317717
87.956279
86.698428
85.548022
84.507683
83.61321
82.859448
82.255607
81.840365
104.7464
103.46621
102.11648
100.70835
99.290196
97.850134
96.38808
94.883094
93.38292
91.909345
90.485096
89.156309
87.906411
86.769366
85.742078
84.857856
84.107085
83.508517
83.071496
104.99368
103.79123
102.54539
101.28862
100.00199
98.652753
97.276686
95.849306
94.414576
92.989861
91.61697
90.308835
89.086627
87.966378
86.942654
86.053593
85.291064
84.708881
84.272576
105.16787
104.09982
102.96628
101.79308
100.59917
99.359528
98.078365
96.744985
95.384232
94.01765
92.692351
91.404243
90.223085
89.124879
88.11481
87.23676
86.49568
85.90045
85.47333
105.29863
104.33908
103.31763
102.26707
101.16706
100.01926
98.819811
97.569926
96.286096
94.978312
93.702119
92.465981
91.312389
90.226288
89.245685
88.378971
87.646518
87.055106
86.639729
105.41688
104.54876
103.62787
102.6513
101.63401
100.6067
99.505057
98.33106
97.104109
95.873357
94.655215
93.470085
92.351429
91.292997
90.333048
89.474054
88.768684
88.181331
87.77204
105.48826
104.71209
103.87208
103.00173
102.09118
101.12864
100.09942
99.015242
97.873998
96.718901
95.545415
94.41719
93.338531
92.322555
91.380535
90.535006
89.840425
89.275023
88.877104
105.54279
104.83552
104.08623
103.29815
102.47134
101.59664
100.6562
99.642485
98.577603
97.494394
96.385103
95.313717
94.259865
93.286675
92.382156
91.576044
90.881404
90.330231
89.936935
105.56449
104.94173
104.27302
103.56495
102.80973
101.99991
101.13803
100.20543
99.222067
98.198846
97.161968
96.143506
95.135336
94.192011
93.301788
92.527666
91.858206
91.337523
90.947708
105.5674
105.02426
104.43719
103.80057
103.11008
102.36521
101.56605
100.69826
99.788163
98.835597
97.875269
96.916655
95.970854
95.061557
94.214329
93.452929
92.799338
92.298581
91.913329
105.57418
105.08248
104.54806
103.97347
103.35898
102.69856
101.97746
101.17566
100.32002
99.426948
98.522569
97.609746
96.715266
95.840703
95.036121
94.305637
93.688022
93.192941
92.819585
105.58207
105.13449
104.6568
104.14372
103.57483
102.96214
102.29703
101.56819
100.792
99.974416
99.131569
98.276623
97.425677
96.587333
95.816527
95.115163
94.52429
94.037878
93.681071
105.56145
105.17002
104.74765
104.29518
103.79174
103.23182
102.60716
101.925
101.1971
100.44107
99.66075
98.864982
98.060075
97.2685
96.534065
95.865977
95.296203
94.830492
94.48419
105.5532
105.19962
104.81048
104.39711
103.95165
103.45504
102.89039
102.26465
101.58972
100.88759
100.15543
99.405593
98.644194
97.896802
97.196004
96.560571
96.011133
95.565917
95.227679
105.56588
105.25445
104.90228
104.52085
104.10291
103.63309
103.11467
102.53976
101.92319
101.27853
100.59766
99.894748
99.170813
98.463915
97.802443
97.197205
96.670674
96.242385
95.912945
105.57242
105.29315
104.98158
104.64071
104.25545
103.82437
103.34255
102.8025
102.22877
101.62644
100.99332
100.33695
99.655833
98.981648
98.348625
97.768749
97.265749
96.852668
96.53166
105.59829
105.33737
105.04557
104.73324
104.38719
103.99369
103.54303
103.04357
102.51011
101.94507
101.34777
100.72723
100.09185
99.464735
98.856262
98.295603
97.810181
97.409046
97.101666
105.63396
105.40171
105.13735
104.84309
104.51635
104.14943
103.73112
103.26793
102.76914
102.235
101.66851
101.07291
100.45894
99.849512
99.274245
98.743236
98.272054
97.881087
97.581269
105.6632
105.45862
105.22059
104.95374
104.65107
104.30816
103.91544
103.47824
103.00839
102.50802
101.97897
101.42323
100.85147
100.27266
99.703623
99.179024
98.716365
98.3348
98.042754
105.71144
105.5358
105.32185
105.07443
104.7938
104.47296
104.10221
103.68459
103.22609
102.73385
102.20528
101.64692
101.08496
100.51109
99.974321
99.470289
99.019713
98.646211
98.361674
105.76185
105.61771
105.43125
105.20374
104.94432
104.64855
104.31164
103.92743
103.50227
103.04725
102.56107
102.04514
101.48665
100.9268
100.36179
99.835952
99.371037
98.989688
98.701536
105.81304
105.7076
105.553
105.35055
105.10393
104.81085
104.46939
104.07812
103.64098
103.16079
102.64974
102.11552
101.57051
101.01924
100.48166
99.967275
99.506087
99.133205
98.858229
105.85406
105.80496
105.70975
105.56948
105.38329
105.14793
104.86186
104.51944
104.12151
103.67114
103.17207
102.63697
102.07064
101.46435
100.84252
100.24446
99.718797
99.324732
99.030643
76.585737
76.528137
76.595729
76.830114
77.182439
77.673771
78.280262
79.017396
79.866159
80.822541
81.933314
83.15331
84.567518
86.087574
87.757641
89.592921
91.519197
93.648831
95.836633
77.826771
77.765571
77.860313
78.139894
78.567982
79.168839
79.908792
80.81505
81.851589
83.013536
84.321015
85.763229
87.35182
89.053383
90.876958
92.819658
94.860295
97.078226
99.351735
79.082455
79.012448
79.143463
79.471037
79.989523
80.694921
81.578944
82.639553
83.83796
85.177555
86.672344
88.288589
90.035441
91.889981
93.851847
95.898225
98.036616
100.29486
102.55361
80.326389
80.256276
80.434494
80.825321
81.430516
82.24111
83.251946
84.435332
85.780858
87.274343
88.892666
90.633896
92.489649
94.427181
96.455715
98.517219
100.6554
102.8021
104.90898
81.551666
81.507074
81.725034
82.162513
82.854667
83.776315
84.887306
86.182526
87.645411
89.240784
90.950204
92.776598
94.661219
96.614705
98.598446
100.58251
102.56259
104.46935
106.28942
82.781043
82.755211
82.99592
83.497804
84.275427
85.277071
86.483313
87.884995
89.435122
91.098381
92.863427
94.701781
96.571347
98.463274
100.30899
102.11788
103.83451
105.43856
106.90527
83.999833
83.97105
84.250792
84.822034
85.663072
86.736092
88.032755
89.506029
91.114236
92.815764
94.599622
96.403025
98.204176
99.948999
101.61482
103.18791
104.6023
105.82764
106.83036
85.193188
85.172318
85.512942
86.113834
87.010324
88.158894
89.520606
91.046494
92.683073
94.392042
96.149139
97.867068
99.528401
101.08907
102.53216
103.78596
104.84001
105.61612
106.0901
86.351604
86.359252
86.725945
87.352148
88.318764
89.517808
90.930555
92.48361
94.118289
95.806245
97.477459
99.060488
100.5392
101.88561
103.0473
103.93406
104.597
104.88402
104.89194
87.482503
87.534416
87.898833
88.56853
89.581807
90.810482
92.251164
93.801129
95.415926
97.034507
98.575423
100.00542
101.28137
102.36071
103.20363
103.74251
104.03091
103.97798
103.70494
88.580744
88.643247
89.002374
89.734626
90.767076
92.032499
93.477533
95.000704
96.559545
98.07817
99.474783
100.72077
101.76486
102.5538
103.10603
103.38482
103.40854
103.25841
102.9765
89.656488
89.714292
90.079183
90.848394
91.890508
93.181323
94.594351
96.07371
97.551179
98.945581
100.18758
101.213
102.02071
102.57985
102.91996
103.06679
103.00161
102.89954
102.80079
90.673495
90.710005
91.111544
91.902201
92.958194
94.240045
95.596547
97.021113
98.406716
99.649268
100.69559
101.53047
102.14316
102.56188
102.78808
102.90079
102.89776
102.90403
102.94079
91.647196
91.662227
92.107193
92.894609
93.943533
95.192199
96.498031
97.859578
99.120577
100.20098
101.07079
101.76291
102.24241
102.58444
102.78493
102.92801
103.02162
103.12099
103.24437
92.543809
92.590196
93.055437
93.808144
94.850405
96.063353
97.300064
98.573864
99.712774
100.64361
101.36942
101.9517
102.36717
102.68097
102.89437
103.09721
103.25463
103.43286
103.62447
93.395336
93.472222
93.910308
94.649456
95.685209
96.835411
98.017942
99.171882
100.19848
101.02101
101.64791
102.15009
102.53077
102.84453
103.08656
103.34036
103.5566
103.77913
103.95206
94.202539
94.287945
94.689779
95.453726
96.446522
97.52759
98.662356
99.687369
100.62445
101.35432
101.91808
102.36849
102.73554
103.06184
103.34207
103.62193
103.85995
104.07527
104.24935
94.953879
95.022858
95.420528
96.181194
97.106019
98.163762
99.208877
100.13403
100.99213
101.63602
102.18303
102.60287
102.97117
103.30618
103.60487
103.87737
104.10963
104.33083
104.51542
95.64776
95.700854
96.114783
96.832973
97.726495
98.741038
99.687122
100.5725
101.33162
101.92846
102.45139
102.8494
103.23142
103.55639
103.84379
104.09362
104.3272
104.54435
104.69493
96.270952
96.315009
96.720131
97.39751
98.277407
99.214726
100.10121
100.94273
101.62333
102.19953
102.67681
103.08802
103.45497
103.75241
104.03011
104.25079
104.45018
104.60031
104.66282
96.844415
96.893111
97.288334
97.942178
98.792245
99.665889
100.52757
101.32662
101.96578
102.4742
102.91429
103.31956
103.64693
103.92113
104.14763
104.29672
104.39289
104.38585
104.29862
97.323109
97.36671
97.739525
98.384126
99.18995
100.02293
100.82406
101.48662
102.07531
102.64468
103.10912
103.49055
103.78489
104.01366
104.14682
104.20004
104.15082
103.9755
103.76339
97.787226
97.826981
98.205222
98.835869
99.625549
100.41521
101.18609
101.86525
102.46144
102.94487
103.33542
103.63728
103.84559
103.9578
103.97329
103.90436
103.71763
103.48717
103.27024
98.106846
98.154173
98.517131
99.111808
99.822836
100.62209
101.37539
102.04616
102.61925
103.09701
103.46975
103.72093
103.86609
103.89217
103.81425
103.63376
103.39951
103.17175
102.92621
98.441256
98.488167
98.868504
99.482548
100.24213
101.04708
101.79447
102.42231
102.92281
103.29827
103.55098
103.6778
103.68823
103.5934
103.43095
103.23229
103.03539
102.81995
102.58984
98.596832
98.665846
99.031428
99.615338
100.37426
101.18287
101.9021
102.5323
103.06665
103.44595
103.66611
103.74215
103.70066
103.57594
103.39496
103.15399
102.86293
102.54792
102.17354
98.759989
98.845494
99.308592
100.00869
100.86232
101.68626
102.41002
103.00594
103.39997
103.56752
103.58959
103.51899
103.33639
103.0896
102.8013
102.4765
102.14846
101.8464
101.59044
98.19331
100.7624
103.35431
106.32954
109.35992
112.53484
115.82982
118.87918
121.75745
123.04042
122.1306
119.0862
113.87336
107.4013
100.02758
91.736549
83.432716
75.787618
69.168883
101.72327
104.11144
106.54849
109.21737
111.87731
114.71689
117.42908
119.69717
121.6478
121.82711
121.1442
118.67893
114.08505
108.02764
101.36552
94.417294
87.756803
81.966813
77.369457
104.84253
106.98685
109.13575
111.38407
113.56347
115.77604
117.62457
119.04255
120.33457
119.53267
118.4563
115.8649
111.45786
105.8547
99.80401
93.892886
88.647891
84.490025
81.450008
106.96644
108.8119
110.63048
112.45675
114.17569
115.7217
116.94056
117.71321
117.72744
116.54406
114.0309
110.51157
105.64209
100.16359
94.817047
89.771226
85.464768
82.503732
80.990639
107.99814
109.51669
110.95768
112.36331
113.55977
114.47278
114.67036
114.83491
113.70933
111.24835
107.28506
102.29005
96.500155
90.561715
85.279574
81.339183
78.853469
77.43523
77.110748
108.2058
109.31969
110.39361
111.40825
112.13555
112.39775
111.83601
110.0344
107.22365
103.03449
97.293253
90.290787
82.722616
75.942525
70.998398
67.86316
66.689942
67.57407
69.865519
107.62773
108.29885
109.01921
109.57035
109.68475
109.23299
107.76512
104.38538
100.1973
93.395743
84.534839
74.614486
64.41717
56.014029
50.142773
46.893543
47.033487
50.541021
56.065307
106.28758
106.60275
106.91383
107.00109
106.57298
105.54432
103.43447
99.80887
93.334703
82.73306
69.632476
54.8842
39.834055
26.562127
16.601137
12.472616
15.401481
24.818358
37.258128
104.62061
104.53195
104.35702
103.80853
102.51912
100.30185
96.600065
90.912272
83.097799
72.536091
59.426435
44.153639
28.704683
15.666467
7.4149939
6.3325397
12.162432
23.766553
37.419313
103.2207
102.87035
102.46134
101.61545
100.12342
97.882192
94.651736
90.171536
84.370552
77.065473
68.324691
58.591419
48.895567
40.606579
35.328327
33.824425
36.602979
43.284799
51.913228
102.55173
102.23919
101.85932
101.11405
99.982737
98.427474
96.391299
93.815591
90.520315
86.456658
81.656138
76.365156
71.009119
66.484096
62.769756
60.4923
60.764281
63.365106
67.66681
102.57619
102.36928
102.07481
101.5563
100.80826
99.839137
98.632624
97.192791
95.313537
93.008494
90.320907
87.327786
84.205827
81.144862
78.632213
77.461841
77.241688
77.950902
79.739683
102.87969
102.80057
102.61521
102.26836
101.76708
101.16088
100.4258
99.562193
98.410721
97.03259
95.426776
93.563655
91.661734
89.749754
87.905575
86.637445
86.136547
86.118861
86.143354
103.34327
103.3566
103.22214
102.96925
102.66281
102.28353
101.83062
101.27622
100.48672
99.577284
98.502325
97.270384
96.046841
94.499091
92.742746
91.187025
89.747447
88.322632
87.158137
103.80474
103.84393
103.73379
103.58234
103.39012
103.10673
102.7982
102.35797
101.77566
101.07261
100.14903
99.138465
97.9669
96.337644
94.569432
92.798908
90.816611
88.573785
86.422612
104.13684
104.23284
104.20387
104.11749
103.97108
103.7956
103.56008
103.17589
102.63645
101.89956
101.04
100.0447
98.638138
96.669253
94.408995
91.808926
88.444817
84.155823
79.22061
104.51694
104.66052
104.69213
104.66723
104.65308
104.57372
104.40208
104.09903
103.65231
103.10348
102.50193
101.3193
99.056003
96.575502
94.034062
90.377971
85.09927
78.197689
70.116287
104.82688
104.99465
105.061
105.12885
105.22419
105.24846
105.22439
105.10658
104.69038
103.50326
102.44286
102.29701
101.84749
99.92006
96.957457
93.292022
88.534713
82.754299
76.382512
104.93016
105.06342
105.15432
105.29795
105.39407
105.44752
105.30102
104.94531
104.59424
104.18528
103.65762
102.64862
101.0096
98.984539
96.504991
93.605545
90.223686
86.609728
83.112844
104.75801
104.8531
105.0199
105.20501
105.32142
105.35634
105.22414
104.93678
104.46542
102.62858
100.92992
99.53977
98.085058
96.262549
94.312026
92.456807
90.642716
89.104753
88.018148
104.15427
104.24336
104.40239
104.53339
104.59956
104.59149
104.50034
104.10115
103.73281
101.97227
98.649326
94.670706
92.400981
90.939388
89.810566
89.102489
88.839556
89.17811
90.147929
103.50052
103.53884
103.60632
103.62753
103.57901
103.46885
103.29854
103.01362
102.19116
100.52171
98.385371
95.587445
92.240505
88.723757
85.517646
83.115965
81.77865
81.771368
83.168592
103.04464
103.01041
103.0077
102.97538
102.85448
102.67807
102.37041
101.91276
101.12496
99.754298
97.484077
94.330775
90.602202
86.823916
83.640262
81.744982
81.233176
82.06312
84.337947
102.75637
102.758
102.81122
102.8314
102.80772
102.81591
102.76367
102.72645
102.6003
102.31805
101.83814
100.96259
99.692536
98.305476
96.661267
94.64557
92.819481
91.888165
91.945104
102.51078
102.52936
102.57787
102.6234
102.66277
102.69641
102.74004
102.80176
102.86665
102.99014
103.13
103.04081
102.73467
102.31261
101.66281
100.69606
99.477904
98.122605
96.758519
101.87865
101.99404
102.16495
102.26195
102.34968
102.45803
102.61365
102.75068
102.82629
102.85095
102.66552
102.17243
101.81068
101.35305
100.64755
99.928194
99.221186
98.237213
97.03299
101.22102
101.32651
101.44761
101.51652
101.60747
101.75828
101.93177
102.16513
102.39606
102.65118
102.90351
102.78198
102.39168
102.00733
101.61881
101.11646
100.46336
99.640974
98.722037
64.333635
61.993652
61.832226
63.015469
65.113999
67.858444
70.681609
73.571167
76.286051
78.572953
80.621494
82.288061
83.566026
84.573057
85.364549
85.829617
86.079087
86.132119
85.979216
74.102146
72.292787
71.737679
72.442618
73.844869
75.755806
77.911689
79.903257
81.707768
83.280142
84.799162
85.977336
86.840007
87.569458
88.110124
88.383598
88.499461
88.477537
88.287125
79.366808
78.301055
78.363214
79.245227
80.490154
81.898089
83.489503
85.01322
86.506092
87.642262
88.587577
89.542964
90.128675
90.585724
90.982408
91.171033
91.197598
91.066313
90.793913
80.657764
80.961027
81.802533
83.194558
84.821279
86.410956
88.185058
89.637502
90.719968
91.760185
92.50476
93.093056
93.464932
93.704685
93.926212
93.980806
93.927348
93.726411
93.299136
77.920692
79.584389
81.836043
84.544762
87.227126
89.367405
91.189806
92.979257
94.340597
95.272974
95.955466
96.420507
96.685132
96.703365
96.764574
96.729506
96.564776
96.277098
95.728214
72.832413
76.377551
80.213485
84.127194
87.89993
91.219741
93.63941
95.440686
96.955959
98.05815
98.81151
99.21755
99.411536
99.396261
99.312533
99.203652
99.009251
98.66998
98.07525
62.628113
69.464038
76.040673
82.064858
87.31788
91.812854
95.339143
97.698953
99.325642
100.47684
101.20133
101.64923
101.78759
101.696
101.50409
101.31804
101.08918
100.77023
100.15478
49.58385
60.637793
70.199416
78.223169
84.981293
90.869579
95.775786
99.183041
101.23874
102.60533
103.34288
103.69231
103.78728
103.66576
103.37366
103.09753
102.80714
102.49291
101.90521
50.202933
61.337465
71.002821
79.010565
85.691974
91.426015
96.407814
100.20382
102.50822
103.99307
104.87588
105.23021
105.25531
105.09544
104.78076
104.43256
104.10396
103.7672
103.25649
60.83091
69.260688
76.808724
83.390478
89.053379
93.884413
97.955643
101.13645
103.15956
104.53372
105.37306
105.81169
105.88121
105.75874
105.52102
105.19842
104.90791
104.59063
104.15971
72.857727
78.292275
83.561006
88.537792
92.990401
96.778335
99.88099
102.18136
103.63268
104.67706
105.26689
105.63185
105.76668
105.74039
105.62797
105.41206
105.2007
104.95062
104.61837
82.255085
85.197508
88.562923
92.067606
95.348452
98.28559
100.83641
102.7831
104.1934
104.89588
105.23426
105.3172
105.48273
105.56511
105.53382
105.40324
105.25653
105.0671
104.7912
86.692843
88.147997
90.102577
92.361649
94.794921
97.378879
99.906939
102.13796
103.89329
104.98327
104.7466
105.19331
105.56468
105.62079
105.58642
105.47098
105.31971
105.16365
104.91173
86.727191
86.975874
87.724475
88.88908
90.63587
92.982483
95.784318
98.607151
101.10504
103.01826
104.10358
104.60055
104.93711
105.30023
105.44537
105.44108
105.31172
105.1915
105.00214
84.574486
83.019967
82.196126
82.203013
83.051132
85.023136
88.043253
91.478198
95.059957
98.226403
101.08717
103.39197
104.4049
105.08086
105.29351
105.32394
105.21465
105.05491
104.93025
74.038168
69.021404
65.395756
64.373755
66.495562
70.723052
75.80921
81.595177
88.109416
94.571914
99.652042
102.75917
103.84229
104.51647
104.76406
104.8401
104.75411
104.5822
104.48425
61.756571
54.486308
50.221326
50.34001
54.857325
62.394319
71.116269
80.361649
88.125674
94.179447
98.445877
101.09318
102.35099
103.11821
103.5411
103.78282
103.85768
103.79092
103.77257
69.764979
63.97451
60.658198
60.568018
63.643668
69.091135
75.847913
82.820227
88.999392
93.927415
97.416799
99.566394
100.92933
101.84832
102.44329
102.85574
103.0645
103.11953
103.17093
80.090847
78.040448
77.528964
78.73773
81.342584
84.790201
88.566379
92.168709
95.316578
97.765677
99.493092
100.6957
101.51165
102.07256
102.47236
102.7689
102.94802
103.03575
103.0747
87.506166
87.808079
88.920899
90.608132
92.542837
94.705778
96.844354
98.633165
100.04742
101.1278
101.85887
102.38345
102.73887
102.93135
103.0871
103.17122
103.23322
103.24107
103.22394
91.505628
93.001025
94.560785
96.314704
97.991637
99.41434
100.72595
101.82949
102.61444
103.11916
103.44848
103.63458
103.70024
103.66111
103.60178
103.52692
103.49373
103.4561
103.37528
85.657078
88.812774
92.175209
95.335237
98.043338
99.996546
101.23621
102.03971
102.93149
103.82014
104.08272
104.02884
104.02717
103.92368
103.79296
103.68153
103.5505
103.4753
103.36788
87.55205
90.987802
94.182856
96.915909
99.125096
100.76855
101.9431
102.51319
103.31494
103.68316
103.80543
103.90705
103.87302
103.72346
103.60466
103.46992
103.32354
103.20142
103.09771
92.780629
94.090341
95.617321
97.097491
98.379605
99.407263
100.20951
100.60671
101.47068
102.89711
103.05268
103.20052
103.21613
103.1158
103.00881
102.88777
102.78139
102.61234
102.53063
95.38963
94.312268
93.756296
93.774676
94.415758
95.817495
98.095978
100.59188
101.96872
102.3084
102.06248
102.17051
102.13368
102.08307
102.05564
101.98724
101.90929
101.79645
101.74127
95.960565
95.131154
94.756665
94.857407
95.455373
96.402275
97.043075
97.614512
98.466843
99.594894
100.2943
100.50781
100.69364
100.79548
100.88771
100.95099
100.96624
100.97149
101.05266
97.837495
97.120242
96.652419
96.489692
96.600194
96.863548
97.190009
97.542224
98.165508
98.879766
99.291475
99.571553
99.811151
99.974654
100.10428
100.21561
100.29633
100.34145
100.37592
85.652387
85.205638
84.595606
83.860708
83.105745
82.257565
81.393326
80.559877
79.663095
78.849181
78.001466
77.240185
76.520581
75.852068
75.253433
74.837228
74.470847
74.366929
74.360666
87.928271
87.442242
86.828028
86.08988
85.284646
84.426266
83.489331
82.589145
81.624048
80.713452
79.784766
78.90583
78.109675
77.389863
76.756029
76.268996
75.883892
75.712629
75.69566
90.328927
89.751554
89.072435
88.277884
87.441961
86.519156
85.555515
84.559474
83.553296
82.537898
81.565129
80.582933
79.705483
78.89933
78.238129
77.654787
77.277723
77.079667
77.059861
92.704251
91.983525
91.211851
90.346742
89.453248
88.485988
87.478465
86.435074
85.380489
84.311361
83.274804
82.244766
81.283608
80.404674
79.678415
79.069134
78.625104
78.430897
78.419383
94.997266
94.15371
93.263481
92.336467
91.36655
90.355662
89.303157
88.222044
87.118873
86.017763
84.910502
83.846909
82.826025
81.904191
81.086233
80.453776
80.002467
79.748958
79.75529
97.220601
96.287989
95.289795
94.265791
93.237303
92.161097
91.069505
89.95089
88.803132
87.675074
86.520675
85.411565
84.337257
83.362248
82.494752
81.795807
81.339405
81.076905
81.060807
99.267602
98.272858
97.221112
96.125298
95.033843
93.912238
92.763606
91.615836
90.422316
89.252775
88.070356
86.916036
85.809255
84.785932
83.876351
83.137398
82.607915
82.376216
82.351677
101.02996
100.05065
98.985254
97.873767
96.730959
95.58661
94.392682
93.21339
91.996942
90.782768
89.573815
88.379775
87.228776
86.17657
85.212148
84.460003
83.904301
83.643211
83.630603
102.44786
101.53386
100.49961
99.429999
98.289915
97.132892
95.928761
94.718294
93.483435
92.243897
91.001403
89.785966
88.596677
87.508953
86.518036
85.719828
85.13192
84.839573
84.849509
103.48146
102.70258
101.77387
100.75979
99.676773
98.547071
97.354808
96.141702
94.896565
93.639964
92.380122
91.139661
89.923505
88.804799
87.794658
86.948917
86.371441
86.040295
86.064569
104.11475
103.49376
102.72848
101.84307
100.84327
99.7747
98.629747
97.43671
96.205509
94.948712
93.677467
92.41548
91.187428
90.001769
88.99942
88.108737
87.522594
87.192757
87.183985
104.41785
103.98592
103.39151
102.65754
101.79095
100.82051
99.744616
98.597477
97.399581
96.164865
94.907724
93.624416
92.398631
91.194177
90.160868
89.277562
88.643303
88.328157
88.335956
104.59286
104.26961
103.81406
103.23323
102.49996
101.64862
100.68187
99.612469
98.467751
97.253478
96.034516
94.761346
93.523865
92.322893
91.253285
90.374016
89.711313
89.383323
89.374575
104.70875
104.43895
104.06679
103.60315
103.01551
102.29038
101.44187
100.46102
99.405712
98.243215
97.050048
95.810114
94.575585
93.386337
92.28781
91.408074
90.734128
90.390733
90.376161
104.72299
104.51071
104.2191
103.8428
103.38302
102.76947
102.04473
101.16334
100.18772
99.109869
97.975152
96.771864
95.546655
94.379172
93.268739
92.371008
91.693916
91.348786
91.34611
104.48133
104.40305
104.23143
103.94502
103.59507
103.09474
102.48408
101.72705
100.83995
99.837441
98.74468
97.618614
96.429365
95.288048
94.194116
93.279191
92.596784
92.237912
92.232484
103.97484
104.05805
104.06205
103.90936
103.67345
103.30215
102.79561
102.16286
101.38237
100.47208
99.449595
98.380879
97.236642
96.110465
95.045942
94.12743
93.441615
93.069464
93.073155
103.45882
103.62073
103.71859
103.7086
103.59721
103.36416
102.97125
102.45114
101.78251
100.97921
100.03585
99.028846
97.947326
96.847074
95.814277
94.907453
94.231554
93.847823
93.846365
103.20615
103.30011
103.40469
103.4668
103.44136
103.3264
103.05661
102.65089
102.09418
101.39971
100.54835
99.60327
98.592852
97.531115
96.515481
95.611383
94.946207
94.569549
94.554666
103.18657
103.18952
103.22475
103.26795
103.27296
103.21987
103.04795
102.7402
102.29055
101.69289
100.94868
100.06612
99.114473
98.101831
97.127481
96.25148
95.585335
95.218255
95.194161
103.21365
103.19725
103.18323
103.1819
103.17366
103.13563
103.0243
102.79847
102.44901
101.93414
101.28794
100.49714
99.610917
98.665911
97.701996
96.837518
96.173422
95.802926
95.793243
103.22033
103.23448
103.21005
103.18159
103.13692
103.08666
102.99733
102.82328
102.54513
102.10705
101.53222
100.81931
99.97368
99.065172
98.149634
97.320191
96.681813
96.309111
96.281123
103.07382
103.16513
103.18222
103.17262
103.13112
103.07258
102.9976
102.86298
102.63939
102.28443
101.77816
101.14339
100.39937
99.547025
98.655366
97.802052
97.144423
96.774399
96.748752
102.73752
102.95646
103.09045
103.15949
103.18214
103.12612
103.03601
102.91045
102.71791
102.40698
101.95478
101.35219
100.61049
99.786222
98.920186
98.123896
97.495209
97.134992
97.08544
102.07238
102.40385
102.68295
102.85608
102.96596
103.02976
103.02157
102.9539
102.82099
102.58584
102.20852
101.68387
101.02946
100.25753
99.410431
98.55972
97.861369
97.459265
97.412876
101.45396
101.89643
102.32659
102.67927
102.9143
103.05459
103.0984
103.05466
102.9084
102.6719
102.32218
101.81231
101.13793
100.35435
99.50769
98.698905
98.040732
97.64644
97.595046
100.68539
101.05023
101.45562
101.87157
102.25532
102.56576
102.79728
102.94267
102.97016
102.87624
102.65075
102.26509
101.69778
100.94733
100.06589
99.152321
98.348361
97.821655
97.722294
74.589706
74.887268
75.308777
75.957336
76.740229
77.776293
78.896459
80.208528
81.621408
83.149622
84.805478
86.559182
88.412226
90.347222
92.342893
94.379445
96.456925
98.540774
100.63378
75.825904
76.217514
76.722821
77.416463
78.22385
79.25639
80.395721
81.682507
83.096464
84.61966
86.245142
87.957854
89.766105
91.639137
93.536173
95.466589
97.411227
99.357276
101.2909
77.305895
77.624159
78.138392
78.845887
79.696276
80.70926
81.87545
83.151502
84.545011
86.058387
87.642669
89.324366
91.068619
92.863656
94.687204
96.504456
98.305831
100.1135
101.88763
78.644024
79.01565
79.548027
80.247399
81.12321
82.137288
83.282185
84.586719
85.977858
87.442802
89.006797
90.643362
92.315778
94.039416
95.773739
97.486166
99.158844
100.7823
102.39424
79.983074
80.370971
80.931315
81.635653
82.50232
83.520822
84.684699
85.959735
87.347662
88.796561
90.299182
91.883217
93.502346
95.132355
96.756419
98.355239
99.902763
101.39082
102.84644
81.343765
81.727111
82.288361
82.994835
83.874021
84.880135
86.039353
87.310817
88.644486
90.062804
91.538932
93.051506
94.588851
96.130539
97.654485
99.140557
100.56779
101.94115
103.24409
82.638322
83.037613
83.59997
84.311574
85.187384
86.195592
87.322865
88.574118
89.892776
91.269723
92.689847
94.135852
95.597093
97.051174
98.466928
99.842776
101.14954
102.39991
103.58059
83.912944
84.325999
84.889044
85.602814
86.45843
87.454659
88.56921
89.792985
91.081597
92.417375
93.780676
95.149441
96.518786
97.887795
99.213797
100.47314
101.64943
102.78498
103.86652
85.140774
85.568575
86.125131
86.834112
87.682548
88.667889
89.760883
90.953899
92.205827
93.487194
94.781739
96.080667
97.367797
98.631077
99.8434
100.99962
102.0781
103.10692
104.10525
86.35323
86.771378
87.327
88.030405
88.869141
89.828506
90.894457
92.038261
93.243476
94.475001
95.700674
96.922946
98.121784
99.29735
100.43076
101.49834
102.48591
103.40092
104.29536
87.500953
87.924127
88.478635
89.162128
89.981019
90.91448
91.947602
93.058504
94.219273
95.403628
96.567751
97.706613
98.827371
99.915217
100.95486
101.91087
102.80855
103.63671
104.42629
88.62335
89.025456
89.570641
90.245126
91.052332
91.967752
92.960419
94.026065
95.140186
96.248304
97.3495
98.410857
99.441607
100.43027
101.37677
102.2678
103.09893
103.86043
104.55982
89.670646
90.073608
90.618519
91.278936
92.061244
92.940226
93.895421
94.904981
95.961182
97.013379
98.050307
99.037142
99.99465
100.92292
101.81056
102.62771
103.35322
104.02558
104.64222
90.675604
91.069334
91.600782
92.241251
92.999881
93.843034
94.75794
95.729633
96.735338
97.735444
98.699998
99.621333
100.51217
101.36247
102.1453
102.86973
103.53151
104.14684
104.72217
91.633107
92.008475
92.527978
93.152766
93.886287
94.701122
95.572273
96.498946
97.442191
98.378078
99.277653
100.12929
100.9409
101.72337
102.44977
103.12926
103.75014
104.30612
104.80462
92.512973
92.88349
93.386802
93.994429
94.699185
95.479872
96.306721
97.185644
98.073278
98.953435
99.800686
100.59939
101.3492
102.06501
102.7403
103.35307
103.88775
104.35795
104.81082
93.354398
93.714397
94.19351
94.784148
95.460537
96.206693
96.99375
97.8221
98.659722
99.482651
100.27621
101.01573
101.70191
102.34461
102.95853
103.51638
104.02493
104.47069
104.8742
94.124184
94.470271
94.92969
95.498804
96.15041
96.858804
97.611315
98.388983
99.179519
99.950437
100.69279
101.37984
102.01707
102.61454
103.18533
103.7065
104.16248
104.55419
104.89858
94.828087
95.159703
95.609953
96.157499
96.784309
97.462023
98.180496
98.919055
99.662455
100.38858
101.07827
101.71435
102.30618
102.85863
103.37739
103.8488
104.26127
104.61816
104.93443
95.460223
95.795372
96.237088
96.761219
97.360915
98.008951
98.68846
99.386597
100.08532
100.76143
101.40813
101.99986
102.55598
103.07639
103.55437
103.99533
104.38434
104.71642
104.99802
96.079028
96.396317
96.810664
97.301563
97.871969
98.489041
99.138431
99.805659
100.47342
101.11416
101.72701
102.28873
102.80924
103.29731
103.73615
104.1374
104.48441
104.77829