/*--------------------------------*- C++ -*----------------------------------*\
  =========                 |
  \\      /  F ield         | OpenFOAM: The Open Source CFD Toolbox
   \\    /   O peration     | Website:  https://openfoam.org
    \\  /    A nd           | Version:  11
     \\/     M anipulation  |
\*---------------------------------------------------------------------------*/
FoamFile
{
    format      ascii;
    class       volScalarField;
    location    "0.1125";
    object      Ma;
}
// * * * * * * * * * * * * * * * * * * * * * * * * * * * * * * * * * * * * * //

dimensions      [0 0 0 0 0 0 0];

internalField   nonuniform List<scalar> 
880
(
1.11801663592382
1.118016635923725
1.118016564305285
1.118005047104791
1.11801663592382
1.118016635922919
1.118016364972084
1.117884478272633
1.11801663592382
1.118016635935336
1.118015307932547
1.117262935360337
1.118016635923821
1.118016635618618
1.11800353367892
1.112388397812587
1.118016635923669
1.118016635922723
1.11801663591136
1.118016633948854
1.118016636715046
1.118016635141326
1.118016642515057
1.118016392475439
1.117937577034261
1.117846301699466
1.117729487439046
1.118035184419785
1.092599914458411
1.071194193684732
1.06304720215875
1.061332054105546
1.118016593385056
1.118016328343441
1.11801534502599
1.118015565171505
1.118013056952241
1.118006600626454
1.118003888453948
1.118004503268724
1.116573764177176
1.115809437981325
1.115618692227532
1.115505060651306
1.060135460407767
1.056246844497312
1.058625495611781
1.060285286931374
1.099640649748729
1.119119017096466
1.129521863233744
1.13681300285226
1.112861265804026
1.112633112830166
1.116203297232717
1.118417011898069
1.117970144150767
1.117897263868565
1.117924828648237
1.117986973357253
1.11801368181397
1.118009356509974
1.11800333927221
1.118002014716915
1.118004048194903
1.118008899864659
1.118013669042898
1.118015998675694
1.118029107736379
1.118050669513541
1.118039989085518
1.118023779833642
1.11984153138269
1.120206734207574
1.119624743338638
1.118807075407
1.138537299141843
1.136766719635775
1.133226372547938
1.128543288243122
1.123715795003043
1.118243489950723
1.118017608347144
1.11801656932411
1.119468771916025
1.118046085816563
1.11801669040318
1.118016633247339
1.116408942191375
1.118010536401461
1.118016624058782
1.118016635298576
1.058410708248175
1.117251086620072
1.118015236005951
1.118016686622608
1.118016385362325
1.117999295616557
1.112399788814308
0.8707310783557946
1.118015234518414
1.117965869189423
1.10715464941751
0.8529111301973876
1.118013185951144
1.117889053373083
1.099749138629329
0.8323150731020335
1.118004484491203
1.117822888830483
1.092997680887603
0.8332515854572607
0.83692555839468
1.085147575209609
1.117681797757827
1.118000633219317
0.8458109236863922
1.079804687049072
1.117618312533195
1.117981447783842
0.84796979172812
1.071304288512684
1.117375304266846
1.117978859795274
0.8476391913476886
1.062762092203746
1.117195413111876
1.117944968925686
1.117930327088592
1.116696102556362
1.048617556384533
0.8549962183410625
1.117865593571957
1.11636003057605
1.051277281694585
0.8895310424883447
1.117897507995379
1.116753780524645
1.074827952885618
0.9704589317779824
1.117837692047579
1.117253113796838
1.104580989143018
1.068338854110697
1.117815055243172
1.11743193001643
1.130645069040539
1.235673554263789
1.117843522053032
1.120562339332342
1.140354079591364
1.26687542160249
1.118012674783344
1.119197660614653
1.130874574153749
1.15717838031917
1.118025927910379
1.118003700999281
1.109752708419778
0.9632702820460772
0.8650437519786786
1.0969209669863
1.117692687627911
1.118016430517869
0.8089528186731129
1.087340833142624
1.117264668353501
1.118011633696103
0.7843184849056337
1.083673081304022
1.117360845701966
1.118015548225879
0.7339445226846795
1.078002465411565
1.117230960649594
1.118014084273273
0.8137578231545151
1.090918330040621
1.117616593635496
1.118015673067524
0.9272666357539586
1.103620773903205
1.117873241603063
1.118016295099121
1.016923539707924
1.111714336649356
1.117974827381068
1.11801656663103
1.07097592329825
1.116055985227452
1.118014674671747
1.118016638765136
1.030422702050114
1.112263652768942
1.117883110485659
1.118015519879059
1.035902942282595
1.112597107746442
1.117887994989853
1.118015543544039
1.034070829734556
1.112625534340074
1.117892989440644
1.118015579866998
1.032917093299549
1.113019281620799
1.117909283116822
1.118015720481745
1.070975923298418
1.116055985229389
1.118014674674343
1.1180166387677
1.016923539708276
1.111714336651741
1.117974827383197
1.118016566632057
0.9272666357542234
1.103620773904932
1.11787324160339
1.118016295099787
0.8137578231533995
1.090918330041982
1.117616593634661
1.118015673067336
1.118016430515534
1.1176926876271
1.096920966984181
0.8650437519774419
1.118011633695587
1.117264668353553
1.087340833141349
0.8089528186716977
1.118015548225282
1.11736084570272
1.083673081305754
0.7843184849040574
1.118014084272999
1.117230960647537
1.078002465411996
0.7339445226834215
0.9632702820441256
1.109752708419274
1.118003701000174
1.118025927911551
1.157178380317534
1.130874574153959
1.11919766061396
1.11801267478359
1.266875421602264
1.140354079591278
1.120562339332168
1.117843522051908
1.235673554263744
1.130645069042048
1.117431930018165
1.1178150552418
1.117930327089969
1.116696102548964
1.048617556381364
0.8549962183411254
1.117865593571443
1.116360030575268
1.051277281692563
0.8895310424878089
1.117897507994545
1.116753780524461
1.074827952885689
0.9704589317785067
1.117837692049526
1.117253113798163
1.104580989143397
1.068338854110728
0.8476391913481659
1.062762092204623
1.117195413119378
1.117944968920999
0.847969791727326
1.071304288511257
1.117375304261538
1.117978859795852
0.8458109236864
1.079804687047955
1.117618312535722
1.117981447783242
0.8369255583951186
1.085147575207974
1.117681797755722
1.118000633219111
1.118016385361973
1.117999295615132
1.11239978881305
0.8707310783544095
1.118015234515963
1.117965869189799
1.107154649422831
0.8529111301994378
1.118013185948646
1.117889053370638
1.099749138625666
0.8323150731024164
1.118004484491135
1.117822888832188
1.0929976808912
0.8332515854580209
1.118016686622492
1.118016635298894
1.118016633246518
1.118016569324181
1.118015236008499
1.118016624059851
1.118016690404073
1.11801760834766
1.117251086621378
1.118010536400978
1.118046085817381
1.118243489951416
1.058410708249207
1.116408942191034
1.1194687719155
1.123715795003047
1.118015998675118
1.118023779832757
1.118807075406237
1.128543288242985
1.118013669043394
1.118039989084184
1.119624743338572
1.133226372547428
1.118008899864632
1.118050669513035
1.120206734208752
1.136766719637485
1.118004048195821
1.118029107736841
1.1198415313821
1.138537299142306
1.1180136818138
1.117970144152415
1.112861265803762
1.099640649747792
1.118009356511726
1.117897263868045
1.112633112829306
1.119119017096303
1.118003339270929
1.11792482864949
1.116203297233645
1.129521863234718
1.118002014717455
1.117986973357796
1.11841701189794
1.136813002853549
1.060285286931885
1.115505060651153
1.118004503270386
1.118015565170651
1.058625495612576
1.115618692226117
1.118003888456221
1.118015345026576
1.056246844497267
1.115809437980902
1.118006600629128
1.118016328343407
1.060135460408438
1.116573764178458
1.118013056953342
1.118016593383053
1.061332054106088
1.118035184417278
1.11801639247554
1.118016633947914
1.06304720215939
1.117729487440612
1.118016642515754
1.118016635911361
1.071194193685432
1.117846301700351
1.118016635143461
1.118016635922711
1.092599914459319
1.117937577035026
1.118016636714251
1.118016635923693
1.118016635923821
1.118016635923733
1.118016564304643
1.118005047104498
1.11801663592382
1.118016635923392
1.11801636497191
1.117884478273934
1.11801663592382
1.1180166359359
1.118015307932489
1.117262935360079
1.11801663592382
1.118016635620078
1.118003533679609
1.112388397813164
1.117965225195617
1.117631321431709
1.115185994064491
1.097197222627953
1.117631321431661
1.116064999874444
1.105497154496276
1.057271053401053
1.115185994065554
1.105497154498716
1.063719060982767
0.9640266247686523
1.097197222628623
1.057271053403907
0.964026624772742
0.8402203561870148
0.7984982801922473
0.8440577033978059
0.9300038629398696
1.007278262271432
0.8565147399918632
0.8689533510123744
0.9079584796736234
0.9631413856084075
0.8933116696980026
0.9049261858618917
0.9375976765306249
0.9739354313070101
0.9249222650676894
0.9325812746440191
0.9561179286367905
0.9787292195165813
0.9933363953712705
1.000573393835163
1.006001624359571
1.018385347376123
0.9832225451487485
1.000184213004282
1.00657132559655
1.041394436453481
0.9638115136928456
0.9942187955050212
1.004774398137465
1.103873098429078
0.9323871988882305
0.9401747040314196
0.9525526042328236
1.186386221061871
1.200119252096848
1.210934772833043
1.175581504236961
1.163233810032762
1.285123958051237
1.283066981140867
1.224687425428158
1.194076358177786
1.426393768736025
1.328967378743237
1.249553649443548
1.211067594028281
1.156839364244901
1.053896509163691
1.027479433637841
1.036589250661948
1.155013846288387
1.147077153615263
1.141812883731947
1.137099302193775
1.175738113797299
1.161733567289344
1.152154555435947
1.144966775921119
1.188080583229054
1.171587585421533
1.159592780225409
1.150719824625026
1.057889106491089
1.081224542511189
1.100860606560592
1.110777087477918
1.130767641719624
1.121942051220631
1.092114693966955
0.8344987681702244
1.135987506277947
1.123594828346006
1.062735781031837
0.6825560470628002
1.140115097060904
1.124993711451591
1.009023605802619
0.5422466200251572
1.11504909432019
1.120809354932245
0.8918178171451115
0.2974309276042918
0.6183969210852217
0.6774294399815095
0.7104448081109171
0.743048682640866
0.5637280505744359
0.6557909646009095
0.7074426100108808
0.7422791952161911
0.4571186194291183
0.5917555366341672
0.6787335361185394
0.7312972806471906
0.2402487957474586
0.384378522866976
0.5239885085913017
0.6223277302680326
0.7618634420028114
0.7698173710092315
0.7783605694065311
0.7880097136837262
0.7590165788464246
0.7671279065236017
0.7768287376016213
0.7872590505359048
0.7556265381564936
0.7656184209996483
0.7760153988967184
0.7864666882060471
0.6928106536648952
0.7255630854752413
0.7416538975514024
0.7494630945773949
0.8025369039265702
0.840641010513665
0.916467009583508
1.024828976896924
0.802190807536743
0.8388032015476747
0.9172800818829342
1.059972786794743
0.8011438032604395
0.8307320787830081
0.9367361646997903
1.348145846291203
0.7742323971691465
0.8079453959221222
0.9576547370871987
1.872110161180783
1.220453982134166
1.3754083581441
0.4939470167368324
0.2281486914862793
1.303926247376477
1.157392017747412
0.2540387631464228
0.09004083491809668
1.40303569024542
0.8185553424196677
0.08015956534444665
0.07379660207634282
1.134814424010339
0.3548540321436747
0.09806207574922068
0.03469838178972772
0.1350599360029622
0.08758217139511443
0.04735800585209928
0.04742761087754119
0.0403947129582173
0.02076596057347612
0.05890871649553069
0.1086628785355332
0.03453073362175971
0.05465027373598541
0.1062336789085056
0.1657758719002901
0.02060079487745428
0.06623281668050146
0.1440872323553314
0.1775774360985499
0.3461779642015376
0.7286677360890935
0.9658475356347369
1.133983217212454
0.133658253731375
0.522795852675933
0.8312830717556792
1.064558587896369
0.06405045211890008
0.2490447989746414
0.6025335781516862
0.9854783288785967
0.1088903560957588
0.07092489568976437
0.4614272171340738
1.040508075948445
1.347918700252769
1.683558152900753
1.581053066833004
1.056462936299535
1.269615380711138
1.439845853110503
1.163689920321564
0.7415874619234495
1.227458876956828
1.00401571459882
0.64638485284752
0.3099668159938037
0.8933122965389695
0.4163242497472117
0.2507865383121529
0.2477874071301785
0.2469403791116785
0.226435140771468
0.1893491205531931
0.1444293186477101
0.2021057350363325
0.2098816276051715
0.2204735998332224
0.1957573904692761
0.228531826339563
0.08589497627594345
0.1678711382746373
0.1782751566240262
0.6218558646823449
0.3801453317126616
0.2474923842361985
0.2126562984415706
0.1444293186475331
0.1957573904691718
0.1782751566240969
0.2126562984407648
0.1893491205528524
0.2204735998328864
0.1678711382746297
0.2474923842362019
0.226435140771001
0.2098816276048151
0.08589497627583502
0.3801453317127108
0.2469403791113183
0.2021057350362632
0.2285318263395792
0.6218558646823176
1.056462936298525
1.581053066831925
1.683558152900716
1.347918700252087
0.7415874619234226
1.16368992032159
1.439845853110803
1.269615380710862
0.3099668159938622
0.6463848528477728
1.004015714599056
1.227458876957038
0.2477874071299887
0.2507865383119524
0.4163242497472702
0.8933122965394842
1.040508075948455
0.4614272171340638
0.07092489568986678
0.1088903560958364
0.9854783288784565
0.6025335781516536
0.249044798974778
0.06405045211907431
1.064558587895742
0.8312830717554051
0.5227958526756685
0.133658253730557
1.133983217211393
0.96584753563425
0.7286677360885594
0.3461779642002994
0.04742761087909933
0.04735800585158991
0.08758217139455685
0.1350599360039631
0.108662878535717
0.05890871649718726
0.02076596057356303
0.04039471295920716
0.1657758719003893
0.106233678909302
0.05465027373644973
0.03453073362137542
0.1775774360987306
0.1440872323564458
0.06623281668086013
0.02060079487646036
0.2281486914854265
0.4939470167325057
1.37540835813825
1.220453982133448
0.09004083491864535
0.2540387631447006
1.157392017745327
1.303926247376763
0.07379660207581117
0.08015956534521092
0.8185553424176358
1.403035690245098
0.03469838178860225
0.09806207574937781
0.3548540321415491
1.134814424011161
1.024828976897149
0.9164670095839207
0.8406410105137598
0.8025369039269036
1.059972786794717
0.9172800818830706
0.8388032015477139
0.8021908075370195
1.348145846290824
0.9367361646998145
0.8307320787830305
0.8011438032605784
1.872110161179912
0.957654737087114
0.8079453959221148
0.7742323971690405
0.78800971368411
0.7783605694064196
0.76981737100956
0.7618634420030261
0.7872590505361047
0.7768287376015376
0.7671279065238253
0.7590165788468918
0.7864666882061534
0.7760153988967111
0.7656184209997823
0.755626538156297
0.7494630945778044
0.7416538975514047
0.7255630854754687
0.6928106536633253
0.7430486826417948
0.710444808110432
0.6774294399837039
0.6183969210841385
0.742279195216763
0.7074426100105209
0.6557909646022398
0.563728050574462
0.7312972806470655
0.6787335361185236
0.5917555366345955
0.4571186194296605
0.622327730266378
0.5239885085934077
0.3843785228663201
0.2402487957478896
0.8344987681702086
1.092114693966954
1.121942051219636
1.130767641720187
0.682556047062484
1.062735781032853
1.123594828345575
1.135987506278815
0.5422466200265765
1.009023605804817
1.124993711451265
1.140115097061915
0.2974309276057058
0.8918178171450928
1.120809354928719
1.115049094319463
1.137099302191657
1.141812883732364
1.147077153616377
1.155013846288759
1.144966775917726
1.152154555438682
1.161733567289069
1.175738113798323
1.150719824620805
1.159592780230019
1.17158758541957
1.18808058323066
1.110777087474497
1.100860606565761
1.081224542507196
1.057889106492302
1.163233810033792
1.175581504237708
1.21093477283249
1.200119252095886
1.194076358178631
1.224687425429471
1.283066981139477
1.285123958050064
1.211067594029107
1.249553649445183
1.3289673787415
1.426393768734552
1.036589250662034
1.027479433639747
1.053896509163676
1.156839364245408
1.018385347376723
1.006001624361138
1.000573393834995
0.9933363953712129
1.041394436453987
1.00657132559763
1.000184213003769
0.9832225451483216
1.103873098428995
1.004774398137989
0.9942187955041466
0.963811513692209
1.186386221061051
0.9525526042329936
0.9401747040310398
0.932387198889992
0.9787292195179663
0.9739354313071592
0.9631413856088382
1.007278262270956
0.9561179286378232
0.9375976765309436
0.9079584796743934
0.9300038629400995
0.9325812746456724
0.9049261858626628
0.8689533510131909
0.8440577033993519
0.9249222650702286
0.8933116696993941
0.8565147399927396
0.7984982801941134
1.073674950719871
1.115304099345338
1.117988372282582
1.118016514315303
1.074177923643106
1.115529282170318
1.117981327342611
1.118016422054916
1.052463439117565
1.114789932896892
1.117966207760765
1.118016285896374
1.030435718174098
1.11357474704165
1.117936567022737
1.118016014332326
1.118015519877783
1.117883110485404
1.112263652768838
1.030422702046811
1.118015543544177
1.11788799498904
1.112597107746173
1.035902942283866
1.118015579866808
1.117892989442058
1.11262553433971
1.034070829735963
1.11801572048164
1.117909283118087
1.113019281620065
1.032917093301067
1.118016014333486
1.118016285895593
1.118016422054272
1.118016514316948
1.117936567024074
1.117966207760803
1.117981327342062
1.117988372281866
1.113574747041713
1.114789932896941
1.115529282169542
1.115304099346401
1.030435718174396
1.052463439117725
1.074177923642423
1.073674950719561
)
;

boundaryField
{
    back
    {
        type            empty;
    }
    inlet
    {
        type            calculated;
        value           nonuniform List<scalar> 
16
(
1.11801663592382
1.11801663592382
1.11801663592382
1.11801663592382
1.118016635923669
1.118016635924104
1.11801663591843
1.118016634880303
1.118016634880106
1.118016635918428
1.118016635924089
1.118016635923693
1.11801663592382
1.11801663592382
1.11801663592382
1.11801663592382
)
;
    }
    front
    {
        type            empty;
    }
    top
    {
        type            calculated;
        value           uniform 0;
    }
    outlet
    {
        type            calculated;
        value           nonuniform List<scalar> 
16
(
1.118015204368593
1.118015230060543
1.11801527001103
1.11801543732622
1.118016476220814
1.118016359199284
1.118016182616281
1.118015825091325
1.118015204367541
1.118015230060625
1.118015270010954
1.118015437326117
1.118015825092363
1.118016182615492
1.118016359198753
1.118016476222373
)
;
    }
    bottom
    {
        type            calculated;
        value           uniform 0;
    }
    wall
    {
        type            calculated;
        value           uniform 0;
    }
}


// ************************************************************************* //
