/*--------------------------------*- C++ -*----------------------------------*\
  =========                 |
  \\      /  F ield         | OpenFOAM: The Open Source CFD Toolbox
   \\    /   O peration     | Website:  https://openfoam.org
    \\  /    A nd           | Version:  11
     \\/     M anipulation  |
\*---------------------------------------------------------------------------*/
FoamFile
{
    format      ascii;
    class       volVectorField;
    location    "6.9";
    object      U;
}
// * * * * * * * * * * * * * * * * * * * * * * * * * * * * * * * * * * * * * //

dimensions      [0 1 -1 0 0 0 0];

internalField   nonuniform List<vector> 
5472
(
(10.22756 2.4842773 1.573142e-18)
(10.419542 2.4856733 -1.6380777e-18)
(10.607219 2.4760537 -1.6393727e-18)
(10.8082 2.4496912 -1.6558243e-18)
(10.975047 2.4059335 5.1256181e-18)
(11.160471 2.3520981 -4.1920056e-20)
(11.348638 2.2622123 -2.6825543e-18)
(11.505493 2.1850217 9.3556849e-19)
(11.678461 2.0676561 0)
(11.822279 1.9612517 0)
(11.968306 1.8155743 0)
(12.099489 1.6908338 -2.8075849e-18)
(12.204696 1.5150616 1.4388739e-18)
(12.323864 1.3811404 -2.8035258e-20)
(12.404911 1.1672572 9.5283111e-19)
(12.476778 1.0242088 -4.9143806e-19)
(12.544434 0.79575596 -7.2703893e-19)
(12.568713 0.63625009 2.5129624e-19)
(12.60781 0.410753 0)
(10.207316 2.2652805 -1.4416053e-18)
(10.375213 2.2540193 2.9680874e-18)
(10.54571 2.2690883 -1.5281031e-18)
(10.718229 2.2466075 -1.5211427e-18)
(10.890888 2.2143282 2.829295e-20)
(11.084689 2.1598188 0)
(11.246131 2.0894876 1.6066772e-18)
(11.405222 2.0220741 -3.2567461e-18)
(11.57055 1.9171281 4.1955762e-18)
(11.707091 1.8217282 8.5081981e-19)
(11.856505 1.6941472 0)
(11.978886 1.5695981 1.7469409e-18)
(12.100658 1.4220295 0)
(12.201609 1.2730759 4.3468892e-19)
(12.286419 1.0975714 -4.4791571e-19)
(12.361269 0.94669665 0)
(12.417272 0.75267749 0)
(12.452851 0.60834651 -2.2006131e-19)
(12.497984 0.4082503 0)
(10.218072 2.0726968 0)
(10.361141 2.0951077 1.3557387e-18)
(10.517264 2.1163683 1.382735e-18)
(10.686622 2.096718 0)
(10.867982 2.0852687 -2.3250278e-20)
(11.037737 2.0521445 -3.1475199e-20)
(11.17726 2.0027894 -1.4922604e-18)
(11.333998 1.9449129 0)
(11.494184 1.8516645 -1.5079834e-18)
(11.623924 1.7685749 -3.8444386e-18)
(11.773967 1.6504708 1.5924714e-20)
(11.888437 1.5386687 -7.6472776e-19)
(12.005922 1.4053817 -7.880008e-19)
(12.097593 1.2645385 1.6150828e-18)
(12.188371 1.1091839 1.2091531e-18)
(12.257294 0.95604204 4.0644484e-19)
(12.318826 0.7811664 2.0094473e-19)
(12.364641 0.63450496 -3.0317694e-19)
(12.395696 0.43632989 1.0076107e-19)
(10.190857 1.8903861 0)
(10.296618 1.9170557 -1.2236649e-18)
(10.467056 1.9434532 -1.2466958e-18)
(10.631971 1.9261235 2.5268093e-18)
(10.774549 1.9348683 -1.3329957e-18)
(10.915459 1.8931527 0)
(11.052267 1.8653538 -1.3519313e-18)
(11.2216 1.7969784 1.3508062e-18)
(11.357784 1.7284693 -1.3982322e-18)
(11.498536 1.6519544 -2.3055977e-20)
(11.640932 1.5435602 -1.4285908e-18)
(11.756546 1.4483138 0)
(11.877466 1.3166898 0)
(11.977759 1.1916246 -7.1876228e-19)
(12.073679 1.0381256 -7.2209852e-19)
(12.145005 0.89089201 0)
(12.207306 0.72592753 -1.8199223e-19)
(12.247598 0.57203127 9.2556204e-20)
(12.273094 0.39259686 1.829024e-19)
(10.197276 1.7136138 0)
(10.308686 1.7710098 0)
(10.489364 1.7708361 0)
(10.584951 1.7925149 -2.294877e-18)
(10.724783 1.8041589 1.1959224e-18)
(10.868867 1.7799546 -3.5842962e-18)
(11.02508 1.7608288 4.8844215e-18)
(11.169519 1.7071791 -2.4778807e-18)
(11.294254 1.6563127 3.8352865e-21)
(11.443752 1.5783556 1.2609733e-18)
(11.560351 1.5010886 1.2739018e-18)
(11.686317 1.4050959 -2.5922946e-18)
(11.799992 1.2852662 1.9660105e-18)
(11.906123 1.1736875 -6.6250788e-19)
(11.990551 1.0306511 0)
(12.05944 0.90006694 6.668364e-19)
(12.112176 0.74573348 -3.3352579e-19)
(12.152202 0.60190762 1.6442029e-19)
(12.170435 0.43098547 -1.6315476e-19)
(10.167925 1.5617696 0)
(10.277118 1.5989112 -4.020454e-18)
(10.400766 1.6179426 2.0729493e-18)
(10.485239 1.6609994 2.1038083e-18)
(10.658923 1.6580004 1.0625732e-18)
(10.771332 1.644283 -1.0740302e-18)
(10.916955 1.6361432 2.2306398e-18)
(11.030816 1.5911285 1.1115629e-18)
(11.17341 1.5543999 2.2515604e-18)
(11.310392 1.4827082 -2.3013321e-18)
(11.432381 1.4119711 2.1470382e-20)
(11.570187 1.3068844 2.3450099e-18)
(11.66856 1.2152641 0)
(11.771792 1.0975191 -5.9804345e-19)
(11.853228 0.97217676 5.9140137e-19)
(11.933005 0.84152998 -1.4874959e-18)
(11.997538 0.68945214 5.9514913e-19)
(12.048041 0.55204375 -1.482912e-19)
(12.080425 0.39453698 6.0857206e-22)
(10.158982 1.4102467 3.5873532e-18)
(10.265635 1.4650655 3.6400967e-18)
(10.383611 1.4788784 0)
(10.494853 1.5198937 -7.4658558e-21)
(10.647274 1.5115552 -3.860143e-18)
(10.729408 1.5240303 3.9540098e-18)
(10.875996 1.506062 0)
(10.981167 1.4893258 -1.019072e-18)
(11.128998 1.4556503 -4.0883064e-18)
(11.246121 1.3967413 2.0961774e-18)
(11.373132 1.3478802 1.0395634e-18)
(11.480453 1.2613251 -1.0664348e-18)
(11.583072 1.1788892 0)
(11.685048 1.0592692 5.2984747e-19)
(11.765029 0.96017463 0)
(11.839117 0.82077337 -5.338941e-19)
(11.89739 0.69618372 8.068205e-19)
(11.940501 0.55415086 1.0427941e-21)
(11.963009 0.41100094 -1.2005418e-21)
(10.135977 1.2813944 1.6060818e-18)
(10.263311 1.3052938 -3.2765233e-18)
(10.342622 1.3434143 -3.3264287e-18)
(10.444275 1.3925835 3.4221141e-18)
(10.547815 1.4001435 -1.7527695e-18)
(10.636973 1.416657 -1.7628047e-18)
(10.789351 1.3918443 0)
(10.874115 1.3919428 2.7189805e-18)
(11.035433 1.34844 -1.6355031e-20)
(11.120383 1.32175 -2.7955731e-18)
(11.269509 1.2589618 2.8543713e-18)
(11.364346 1.1835628 0)
(11.488753 1.1083707 0)
(11.5744 1.0020122 9.5429084e-19)
(11.667381 0.90322669 -4.914779e-19)
(11.73276 0.76928108 -9.6499032e-19)
(11.802006 0.66259496 2.4469e-19)
(11.838451 0.51969578 2.4576275e-19)
(11.874533 0.39926854 5.9227138e-20)
(10.138206 1.1457897 -1.4432664e-18)
(10.24117 1.1880899 4.4080019e-18)
(10.298203 1.2161568 -4.5346891e-18)
(10.429983 1.2369331 3.0681177e-18)
(10.497844 1.2563712 0)
(10.637621 1.2944776 1.5811498e-18)
(10.726018 1.2788352 -1.6304299e-18)
(10.82515 1.2922285 0)
(10.955936 1.2465169 8.2301914e-19)
(11.044361 1.2402956 -1.7046609e-18)
(11.189858 1.1731678 -8.4207073e-19)
(11.27073 1.1287828 -1.1970799e-20)
(11.401079 1.046927 -2.5821975e-18)
(11.465525 0.96536089 4.4607166e-19)
(11.570694 0.86753276 -4.2405841e-19)
(11.622469 0.75329789 8.6990608e-19)
(11.695872 0.64055141 -4.3014873e-19)
(11.722945 0.51044609 2.2162217e-19)
(11.766475 0.39384742 2.1496322e-19)
(10.126315 1.0266091 -2.6068221e-18)
(10.229132 1.0531549 0)
(10.287236 1.1127368 1.3495664e-18)
(10.394832 1.1374314 -4.1170295e-18)
(10.456686 1.1531664 1.4174787e-18)
(10.586879 1.1692205 -1.433412e-18)
(10.656215 1.1732462 1.4417638e-18)
(10.797665 1.1910743 -1.4831005e-18)
(10.884193 1.1572105 0)
(11.003135 1.157298 7.4876228e-19)
(11.114082 1.0903773 0)
(11.207342 1.0680335 7.5958209e-19)
(11.324509 0.9781739 -1.7160848e-22)
(11.397847 0.91830996 -3.8241316e-19)
(11.505084 0.81016536 3.8352246e-19)
(11.553625 0.72358482 3.8468468e-19)
(11.627549 0.60571281 -3.5536472e-21)
(11.653193 0.49597879 -5.7835793e-19)
(11.694145 0.37800636 0)
(10.135202 0.88566971 0)
(10.212631 0.92719861 1.1889551e-18)
(10.262513 0.97645042 0)
(10.371615 1.0021751 1.2190979e-18)
(10.430195 1.052175 -3.7768909e-18)
(10.532094 1.0490305 3.8496471e-18)
(10.588914 1.0689775 -1.2786431e-18)
(10.707465 1.0724346 3.976183e-18)
(10.785112 1.0756919 0)
(10.90817 1.0690529 6.7690544e-19)
(10.993554 1.0198704 0)
(11.100338 0.99065994 -1.3575105e-18)
(11.190903 0.91512549 2.7479331e-18)
(11.279998 0.87007171 -9.9304214e-21)
(11.366895 0.76882199 -3.4729771e-19)
(11.423856 0.70538756 0)
(11.498253 0.57707094 0)
(11.526233 0.48895988 0)
(11.567561 0.35760568 -4.3066758e-20)
(10.152135 0.78858869 4.1459705e-18)
(10.203573 0.82929649 -5.3276759e-18)
(10.257425 0.87779867 2.1570202e-18)
(10.340834 0.90912795 -1.0877015e-20)
(10.390057 0.94164704 0)
(10.49354 0.9529663 -2.2737678e-18)
(10.55441 0.97399325 1.1783422e-18)
(10.670712 0.96825797 -1.1721577e-18)
(10.737158 0.98945129 0)
(10.866167 0.97695559 -5.9801431e-19)
(10.933537 0.96225609 1.2036067e-18)
(11.062934 0.92525219 -1.6497907e-20)
(11.1307 0.86257153 -1.2328349e-18)
(11.242352 0.80497709 -2.4485061e-18)
(11.307932 0.71924318 2.153969e-18)
(11.38666 0.65531559 -1.2304233e-18)
(11.435584 0.54964858 7.7178309e-19)
(11.481617 0.47286918 1.5425039e-19)
(11.506589 0.35215125 3.7798301e-20)
(10.140236 0.6660628 -6.5030868e-18)
(10.166007 0.72888874 3.80831e-18)
(10.243536 0.75885904 0)
(10.299464 0.79819586 -4.9073008e-18)
(10.36157 0.83309678 4.0301422e-18)
(10.436924 0.85392009 1.021873e-18)
(10.49983 0.8766866 3.0956062e-18)
(10.601669 0.87260953 -2.1088234e-18)
(10.6632 0.88927847 -2.639412e-18)
(10.777135 0.87726774 1.616837e-18)
(10.83999 0.87722898 2.1431042e-18)
(10.955658 0.83931135 -3.2614634e-18)
(11.011374 0.81048492 2.178962e-18)
(11.123797 0.74907918 -5.5622483e-19)
(11.171435 0.69313868 2.689574e-19)
(11.269828 0.61637117 -5.3106032e-21)
(11.300335 0.52803838 -6.8396003e-19)
(11.364981 0.44209158 -1.352399e-19)
(11.373478 0.33176529 -3.4077531e-20)
(10.148484 0.5832841 2.4971448e-18)
(10.186426 0.62963424 3.3697586e-18)
(10.247559 0.66677321 -3.458607e-18)
(10.277758 0.71198408 8.7880915e-19)
(10.352568 0.73621914 -2.6609034e-18)
(10.401995 0.77109295 2.7399779e-18)
(10.48873 0.78486814 9.1363645e-19)
(10.553074 0.80217199 -4.6615915e-18)
(10.632888 0.81639762 3.2927621e-18)
(10.734095 0.81217199 -1.439183e-18)
(10.798841 0.81754861 0)
(10.906759 0.78249257 -4.8367123e-19)
(10.966601 0.75546012 -1.4471718e-18)
(11.072907 0.68839764 4.9791552e-19)
(11.12297 0.64853137 1.4604285e-18)
(11.217396 0.57205613 4.8298005e-19)
(11.246807 0.51650467 -9.6924853e-19)
(11.313469 0.42729678 2.4400352e-19)
(11.311423 0.34363286 2.7080924e-19)
(10.108805 0.49602783 -3.6819374e-18)
(10.142629 0.53275203 3.0186154e-18)
(10.193061 0.56648876 0)
(10.238517 0.60943901 -7.7898784e-19)
(10.300764 0.63521368 3.1624789e-18)
(10.350288 0.67046339 -6.4430798e-18)
(10.424405 0.68509977 8.4872071e-19)
(10.469787 0.71157348 3.3310174e-18)
(10.562809 0.71223102 2.5131089e-18)
(10.62658 0.7331316 -4.2281506e-19)
(10.715201 0.72895296 0)
(10.801055 0.71493232 2.1221163e-18)
(10.880235 0.68561623 -8.6663999e-19)
(10.962235 0.63645151 8.58264e-19)
(11.022554 0.59158538 -1.2928412e-18)
(11.109692 0.52164294 -2.1577256e-19)
(11.148606 0.47419231 0)
(11.224364 0.38853558 0)
(11.238608 0.32757198 -2.674994e-20)
(10.135702 0.42427356 6.2898636e-19)
(10.174209 0.45522831 -6.0298364e-18)
(10.210195 0.49381635 2.7132449e-18)
(10.255459 0.53170079 -3.4704294e-18)
(10.298424 0.56010184 -7.0222372e-19)
(10.352103 0.59518793 0)
(10.414368 0.61249891 -3.6030538e-18)
(10.47428 0.6351027 2.2118241e-18)
(10.559433 0.63589987 -7.4149784e-19)
(10.612262 0.65825607 -2.4065435e-21)
(10.702477 0.6539684 0)
(10.760899 0.6620704 0)
(10.849435 0.63737419 -3.7693542e-19)
(10.903021 0.60819782 -3.775153e-19)
(10.981362 0.55198528 1.8880462e-19)
(11.026558 0.50088322 1.1352076e-18)
(11.080584 0.43897185 -7.6080635e-19)
(11.124884 0.37326405 9.5015968e-20)
(11.155616 0.31051097 2.3369696e-20)
(10.103406 0.34989951 4.0643086e-18)
(10.131924 0.38268349 -4.161341e-18)
(10.164095 0.4126278 0)
(10.206956 0.44127179 6.1244582e-19)
(10.239219 0.47401981 0)
(10.289907 0.50322255 6.327489e-19)
(10.336474 0.53354246 6.4108293e-19)
(10.403041 0.55807481 0)
(10.465672 0.56848579 3.2529827e-18)
(10.531686 0.58248675 -2.3190191e-18)
(10.610147 0.57339561 1.6518636e-18)
(10.679218 0.57723089 -1.3388661e-18)
(10.768578 0.55859592 1.330012e-18)
(10.833142 0.54478839 -1.2813217e-20)
(10.921747 0.49939666 -1.3455452e-18)
(10.963029 0.46335246 -1.6645784e-19)
(11.031692 0.39541466 -1.6783616e-19)
(11.055938 0.34623546 -8.2926447e-20)
(11.102007 0.27517472 0)
(10.127144 0.29186896 4.651601e-18)
(10.154518 0.32048666 0)
(10.185108 0.34519903 0)
(10.22176 0.3775531 5.4286548e-19)
(10.260291 0.39949773 0)
(10.308053 0.42312321 -5.5712966e-19)
(10.348329 0.45241051 -5.639511e-19)
(10.407855 0.47957128 -2.2752793e-18)
(10.454546 0.50285658 2.3152342e-18)
(10.519567 0.52001073 0)
(10.570028 0.52133934 -2.6176302e-18)
(10.634971 0.52353501 2.0642478e-18)
(10.698348 0.50895937 1.1717323e-18)
(10.764999 0.49594584 -2.3580288e-18)
(10.833947 0.46132996 2.3588193e-18)
(10.88514 0.43181455 -1.7702517e-18)
(10.946556 0.37548799 5.8910096e-19)
(10.976788 0.33441902 0)
(11.021011 0.26735164 0)
(10.10092 0.23656485 7.3048356e-18)
(10.116675 0.26509701 -3.7221134e-18)
(10.141029 0.28743009 3.7647522e-18)
(10.170545 0.31537048 -4.3198906e-18)
(10.203083 0.33494582 -3.8750323e-18)
(10.241157 0.35809889 3.9487043e-18)
(10.284211 0.37917591 1.9847235e-18)
(10.338842 0.40165547 -1.4929771e-20)
(10.394551 0.42545786 -2.0374443e-18)
(10.459996 0.44432871 0)
(10.516451 0.45168953 0)
(10.589044 0.45377474 2.5721023e-19)
(10.642333 0.44657646 0)
(10.718852 0.43302502 1.0317936e-18)
(10.772421 0.4083361 -1.0405434e-18)
(10.835563 0.37669795 -5.1603721e-19)
(10.883774 0.33225566 6.4739089e-19)
(10.92657 0.29362612 -3.2224511e-19)
(10.960958 0.23662831 2.5727312e-19)
(10.112024 0.19700489 0)
(10.127239 0.21476054 0)
(10.157605 0.23341833 3.3229417e-18)
(10.178558 0.25493001 -3.386679e-18)
(10.208219 0.27471514 3.8442926e-18)
(10.237251 0.30170113 -3.9108718e-18)
(10.27553 0.31841387 0)
(10.317542 0.34041095 4.4312802e-19)
(10.364013 0.36125072 1.7773878e-18)
(10.418512 0.38088914 -1.802915e-18)
(10.473234 0.39416369 1.7981888e-18)
(10.538991 0.40386619 -1.4933654e-20)
(10.594677 0.40111372 -3.6332586e-18)
(10.665461 0.39186317 1.8259549e-18)
(10.718828 0.37354613 0)
(10.780134 0.3461216 -9.0547489e-19)
(10.819203 0.3122468 1.4190425e-18)
(10.869974 0.27408734 -6.2332967e-19)
(10.894539 0.2262119 2.2568199e-19)
(10.07589 0.16234967 1.1038218e-17)
(10.099111 0.17264893 -5.7959339e-18)
(10.117766 0.18786367 0)
(10.147676 0.20274178 -3.722468e-19)
(10.17585 0.21994394 -3.7630077e-19)
(10.206057 0.23767371 3.8062668e-19)
(10.245754 0.25758004 0)
(10.281704 0.2785285 -3.8786941e-19)
(10.331181 0.2953932 3.1205479e-18)
(10.377113 0.30945135 -3.1623168e-18)
(10.430462 0.319638 0)
(10.489522 0.32860347 0)
(10.549763 0.33333202 1.994158e-19)
(10.611031 0.33066306 9.9802243e-20)
(10.668596 0.31914178 -9.9797384e-20)
(10.726936 0.30174793 0)
(10.774479 0.27086177 -4.4563195e-19)
(10.820757 0.2415375 3.9735494e-19)
(10.852218 0.2003166 0)
(10.079052 0.12939513 -1.0044977e-17)
(10.095396 0.14087053 1.0510276e-17)
(10.112326 0.15380051 -1.8919555e-20)
(10.137212 0.1611931 -4.9172034e-18)
(10.154522 0.17532494 0)
(10.189729 0.18719102 2.6702349e-18)
(10.213052 0.20841453 -5.5748445e-18)
(10.259262 0.22682851 2.733723e-18)
(10.296537 0.24643091 0)
(10.343853 0.2636567 -2.7506635e-18)
(10.391964 0.27352662 2.7821247e-18)
(10.443852 0.27990081 1.3848782e-18)
(10.501461 0.28336247 -1.3967909e-18)
(10.558651 0.28022535 1.213766e-18)
(10.617175 0.27170704 -1.3104701e-18)
(10.668762 0.25576077 0)
(10.720359 0.23241237 -4.3509225e-20)
(10.764542 0.20630827 -1.2948635e-19)
(10.803734 0.17018251 1.8356121e-19)
(10.065877 0.094428562 2.7622545e-19)
(10.079979 0.10338709 -5.6035346e-19)
(10.10609 0.11535449 4.533414e-18)
(10.12192 0.1289971 2.7024649e-19)
(10.147838 0.1342484 -3.1038932e-19)
(10.174359 0.14402901 -4.7066387e-18)
(10.199136 0.15342927 1.4787652e-19)
(10.241232 0.16559567 2.5296108e-18)
(10.27206 0.18324083 -2.4098006e-18)
(10.320779 0.19790129 -1.5115433e-19)
(10.359449 0.21499026 0)
(10.411949 0.22286732 2.5740396e-18)
(10.458976 0.23306443 -2.5942579e-18)
(10.514224 0.23209073 -1.1371998e-18)
(10.569711 0.23123111 8.4290298e-20)
(10.625466 0.22177574 1.8241703e-18)
(10.673392 0.20392742 -5.7012203e-19)
(10.720246 0.18581182 -5.6629784e-20)
(10.755851 0.15537214 -9.3815561e-21)
(10.043192 0.069118436 0)
(10.058079 0.076885125 2.4600836e-19)
(10.074168 0.083636625 3.9810348e-18)
(10.094635 0.093320525 -4.4180142e-18)
(10.11959 0.10237601 4.194354e-18)
(10.139388 0.11084392 -4.1230632e-18)
(10.169533 0.12056152 1.2981194e-19)
(10.197624 0.12901623 -1.3035008e-19)
(10.234951 0.13985427 1.9624128e-18)
(10.276422 0.14933331 -1.9846644e-18)
(10.322169 0.1579726 1.9762821e-18)
(10.375816 0.1650542 -2.1933638e-18)
(10.429118 0.16864438 0)
(10.488584 0.16797328 1.0567277e-18)
(10.538228 0.16404565 -1.195261e-18)
(10.594701 0.15671837 5.2746361e-19)
(10.643528 0.14230284 -4.9624185e-19)
(10.694072 0.12739938 -2.3001263e-19)
(10.732695 0.10491483 2.6679785e-19)
(10.035019 0.040680581 -1.1002257e-20)
(10.051006 0.04841587 -6.9183462e-18)
(10.063497 0.053383731 1.0936513e-19)
(10.086279 0.060697272 -2.0781175e-22)
(10.106955 0.067532927 1.1142565e-19)
(10.130385 0.075018588 0)
(10.158883 0.081982462 3.6200831e-18)
(10.185104 0.089667074 -3.7752929e-18)
(10.220166 0.099458923 1.1450678e-19)
(10.254308 0.10780183 -1.7795665e-18)
(10.292162 0.1196459 3.7533853e-18)
(10.335573 0.12642919 -3.7019801e-18)
(10.379311 0.1362232 1.85835e-18)
(10.433505 0.1380119 0)
(10.490926 0.14092282 -8.9203767e-19)
(10.547387 0.13972141 9.2462797e-19)
(10.601098 0.13076533 -1.4283401e-20)
(10.649678 0.12515279 4.5851985e-23)
(10.690276 0.10619545 -3.5587347e-21)
(10.014806 0.0220493 6.0342564e-18)
(10.024582 0.026005926 -6.052241e-18)
(10.040539 0.029336845 6.0375158e-18)
(10.060584 0.031854167 9.661349e-20)
(10.081699 0.034214456 0)
(10.107988 0.035159368 0)
(10.13409 0.037667039 -4.9280965e-20)
(10.164622 0.040391383 -3.1277668e-18)
(10.198242 0.042250742 3.258691e-18)
(10.234156 0.045459881 3.1738192e-18)
(10.276774 0.047670224 -1.5479422e-18)
(10.320131 0.050429989 -1.6894843e-18)
(10.370146 0.053555764 0)
(10.421688 0.052308112 2.516823e-20)
(10.474155 0.050426202 2.5035917e-20)
(10.530372 0.044726831 7.8507391e-19)
(10.587184 0.040572909 -8.1236558e-19)
(10.6382 0.03891991 1.7994521e-19)
(10.680469 0.026332563 -1.9840741e-19)
(10.010321 0.0058483908 -4.0651685e-20)
(10.017251 0.0089355698 5.2426024e-18)
(10.028595 0.013583117 -8.0592546e-21)
(10.043801 0.018701986 -1.1387718e-20)
(10.062651 0.023772001 -5.4128319e-18)
(10.085146 0.028668396 0)
(10.111493 0.033241738 2.6931873e-18)
(10.14213 0.037496279 -2.7194282e-18)
(10.1772 0.041316391 -4.3092057e-20)
(10.216739 0.044173153 -2.1596178e-20)
(10.260583 0.045884022 -2.1619963e-20)
(10.308218 0.045978859 2.1619238e-20)
(10.359629 0.044675839 0)
(10.409514 0.043245707 1.3583989e-18)
(10.458467 0.045812649 -1.3901198e-18)
(10.50641 0.043443476 -6.7965282e-19)
(10.550362 0.047264452 6.9396934e-19)
(10.605638 0.051842695 3.4977617e-19)
(10.639243 0.042108245 -3.4423506e-19)
(12.595237 0.24845694 -1.1705563e-19)
(12.618455 0.037863856 -4.6966906e-19)
(12.577351 -0.11969984 4.5881745e-19)
(12.535342 -0.31320797 0)
(12.485104 -0.47305997 -8.4948849e-19)
(12.389052 -0.62661668 -1.6503811e-18)
(12.336177 -0.79200074 0)
(12.186395 -0.90297812 -2.9406631e-20)
(12.128403 -1.0994966 2.82181e-18)
(11.947131 -1.1627616 1.3626245e-18)
(11.839717 -1.3727931 -1.2860798e-18)
(11.686946 -1.4261837 2.4458053e-18)
(11.505817 -1.5785381 -2.2929703e-18)
(11.352989 -1.690766 0)
(11.118471 -1.7350278 1.0751928e-18)
(10.915365 -1.9294508 -9.8376251e-19)
(10.69804 -1.9270086 -1.9481377e-18)
(10.411425 -2.0846048 1.8283849e-18)
(10.201331 -2.13492 -8.6958316e-19)
(12.477012 0.26331982 -1.0238309e-19)
(12.500784 0.033727616 6.1102657e-19)
(12.44402 -0.12314467 -4.0069839e-19)
(12.420395 -0.3374226 0)
(12.340822 -0.49327318 -7.5920498e-19)
(12.269898 -0.66860461 2.1835895e-18)
(12.177035 -0.82045798 0)
(12.053592 -0.94896568 0)
(11.95303 -1.1126924 0)
(11.772075 -1.1859428 0)
(11.632779 -1.3615381 2.3183386e-18)
(11.459065 -1.3896322 -3.3492192e-18)
(11.259253 -1.5296931 -3.2464952e-18)
(11.10834 -1.5620263 2.0219517e-18)
(10.830942 -1.6181353 -1.9575109e-18)
(10.651552 -1.6926571 1.9209245e-18)
(10.371934 -1.6711328 -1.7096735e-20)
(10.146138 -1.7495337 -1.7241728e-18)
(9.9188078 -1.709737 1.722379e-18)
(12.393201 0.27982557 0)
(12.399264 0.06268104 -3.6076281e-19)
(12.339385 -0.092913613 -7.0325927e-19)
(12.314701 -0.30484732 -3.6433866e-21)
(12.206053 -0.44770174 -9.680254e-21)
(12.134876 -0.63340176 1.3163095e-18)
(12.001701 -0.76443207 -2.4974774e-18)
(11.879296 -0.91542799 1.1870332e-18)
(11.749068 -1.0379677 2.6062987e-20)
(11.574338 -1.1383411 0)
(11.420661 -1.2548088 3.2019066e-18)
(11.227846 -1.3045016 1.931065e-20)
(11.053482 -1.3930461 1.9645892e-18)
(10.861822 -1.400906 1.9249071e-18)
(10.636373 -1.4329113 2.7347375e-18)
(10.425554 -1.4253799 -3.4503599e-18)
(10.139655 -1.4072194 -4.9059748e-20)
(9.9096821 -1.3724017 3.2340564e-18)
(9.6753247 -1.3042808 1.6586895e-18)
(12.27968 0.23054276 3.1468955e-19)
(12.269636 0.027967345 -6.2821422e-19)
(12.228238 -0.14049742 9.242679e-19)
(12.178727 -0.33421267 0)
(12.08792 -0.48154674 1.7635344e-18)
(12.005118 -0.6470673 -2.8554185e-18)
(11.871665 -0.77546521 2.2225082e-18)
(11.751264 -0.90605144 -6.7824251e-21)
(11.587217 -1.0079802 3.0138158e-20)
(11.426213 -1.1001021 -1.0181704e-18)
(11.253976 -1.1612176 0)
(11.047895 -1.2212004 -9.1826808e-19)
(10.877983 -1.2270555 9.4479067e-19)
(10.649971 -1.2394817 -1.7082827e-18)
(10.480709 -1.202643 0)
(10.235056 -1.1550103 0)
(10.017879 -1.0884252 -1.5419785e-18)
(9.7695947 -0.97005276 0)
(9.5443387 -0.86491638 1.4887347e-18)
(12.176599 0.26969202 2.7448713e-19)
(12.157731 0.066563715 -2.7278645e-19)
(12.116285 -0.10578623 5.4222028e-21)
(12.055893 -0.29453153 -5.2803275e-19)
(11.961358 -0.44566207 5.0758013e-19)
(11.852122 -0.60413812 -3.587394e-21)
(11.722759 -0.72602356 -9.7921375e-19)
(11.587652 -0.83715245 0)
(11.410999 -0.93192585 -1.8631485e-18)
(11.262267 -0.9889406 8.9094792e-19)
(11.073394 -1.0397396 0)
(10.906249 -1.0528998 0)
(10.722639 -1.0307917 -1.6168795e-18)
(10.523436 -1.0182321 -1.611177e-18)
(10.370497 -0.91755289 1.5584233e-18)
(10.148806 -0.86433636 3.0146211e-18)
(9.9993706 -0.70745503 1.52198e-18)
(9.755866 -0.58294437 -1.3536583e-18)
(9.6293886 -0.3725826 -2.5459311e-20)
(12.096884 0.23054164 0)
(12.079929 0.037177018 2.4003233e-19)
(12.045085 -0.13378634 -1.1760004e-18)
(11.963312 -0.3117766 4.6540219e-19)
(11.86425 -0.44901902 1.3680589e-18)
(11.750474 -0.59472509 -9.0810064e-19)
(11.608949 -0.69639035 -1.7665636e-18)
(11.464904 -0.7959618 1.6940525e-18)
(11.292949 -0.85364392 -8.6347041e-19)
(11.116878 -0.90058225 1.6067255e-18)
(10.940431 -0.91014271 0)
(10.757203 -0.89167631 0)
(10.588754 -0.85121415 -1.5072227e-18)
(10.396276 -0.7704322 4.3490953e-18)
(10.273348 -0.6669854 -5.5711202e-18)
(10.082406 -0.54850247 2.68525e-18)
(10.026782 -0.35334516 -5.2753512e-18)
(9.821151 -0.21694391 1.2585595e-18)
(9.8015163 0.052439015 2.4521308e-18)
(11.965467 0.24761882 5.2646868e-20)
(11.952696 0.065424176 2.1022501e-19)
(11.899665 -0.10986069 -4.1029361e-19)
(11.820878 -0.27309066 0)
(11.731717 -0.41869952 -8.0874965e-19)
(11.611322 -0.54675969 2.3699508e-18)
(11.478247 -0.64625203 -1.5359249e-18)
(11.332539 -0.71951733 7.6792649e-19)
(11.174812 -0.75922943 -1.5041557e-18)
(11.003354 -0.78360846 4.3786137e-18)
(10.849994 -0.7556884 -2.8050274e-18)
(10.670545 -0.7243211 0)
(10.547695 -0.62936778 1.327979e-18)
(10.360016 -0.5428108 2.6389415e-18)
(10.283621 -0.40311189 -3.7614542e-18)
(10.117216 -0.25185212 3.7118051e-18)
(10.126656 -0.063593884 -3.5700958e-18)
(9.9775924 0.12623512 -2.3446411e-18)
(10.05792 0.39939198 -1.1583526e-18)
(11.885969 0.22666555 1.3676702e-19)
(11.875177 0.056488322 1.8155889e-19)
(11.831262 -0.11541352 -3.5829458e-19)
(11.754035 -0.27062547 0)
(11.653972 -0.40506299 1.4054166e-18)
(11.517568 -0.50985011 -7.0097781e-19)
(11.375841 -0.5956264 0)
(11.215799 -0.63892426 -1.346086e-18)
(11.062706 -0.67394301 6.6826708e-19)
(10.892287 -0.6559191 0)
(10.753452 -0.62346956 -1.2806461e-18)
(10.599584 -0.54584591 1.2493913e-18)
(10.499068 -0.44669382 1.216425e-18)
(10.365339 -0.33180552 -2.3685793e-18)
(10.324333 -0.16067212 2.2568903e-18)
(10.217512 -0.011778177 -1.0956961e-18)
(10.266461 0.20317405 -1.0706055e-18)
(10.207222 0.41612281 -1.0317059e-18)
(10.38599 0.6619639 -9.9345133e-19)
(11.768348 0.22688413 3.1668492e-19)
(11.754048 0.069944735 -1.5659236e-19)
(11.697448 -0.10191178 0)
(11.617557 -0.24819652 0)
(11.531484 -0.37192903 -1.2322746e-18)
(11.405235 -0.46679271 1.2202469e-18)
(11.283882 -0.53762873 0)
(11.138712 -0.56229513 5.8938493e-19)
(10.994744 -0.57657742 -5.805753e-19)
(10.847419 -0.52690305 0)
(10.731008 -0.48731348 1.1189911e-18)
(10.602436 -0.37169696 1.8449797e-20)
(10.521629 -0.28447083 1.6041635e-20)
(10.442141 -0.11425443 0)
(10.438642 0.018325856 -4.1017721e-18)
(10.406202 0.2159104 3.9178125e-18)
(10.512778 0.39339208 4.7842592e-18)
(10.536257 0.58723351 -6.4328181e-18)
(10.802025 0.80246436 4.4142154e-18)
(11.693433 0.22921094 0)
(11.692423 0.076040432 2.2751121e-21)
(11.626822 -0.10014827 0)
(11.54955 -0.22382462 0)
(11.442903 -0.3366252 5.3477848e-19)
(11.31041 -0.41445808 9.7111797e-21)
(11.174588 -0.4690272 -5.3582607e-19)
(11.025969 -0.47567163 -1.5951263e-18)
(10.897085 -0.47024987 2.0542331e-18)
(10.775636 -0.40778858 0)
(10.676385 -0.35083497 -1.0100008e-18)
(10.594086 -0.21625905 -5.9248365e-18)
(10.553729 -0.12584564 2.8490199e-18)
(10.540216 0.056038492 0)
(10.57948 0.15539754 -3.6427698e-18)
(10.6372 0.37399695 4.3660644e-18)
(10.788056 0.44316118 -3.404211e-18)
(10.917522 0.64984756 4.0739551e-18)
(11.255421 0.6984677 0)
(11.568619 0.23243179 -2.3980213e-19)
(11.563356 0.065949687 1.205973e-19)
(11.501922 -0.086672634 0)
(11.43672 -0.19889105 -9.549605e-19)
(11.338126 -0.31137871 1.4138479e-18)
(11.235186 -0.36896813 -4.6555545e-19)
(11.110615 -0.40245991 -1.4234109e-18)
(10.983149 -0.3969637 3.2440071e-18)
(10.874494 -0.37635706 -1.8120607e-18)
(10.776848 -0.29907963 0)
(10.695579 -0.22455534 8.8063253e-19)
(10.662784 -0.096253114 5.2397417e-18)
(10.649755 -0.0047611777 -3.3691279e-18)
(10.702514 0.14647259 0)
(10.766404 0.22823396 0)
(10.923865 0.38990373 -1.5515481e-18)
(11.075547 0.37947346 7.4897591e-19)
(11.333232 0.50325751 -2.1648082e-18)
(11.588183 0.34532799 0)
(11.520933 0.24095416 -2.0847212e-19)
(11.511305 0.06907122 6.2518914e-19)
(11.443428 -0.051432956 -6.2240861e-19)
(11.362448 -0.1759641 0)
(11.250977 -0.267976 1.2548813e-18)
(11.147023 -0.31199076 -1.6308015e-18)
(11.034073 -0.33475114 0)
(10.927861 -0.32263091 8.1817658e-19)
(10.827434 -0.27952529 8.0974782e-19)
(10.760737 -0.19729801 0)
(10.715191 -0.12121321 0)
(10.732957 -0.01478151 -7.6245605e-19)
(10.755208 0.070821733 -2.2600088e-18)
(10.866859 0.17235784 -2.8372067e-20)
(10.959809 0.22061327 2.1094505e-18)
(11.178224 0.27073256 1.3683673e-18)
(11.301115 0.19973544 -6.6170951e-19)
(11.601544 0.15637375 1.2741862e-18)
(11.683781 -0.12680333 0)
(11.41369 0.2205739 0)
(11.396476 0.068546754 -7.2508167e-19)
(11.371161 -0.035541924 1.4419819e-18)
(11.28949 -0.15973778 -1.0793859e-18)
(11.202682 -0.22862111 0)
(11.089617 -0.27365594 0)
(10.993094 -0.27748037 0)
(10.906758 -0.25291943 -7.0706249e-19)
(10.827203 -0.19579157 -7.0133488e-19)
(10.789808 -0.13030547 0)
(10.775554 -0.056781547 -6.8896833e-19)
(10.826805 0.016079651 -6.75114e-19)
(10.880849 0.080122009 -6.5595347e-19)
(11.020452 0.1140011 2.5698824e-18)
(11.122089 0.11130883 -2.4782742e-18)
(11.331381 0.039624022 -6.0212793e-19)
(11.402642 -0.074528953 3.4865324e-18)
(11.630441 -0.24988805 -5.5856841e-18)
(11.554016 -0.55058672 3.2253037e-18)
(11.346652 0.21240919 -3.9527747e-20)
(11.298184 0.087111188 7.8958476e-20)
(11.285108 -0.023992956 7.8584398e-19)
(11.201548 -0.13072475 -1.8904197e-18)
(11.131736 -0.18540318 9.2988149e-19)
(11.032425 -0.22582473 0)
(10.955911 -0.21724916 0)
(10.882879 -0.18626341 6.2560229e-19)
(10.837362 -0.13135301 -2.4896355e-18)
(10.831729 -0.087368143 -6.4821171e-19)
(10.851587 -0.025245186 5.6916498e-19)
(10.91877 0.0053189405 2.9349157e-18)
(10.996981 0.040410901 5.7685243e-19)
(11.135966 -0.00062532824 0)
(11.213943 -0.055899964 1.6350562e-18)
(11.37085 -0.21187427 0)
(11.362621 -0.34366043 -3.0648164e-18)
(11.468693 -0.58116892 8.8681432e-18)
(11.271886 -0.8159412 -7.6168916e-18)
(11.288543 0.20212036 6.812482e-20)
(11.243673 0.09756166 -6.7647407e-20)
(11.230364 -0.025386216 0)
(11.142123 -0.11424121 -8.2667153e-19)
(11.081979 -0.16468711 2.5465679e-19)
(10.989775 -0.19156154 1.0829074e-18)
(10.9257 -0.16956655 0)
(10.869668 -0.14088327 -2.7292444e-18)
(10.85154 -0.10300524 1.5985785e-18)
(10.862047 -0.07486938 -3.6716184e-21)
(10.90379 -0.035501618 0)
(10.966226 -0.046127513 0)
(11.054102 -0.053470205 -5.0326976e-19)
(11.147824 -0.16182595 0)
(11.188223 -0.24685801 1.8959116e-22)
(11.254745 -0.45056245 9.2788281e-19)
(11.179199 -0.56264305 -2.701124e-18)
(11.170688 -0.79631781 6.9640174e-18)
(10.899889 -0.9361055 -3.3736785e-18)
(11.194376 0.20527854 2.0699947e-19)
(11.170731 0.11282742 -1.7672252e-19)
(11.160346 -0.016392977 0)
(11.082953 -0.079755018 0)
(11.037506 -0.12765555 0)
(10.956426 -0.14779163 0)
(10.912797 -0.12974915 -1.9123288e-18)
(10.884738 -0.11268952 1.8753142e-18)
(10.887513 -0.092718597 2.3564447e-18)
(10.906391 -0.082916958 -9.1583522e-19)
(10.963277 -0.070940036 0)
(11.008267 -0.11775968 3.6076384e-18)
(11.082283 -0.1690548 -6.5957659e-18)
(11.113714 -0.31443501 3.4286304e-18)
(11.111967 -0.4051727 -4.188194e-18)
(11.08244 -0.61202255 2.4393243e-18)
(10.97461 -0.67249001 -7.91503e-19)
(10.871809 -0.86527438 -7.6997345e-19)
(10.587109 -0.88030659 7.4584655e-19)
(11.110739 0.19951847 2.0470152e-19)
(11.129863 0.086648816 -6.6579284e-19)
(11.092891 -0.010772125 4.0823457e-19)
(11.04386 -0.059226716 -8.2594705e-19)
(10.988911 -0.11896305 8.1731359e-19)
(10.922767 -0.11964342 0)
(10.888852 -0.11409211 -4.1369619e-19)
(10.872912 -0.10918172 1.6418521e-18)
(10.885489 -0.099541274 -1.6103395e-18)
(10.902223 -0.10522712 -4.0175954e-19)
(10.958539 -0.12876753 -3.1882921e-18)
(10.97293 -0.20593327 3.1214534e-18)
(11.015825 -0.29084068 -3.8347587e-19)
(10.971477 -0.43616483 2.2569944e-18)
(10.927923 -0.51561559 -2.1936703e-18)
(10.806909 -0.68292687 0)
(10.686387 -0.68168991 -5.5868138e-18)
(10.523258 -0.80478879 6.0995244e-18)
(10.30262 -0.70504221 0)
(11.036549 0.20054018 -3.5429165e-19)