/*--------------------------------*- C++ -*----------------------------------*\
  =========                 |
  \\      /  F ield         | OpenFOAM: The Open Source CFD Toolbox
   \\    /   O peration     | Website:  https://openfoam.org
    \\  /    A nd           | Version:  11
     \\/     M anipulation  |
\*---------------------------------------------------------------------------*/
FoamFile
{
    format      ascii;
    class       surfaceScalarField;
    location    "0.35917";
    object      phi;
}
// * * * * * * * * * * * * * * * * * * * * * * * * * * * * * * * * * * * * * //

dimensions      [0 3 -1 0 0 0 0];

internalField   nonuniform List<scalar> 
1652
(
1.706212168242977
0.5337381654478417
-1.756372824956998e-13
1.172474003767
0.5337381584357146
9.350298313393068e-13
0.6387445864859522
0.5335572370401842
7.138734048339757e-13
0.5291694904820143
-8.93418672376356e-12
0.1057110406589883
1.706212168247669
1.067476330876229
1.172474005824499
1.067476302887171
0.638750260602108
1.067105722296333
1.053469866592825
0.1085005801435487
1.706212168244339
1.601214496297386
1.172474013687424
1.601214387050925
0.6388068615593818
1.600474275582662
1.57503754782731
0.1089062565166877
1.706212168319541
2.134952661525103
1.172474043710212
2.13495222923133
0.6388942364931789
2.133493918356236
2.097349451239506
0.1052266782887054
2.651191214818975
1.723711780178013
3.167429763794883
1.723711779123614
3.683668090480546
1.723711851121033
1.72371285878459
4.199906973520608
2.651189462314681
1.207473399190465
3.167421592895672
1.207473285160456
3.683647063709953
1.207475966032458
1.207511790812722
4.199820752715302
2.649582032398516
0.6899958935144226
3.166041312522009
0.6888419713748856
3.682703171775778
0.6872911912570631
0.6887251753342565
4.194527298605196
2.650868631189901
0.1168409505131432
3.273923255206608
0.04172636023878767
3.912941943388859
0.01812242388258972
4.554428671401555
0.01129196174503105
4.164891494974073
0.03501638607270885
4.129861179686775
0.0350047830112723
4.094845432781505
0.03485882224889136
0.03478331926071943
4.059708187900066
4.164990004139376
0.06971407722211875
4.130355918084758
0.06893690805580066
4.096343827711475
0.06750138293216545
0.06568092347865406
4.062545356716635
4.174764171496179
0.08242541629472677
4.160199915343708
0.07410927510757881
4.152931853888538
0.0615620477759905
0.05298921344659985
4.147960059841829
4.603036078589133
0.006229639583516244
4.647528446172954
0.005264700319461635
4.680668706886771
0.006630939387723078
4.712905637568159
0.007741260789988214
4.670359213838771
0.1044122561121079
-0.06872446928328482
4.585724497322387
0.1015275044825753
-0.01838151200479807
4.503698157252804
0.09666293309094021
-0.008941554985514188
0.08785533982036808
4.431586798993736
-0.006796858335943567
4.220078944695295
0.01360408681956787
4.275146199042083
0.0265082752238433
4.314324055322738
0.03726388383916218
0.04540444037188374
4.338128188362038
4.068842209284128
0.001072888294175511
4.081314011786338
0.002962767963594293
4.09884550619793
0.005654608311088105
0.009948494281584952
4.118420769071633
4.059561688107872
4.059934791024204
4.061254036022592
4.064431468700685
4.069793132391378
-0.01554211640329584
4.07767406803555
-0.02161839142411492
4.08761228579192
-0.02801322439961018
-0.0321004550918863
4.096894818733936
4.138832189192597
-0.05368976774437262
4.158800731013235
-0.06002666385662492
4.176980717837694
-0.06321153806161772
-0.06155558141196504
4.190957545942575
4.347619414540384
-0.0786450075390529
4.345712166219604
-0.06822606791543123
4.333665712688115
-0.05402121072398092
-0.0480845744792151
4.319215359273811
4.365082371594229
-0.007519516644048041
4.316453836953706
-0.005961309752335331
4.273253925162795
-0.00353861562567695
4.244335689703662
-0.002873083532174331
0.04262809349172858
4.228716191039776
-0.01744329660375851
0.05773985408586796
4.308740824753687
0.03446600851744563
4.199816835609355
4.101772511678407
0.04040680009485098
4.24956059140649
-0.1455895687965675
0.04759399525135832
4.301635367593073
0.03367262287989525
4.206130758617872
4.102788687376919
0.07811211042964494
3.985318745957068
-0.1400637221918176
0.04624653661790634
4.308901583835354
0.02809024363833412
4.211406066821955
4.097989752059127
0.1745817203860299
3.682583341334545
-0.0423505942850893
0.06564268103456106
4.316434012141213
0.02802409542215045
4.226399759635554
4.100454116217314
0.07034459507521518
3.979746980596579
0.1235978899495775
4.132359589824434
0.08033160434576003
4.217563162937359
3.561149874092082
0.1473703042455683
0.0662998722686976
3.876797323866647
0.08932326777888649
4.04270200811562
0.00862047884745798
4.094982980182433
3.434907409103346
0.1118009124205728
0.0528375251403036
3.784912491646167
0.01857121100488757
3.955609027219848
-0.07008033288532656
3.934838389521348
3.333135209891859
0.0584715842298954
0.02156135930567205
3.705409379202265
-0.08834554637160463
3.861360169038726
-0.1185402941397218
3.745560323159347
3.239366294164955
0.02715524987510931
0.1401784060541482
3.155246612042347
0.002297348603370164
0.1879808068567929
3.584177636714934
0.03391113765254739
3.734415933912981
3.642111034919532
0.1485346276073499
3.077843962969925
-0.006620712627994907
0.2559340502319267
3.472665360108599
0.1027377659786044
3.584915315253163
3.592072744741031
0.1404878900893937
2.99553341074256
0.002457746106680925
0.2945785051720449
3.346270491538998
0.1908271516340918
3.450031882334783
3.557242508885743
0.1100230542416911
2.890821401887851
0.01568725617787847
0.2666529875415753
3.22148167800526
0.2509402651315386
3.304391079875064
3.515318790586108
-0.2198704983138323
3.46427036472308
-0.1874261960992417
3.230011030436163
-0.04685145229714671
3.107202979865959
2.789533053678682
0.04415818097414359
-0.1620757862259055
3.402289947070976
-0.127113896769582
3.139756930170523
0.001564427090239739
3.005012461049001
2.70724919922917
0.06647076392947626
-0.1025220265713035
3.328766047309466
-0.0527703464654149
3.057232691745749
0.06928658257856074
2.911666833210375
2.641275420436143
0.1219732490134631
-0.03600462782417446
3.224132442988579
0.03386150089824669
2.966976741379574
0.1557031898704359
2.819891463258376
2.569310983072019
0.2296489337101819
-0.3468576547638346
3.454617039155494
-0.5764975982320174
3.185708441595959
-0.7153257970004766
3.000089458191325
2.633135487356821
-0.7690671628476295
-0.3002517656226681
3.65944011518058
-0.5257785982369045
3.40718219324078
-0.6287041856571042
3.176704860569964
2.281322538282387
-0.2632286015760297
-0.2736905067998967
3.84441600339155
-0.4821434154728594
3.62131838540994
-0.5140463724013505
3.331185133001334
1.80287378875581
-0.02967443782637335
-0.2403775553004979
4.010942697749366
-0.4394952332907665
3.827699900442497
-0.3629800107216972
3.439114908500184
1.418239570707909
-0.0122875541786823
0.1577926713226407
1.46034516064162
-0.01047304508955886
0.2075965991171842
3.530100004665711
0.1042205774479105
3.938092809582475
4.062768556946438
0.1656525603827119
1.439901756987295
-0.007973636018865984
0.1877536452451371
3.625895765252886
0.09473500644905308
4.050825867269219
4.107830887123862
0.1503872877465918
1.343353660424044
-0.003391835541000077
0.1686395094551354
3.723435795634742
0.08926498061949822
4.160138838173634
4.149703571331308
0.1199085450419133
1.254227102917546
0.002207638295157101
0.1500571144361085
3.816748462812185
0.08904821250439249
4.257631764133047
4.196422363701039
-0.2360046844233571
1.57036981588117
-0.01566828300895197
-0.1845562389371155
3.985505259324253
-0.04693955090665414
4.197875135989075
4.097630113873931
-0.2650140941609335
1.928221575343367
0.005996661155840993
-0.1780517799703774
4.068999975822542
-0.03208546356894892
4.11320019943381
4.060040292971395
-0.2623876308615146
2.245562139294202
0.03361666891477012
-0.1343876390766278
4.102173041548788
-0.02061275009632113
4.067411801903319
4.056533510634424
-0.232112589520251
0.0878910723726074
2.498508633280952
-0.1113278703583503
4.099441126421355
-0.0164728497508464
4.039813506610252
4.056694129844361
0.3370566189279645
-0.4387602364006564
-0.01287488754853352
5.60440582830779e-12
0.8929830914286639
-0.4129401965703132
-3.148592497836944e-13
1.633906020613276
-0.4647145682593665
7.491784970170556e-13
-0.517112223482227
-1.277955519185525e-11
0.3341248938607299
-0.8920730915474655
-0.01277955538198969
0.9069234528413296
-0.8653275415141835
1.634825713600605
-0.9425308710962139
-1.035781318842696
0.3307513693841525
-1.351535199132747
-0.01559349548576609
0.9267025908090933
-1.343179138164395
1.638918012797228
-1.451604450087664
-1.556759252113447
0.324116417056788
-0.01607872896592459
-1.703813734951172
0.9568681662218391
-1.851209358557267
1.647584955744074
-1.983871419267369
-2.082300218761712
-0.2321125895192732
-2.24556213929484
0.08789107237259214
2.498508633278743
-0.1113278703568177
-4.102173041553545
4.099441126420089
-0.01647284974649388
-4.067411801901863
4.03981350660711
-4.05653351063529
4.056694129840041
-0.2623876308607538
-1.928221575347573
0.0336166689150338
-0.1343876390778945
-4.068999975830534
-0.02061275009881358
-4.113200199436632
-4.06004029297528
-0.2650140941618868
-1.570369815886713
0.005996661156079969
-0.1780517799746819
-3.985505259331758
-0.03208546357357989
-4.197875135990429
-4.097630113876789
-0.2360046844240138
-1.254227102920616
-0.01566828300876118
-0.1845562389414839
-3.816748462822626
-0.0469395509106707
-4.257631764132163
-4.196422363691762
-0.1042205774429789
4.062768556963361
-4.010942697774447
-0.207596599105393
3.938092809604369
-3.827699900472514
-0.1577926713161212
3.530100004642624
-3.43911490847038
1.460345160613317
-1.418239570685545
-0.01047304508979346
-0.09473500644309041
4.107830887127813
-0.1877536452314127
4.050825867285267
-0.1656525603775793
3.62589576524045
1.43990175697721
-0.007973636019001001
-0.08926498061381877
4.149703571325744
-0.1686395094381835
4.160138838181186
-0.1503872877413218
3.723435795632158
1.343353660420489
-0.003391835540820912
-0.08904821249764344
-0.1500571144196743
-0.1199085450369817
0.002207638295155908
0.3629800107254759
-1.802873788742669
-0.01228755417866935
0.4394952333060558
-3.331185132987483
0.2403775553154736
-3.621318385437544
-3.844416003411556
0.5140463724054496
-2.281322538270263
-0.02967443782562159
0.4821434154876535
-3.176704860565374
0.2736905068111425
-3.407182193262052
-3.659440115195186
0.6287041856643816
-2.633135487352311
-0.2632286015749239
0.5257785982515758
-3.000089458189411
0.3002517656329541
-3.18570844160857
-3.454617039161516
0.715325797007446
-2.569310983071884
-0.7690671628494703
0.5764975982438636
-2.819891463259839
0.3468576547683276
-2.966976741385239
-3.224132442988054
-0.2198704983139609
3.464270364734555
-3.515318790602076
-0.1874261960919427
3.230011030450947
-3.304391079898279
-0.0468514522926986
3.107202979854519
-3.221481677988588
2.789533053667994
-2.890821401875974
0.04415818097402546
-0.1620757862194433
3.402289947078186
-0.1271138967612633
3.139756930179474
0.001564427094968845
3.005012461040075
2.707249199222967
0.06647076393093576
-0.1025220265689454
3.32876604731192
-0.05277034645719059
3.057232691752283
0.06928658258264253
2.911666833205343
2.641275420432809
0.1219732490139525
-0.03600462782021996
0.03386150090726259
0.1557031898739953
0.2296489337104026
0.110023054244489
-2.995533410732812
0.0156872561782474
0.2666529875483802
-3.346270491529047
0.2509402651338895
-3.450031882349065
-3.557242508897528
0.1404878900923361
-3.077843962963412
0.002457746106625636
0.2945785051800983
-3.472665360104896
0.1908271516378277
-3.584915315261716
-3.592072744747838
0.1485346276108274
-3.155246612037023
-0.006620712628817138
0.2559340502390157
-3.584177636716928
0.1027377659793139
-3.73441593391591
-3.642111034921988
0.1401784060561543
-3.239366294164219
0.002297348602778637
0.1879808068644377
-3.745560323165587
0.03391113765597253
-3.861360169039555
-3.705409379199854
0.07034459507658331
3.979746980597702
-4.100454116215105
0.1235978899503045
4.132359589825733
-4.226399759633623
0.08033160434625086
4.217563162940785
-4.316434012143364
3.561149874096587
-3.682583341337823
0.1473703042453977
0.06629987227060319
3.876797323868355
0.08932326778055943
4.042702008117808
0.008620478848222479
4.09498298018492
3.4349074091034
0.1118009124193201
0.05283752514217166
3.784912491647593
0.01857121100936554
3.955609027224157
-0.0700803328847398
3.934838389529836
3.333135209893115
0.05847158423087484
0.02156135930872416
-0.08834554636924463
-0.1185402941381912
0.02715524987544959
-4.097989752058582
-0.02802409542133022
-4.10278868737841
-0.02809024363746537
-4.101772511679768
-0.03367262287818151
-0.03446600851763371
-4.096894818734676
-4.211406066823124
-0.06564268103705073
-4.206130758616457
-0.04624653661852118
-4.199816835603385
-0.04759399525166846
-0.0577398540856785
-4.190957545937693
-4.308901583838144
-0.1745817203851841
-4.301635367593533
-0.07811211042857602
-4.30874082475286
-0.04040680009547859
-0.0426280934915983
-4.319215359275
-3.985318745962755
-0.04235059428520982
-4.249560591407323
-0.1400637221925667
-4.22871619103865
-0.1455895687948051
-4.244335689704405
-0.01744329660350652
-0.03210045509030601
-4.087612285791631
-0.06155558141130651
-4.176980717832556
-0.04808457447825598
-4.333665712691892
-4.273253925163758
-0.002873083531419074
-0.02801322440030374
-4.077674068035257
-0.06321153806061292
-4.158800731007815
-0.05402121072200705
-4.345712166225914
-4.316453836951715
-0.003538615624488928
-0.02161839142295574
-4.069793132392843
-0.06002666385620625
-4.138832189186131
-0.06822606791445163
-4.347619414548465
-4.365082371592957
-0.005961309752376742
-0.01554211640058567
-4.064431468705562
-0.05368976774508927
-4.118420769064106
-0.07864500753862924
-4.338128188370208
-4.431586798994728
-0.007519516643635038
-0.001072888296012708
4.059561688106215
-4.059708187896004
-0.01360408682252906
4.06884220926742
-4.062545356696514
-0.1044122561155744
4.220078944709303
-4.147960059857779
4.670359213848309
-4.712905637579308
-0.06872446928254022
-0.002962767969753255
4.059934791023918
-0.0265082752281941
4.081314011772077
-0.1015275044859586
4.275146199056473
4.58572449732976
-0.0183815120050734
-0.005654608312764653
4.061254036024679
-0.03726388384488211
4.098845506186331
-0.09666293309523205
4.314324055334278
4.503698157257162
-0.008941554986649836
-0.009948494285533904
-0.04540444037754954
-0.08785533982292587
-0.006796858335822747
-0.05298921345125002
-4.680668706895067
0.007741260789904891
-0.0656809234910406
-4.152931853895795
-0.03478331926597145
-4.096343827702848
-4.094845432781154
-0.06156204778152818
-4.647528446178272
0.006630939387529788
-0.06750138294513569
-4.160199915342546
-0.03485882225209302
-4.130355918089166
-4.129861179691756
-0.07410927511407012
-4.603036078586366
0.005264700319616844
-0.06893690806758807
-4.174764171487192
-0.03500478301180465
-4.16499000415676
-4.164891494977772
-0.08242541629926442
-4.554428671387962
0.006229639584440894
-0.06971407723468465
-4.194527298589365
-0.03501638607626756
-4.199820752743125
-4.199906973524242
-0.688725175332462
-3.912941943359304
0.01129196174614394
-1.207511790805094
-3.682703171764568
-1.723712858789747
-3.683647063725122
-3.683668090480809
-0.6872911912549781
-3.273923255173595
0.01812242388416646
-1.207475966025042
-3.166041312517812
-1.723711851122376
-3.167421592908708
-3.167429763798679
-0.6888419713745013
-2.650868631161235
0.04172636023657295
-1.207473285156508
-2.649582032398927
-1.723711779123975
-2.651189462323869
-2.651191214825087
-0.6899958935144546
-2.097349451227557
0.1168409505052396
-1.207473399190252
-2.133493918359797
-1.723711780188877
-2.134952229231132
-2.134952661529111
1.706212168246033
0.5337381654428797
1.172474003771609
0.5337381584406566
0.6387445864891613
0.5335572370443904
0.5291694904670252
0.1057110406626711
1.706212168248593
1.067476330870314
1.172474005825097
1.067476302886931
0.6387502606025114
1.067105722299505
1.053469866585771
0.1085005801459708
1.706212168246495
1.601214496294598
1.172474013687509
1.601214387050797
0.6388068615586605
1.600474275586475
1.575037547825406
0.108906256515799
1.706212168319981
1.172474043707875
0.6388942364902805
0.1052266782862277
0.1054761419645622
0.1054761419687249
0.1054651692335053
0.1079719817123455
0.1059222684112939
0.1078288351271603
0.1026801968142516
0.1077866918316278
0.1079719817098005
0.1054651692378106
0.10767806532176
0.1076780653241467
0.1081686664412154
0.1066958019965638
0.09904040158457973
0.1111322921847829
0.1078288351281034
0.1059222684147527
0.1066958019972656
0.1081686664437653
0.1063682150049569
0.1063682150053552
0.09589854043415841
0.1089246274571207
0.1026801968179679
0.1077866918334442
0.09904040158801763
0.1111322921869488
0.09589854043835901
0.1089246274568055
0.09567888134550452
0.09567888135052104
-0.03916510343742413
0.1340433363817834
-0.06253322352924107
0.1313135749401287
-0.08851704450600811
0.1359917199940221
0.1348761128516309
-0.005682881707022192
0.1388621925698741
-0.01617599646451939
0.1408676948334917
-0.02706073391620306
0.145898682124623
0.148434411748221
-0.0009906797611896057
0.1391872824017616
-0.0073455353468731
0.146499520781943
-0.01313653560848127
0.1509062948760532
0.1525087242285388
-0.001218480661144716
0.1398050020724478
-0.006135054253449623
0.1507768020670036
-0.009219469945490388
0.1533091646834046
0.1538226614663799
0.1533042365843982
0.006169760903273647
0.1533734917767187
0.004948799847644403
0.1526212641226572
0.00718281395379633
0.006669575076387546
0.1537757388922266
0.1535215114144064
0.005391542217584311
0.1538389387945382
0.004325645971743564
0.1539171265425087
0.00691409997218978
0.003199491077140126
0.1574327336673075
0.1528821430103487
0.002725303367994925
0.1538639426844085
0.003033045185832695
0.154705981149865
0.005884884778122823
-0.00975252250357822
0.1676850723798283
0.1419791930773306
0.1446524355564993
0.1502913483949468
0.1404653989739195
0.1403004683045642
-0.05510063826176212
0.1310947659477304
-0.00887012715273458
0.1296710077240293
-0.006960860065886476
-0.006209554020705971
0.1296573085610339
0.1446506704414625
-0.04222939179677856
0.138811701037119
-0.002739597012893891
0.1356431802753945
-0.003209331136722005
-0.00392531253519221
0.1339594602461688
0.1511973023082655
-0.0256997724960118
0.1456032898500652
0.003130112023829623
0.1416391185305211
0.00132651182597629
8.836825229058265e-05
0.1382196847369155
0.1147570015644836
0.1181772773228911
0.1201057038059089
0.1208108273596261
0.1299221002801465
-0.006882970607786254
0.1308467677774053
-0.005825023113182975
0.1320167205889717
-0.003769668243331109
-0.003039339992002232
0.1331236150593001
0.1327170546513247
-0.004748081069883447
0.1322469726546484
-0.004284819369218318
0.1322721224709099
-0.002832255206151879
-0.002529945512320636
0.1326973970032129
0.1355148166946112
-0.001149269514618606
0.1336098416275422
-0.001296622401680436
0.13255078087094
-0.0007890472215768551
-0.001116383697867568
0.1321968968418225
0.1205617178165167
0.1203318724132422
0.1204703032685091
0.1203663500294747
0.1377900831262127
-0.02478349059467472
0.1349033648137239
-0.1504359937595968
0.1107902190452683
-0.1230367881667502
-0.01105555006165626
0.08053149001227615
0.1322121808870925
-0.02827202205935461
0.1023673015693029
-0.1269897025884016
0.05613402398757472
-0.08150634579337052
-0.00262614414397222
0.0468124984379714
0.1239574165215798
-0.02438195407770918
0.0539686445823637
-0.06299184466241164
0.002583447973654701
-0.03526635552342378
-0.006641525420758188
0.004860968180569331
0.0909938160261578
0.02209136486501341
-0.01731472176017174
-0.02687705133580844
0.1047502202101952
0.1254355792651125
0.1177037106854086
0.1030306886525963
0.1245967376230238
0.05757138777103998
0.02674865853113195
0.1298490502713412
0.0861497085144039
0.08815774424817624
0.1121727161701039
0.08105305487274372
0.1233716078638194
0.0504176306291354
0.02495147026510258
0.1296002205829344
0.05319974243154171
0.04165515321663804
0.09765911947059538
0.04053305486394743
0.1175461858270286
0.03378910324576267
0.02013403128895852
0.1261504990440893
0.01607086611740571
0.06048762533691582
0.09670290202291698
0.1200197172463573
0.1350759776164704
0.00308458280477808
0.1400326756245283
-0.006424576498823442
0.1434906952483212
0.001368804999365869
0.01111760575871779
0.1477699194238063
0.1347844654228973
0.005063743755638228
0.139577798399666
-0.002631021635415287
0.1424724167657838
0.001747552241672001
0.006789496980827758
0.1464992547730975
0.1320035804548259
0.006209314258683429
0.1377128603574591
0.0001318888504946436
0.1417193997861207
0.001453652090962487
0.003116105719273232
0.1452942185834942
0.1330951526802693
0.1388459543152935
0.1429931746845013
0.1462826606909442
0.1586625069352813
0.03178591487010174
0.1726566872362339
0.05121382612387193
0.1922489690633959
0.1023238255445117
0.1805220062343343
0.241240865367247
0.1566713592666162
0.01993354792218804
0.1704590909026327
0.03610551656377048
0.1914995879784775
0.08113793153661969
0.1229141022154229
0.2492100748041088
0.1538896421168143
0.009768683577002779
0.1672292154258236
0.02141662889376583
0.194262528220267
0.05345247403909559
0.03429329926251173
0.2830990448454353
0.1546646669945273
0.1746592898645657
0.2273672465805293
0.2615303915240226
0.1220030673712752
-0.6494840286840892
0.01214901128292015
-0.1526557566992942
-0.002600358448892515
-0.01385291641283303
-0.009770826735635237
-0.003865013033325353
0.084640146194674
-0.4845195378653068
0.001806275211773488
-0.06912524236166415
-0.004316636336588539
-0.006803404351937455
-0.006320067147261087
-0.006751016214470116
0.04503317890244143
-0.246328651175214
-0.002596841915964464
-0.02080480557536394
-0.005882967380224044
-0.002579188383576992
-0.003321642722799212
-0.008048413485319253
0.01518017673655228
-0.004926782246193188
-0.006661407871702839
-0.009085001399529603
-0.005368222958373321
-0.007901113815589236
-0.006843335507454881
-0.005041735673675477
-0.008521007121389139
-0.0008062410548242485
0.003541865416346216
-0.009128284997445561
-0.008195201669775561
-0.005611929516571528
-0.009147940591859994
-0.002759317534522174
-0.009655214635798694
0.0007121342348962757
0.003170287223240524
-0.008475208421808237
-0.0096917845032908
-0.002881744395516498
-0.009471398773727989
-0.001543380610787362
-0.00870286645268039
0.0009323055656217383
0.002634846167319425
-0.007326331302325604
-0.01079490679692675
-0.01095158536628736
-0.009120018373724658
-0.005722507240430249
-0.008415758895432881
-0.01576263519365146
0.001958339970215307
-0.002831930750188685
0.0224916138373227
0.01464685300308999
0.07049895593629806
0.04245122335909128
-0.009501387242969178
-0.01395669118180712
-0.007040002915343239
-0.003669180110058866
0.008928784210449417
5.756507650543641e-05
0.04773025998045329
0.03390175010783008
-0.01176110452689884
-0.008572088611029954
-0.01144470305979822
-0.002548486930175432
-0.003590044759171643
-0.00644273593775202
0.02559004904541901
0.02035026671846089
-0.01308766797564302
-0.01387710832386923
-0.01900496037767614
0.009007281941404481
0.04130250928152373
-0.00636450373179747
0.01064475070506794
0.04001008924726062
-0.00745247908511746
0.01127331091803193
0.03678550272208651
-0.01238029949379898
0.0170477893311729
-0.01697662657631268
0.02819693007070474
0.02547361063730454
0.03267852328761403
-0.00379121613574581
0.03079693481937801
-0.004792882432380706
0.02750078612331309
-0.008740832079577952
-0.01083721139814018
0.02111606430478468
0.01851360480754111
-0.001715381117824169
0.01642501972495754
-0.002229403952689939
0.01258145224209273
-0.00444460794847526
-0.005018600444810634
0.006845411088672114
0.006554257894868874
0.004591504492281191
0.0002897977495434981
-0.0044135367015588
-0.006415923512067906
0.002585457085669735
-0.006059653342285427
0.0007787280380639056
-0.003636086323807061
-0.0008809749065945803
-0.001875801529917311
-6.221412274243221e-14
0.003500885075678029
0.006013800567596563
0.001030049130417925
0.00364320978057598
-3.97457123619202e-05
0.0009256517124140301
-0.0009161906044807544
-2.670780263613892e-14
0.01670678352920101
0.01018548214426146
0.01133186415131588
0.008935327780787487
0.005685329993051241
0.006660988769287387
0.005077523837150277
1.744437927442277e-14
0.02175661368393185
0.01432205637066441
0.007707085986677978
5.658667978636345e-14
-0.001875801529922515
0.00363608632368987
-0.0009161906044860835
3.974571230790785e-05
0.00507752383715921
-0.005685329993026338
-0.007707085986555909
0.01287488754851664
-0.0008809749065991808
0.00605965334222365
0.0009256517124110221
-0.001030049130464179
0.00666098876933811
-0.01133186415133229
-0.01432205637063655
0.01277955538209111
0.0007787280380502012
0.006415923511977006
0.003643209780575408
-0.003500885075701579
0.008935327780834414
-0.01670678352924217
-0.02175661368397305
0.01559349548586047
0.002585457085690433
0.00441353670155991
0.006013800567597
-0.006845411088691043
0.0101854821442717
-0.02111606430480509
-0.02819693007078231
0.01607872896593395
-0.03678550272205473
-0.01697662657627662
0.02547361063732077
-0.04001008924726884
-0.01238029949384382
0.01704778933119248
-0.04130250928149276
-0.00745247908517585
0.01127331091808138
-0.006364503731873791
-0.04245122335911542
0.01064475070515267
-0.02750078612333096
-0.01083721139815563
-0.03079693481939883
-0.008740832079617851
-0.03267852328760086
-0.004792882432428494
-0.003791216135810765
-0.03390175010793035
-0.01258145224211683
-0.005018600444825709
-0.01642501972497659
-0.004444607948486959
-0.01851360480758002
-0.002229403952713264
-0.001715381117844118
-0.02035026671853942
-0.000289797749565078
-0.004591504492318876
-0.006554257894951017
-0.009007281941499079
0.01900496037759701
-0.02559004904547774
0.01387710832383761
0.006442735937756447
0.01308766797563284
0.002548486930117215
0.008572088610956749
0.005722507240459272
0.003590044759069939
-0.04773025998050628
0.01144470305973854
-5.756507669582578e-05
0.01176110452683951
0.003669180109965517
0.01395669118175524
0.007326331302325045
-0.00892878421059265
-0.07049895593633206
0.007040002915240387
-0.01464685300334825
0.009501387242870911
0.00283193075009229
0.01576263519345591
0.008475208421790961
-0.02249161383745506
-0.001958339970349582
0.008415758895326633
0.009128284997429341
0.008521007121397115
0.003541865416345467
0.006843335507531858
-0.0008062410547755479
0.005368222958423942
-0.00504173567380364
-0.00790111381563538
0.0038650130332822
0.009655214635797717
0.003170287223233072
0.009147940591896792
0.0007121342349140462
0.008195201669787197
-0.002759317534614298
-0.005611929516621001
0.006751016214475841
0.008702866452688321
0.002634846167336419
0.009471398773748745
0.000932305565640508
0.009691784503298226
-0.001543380610830015
-0.002881744395545614
0.008048413485317847
0.009120018373762164
0.01095158536633134
0.01079490679695125
0.009085001399530796
0.002600358448865603
-0.00977082673554764
-0.0121490112824211
-0.0138529164125873
-0.1220030673702974
-0.1526557566986156
-0.6494840286847052
-0.2412408653672794
0.004316636336631183
-0.006320067147186054
-0.001806275211594672
-0.006803404351834571
-0.08464014619403126
-0.06912524236140741
-0.4845195378653159
-0.2492100748037546
0.005882967380253064
-0.00332164272278875
0.002596841916041654
-0.002579188383531717
-0.04503317890215561
-0.0208048055753277
-0.2463286511751666
-0.2830990448451239
0.006661407871708452
0.004926782246224137
-0.01518017673648292
-0.2615303915239739
-0.1922489690633669
0.1805220062345961
-0.1726566872362953
0.1023238255448005
-0.1586625069351905
0.05121382612486858
0.03178591487033244
-0.1477699194239295
-0.1914995879784156
0.1229141022156371
-0.1704590909025058
0.08113793153725252
-0.1566713592665323
0.03610551656440342
0.01993354792228119
-0.1464992547731679
-0.1942625282200589
0.03429329926241642
-0.1672292154256587
0.05345247403917547
-0.1538896421166975
0.02141662889426854
0.009768683577128012
-0.1452942185835569
-0.2273672465802772
-0.1746592898644996
-0.154664666994421
-0.1462826606909491
-0.1434906952483306
0.01111760575878917
-0.1400326756242831
0.001368804999086537
-0.1350759776160634
-0.006424576498899826
0.003084582804699698
-0.1298490502711754
-0.1424724167657994
0.006789496980214471
-0.1395777983993424
0.001747552242227779
-0.134784465422569
-0.002631021634598274
0.005063743756038575
-0.1296002205827485
-0.1417193997860413
0.003116105719608409
-0.1377128603570267
0.001453652091064406
-0.13200358045444
0.000131888850262718
0.006209314258427856
-0.1261504990440043
-0.1429931746844729
-0.1388459543151945
-0.1330951526800906
-0.1200197172460866
-0.1245967376230593
0.02674865853110953
-0.1177037106854817
0.05757138777060211
-0.1047502202102796
0.1030306886519388
0.1254355792655141
-0.08053149001251961
-0.1233716078640277
0.02495147026507694
-0.1121727161701338
0.05041763062812277
-0.08614970851461573
0.08105305487182846
0.08815774424856582
-0.04681249843817466
-0.1175461858270974
0.02013403128907176
-0.09765911947059761
0.03378910324545015
-0.05319974243176857
0.04053305486371661
0.041655153216689
-0.004860968180741443
-0.09670290202260386
-0.06048762533662612
-0.01607086611755998
0.02687705133584323
-0.1107902190457341
-0.01105555006165343
-0.1349033648141806
-0.1230367881673974
-0.1377900831264079
-0.1504359937585295
-0.02478349059433704
-0.1331236150595727
-0.05613402398792548
-0.00262614414404011
-0.1023673015699544
-0.08150634579378746
-0.1322121808873584
-0.1269897025879502
-0.02827202205906998
-0.132697397003418
-0.002583447973870404
-0.006641525420700511
-0.05396864458297354
-0.03526635552346458
-0.1239574165218536
-0.06299184466232899
-0.02438195407754798
-0.1321968968419614
0.01731472176008363
-0.02209136486521443
-0.09099381602628798
-0.1203663500294396
-0.1320167205890516
-0.003039339991333184
-0.1308467677772187
-0.003769668242724566
-0.1299221002801517
-0.005825023113360167
-0.006882970607855393
-0.129657308560873
-0.1322721224709386
-0.002529945511791337
-0.1322469726544924
-0.002832255205645923
-0.1327170546512251
-0.004284819369475279
-0.004748081069817833
-0.1339594602461462
-0.1325507808708165
-0.001116383697636864