/*--------------------------------*- C++ -*----------------------------------*\
  =========                 |
  \\      /  F ield         | OpenFOAM: The Open Source CFD Toolbox
   \\    /   O peration     | Website:  https://openfoam.org
    \\  /    A nd           | Version:  11
     \\/     M anipulation  |
\*---------------------------------------------------------------------------*/
FoamFile
{
    format      ascii;
    class       volVectorField;
    location    "0.3592362";
    object      U;
}
// * * * * * * * * * * * * * * * * * * * * * * * * * * * * * * * * * * * * * //

dimensions      [0 1 -1 0 0 0 0];

internalField   nonuniform List<vector> 
880
(
(24.99999999999999 -2.806161566927326e-12 0)
(24.99999998203183 -1.217438496460355e-08 0)
(24.99829023411761 -0.0005554035739070897 0)
(24.71736256724765 0.007624632296694703 0)
(24.99999999998872 -2.831373472585344e-11 0)
(24.99999994445427 -7.039831989911009e-08 0)
(24.99747957085502 -0.001722089759861223 0)
(24.63269617643678 -0.1593359460081769 0)
(24.99999999963697 -2.437823408124775e-10 0)
(24.99999976102305 -2.87187128323114e-07 0)
(24.99514552866739 -0.003584481106215925 0)
(24.5136022480627 -0.2644844609108849 0)
(24.99999999829957 1.052125192572766e-09 0)
(24.9999988181946 -1.167852879867044e-06 0)
(24.98908577744567 -0.00701678859625803 0)
(24.13724572112869 -0.413721859559182 0)
(25.0000000111903 -4.114300169148183e-09 0)
(24.99999998001881 8.778856007182294e-09 0)
(24.99999953213299 -9.298528309440593e-07 0)
(24.99999314126271 -1.184378141888502e-05 0)
(24.99999376799871 -4.448692800795389e-06 0)
(24.99996304604401 -1.867018797023469e-05 0)
(24.99985589074024 1.067238954355135e-05 0)
(25.00017477365741 -0.001107685294959891 0)
(24.97171070559951 -0.01019836399089934 0)
(24.95164295084669 -0.006360435656969704 0)
(24.92414659189291 0.01073098472273643 0)
(24.91407778476744 -0.06683442647093674 0)
(23.40264197997256 -0.0954220901297148 0)
(22.69017408314348 0.6348504607290277 0)
(22.26855556088406 1.33502714053166 0)
(22.24430313044236 1.746228713153243 0)
(24.99988402719424 -6.197645496694326e-06 0)
(24.99960661733946 -0.0003640885770180935 0)
(24.99925375463878 -0.001529055520341588 0)
(24.99747569956964 -0.004522237354975573 0)
(24.99801876349022 -0.0006931020443317966 0)
(24.99019680712421 -0.0003535501915277127 0)
(24.9771502996575 0.005493421801524882 0)
(24.95441944932304 0.008911106020690274 0)
(24.75586083905536 -0.01080200939545997 0)
(24.63017799282035 0.09839496196414915 0)
(24.46165130598992 0.2785201312831171 0)
(24.31834687563537 0.4062581241155147 0)
(21.98167298614797 2.34070811169392 0)
(21.9873269747884 2.779772027452402 0)
(21.88512243769119 3.317362191783749 0)
(22.33925927186023 3.75840969144292 0)
(23.38567603058755 4.323114313843983 0)
(24.11422397438365 4.173022299373882 0)
(24.45809828324816 3.766267255735097 0)
(24.81732924644328 3.31663454065429 0)
(24.07885913577826 0.7463993597263832 0)
(24.0938575747075 1.104403161010535 0)
(24.19611810130305 1.349489209960341 0)
(24.38213343301514 1.475562018404672 0)
(24.87564077781604 0.0352936598933189 0)
(24.7719027646504 0.115504717945881 0)
(24.6795396719695 0.2412736370114602 0)
(24.63421436461521 0.3945574991675805 0)
(24.9878737238438 -0.01055572044923061 0)
(24.9723628862869 -0.02426016169220768 0)
(24.95024696319876 -0.04404400790923431 0)
(24.92405126896546 -0.0705621973141779 0)
(24.90149118038352 -0.1010173920081528 0)
(24.88771117862049 -0.1311318478719278 0)
(24.88284640297913 -0.1445274288180417 0)
(24.88832734505219 -0.1379814664077944 0)
(24.63263738577497 0.5574759170241547 0)
(24.67445732549583 0.7120255266825036 0)
(24.76092275786014 0.8382247673619717 0)
(24.87669192897952 0.8925687378403759 0)
(24.54953969832874 1.608774278970319 0)
(24.75257910367592 1.654945375187414 0)
(24.94052677467419 1.62718263300052 0)
(25.0932332233302 1.555466180146057 0)
(24.99115114313534 2.905791806072204 0)
(25.17872792032756 2.489598240646469 0)
(25.29112392885001 2.094357762993837 0)
(25.36345346789143 1.778075421968875 0)
(25.42831541331843 1.377469344669421 0)
(25.24435175576746 1.453730691469614 0)
(24.99916034896144 0.912738579106137 0)
(24.89607459512738 -0.121225668012687 0)
(24.54806232559006 1.559494146771422 0)
(25.34338561303009 1.289316218693009 0)
(25.1434048009345 0.8617780451224392 0)
(24.9033323874981 -0.09618259192543316 0)
(19.15448262720053 1.728677154969777 0)
(25.15905320832842 1.297213677011159 0)
(25.25814757188372 0.7517600980778675 0)
(24.91621893916992 -0.08053414195834285 0)
(14.12716466755489 2.095954170580471 0)
(23.70234839061013 1.628792389318298 0)
(25.27711952719449 0.7747398179923647 0)
(24.94896444423894 -0.09185079026028115 0)
(24.95452948509755 -0.06679466576797263 0)
(25.21733442967782 0.7182206195941812 0)
(22.05149872910957 2.269342760360073 0)
(12.48986481756815 3.860296390694856 0)
(24.83136638584852 -0.08882823076411181 0)
(24.99459991114804 0.8082336026535706 0)
(20.60602666555313 3.31454734184863 0)
(12.79859277440275 5.640548016962307 0)
(24.7895081342376 -0.1158501839730794 0)
(24.47445616393046 1.156892737081634 0)
(18.82499713450077 4.649463526503702 0)
(12.64753634584927 7.078642091254877 0)
(24.698320047033 -0.1634656184744761 0)
(23.59935849627749 1.928799385224574 0)
(17.58778552488375 6.058357863662885 0)
(13.13583424151505 8.14418095670783 0)
(14.04754511907216 8.8557327489334 0)
(16.96792883246038 7.293789709610889 0)
(22.43004988506868 3.156608061765353 0)
(24.5183232530417 -0.1864962942959311 0)
(15.13572883479584 9.39329889764177 0)
(17.240883712791 8.219370069373705 0)
(21.21731844137907 4.641916534122415 0)
(24.19845632901441 -0.07130207504338111 0)
(16.37658832766939 9.684269908501712 0)
(18.11055369472976 8.754313212470887 0)
(20.70756770734425 5.995900140208676 0)
(23.69389748792362 0.2364110030049237 0)
(17.548062207804 9.756790750152604 0)
(19.3976167208121 8.854129562026383 0)
(20.87609056485366 7.035962823746374 0)
(23.19629125571181 0.7229059545169311 0)
(22.91098879532447 0.8509556003994033 0)
(22.04904189412034 7.091140132281254 0)
(21.12108704173165 8.806654277515326 0)
(18.9638578954219 9.897793477504894 0)
(23.45622466892463 0.6463772700435944 0)
(23.50851322027092 6.648119031891744 0)
(23.10798136883165 8.415244750699651 0)
(20.90706369299225 9.810493144955316 0)
(24.04000690473094 0.344110182708294 0)
(24.9316276297498 5.875073087927099 0)
(25.19364594605547 7.620151796026768 0)
(23.44735642895525 9.238275608681793 0)
(24.51868704778183 -0.2494453912208814 0)
(26.06332482747571 4.606849586391156 0)
(27.16638987943352 6.226687871066215 0)
(26.40059900350425 7.616385652527918 0)
(24.88419466676546 -0.307564570725386 0)
(26.92925865799664 3.628093295736245 0)
(29.04979348198944 4.804324974199409 0)
(30.68346458415955 4.759025877605058 0)
(25.30046678353351 -0.498950779955882 0)
(27.49765612327144 2.601741137195966 0)
(30.11084154002203 3.390622613596869 0)
(34.00251291097482 0.7046167713941683 0)
(25.54327168391757 -0.5425565122863562 0)
(27.54995519520914 1.64731696945056 0)
(30.83476165160938 1.256058877707574 0)
(36.34819603239718 -4.253949222324859 0)
(25.65369030555508 -0.5437356633106302 0)
(27.22444991913481 1.022791285602723 0)
(30.31236034491343 -0.3107757569770495 0)
(37.77925748551163 -9.251882073929528 0)
(34.01923775909505 -7.328026566679566 0)
(29.13039746489661 -1.41730530630687 0)
(26.94232601503042 0.3554887343644082 0)
(25.6937109385857 -0.546748308831061 0)
(25.63443088466149 -3.215014761720481 0)
(28.24646083388905 -1.936568464219074 0)
(26.64810598952706 -0.1001437708676163 0)
(25.62905161804711 -0.4720530065082292 0)
(23.08904833775879 -3.612740256715014 0)
(27.75005709362638 -2.841727644562885 0)
(26.39349372392206 -0.559430703295814 0)
(25.50626485110286 -0.3592873297908459 0)
(19.90311532330916 -3.659481909346561 0)
(26.9778258769697 -3.450133636855898 0)
(26.04930361919723 -0.9532374084937359 0)
(25.3897947804721 -0.2751038749407835 0)
(18.08527136476548 -4.760159633867906 0)
(25.7242798895805 -4.391146193280559 0)
(25.48601254898054 -1.289821771401095 0)
(25.18021635831747 -0.215667995400136 0)
(15.43324504959023 -6.81363618310824 0)
(24.08648760438678 -4.635057038218491 0)
(24.89651808902057 -1.12573259338615 0)
(25.00123583147974 -0.1079254188847381 0)
(14.37828719062425 -6.976678202951361 0)
(23.02531971067296 -4.048541671923775 0)
(24.65192843226683 -0.7359058716947533 0)
(24.97081080758285 -0.04913523754946068 0)
(14.33666182911482 -5.861276532862189 0)
(22.80033520359965 -3.600467087693513 0)
(24.67303677487574 -0.6014528745636528 0)
(24.97608490659173 -0.03607918456898927 0)
(14.22227654179278 -0.6632589273140478 0)
(20.34304872454298 -0.1132465350730285 0)
(23.64826373568663 0.01057974049817625 0)
(24.85559501163444 0.001982436521519069 0)
(14.20386571407239 -1.755762345151353 0)
(20.33969035133921 -0.5377966181294813 0)
(23.66317608399703 0.0006315180115606588 0)
(24.85253803392874 0.004365037935931976 0)
(14.41818433379059 -3.256088480323601 0)
(20.34760389807983 -0.9878992375116479 0)
(23.70249678194772 -0.07175583071571286 0)
(24.8517878545204 0.0002503040095593443 0)
(14.46999951928894 -4.6495702732698 0)
(20.55620231918856 -1.352428451127502 0)
(23.80223039386692 -0.1947160062056072 0)
(24.86017393619628 -0.01139032938711742 0)
(14.33666182912894 5.861276532841525 0)
(22.80033520362405 3.600467087685958 0)
(24.67303677499214 0.6014528745166614 0)
(24.97608490670174 0.03607918454962339 0)
(14.37828719064434 6.976678202921164 0)
(23.02531971075392 4.048541671976007 0)
(24.65192843232841 0.7359058716795281 0)
(24.97081080768288 0.04913523759561714 0)
(15.43324504963766 6.81363618312961 0)
(24.08648760441057 4.635057038257949 0)
(24.89651808901059 1.125732593430393 0)
(25.00123583151298 0.1079254189351048 0)
(18.08527136479279 4.76015963387048 0)
(25.72427988968941 4.391146193350959 0)
(25.48601254900024 1.28982177143559 0)
(25.18021635830841 0.2156679954480978 0)
(25.69371093855215 0.5467483087726054 0)
(26.94232601504623 -0.3554887343987257 0)
(29.13039746491674 1.417305306298878 0)
(34.01923775901964 7.328026566807404 0)
(25.62905161805097 0.4720530064569243 0)
(26.64810598953509 0.100143770860323 0)
(28.24646083394544 1.936568464224709 0)
(25.63443088472861 3.215014761823808 0)
(25.50626485104143 0.3592873297445785 0)
(26.39349372387678 0.5594307033213091 0)
(27.75005709371193 2.841727644695581 0)
(23.08904833768925 3.612740256758584 0)
(25.38979478038409 0.275103874920116 0)
(26.049303619127 0.9532374084654017 0)
(26.9778258769928 3.450133636933665 0)
(19.9031153233743 3.659481909374399 0)
(37.7792574855799 9.251882074079276 0)
(30.31236034490713 0.3107757569717022 0)
(27.22444991915852 -1.022791285610274 0)
(25.65369030553658 0.5437356632632364 0)
(36.34819603240685 4.253949222374036 0)
(30.8347616516429 -1.256058877665943 0)
(27.54995519524634 -1.647316969457042 0)
(25.54327168391107 0.5425565122987984 0)
(34.00251291098575 -0.7046167713524868 0)
(30.11084153994889 -3.390622613576126 0)
(27.4976561232993 -2.601741137172759 0)
(25.30046678340195 0.498950780024544 0)
(30.68346458410927 -4.759025877584103 0)
(29.04979348202915 -4.804324974169599 0)
(26.92925865810397 -3.628093295708983 0)
(24.88419466664037 0.3075645708131825 0)
(22.9109887952315 -0.8509556003799484 0)
(22.0490418940568 -7.091140132283995 0)
(21.12108704168866 -8.806654277518749 0)
(18.96385789544336 -9.897793477506632 0)
(23.45622466891065 -0.6463772699991756 0)
(23.50851322027518 -6.648119031886446 0)
(23.1079813687772 -8.41524475067944 0)
(20.90706369300913 -9.810493144957389 0)
(24.04000690478073 -0.3441101826882819 0)
(24.931627629782 -5.875073087937579 0)
(25.19364594601682 -7.62015179600045 0)
(23.44735642895105 -9.238275608668504 0)
(24.51868704774555 0.2494453912905412 0)
(26.06332482754419 -4.60684958636883 0)
(27.16638987945007 -6.226687871034568 0)
(26.40059900346575 -7.61638565251249 0)
(17.54806220782308 -9.756790750157833 0)
(19.39761672083204 -8.854129562046232 0)
(20.87609056481327 -7.035962823743366 0)
(23.19629125557477 -0.7229059545330958 0)
(16.37658832770547 -9.684269908521724 0)
(18.11055369476668 -8.75431321248446 0)
(20.70756770732575 -5.995900140216556 0)
(23.69389748789284 -0.2364110030016937 0)
(15.13572883480611 -9.393298897654949 0)
(17.24088371285447 -8.219370069378773 0)
(21.21731844139892 -4.641916534096846 0)
(24.19845632892511 0.0713020750503942 0)
(14.04754511910456 -8.855732748935964 0)
(16.96792883246402 -7.293789709579048 0)
(22.43004988498289 -3.156608061731491 0)
(24.51832325302522 0.1864962942974943 0)
(24.95452948512907 0.06679466579068849 0)
(25.21733442969125 -0.7182206195682111 0)
(22.05149872912632 -2.269342760372822 0)
(12.48986481761252 -3.860296390701808 0)
(24.83136638574985 0.08882823076237625 0)
(24.99459991113531 -0.8082336026096292 0)
(20.60602666557859 -3.314547341848994 0)
(12.79859277444392 -5.640548016985477 0)
(24.78950813408182 0.1158501839664409 0)
(24.47445616380362 -1.156892737017642 0)
(18.82499713454131 -4.649463526477772 0)
(12.64753634588033 -7.078642091262113 0)
(24.69832004698388 0.1634656184776531 0)
(23.59935849628997 -1.92879938514769 0)
(17.58778552495181 -6.058357863640061 0)
(13.13583424152634 -8.144180956710498 0)
(24.94896444421701 0.09185079027410264 0)
(24.91621893919417 0.08053414197093881 0)
(24.90333238742057 0.09618259195507717 0)
(24.8960745951183 0.1212256680090495 0)
(25.27711952727342 -0.774739817993829 0)
(25.25814757195022 -0.7517600980687621 0)
(25.14340480085636 -0.8617780451094843 0)
(24.99916034894579 -0.9127385791220578 0)
(23.70234839070714 -1.628792389337592 0)
(25.15905320834663 -1.297213677015763 0)
(25.34338561308824 -1.289316218705985 0)
(25.2443517557926 -1.453730691462328 0)
(14.12716466762048 -2.095954170584089 0)
(19.15448262726712 -1.728677154965446 0)
(24.54806232555108 -1.559494146745076 0)
(25.42831541331055 -1.377469344643841 0)
(24.88832734500117 0.1379814664150118 0)
(24.87669192891765 -0.8925687378193883 0)
(25.09323322331979 -1.55546618012091 0)
(25.36345346793978 -1.778075421919981 0)
(24.8828464030443 0.1445274287988035 0)
(24.7609227578253 -0.8382247673548895 0)
(24.94052677471942 -1.627182632980172 0)
(25.29112392887563 -2.094357762952622 0)
(24.88771117861123 0.1311318478626259 0)
(24.67445732549031 -0.7120255266304645 0)
(24.75257910371291 -1.65494537519853 0)
(25.17872792037978 -2.489598240646152 0)
(24.90149118043715 0.10101739192725 0)
(24.63263738580738 -0.5574759170026576 0)
(24.54953969833749 -1.608774278966256 0)
(24.99115114315286 -2.90579180606374 0)
(24.98787372384393 0.01055572036409368 0)
(24.87564077791619 -0.03529365979947954 0)
(24.07885913579134 -0.7463993597187267 0)
(23.38567603058467 -4.323114313821464 0)
(24.97236288631361 0.02426016157626446 0)
(24.77190276473381 -0.1155047178745535 0)
(24.09385757473395 -1.104403160976144 0)
(24.11422397443535 -4.173022299380984 0)
(24.95024696310021 0.04404400788231705 0)
(24.67953967209653 -0.2412736369405907 0)
(24.19611810135338 -1.349489209961469 0)
(24.4580982833718 -3.766267255786395 0)
(24.9240512689927 0.07056219724608233 0)
(24.63421436463101 -0.3945574991140134 0)
(24.38213343309647 -1.47556201837028 0)
(24.81732924649134 -3.316634540678963 0)
(22.33925927188449 -3.758409691430533 0)
(24.31834687562247 -0.406258124118601 0)
(24.95441944940495 -0.008911105925882703 0)
(24.99747569953468 0.004522237341705563 0)
(21.88512243772166 -3.317362191767896 0)
(24.46165130598023 -0.2785201312871884 0)
(24.97715029971249 -0.005493421763547043 0)
(24.99925375467306 0.001529055489319112 0)
(21.98732697483353 -2.779772027443167 0)
(24.63017799287234 -0.09839496197005372 0)
(24.99019680727947 0.0003535501985330954 0)
(24.99960661733416 0.0003640884553487226 0)
(21.98167298613868 -2.340708111676257 0)
(24.75586083912329 0.01080200938795884 0)
(24.9980187635668 0.0006931020594839365 0)
(24.99988402720081 6.197659764127018e-06 0)
(22.24430313041803 -1.746228713138505 0)
(24.91407778476561 0.06683442647546851 0)
(25.00017477368698 0.001107685314246362 0)
(24.99999314123308 1.184382465288062e-05 0)
(22.26855556083231 -1.33502714051858 0)
(24.9241465919048 -0.01073098472591624 0)
(24.99985589078639 -1.06723903808364e-05 0)
(24.99999953209123 9.298621012431642e-07 0)
(22.6901740829915 -0.6348504607378744 0)
(24.95164295087302 0.006360435648076391 0)
(24.99996304607814 1.867017872060599e-05 0)
(24.99999998004261 -8.824272094477033e-09 0)
(23.40264197974527 0.09542209008271541 0)
(24.97171070566556 0.01019836398561268 0)
(24.99999376810965 4.44870585875933e-06 0)
(25.00000001114298 4.11746767791766e-09 0)
(25.00000000000002 5.954871112585483e-12 0)
(24.99999998201898 1.215767549659079e-08 0)
(24.99829023411181 0.0005554035560081029 0)
(24.71736256721837 -0.007624632139966911 0)
(24.99999999997173 4.1824110381048e-11 0)
(24.99999994453042 7.037484752801679e-08 0)
(24.9974795708337 0.001722089737483466 0)
(24.6326961762438 0.1593359460786452 0)
(24.99999999962681 2.564891322011973e-10 0)
(24.99999976109916 2.871908267204819e-07 0)
(24.99514552867955 0.003584481092861147 0)
(24.51360224771344 0.2644844608415025 0)
(24.99999999828481 -1.026233686210681e-09 0)
(24.99999881823999 1.167865534264779e-06 0)
(24.98908577745132 0.007016788585969666 0)
(24.13724572085001 0.4137218595036 0)
(24.52527550425611 1.0987202995874e-10 0)
(24.35979808482503 0.1495548076251171 0)
(23.97405053860572 0.173632942203357 0)
(23.03855776016925 0.01871750131749745 0)
(24.35979808504133 -0.1495548074081423 0)
(24.0884396504945 4.096584887908963e-11 0)
(23.40957981516808 -0.06031081514892697 0)
(21.96067345260167 -0.4863795781728596 0)
(23.97405053905079 -0.1736329421104481 0)
(23.40957981551777 0.06031081522484456 0)
(22.1286262493756 6.328647762666907e-11 0)
(20.03096959386385 -0.5819751763234013 0)
(23.03855776057257 -0.01871750133814055 0)
(21.96067345314233 0.486379578114846 0)
(20.03096959415337 0.5819751762774003 0)
(17.78919683297606 -2.400777458860245e-10 0)
(17.25879300124518 2.521585384416793 0)
(17.8993596280959 2.917350676048946 0)
(19.54340499731665 2.655844325313879 0)
(21.08694509590126 1.887815043346849 0)
(18.2449184102789 4.246789009179825 0)
(18.30813309420204 4.20300382638156 0)
(19.04066667127941 4.114782451032996 0)
(20.07398531982827 3.952547891341622 0)
(17.68386573447016 5.193202549620545 0)
(18.85058169071413 4.491073999725259 0)
(19.52793084170589 4.691879769053956 0)
(20.05234362904562 4.563750176380367 0)
(18.33526120416563 5.754221349723709 0)
(19.70556229548279 4.717195304000806 0)
(20.20572251512024 4.891233958444047 0)
(20.49070721020149 4.80557541133801 0)
(20.79097133691084 4.932706741310024 0)
(21.02926276332507 5.061731422219882 0)
(21.4043557563157 5.120580007134515 0)
(22.16085151587381 5.280348937980674 0)
(20.72900846858655 4.994248338891831 0)
(21.03869389653599 5.101570521549228 0)
(21.53837135075446 5.117413868908707 0)
(22.65128877145532 5.500672097782715 0)
(20.47285290684605 4.931259971205126 0)
(20.97344253746696 5.10592357891962 0)
(21.55536953892962 5.158191577670295 0)
(24.10137144558538 5.943007289155511 0)
(18.97617555900156 5.85112106578502 0)
(19.59933465226191 5.875949597158282 0)
(20.50317722596488 5.734760406932137 0)
(25.83119063456906 7.125898498827668 0)
(25.81525624580967 3.187582010223971 0)
(26.40945260838917 0.8090347602434201 0)
(25.72185749729981 0.487078686367186 0)
(25.59509885792697 0.3820584334416263 0)
(28.37610804744705 2.198782329794247 0)
(28.69592301380563 0.3397474923875016 0)
(27.56801926246377 0.2832496666263336 0)
(26.89269677296107 0.313757966519233 0)
(31.54902274470669 1.904715088134737 0)
(30.1499500085509 0.04577642390913809 0)
(28.75773603206537 0.05144591187380156 0)
(27.77933169831319 0.09386639003242882 0)
(25.07990679164246 1.987934315177004 0)
(24.21747366556971 0.6522686800019444 0)
(24.07232412167794 0.08970376993869499 0)
(24.1597860710855 -0.2164445480215237 0)
(25.66542692222501 0.3867736070536544 0)
(25.71343914105708 0.3198135357074101 0)
(25.70095666438742 0.2051394178997278 0)
(25.65343317826707 0.171669679024342 0)
(26.53712261733741 0.3417381295486216 0)
(26.2245993528814 0.2915144978584847 0)
(25.946633105997 0.1915956902326298 0)
(25.72127351791113 0.1306872585439075 0)
(27.15030070870624 0.1478464273385404 0)
(26.59224524938919 0.1471935256943797 0)
(26.09880928969887 0.09830423512268366 0)
(25.66598249874688 0.08514236222717624 0)
(24.1312380311296 -0.4622500965195653 0)
(23.90331874502783 -0.6207335608933766 0)
(23.7023211993282 -0.7154382786733515 0)
(23.36994101739561 -0.6662475970350368 0)
(25.20554803595925 0.7717043606858709 0)
(20.09247042261372 5.098274947280832 0)
(13.71999513832433 3.924551335367791 0)
(9.345232126774027 1.059332503070736 0)
(24.62762959028843 1.255347029365439 0)
(16.07234612159757 4.951605734132654 0)
(8.863853781851347 2.740849443502321 0)
(4.47105378096485 -0.1764331321086433 0)
(23.43572846963143 1.295033978903153 0)
(11.69342976077648 3.634454078050809 0)
(3.139716123896852 2.029156046089524 0)
(-0.7690169733994173 0.2418301868689238 0)
(19.4140288324027 -0.7286116861397969 0)
(7.302902910480772 -0.7957977673232256 0)
(0.233747125565695 0.5429904251542748 0)
(-2.595582011181398 0.174398822859917 0)
(8.56916919824873 2.693901955603733 0)
(10.58535804386797 4.55949747640418 0)
(11.49760079431538 6.280343556486631 0)
(12.44951588298814 7.625632336071408 0)
(6.136703606792747 1.993697772541391 0)
(9.511378389269243 4.411054338497784 0)
(11.2012811567251 6.226218326503326 0)
(12.4043062562031 7.672156782821313 0)
(2.933336158930972 0.01198989636676583 0)
(7.442501866114503 3.331975428567009 0)
(10.26714749699646 6.036197661858935 0)
(12.02122401810532 7.596920090177153 0)
(0.2395667585564537 -0.1062452978443828 0)
(3.470305009113424 2.475996902672757 0)
(7.538068511347441 3.976206476199162 0)
(10.63465432632005 5.463988349852039 0)
(13.63848704466829 8.986480084448088 0)
(14.77053451511208 10.00814539659078 0)
(15.91944802458041 10.56578721942504 0)
(16.81353156130873 10.85599336571948 0)
(13.55815995165538 8.920997737932714 0)
(14.71381693687876 9.954785879918701 0)
(15.82396552376325 10.54167395803392 0)
(16.69640158633925 10.88142353798606 0)
(13.23585832767736 8.764171964620438 0)
(14.51737805675385 9.775724397160749 0)
(15.74209527006988 10.47463044822114 0)
(16.62307558806708 10.96198446557069 0)
(13.11737215795067 6.748235371108934 0)
(14.67202020549831 8.448574264312951 0)
(15.7661199845209 10.30181023249967 0)
(16.64566421587897 10.93921749754495 0)
(17.82792392185175 11.27568690149022 0)
(19.42337884635346 11.76985058546113 0)
(21.7750458672448 11.6932234796362 0)
(24.77797755608189 10.42095798765817 0)
(17.62278499756295 11.27976795774601 0)
(19.07492640232093 11.72985666339578 0)
(21.21153568811056 11.74952268638287 0)
(24.97582319496353 12.47347117503729 0)
(17.47370938386464 11.36886296920761 0)
(18.72297698719824 11.78346421030714 0)
(21.34547524456432 12.58553912736143 0)
(31.48515225466289 18.45883571340706 0)
(17.43736074040618 11.39312787760239 0)
(18.64012172706449 11.79211583542441 0)
(22.06807012674807 13.1748402170198 0)
(43.24393547056188 25.51573236824138 0)
(30.5938750716501 5.261205472861912 0)
(32.03810947664758 -3.582406425034238 0)
(12.65433299641349 8.691295477565959 0)
(7.857775405041409 30.8407844840475 0)
(32.23134752852679 4.90022746895888 0)
(26.46679233711213 -1.952385496682726 0)
(8.976531204080239 17.41679142596952 0)
(8.448226893767165 29.02680480162851 0)
(31.97400595822631 3.292517461841949 0)
(17.20845620937142 -4.302851811147691 0)
(3.828916914687878 21.32885367869751 0)
(4.611987383747696 29.02652055648545 0)
(20.30819273787845 -8.299023218343875 0)
(7.328055298519532 -0.571622462894495 0)
(2.088283548508514 24.818041668406 0)
(2.648155021489211 28.73390178558037 0)
(7.017648852013937 24.62062290518579 0)
(2.69949605459827 17.69697365455793 0)
(-0.7734333238820084 14.87148707488739 0)
(-2.833110935840097 9.937932469445215 0)
(6.712174264288692 23.57247421846562 0)
(1.915000220733837 19.2473873325898 0)
(-0.4568544586419063 14.98166661794825 0)
(-1.253593890011274 7.687156528214542 0)
(3.278187747141418 22.614729936563 0)
(1.43038283835692 18.10664732535786 0)
(-0.3154178425724363 12.35858354430371 0)
(-0.8159267082751072 4.900422581642289 0)
(0.7861714031647367 22.03871810497396 0)
(-0.4547252007331785 17.36655334821161 0)
(-1.909240832334251 10.96801999195676 0)
(-1.738854853905886 3.285181943621054 0)
(-6.07378802578542 3.289726574108901 0)
(-2.016668999839972 0.2621247098878846 0)
(2.429040805680444 -2.420529676680696 0)
(4.457032968917432 -6.632212122986547 0)
(-6.812398734735782 3.051101581082529 0)
(-5.955696177429584 0.3487111973920636 0)
(-1.266698267826701 -0.7973892839451379 0)
(2.67918089034804 -5.57552659716908 0)
(-6.212859700270139 2.126679891087286 0)
(-7.80636057920403 0.6686973234063778 0)
(-4.517842953393703 0.3046427077100554 0)
(0.03251167227638913 -4.086231411499361 0)
(-4.585725012258046 2.184273271782393 0)
(-7.136604224947579 2.668551273933406 0)
(-5.229415710197638 3.072707274080362 0)
(-0.6498250415263771 -1.052234675975434 0)
(2.36140961584836 -6.935593861406735 0)
(2.293319293424279 -7.541107533842752 0)
(3.156948767392658 -7.21578129176727 0)
(4.463005987459294 -6.469183914939927 0)
(1.46577952904703 -6.803528342731318 0)
(1.926662815910966 -6.27526230565429 0)
(3.127058838913669 -5.840714038684759 0)
(3.899702333088076 -4.924413917430948 0)
(0.4567685876786495 -4.750799403667802 0)
(0.6585406595114445 -3.491333098387938 0)
(1.655374191053119 -3.003666356263759 0)
(2.137363860223498 -1.923679749274873 0)
(1.658937198148613 -1.986416457368815 0)
(1.311146146762965 -0.7525281534907128 0)
(1.877083294624456 -0.3122940821693894 0)
(1.653209852367323 0.6367235269802911 0)
(0.7800710515250426 1.147327624007517 0)
(-0.03300666494364467 1.284720954615795 0)
(-0.6587271051153177 0.968288577956646 0)
(-0.9813212072081881 0.3366278808254098 0)
(1.587013773641042 -0.9804575465362215 0)
(0.5863173061069896 -0.4815405208310519 0)
(-0.2570343335335953 -0.05723732395570688 0)
(-0.6750715292721789 -0.02422628099202034 0)
(3.363765248921216 -3.806028246160297 0)
(2.444080097063472 -2.796884510798716 0)
(1.338057127567608 -1.704889926689708 0)
(0.6067450657258565 -0.6385244004152366 0)
(5.107035092779793 -4.816711440690819 0)
(4.969896774261485 -3.302420245517583 0)
(4.187918986550709 -2.022009004052413 0)
(3.720967312745803 -0.7293646826353896 0)
(-0.9813212072104811 -0.3366278808025275 0)
(-0.6750715292722994 0.02422628100180309 0)
(0.6067450657260482 0.638524400409841 0)
(3.72096731274712 0.7293646826158868 0)
(-0.6587271051190122 -0.9682885779368701 0)
(-0.2570343335344623 0.05723732396522229 0)
(1.338057127571923 1.704889926687085 0)
(4.187918986579303 2.022009004033793 0)
(-0.0330066649474697 -1.284720954602794 0)
(0.5863173061053699 0.4815405208380941 0)
(2.444080097063879 2.796884510798234 0)
(4.969896774281938 3.302420245518211 0)
(0.7800710515226787 -1.147327623997093 0)
(1.587013773643924 0.9804575465414481 0)
(3.363765248914364 3.806028246165295 0)
(5.107035092781524 4.81671144069825 0)
(4.463005987443485 6.469183914917154 0)
(3.156948767396826 7.215781291757822 0)
(2.293319293427576 7.541107533832331 0)
(2.3614096158637 6.935593861396362 0)
(3.899702333087552 4.924413917430837 0)
(3.127058838922474 5.840714038678483 0)
(1.926662815926316 6.275262305643813 0)
(1.465779529068209 6.803528342719076 0)
(2.137363860225276 1.923679749273386 0)
(1.655374191057032 3.003666356257401 0)
(0.6585406595221023 3.491333098387133 0)
(0.4567685876923196 4.750799403661854 0)
(1.653209852369411 -0.636723526976548 0)
(1.8770832946321 0.3122940821737454 0)
(1.311146146772396 0.7525281534979646 0)
(1.658937198157197 1.986416457376735 0)
(-0.649825041508854 1.052234675977618 0)
(-5.229415710161702 -3.072707274052676 0)
(-7.136604224910783 -2.668551273902491 0)
(-4.585725012230726 -2.184273271773949 0)
(0.03251167229170189 4.086231411497239 0)
(-4.517842953369794 -0.3046427076874336 0)
(-7.80636057914702 -0.6686973233889992 0)
(-6.212859700208871 -2.126679891057634 0)
(2.679180890361323 5.57552659716071 0)
(-1.266698267794247 0.7973892839690624 0)
(-5.955696177358721 -0.3487111973662705 0)
(-6.812398734686083 -3.051101581031856 0)
(4.457032968930063 6.632212122981609 0)
(2.429040805704742 2.420529676702087 0)
(-2.01666899975368 -0.2621247098669433 0)
(-6.073788025688725 -3.289726574040883 0)
(-2.833110935833835 -9.937932469331404 0)
(-0.7734333239398691 -14.8714870748944 0)
(2.699496054637314 -17.69697365482018 0)
(7.017648851745871 -24.62062290531192 0)
(-1.253593890007071 -7.687156528150756 0)
(-0.4568544586529656 -14.98166661792134 0)
(1.915000220822801 -19.24738733267633 0)
(6.712174264323298 -23.57247421846819 0)
(-0.8159267082767411 -4.900422581617825 0)
(-0.3154178425771793 -12.35858354428217 0)
(1.430382838382094 -18.10664732538609 0)
(3.278187747159239 -22.61472993657366 0)
(-1.738854853900964 -3.285181943629071 0)
(-1.909240832339757 -10.96801999197124 0)
(-0.4547252007346446 -17.36655334821862 0)
(0.7861714031751679 -22.03871810499906 0)
(7.857775404680654 -30.84078448408232 0)
(12.65433299614915 -8.691295477874194 0)
(32.03810947658808 3.582406425081086 0)
(30.5938750716465 -5.261205472846987 0)
(8.448226893625163 -29.02680480165825 0)
(8.976531204026214 -17.41679142617011 0)
(26.46679233712737 1.952385496656054 0)
(32.23134752848867 -4.900227468934361 0)
(4.611987383764431 -29.02652055656199 0)
(3.828916914633806 -21.32885367881028 0)
(17.20845620933863 4.302851811094791 0)
(31.97400595817378 -3.292517461831637 0)
(2.648155021494611 -28.73390178564856 0)
(2.088283548486542 -24.81804166853006 0)
(7.328055298542254 0.5716224628302147 0)
(20.30819273789092 8.299023218325244 0)
(24.77797755607012 -10.42095798763788 0)
(21.77504586724044 -11.69322347961448 0)
(19.42337884639375 -11.76985058545883 0)
(17.82792392184554 -11.27568690148358 0)
(24.97582319498726 -12.47347117503544 0)
(21.21153568812582 -11.74952268636863 0)
(19.07492640232425 -11.72985666338118 0)
(17.6227849976075 -11.27976795776633 0)
(31.48515225463122 -18.45883571337843 0)
(21.34547524456034 -12.58553912734596 0)