/*--------------------------------*- C++ -*----------------------------------*\
  =========                 |
  \\      /  F ield         | OpenFOAM: The Open Source CFD Toolbox
   \\    /   O peration     | Website:  https://openfoam.org
    \\  /    A nd           | Version:  11
     \\/     M anipulation  |
\*---------------------------------------------------------------------------*/
FoamFile
{
    format      ascii;
    class       volVectorField;
    location    "0.2575";
    object      U;
}
// * * * * * * * * * * * * * * * * * * * * * * * * * * * * * * * * * * * * * //

dimensions      [0 1 -1 0 0 0 0];

internalField   nonuniform List<vector> 
880
(
(25 1.213005017334071e-14 0)
(24.99999999993713 5.397961686220016e-09 0)
(24.99973931257019 -0.0001303985443525816 0)
(24.90357424322425 -0.003708034784654988 0)
(25 -7.160855549784073e-13 0)
(24.99999998825471 -8.419887724742081e-09 0)
(24.99946252447278 -0.0005019657217518835 0)
(24.85754226204496 -0.1287632316943652 0)
(24.9999999999998 -6.375078701115624e-12 0)
(24.99999999568113 -1.002918652450916e-08 0)
(24.9985784258543 -0.001235328186368737 0)
(24.78807694873784 -0.2343769177634546 0)
(24.99999999994981 6.147849455252878e-11 0)
(25.00000004972151 -1.279410124666693e-07 0)
(24.99594243873825 -0.002758686651310044 0)
(24.48591591104195 -0.3858607632023552 0)
(25.00000000101808 -2.323833507258711e-09 0)
(24.99999999791169 1.746440579336332e-08 0)
(24.9999999430645 9.362475384226923e-08 0)
(24.99999372728865 4.182357533126989e-06 0)
(25.00000121122008 -1.493169181072651e-06 0)
(24.99998933545231 1.005335399091519e-06 0)
(24.99993192284802 9.277192367729087e-05 0)
(25.0000984514862 -0.0004367701740659029 0)
(24.98722685328552 -0.004922120409484703 0)
(24.97604078965699 -0.0004548281370518731 0)
(24.96256207983927 0.01701491577568127 0)
(24.96716867023632 -0.03778227244609448 0)
(23.832292367073 -0.1148342748187689 0)
(23.19935798444664 0.5616705443949617 0)
(22.87884780621109 1.190703147145432 0)
(22.78952522003553 1.602491091162368 0)
(24.99999261207387 -3.09620121150873e-05 0)
(24.99993860351224 -0.000149814671217425 0)
(24.99985296310148 -0.0002351831581201205 0)
(24.9993366383057 -0.001408290240413906 0)
(24.99868568088837 -2.763815178802485e-05 0)
(24.99631126609493 0.0006767604021970969 0)
(24.99189538202173 0.003542142239368416 0)
(24.98618103262507 0.005995791156661763 0)
(24.86857080698154 0.001035743854504824 0)
(24.78530702087002 0.07549645343398176 0)
(24.68381040678608 0.212291335454811 0)
(24.60233505429047 0.2968725000226491 0)
(22.70254816377484 2.089367751920401 0)
(22.5797293599252 2.498855428834867 0)
(22.52573763330822 2.991887981044576 0)
(22.85734019140091 3.368753418603596 0)
(23.8191337109363 3.912058439055109 0)
(24.43373170092404 3.714433296974665 0)
(24.73857952913143 3.288195385380456 0)
(24.98079895309286 2.859929825795022 0)
(24.40670410875891 0.5946942698852608 0)
(24.44032399783527 0.921893324012284 0)
(24.54885785682891 1.128608834738045 0)
(24.69913570328442 1.253956630902099 0)
(24.95231295846292 0.02142674928374932 0)
(24.91250243912233 0.06760681567619736 0)
(24.87914834602045 0.1396398344106801 0)
(24.86284190217413 0.2285638233602036 0)
(24.99667384724547 -0.003541202747750352 0)
(24.99204379520785 -0.009764716912928503 0)
(24.98541958622568 -0.02024883497969265 0)
(24.97889756614507 -0.03255416827780668 0)
(24.97330698972985 -0.04276627367330101 0)
(24.9659445514041 -0.04398905697583161 0)
(24.96048630292018 -0.04187501070033726 0)
(24.95779755876431 -0.03544869400571098 0)
(24.8791809942051 0.3132337617348572 0)
(24.92581103006719 0.3699625836458023 0)
(24.99154794617828 0.3946574697941868 0)
(25.06533683643303 0.3851341061026576 0)
(24.87633278293678 1.288604599227382 0)
(25.04325805741955 1.246823706535612 0)
(25.20200893653839 1.155791501464384 0)
(25.32574860592472 1.039295785142683 0)
(25.18899199446217 2.447084055902045 0)
(25.35824488416371 2.063441047258088 0)
(25.51728293314305 1.715202555415769 0)
(25.60534221002071 1.367381418007759 0)
(25.68079920974206 0.9981099218062922 0)
(25.4229461201635 0.9122633224535588 0)
(25.11068534770136 0.3531218637422858 0)
(24.95794958513985 -0.0288539293911137 0)
(25.77500011233841 0.725551422867235 0)
(25.4728587921528 0.8342332605083534 0)
(25.13622922724497 0.306315111390391 0)
(24.96083246643565 -0.02296760523292856 0)
(24.5365207762421 1.118043218368561 0)
(25.43689731944707 0.7050825954125752 0)
(25.15453347320106 0.2343947133295355 0)
(24.96799317087679 -0.01684158162648162 0)
(19.29589469429839 1.565272452105272 0)
(24.97550923226297 0.7462183827395824 0)
(25.147449052625 0.1557976008181713 0)
(24.974485343754 -0.009668585986660741 0)
(24.98043773597315 -0.007272777727919223 0)
(25.08429819385008 0.1026486701571336 0)
(24.05807677656421 0.9164508657861072 0)
(15.32339876182543 3.025137563510713 0)
(24.98528859156558 -0.008257801755008502 0)
(24.99063281175881 0.1001805490281605 0)
(23.19782801291832 1.408603449812751 0)
(15.23702908576882 4.934384616058992 0)
(24.985063010714 -0.01445148967949636 0)
(24.86189648738367 0.1715011896517182 0)
(22.0253792337512 2.269215455895055 0)
(14.66213884446558 6.607125976942875 0)
(24.97321292874114 -0.02908335242257785 0)
(24.67796801099394 0.3362252333299952 0)
(20.95044723292899 3.41224229055226 0)
(14.46182495601056 8.033525323345557 0)
(14.45003442014871 9.201723865161986 0)
(19.98487184573261 4.767992221518775 0)
(24.36522986920541 0.6958009050429054 0)
(24.94651447806841 -0.05878298830419604 0)
(14.68501840555359 10.00756513262004 0)
(19.08024669473521 6.269243246373552 0)
(23.95917097350529 1.315639228986658 0)
(24.88747630933714 -0.1038640425339419 0)
(15.23600162106058 10.54473394902342 0)
(18.93811586391564 7.515198322113733 0)
(23.41634882511786 2.259546442225722 0)
(24.79941660589385 -0.1553608751923178 0)
(16.28617125760016 10.89496887248109 0)
(19.35553582602641 8.572547642494966 0)
(23.07589403838882 3.309325826434826 0)
(24.65157364530078 -0.1863277960736013 0)
(24.47852895607018 -0.1956145082678888 0)
(23.08457062579489 4.423755901449329 0)
(20.65634754076928 8.570913293411785 0)
(17.94875367496528 10.83383837629379 0)
(24.43836826844761 -0.2848503429384066 0)
(23.94878108442152 4.290186414253177 0)
(22.67091893570455 8.043007979315894 0)
(20.13892968012365 10.41596063874386 0)
(24.70228495829981 -0.2812393816716218 0)
(24.90931824910637 3.797097554196321 0)
(24.77140215072875 7.072213224571158 0)
(22.88919026374205 9.446782183151821 0)
(24.63930820007847 -0.5363075446032803 0)
(25.35810507588666 2.982454044558727 0)
(26.48766376180313 5.385754276978725 0)
(25.9470773332497 7.396741316653378 0)
(24.70037097787113 -0.2589022504159915 0)
(25.99079426381821 2.356963068622876 0)
(27.79429691919131 3.776164356707206 0)
(30.06648423294109 4.518330814456514 0)
(24.8750554291349 -0.1968416935767983 0)
(26.34160997819558 1.555282694018209 0)
(28.36606582960587 2.313294669748196 0)
(33.48329097423166 1.136524535414644 0)
(25.02409094136392 -0.1404550642597291 0)
(26.28635100979671 0.8422591569219882 0)
(28.47664812479444 0.8645034119666346 0)
(35.35378030916395 -3.898907053120401 0)
(25.10160764026302 -0.1023596892039255 0)
(26.02656973436232 0.4462996949609428 0)
(28.02953511919345 -0.1647960972247552 0)
(30.78678312822633 -2.774123354358016 0)
(25.52562235960936 -1.901388515196114 0)
(27.49232683099042 -1.177789964480809 0)
(25.78564212898122 0.04787540705093085 0)
(25.11749376643833 -0.08461209322144543 0)
(22.66688734754098 -2.252793416069315 0)
(26.79532201665495 -1.833595171748486 0)
(25.5560380059122 -0.2817986167256959 0)
(25.08396619343402 -0.04633471595266297 0)
(19.83524629516064 -4.568605253628577 0)
(25.99291967807655 -2.656660459336041 0)
(25.32719892013332 -0.5056849085190068 0)
(25.03604366059116 -0.02024938409446573 0)
(16.07188624660267 -5.426029559873964 0)
(24.77941600594311 -3.594665552898161 0)
(25.08519966045721 -0.6156436888121908 0)
(25.01169545150194 -0.02616108200744649 0)
(14.23635155542035 -7.500374820007126 0)
(23.73636691170146 -3.581375078097786 0)
(24.8444589448231 -0.5041211480392033 0)
(24.99478160273484 -0.02314123216061078 0)
(14.69836975018876 -8.515378518270426 0)
(23.17683127471426 -3.056950344288598 0)
(24.78042971913464 -0.3313064525740416 0)
(24.99102790362087 -0.01088976373617079 0)
(15.43283765752446 -6.576169640873061 0)
(23.09353720252614 -1.950809212034908 0)
(24.80264216749686 -0.163116326466278 0)
(24.99456658687346 -0.004264628689244719 0)
(17.58032176289463 -4.993646562874885 0)
(23.63732289542497 -1.353520328460232 0)
(24.90054677376299 -0.1324335878117344 0)
(24.99784406401919 -0.002675990201067252 0)
(17.48364072456148 0.1799863423694358 0)
(23.05944489278801 0.08735088218154179 0)
(24.76488188034537 0.0009492653088846518 0)
(24.98904609508529 -0.000222364083142546 0)
(17.52761387894064 0.03979149285200258 0)
(22.97995941848855 0.2510700789767482 0)
(24.75161720302291 0.009249554704705629 0)
(24.98916245746229 -0.0004680561512277953 0)
(17.09362199048155 0.3684101928417194 0)
(22.84385149113528 0.2556156833577626 0)
(24.73032001681307 0.009273140471676412 0)
(24.9890549724814 -0.0003933429584192125 0)
(16.9151549930433 0.3601974244094255 0)
(22.78868913089503 0.1043000760970267 0)
(24.71882773430475 -0.002832489033114394 0)
(24.98901268304919 -0.0005186418849353865 0)
(17.58032176292969 4.993646562861114 0)
(23.63732289549715 1.353520328452183 0)
(24.90054677386752 0.1324335877348569 0)
(24.99784406412602 0.002675990180433191 0)
(15.43283765753784 6.576169640851793 0)
(23.09353720257678 1.950809212066353 0)
(24.80264216752013 0.1631163264750924 0)
(24.99456658692166 0.004264628741643032 0)
(14.69836975019017 8.515378518272675 0)
(23.17683127473737 3.056950344333226 0)
(24.78042971914716 0.3313064526330877 0)
(24.99102790364799 0.01088976376065695 0)
(14.23635155539489 7.500374820002393 0)
(23.73636691173535 3.581375078152282 0)
(24.84445894482799 0.5041211480647084 0)
(24.9947816027397 0.02314123219291302 0)
(25.11749376641 0.08461209322765779 0)
(25.7856421289416 -0.04787540705709154 0)
(27.49232683098235 1.177789964465014 0)
(25.52562235958165 1.901388515285207 0)
(25.08396619343907 0.04633471596320828 0)
(25.55603800589138 0.2817986167237798 0)
(26.7953220166432 1.833595171739319 0)
(22.66688734747797 2.252793416158287 0)
(25.03604366056975 0.02024938410249082 0)
(25.3271989201132 0.5056849085056315 0)
(25.9929196781364 2.656660459407502 0)
(19.83524629510734 4.568605253698294 0)
(25.01169545148216 0.02616108202293553 0)
(25.08519966042443 0.6156436887800085 0)
(24.77941600599316 3.594665552939031 0)
(16.07188624657876 5.426029559885468 0)
(30.78678312822329 2.774123354367467 0)
(28.02953511918473 0.164796097208554 0)
(26.02656973435687 -0.4462996949193238 0)
(25.10160764025227 0.1023596891604511 0)
(35.35378030918911 3.898907053170374 0)
(28.47664812480172 -0.8645034119491869 0)
(26.28635100976215 -0.8422591569350287 0)
(25.02409094139668 0.1404550641448595 0)
(33.4832909742646 -1.136524535393791 0)
(28.3660658296075 -2.313294669759523 0)
(26.34160997820667 -1.555282694005067 0)
(24.87505542916983 0.1968416933793457 0)
(30.06648423296006 -4.518330814440955 0)
(27.79429691922656 -3.776164356707369 0)
(25.9907942638812 -2.356963068584681 0)
(24.70037097782742 0.2589022502930408 0)
(24.47852895603494 0.1956145082964824 0)
(23.08457062583958 -4.423755901502879 0)
(20.65634754072334 -8.570913293406949 0)
(17.94875367497273 -10.83383837629021 0)
(24.43836826844168 0.2848503429705898 0)
(23.94878108440549 -4.290186414217876 0)
(22.67091893569189 -8.043007979280762 0)
(20.13892968012806 -10.41596063873415 0)
(24.70228495834094 0.2812393819183602 0)
(24.90931824901535 -3.797097554165705 0)
(24.77140215073275 -7.072213224531552 0)
(22.88919026376637 -9.446782183136483 0)
(24.63930819988543 0.536307544804744 0)
(25.35810507591202 -2.982454044487537 0)
(26.48766376181946 -5.385754276957068 0)
(25.9470773332635 -7.396741316641918 0)
(16.2861712576031 -10.89496887247005 0)
(19.35553582600437 -8.572547642492964 0)
(23.07589403841045 -3.309325826430309 0)
(24.65157364513525 0.1863277960528495 0)
(15.23600162106919 -10.5447339490146 0)
(18.93811586389677 -7.51519832212269 0)
(23.41634882509887 -2.259546442233745 0)
(24.79941660587248 0.1553608751931171 0)
(14.68501840557864 -10.00756513261464 0)
(19.08024669470397 -6.269243246440934 0)
(23.95917097355335 -1.315639229012647 0)
(24.88747630928696 0.1038640425294599 0)
(14.45003442016916 -9.201723865158749 0)
(19.98487184575178 -4.767992221486712 0)
(24.36522986913633 -0.6958009050784382 0)
(24.94651447804813 0.05878298831424675 0)
(24.98043773596073 0.007272777724828447 0)
(25.08429819383626 -0.1026486701331533 0)
(24.05807677656583 -0.9164508658082866 0)
(15.32339876181003 -3.025137563530683 0)
(24.98528859147428 0.008257801753917746 0)
(24.99063281177174 -0.1001805489571735 0)
(23.19782801299119 -1.408603449796477 0)
(15.23702908584782 -4.934384616073725 0)
(24.98506301060663 0.01445148969354085 0)
(24.86189648718882 -0.1715011897135969 0)
(22.02537923370281 -2.269215455907843 0)
(14.66213884447865 -6.607125976957212 0)
(24.97321292867517 0.02908335242504666 0)
(24.67796801113263 -0.3362252332684747 0)
(20.9504472329475 -3.412242290531298 0)
(14.46182495598532 -8.033525323350364 0)
(24.9744853437569 0.009668585982959114 0)
(24.96799317089354 0.01684158163379825 0)
(24.9608324663899 0.02296760525861261 0)
(24.95794958513576 0.02885392940036877 0)
(25.14744905274416 -0.1557976007626752 0)
(25.15453347320965 -0.2343947133592242 0)
(25.1362292272737 -0.3063151113849117 0)
(25.11068534769602 -0.3531218637753931 0)
(24.97550923231687 -0.7462183827649286 0)
(25.4368973194483 -0.7050825954217315 0)
(25.47285879221248 -0.8342332605149831 0)
(25.42294612019906 -0.912263322460333 0)
(19.29589469435545 -1.565272452115264 0)
(24.53652077624871 -1.11804321835608 0)
(25.7750001123351 -0.7255514228579917 0)
(25.6807992097407 -0.9981099217917493 0)
(24.95779755873236 0.03544869402162589 0)
(25.06533683641309 -0.38513410608552 0)
(25.32574860591558 -1.039295785120408 0)
(25.60534220999285 -1.367381417987233 0)
(24.96048630293852 0.04187501068932453 0)
(24.99154794613971 -0.3946574697978945 0)
(25.20200893652408 -1.155791501446907 0)
(25.51728293314231 -1.715202555402499 0)
(24.96594455140089 0.04398905697314561 0)
(24.92581103005045 -0.3699625836272019 0)
(25.04325805746688 -1.246823706545998 0)
(25.35824488424094 -2.063441047267652 0)
(24.97330698976983 0.04276627365550723 0)
(24.87918099421838 -0.3132337617337282 0)
(24.87633278293528 -1.288604599220312 0)
(25.18899199446131 -2.447084055902797 0)
(24.99667384725124 0.003541202700284915 0)
(24.95231295852955 -0.02142674919439407 0)
(24.40670410873055 -0.5946942699052513 0)
(23.81913371090929 -3.912058439038911 0)
(24.9920437952653 0.009764716829677583 0)
(24.9125024391493 -0.06760681558789608 0)
(24.44032399782424 -0.9218933239812753 0)
(24.43373170090682 -3.714433296972181 0)
(24.98541958618228 0.02024883497900208 0)
(24.87914834604424 -0.1396398343582395 0)
(24.54885785685826 -1.128608834776697 0)
(24.73857952918917 -3.288195385411581 0)
(24.97889756616794 0.03255416824564446 0)
(24.86284190218882 -0.2285638233218216 0)
(24.69913570327818 -1.253956630892426 0)
(24.98079895314674 -2.859929825811696 0)
(22.85734019141346 -3.368753418601821 0)
(24.60233505428231 -0.296872500051952 0)
(24.98618103271623 -0.005995791068857505 0)
(24.99933663826787 0.001408290242356894 0)
(22.52573763333991 -2.991887981026008 0)
(24.68381040677141 -0.2122913354680756 0)
(24.99189538210729 -0.00354214220987919 0)
(24.99985296311151 0.0002351831283019461 0)
(22.579729359909 -2.498855428816889 0)
(24.78530702085374 -0.0754964534467715 0)
(24.99631126620237 -0.0006767604158154256 0)
(24.99993860353445 0.0001498145893314462 0)
(22.70254816381004 -2.089367751903455 0)
(24.86857080699881 -0.001035743860873395 0)
(24.99868568094851 2.763815198301839e-05 0)
(24.99999261200864 3.096202655428615e-05 0)
(22.78952522007767 -1.602491091154838 0)
(24.96716867024663 0.03778227246511299 0)
(25.00009845148977 0.0004367701757375348 0)
(24.99999372725989 -4.182327986844749e-06 0)
(22.87884780623313 -1.190703147153338 0)
(24.96256207986928 -0.01701491576070897 0)
(24.99993192291959 -9.27719216962316e-05 0)
(24.99999994306044 -9.362326528283139e-08 0)
(23.19935798446818 -0.5616705444115667 0)
(24.97604078967975 0.0004548281362803887 0)
(24.99998933547793 -1.005347113991116e-06 0)
(24.99999999792888 -1.747408849963659e-08 0)
(23.83229236708065 0.1148342747867575 0)
(24.98722685330971 0.004922120402414062 0)
(25.00000121125217 1.493196768311625e-06 0)
(25.00000000097345 2.325749966257312e-09 0)
(25.00000000000001 -4.385019925442657e-14 0)
(24.99999999992063 -5.420334016284734e-09 0)
(24.99973931255772 0.000130398535683663 0)
(24.90357424037268 0.003708035234187645 0)
(25 1.734204123944217e-12 0)
(24.9999999883016 8.413784136606131e-09 0)
(24.99946252447031 0.0005019657062331908 0)
(24.85754226132617 0.1287632314804044 0)
(24.9999999999824 8.774102527105065e-12 0)
(24.9999999957072 1.002760221657901e-08 0)
(24.99857842585762 0.001235328172252017 0)
(24.78807694860075 0.23437691765749 0)
(24.99999999992739 -4.858536420317192e-11 0)
(25.00000004976567 1.279414094184257e-07 0)
(24.99594243875355 0.002758686638730375 0)
(24.48591591102232 0.3858607631615769 0)
(24.83168451206723 -5.868558602509105e-11 0)
(24.74048282662025 0.126800536520874 0)
(24.49941306490475 0.1893207281886604 0)
(23.72291493623839 0.08338944095586048 0)
(24.74048282758952 -0.1268005369049219 0)
(24.57078311191924 -2.220057615790862e-10 0)
(24.04652860282423 -0.02491061539844761 0)
(22.74290994779872 -0.4168961879640385 0)
(24.49941306546248 -0.1893207282956365 0)
(24.04652860319978 0.02491061520726123 0)
(22.86343509087741 -1.018407593088356e-11 0)
(20.81627759085411 -0.5637168281788425 0)
(23.7229149362987 -0.08338944107374432 0)
(22.74290994791989 0.4168961878322294 0)
(20.81627759092761 0.5637168280877626 0)
(18.4966479719391 -6.413895472277279e-11 0)
(17.86295603371891 2.587154309200896 0)
(18.55023168911196 3.017486588362089 0)
(20.28593145696611 2.693114681622959 0)
(21.83337958306218 1.814938757775336 0)
(18.85485101002271 4.343101081582657 0)
(18.94410105201095 4.321824812115196 0)
(19.71970460708102 4.242473209157499 0)
(20.81287781902558 4.004723745679362 0)
(18.49707432586361 5.382652693210716 0)
(19.48838127719977 4.579889102623924 0)
(20.2237553527481 4.787409122910384 0)
(20.83670510165687 4.641137568485281 0)
(19.11205536239373 5.899134049297429 0)
(20.24472283555215 4.842889452657484 0)
(20.7494241416386 5.002411227839702 0)
(21.07686953509161 4.914596341638328 0)
(21.42724241082243 5.078215339203082 0)
(21.58149758883406 5.114424201710879 0)
(21.87149256523251 5.204905216547757 0)
(22.45792354681683 5.344913186610796 0)
(21.25213798627365 5.152293846465693 0)
(21.55855914261374 5.199568604652132 0)
(21.91957842029232 5.233505962244799 0)
(22.93284141024114 5.58223749683579 0)
(20.91450249646334 5.025875605432359 0)
(21.38658033969081 5.177610192259592 0)
(21.847845554623 5.241018485491503 0)
(24.36217841982425 6.000612137439404 0)
(19.69486645031487 6.072680593117971 0)
(20.18900319412622 6.127328343832477 0)
(20.87352919440957 5.976749679492914 0)
(26.0439962601068 7.252721146481215 0)
(26.12096191676674 3.189683975476709 0)
(26.62077046708471 0.7639643018519001 0)
(25.84855307139997 0.4313213440275041 0)
(25.65982277623947 0.4324866490200627 0)
(28.57007005113901 2.185863291107226 0)
(28.69119302818654 0.3218057236861021 0)
(27.50335821168958 0.2793820023924524 0)
(26.79292388282848 0.3830691121301592 0)
(31.74097485841986 1.881150004125315 0)
(30.00564760676333 0.04748509235406638 0)
(28.54790260411168 0.05542074898111311 0)
(27.55488894828128 0.1485237722273132 0)
(25.31234032974265 1.835686178338167 0)
(24.15182822434264 0.5610654987668864 0)
(23.94308870172357 0.1510012651621968 0)
(23.82202686796485 -0.167288709662707 0)
(25.5856903147573 0.3609509317988968 0)
(25.55463884990637 0.2822952436882481 0)
(25.54613554195963 0.1874944183946819 0)
(25.55467910915754 0.1248430683021296 0)
(26.33227461659553 0.3480201628394514 0)
(25.98006841534728 0.2786007544969966 0)
(25.72164403870941 0.1493459011224675 0)
(25.57001521489892 0.1214334497614459 0)
(26.82901840281005 0.1506511338240274 0)
(26.24265582702886 0.1312065157226592 0)
(25.76687428394801 0.05462918281793289 0)
(25.46173769178437 0.09497533804612772 0)
(23.54004107059128 -0.3608678268872479 0)
(23.3519377341315 -0.5803032396059319 0)
(23.18784203644671 -0.5305293003734959 0)
(22.88182971675716 -0.5455600780972221 0)
(25.62827188330731 -0.007638874012233119 0)
(24.76553001452415 1.040937631413426 0)
(19.57313251806228 4.808023360493626 0)
(13.64090372203414 2.893410261544747 0)
(25.60033118158811 0.02560625909029136 0)
(23.90279860707856 1.596143040506157 0)
(15.68909144487924 4.569908304542924 0)
(9.044392422026645 1.296068882971555 0)
(25.399250080241 0.07197461967858279 0)
(22.26641743254247 1.528666457210807 0)
(11.46556836596937 3.432305492487049 0)
(3.366974603215032 1.694772311087598 0)
(22.78487106298532 -0.6297918702303914 0)
(17.80347431611432 -0.9422115439903177 0)
(7.418845208740446 -0.8287949135022284 0)
(0.2800938663256012 0.5454933202085338 0)
(11.01636536717661 4.242175891267263 0)
(12.57003082035779 5.937693244332685 0)
(13.01637025484152 7.442429871447223 0)
(13.90936137001053 8.147324505284192 0)
(9.150360821271422 3.75550391879499 0)
(11.95732649345707 5.92167858903688 0)
(12.85261923596935 7.623234567939737 0)
(13.78846714755238 8.343183565696156 0)
(5.932511714230375 1.975815121212916 0)
(10.14736386497845 5.06086860144628 0)
(12.06848534220659 7.427092252667523 0)
(13.17115007904355 8.388293887119069 0)
(1.62291632579046 1.399415060743505 0)
(5.411348601144308 3.644682155474058 0)
(8.964749349678108 5.10235524451423 0)
(11.07607212897044 6.019042979830203 0)
(13.97431526019174 8.694043767749006 0)
(14.16223975121171 9.33358793207165 0)
(14.87903847367437 10.04044674526999 0)
(15.91045247004107 10.684125943029 0)
(14.13043656477252 8.836816615448567 0)
(14.44305675262466 9.435645054478504 0)
(15.10954389757662 10.13630944230677 0)
(15.98820046072242 10.69645011228921 0)
(13.87335219027266 8.907690988803058 0)
(14.54744523712396 9.454375163796147 0)
(15.23550054752844 10.12564935658745 0)
(16.05225550944147 10.74346507257729 0)
(12.38860862151468 7.08676108080223 0)
(13.83274213113225 8.263906743613715 0)
(15.42967060256968 9.05322198508285 0)
(16.18482403584918 10.38737166703287 0)
(17.27022436081308 11.81492557670416 0)
(18.93840952582649 12.13522926528218 0)
(21.65125147225177 11.88593846507214 0)
(24.9037072487768 10.01400324641677 0)
(17.14091884274162 11.76897541811418 0)
(18.64737693198266 12.06761184289701 0)
(21.09412031586133 11.93145115050115 0)
(24.89462725665687 12.20099986145073 0)
(16.96953547920083 11.6001355636245 0)
(18.33145217159437 11.9909383992556 0)
(21.09993191204719 12.77567322201455 0)
(30.87998653840398 17.97822172903003 0)
(17.07549937806124 11.244967284961 0)
(18.35246649465505 11.7296523211065 0)
(21.86293566309379 13.26819022353421 0)
(42.16268351098493 24.83739277389942 0)
(30.55069465537135 4.986687012637128 0)
(32.67976296285523 -4.467626453972881 0)
(11.25054917294715 4.442682873965825 0)
(8.556316653873621 14.34019653022157 0)
(31.92993037467302 4.744235040600185 0)
(26.41044475695476 -2.710751344505981 0)
(8.424674987832304 11.74795502428772 0)
(6.569544501209187 19.20615535135735 0)
(31.58090611270451 2.88486428482022 0)
(16.83754375818797 -5.638825534354775 0)
(3.576841095469978 14.16774500804693 0)
(3.57428412937521 19.5437779544635 0)
(19.97930896628877 -8.420015026198639 0)
(6.211418085531343 -1.346282040248581 0)
(1.578193017421145 16.11631507558409 0)
(1.838090990806533 19.1248672887933 0)
(4.218498580516489 12.00992665428389 0)
(1.287986013740436 9.975050958244431 0)
(-0.3968255677569766 7.927277687019174 0)
(-0.8182493136411311 6.621986591699943 0)
(2.921313260355426 16.78193296921203 0)
(0.985190175526786 13.54536169913946 0)
(-0.311951877047105 10.32042143116904 0)
(-0.3470611221697081 5.914302999700777 0)
(2.187164131680643 17.6555727351251 0)
(1.314802800000961 14.50630015101156 0)
(0.3202405174002708 10.54902422988567 0)
(-0.2419169319756498 4.551250952975693 0)
(0.7190308537321197 17.41325356901705 0)
(-0.04086078714254027 14.4290180095151 0)
(-1.091593490974735 10.20471323171504 0)
(-1.033493073502442 3.938909958833193 0)
(0.3940003441555542 1.113480749912269 0)
(5.670816243648529 -3.913990026952494 0)
(7.610046859236318 -7.123975898113208 0)
(11.22479360622281 -9.50357082432172 0)
(-2.524515615162285 1.346708456783359 0)
(2.010161591272111 -2.224924171870923 0)
(6.538859989195069 -4.99654116465008 0)
(11.05132821032506 -8.247677149602646 0)
(-3.498148890291718 1.189532901840913 0)
(-1.293657000549722 -1.369992700384553 0)
(4.151415589191557 -3.332438187446942 0)
(10.3447765724276 -6.07370768934496 0)
(-3.046990499878367 1.868538605725819 0)
(-1.996410968800959 0.294150345089418 0)
(3.562861170477742 0.08906462315469832 0)
(11.08547330296951 -4.062125082095622 0)
(10.76166314663241 -9.76766319985574 0)
(9.769699623986838 -9.710343967023409 0)
(9.469351342739797 -8.434903127872195 0)
(8.347349309717202 -7.718943409715229 0)
(11.88185062629339 -11.73621960999362 0)
(10.37409279805354 -12.03536954191803 0)
(9.5074247280252 -10.37716022564408 0)
(7.389463497489881 -9.579802925556708 0)
(12.28536215574309 -12.1573946275508 0)
(10.7175614965256 -11.57640408028974 0)
(8.666376867923557 -7.685458176856796 0)
(4.726430555414448 -5.631176299821737 0)
(11.46059655668889 -11.83759957970983 0)
(9.342769389050545 -7.26391375467583 0)
(5.807679952845229 -1.408402058276257 0)
(2.015266421135556 0.289981470956374 0)
(-0.02362497593327834 1.225802943516417 0)
(-0.9703824034389399 1.246166152815521 0)
(-1.403732653550777 0.8327632326076304 0)
(-1.515269229271143 0.236918752336837 0)
(1.301331500860126 -3.154264032821037 0)
(-0.7715372094502521 -1.924991151789766 0)
(-1.529134174904131 -0.907610766341282 0)
(-1.675074735784551 -0.3197662182518183 0)
(4.686945288308864 -8.413496416568901 0)
(2.647525090164817 -6.551790253012487 0)
(1.495389789750235 -4.055324402681812 0)
(1.202795986612641 -1.407602427073876 0)
(7.1962056559502 -7.084187880210409 0)
(6.468711769254861 -5.917542500064978 0)
(6.015721480721126 -3.825823666382241 0)
(5.799144549863313 -1.322156672084682 0)
(-1.515269229270205 -0.2369187523466445 0)
(-1.675074735784251 0.3197662182290149 0)
(1.202795986609154 1.407602427041253 0)
(5.79914454985949 1.322156672043753 0)
(-1.403732653548517 -0.8327632326196341 0)
(-1.529134174899121 0.9076107663216608 0)
(1.495389789762925 4.055324402653224 0)
(6.015721480745803 3.825823666345015 0)
(-0.9703824034327017 -1.246166152823233 0)
(-0.771537209443106 1.924991151770553 0)
(2.6475250901835 6.55179025298971 0)
(6.468711769305188 5.917542500038122 0)
(-0.02362497592700137 -1.2258029435222 0)
(1.301331500868654 3.154264032809166 0)
(4.686945288312911 8.413496416566959 0)
(7.196205655962147 7.084187880208867 0)
(8.347349309706672 7.718943409722812 0)
(9.469351342727698 8.434903127867793 0)
(9.769699623982532 9.7103439670221 0)
(10.76166314663381 9.767663199857379 0)
(7.389463497487406 9.579802925556756 0)
(9.507424728021954 10.37716022563799 0)
(10.37409279805687 12.03536954190973 0)
(11.88185062629687 11.73621960998574 0)
(4.726430555424733 5.631176299810665 0)
(8.666376867932478 7.685458176844921 0)
(10.71756149653179 11.57640408027106 0)
(12.28536215574106 12.15739462753846 0)
(2.015266421134978 -0.2899814709611701 0)
(5.807679952835531 1.4084020582727 0)
(9.342769389039852 7.263913754667009 0)
(11.46059655668444 11.83759957970212 0)
(11.08547330296578 4.062125082092276 0)
(3.562861170478743 -0.08906462314903525 0)
(-1.996410968779866 -0.2941503450846848 0)
(-3.046990499842535 -1.868538605704956 0)
(10.34477657242443 6.07370768933688 0)
(4.151415589181162 3.33243818744423 0)
(-1.293657000540614 1.369992700381111 0)
(-3.498148890256719 -1.189532901821687 0)
(11.05132821032137 8.24767714959472 0)
(6.538859989169745 4.996541164647838 0)
(2.010161591251081 2.224924171870458 0)
(-2.524515615156053 -1.346708456744113 0)
(11.22479360621698 9.503570824316343 0)
(7.610046859203125 7.123975898116124 0)
(5.670816243607513 3.913990026943706 0)
(0.3940003441089831 -1.113480749866567 0)
(-0.8182493136866028 -6.62198659165279 0)
(-0.3968255678128868 -7.927277687018276 0)
(1.287986013708708 -9.975050958358239 0)
(4.218498580504241 -12.00992665443904 0)
(-0.3470611222011219 -5.914302999646685 0)
(-0.3119518770820346 -10.32042143115015 0)
(0.9851901755413567 -13.54536169919465 0)
(2.921313260400326 -16.78193296929858 0)
(-0.2419169319896045 -4.551250952938326 0)
(0.3202405173681697 -10.54902422985427 0)
(1.314802800004199 -14.50630015103464 0)
(2.187164131696654 -17.65557273518518 0)
(-1.033493073503974 -3.938909958803435 0)
(-1.091593490988915 -10.20471323167886 0)
(-0.04086078715100232 -14.42901800952417 0)
(0.7190308537328453 -17.41325356906765 0)
(8.556316653888443 -14.34019653039581 0)
(11.25054917281944 -4.442682874211069 0)
(32.67976296279303 4.467626454011937 0)
(30.550694655378 -4.986687012628213 0)
(6.569544501246026 -19.20615535143884 0)
(8.424674987845545 -11.74795502442174 0)
(26.41044475690636 2.710751344476633 0)
(31.92993037467357 -4.744235040596528 0)
(3.57428412938701 -19.54377795453244 0)
(3.576841095486447 -14.16774500816708 0)
(16.83754375816051 5.638825534292817 0)
(31.58090611271554 -2.884864284810414 0)
(1.838090990809832 -19.12486728886492 0)
(1.578193017431203 -16.11631507569228 0)
(6.211418085548393 1.346282040161163 0)
(19.97930896631448 8.420015026179794 0)
(24.90370724879536 -10.01400324642011 0)
(21.65125147226594 -11.88593846506578 0)
(18.93840952582748 -12.13522926527452 0)
(17.27022436083919 -11.81492557673168 0)
(24.89462725666611 -12.20099986145413 0)
(21.09412031586777 -11.93145115049034 0)
(18.64737693198117 -12.06761184288871 0)
(17.14091884275902 -11.76897541813422 0)
(30.87998653840666 -17.97822172902773 0)