/*--------------------------------*- C++ -*----------------------------------*\
  =========                 |
  \\      /  F ield         | OpenFOAM: The Open Source CFD Toolbox
   \\    /   O peration     | Website:  https://openfoam.org
    \\  /    A nd           | Version:  11
     \\/     M anipulation  |
\*---------------------------------------------------------------------------*/
FoamFile
{
    format      ascii;
    class       volScalarField;
    location    "0.3592353";
    object      rho;
}
// * * * * * * * * * * * * * * * * * * * * * * * * * * * * * * * * * * * * * //

dimensions      [0 0 0 0 0 0 0];

internalField   nonuniform List<scalar> 
880
(
0.2239950333699092
0.2239950336977215
0.2240219309110488
0.2277382251810546
0.2239950333702082
0.223995034333608
0.224028384721567
0.2294906605055325
0.2239950333717012
0.2239950371321023
0.2240567381340455
0.2315875082983027
0.2239950333941023
0.2239950499075351
0.2241222544703044
0.2347099602394582
0.223995033259515
0.2239950334139612
0.2239950459401247
0.2239952242250021
0.22399510967155
0.2239953271656344
0.2239968608575434
0.2239977477223123
0.2242817645040579
0.2244566828531278
0.2247513400456616
0.2250683319917972
0.2401924486061396
0.2455342930491629
0.2500084461863037
0.2520201458926897
0.2239955037675071
0.2239988445067411
0.2240094180795507
0.2240395949560241
0.2240201688636314
0.2241022651621738
0.2242088514541899
0.2244460959134975
0.2264582913226997
0.2276524847092908
0.2291734713975092
0.2311937571899733
0.2539939072736125
0.2568432509781104
0.2574508745763935
0.2560354123804995
0.2436279742470215
0.2366720981063624
0.2331385398446622
0.2308249475659485
0.2347448790866038
0.2358606434650884
0.2365383235063096
0.236572998576659
0.2252532790975915
0.2262087577922989
0.2272170613486082
0.2279428390161709
0.2241531989869489
0.2243777824011715
0.2247180535304645
0.225194862212095
0.2257495109951715
0.2263069945206505
0.2268586443569306
0.2272746743062119
0.2284636901084579
0.2287683163722219
0.2289176849644105
0.228956224164461
0.2358869289069481
0.2349358004329967
0.2336846398929757
0.2323892212957485
0.2284543858985314
0.2270998984426888
0.2263601026369339
0.2255256446064444
0.2257914104430319
0.2314865564264977
0.2288735230524215
0.2275322018929858
0.2365885057268923
0.2310972118130687
0.2286239959336581
0.2274950994729707
0.2954149849210723
0.2338487626112771
0.2283256565017279
0.2269977827338013
0.3573529170328817
0.2486711090328176
0.2292792517662071
0.2268111249252255
0.2267523661145976
0.2306963760593404
0.2665975598896175
0.3845280267724471
0.2257541083116751
0.2332910576728499
0.2862187288644764
0.3841151485970606
0.2261774974085299
0.2392092966886517
0.311679274919794
0.3875968851946999
0.2277762169228294
0.2496189428683606
0.3348894234450884
0.3832618446646909
0.3736733013691583
0.3470974131301845
0.2651506478681119
0.2312644438722309
0.3618913127152627
0.3484420070741827
0.2820879875765224
0.2373724406827941
0.3493508632687139
0.344441071833426
0.2966025338101937
0.2469820798290125
0.3360858143808327
0.3272446047478316
0.2987918972139865
0.2586675008202222
0.268847832553582
0.2915294000300436
0.3056281652544861
0.3202637915249357
0.2674706464984775
0.2769599776029147
0.2821380104815783
0.2973621964478879
0.2634545801184722
0.2629450309000612
0.2588576374950775
0.2680360151413267
0.2581465090116103
0.2516078394379691
0.2376536800522625
0.2330812903699549
0.2537297408394505
0.2402838024718114
0.2167390670584626
0.1875800039918814
0.2465603357958343
0.2298995200299899
0.1990009566549143
0.131107737382082
0.2410504171736334
0.2255981765423892
0.1852433508170342
0.08691820340763366
0.2363158509534377
0.2232416524345316
0.1728895955835787
0.05198494111042787
0.05321624792668573
0.1741788589473583
0.2213941670538036
0.2320721175224852
0.07253555746699453
0.1742445444938323
0.2201204077381052
0.2291993383819491
0.0739948938387676
0.1723933902243162
0.2183944099157144
0.2272665039881907
0.06823146656961544
0.1690868025348587
0.2169800016243641
0.2262495345169523
0.08121617807535077
0.1750673070653371
0.2166092278218079
0.2244899148857993
0.09692937489204606
0.1821353459697768
0.216935369016141
0.2234647326947204
0.116078802233488
0.1914406183344891
0.2176618607212002
0.2234194862312227
0.1390487710661147
0.199423881067764
0.2188314096959915
0.2235311481514425
0.1554762477788594
0.1757860690927058
0.2098488500699049
0.2225128653398597
0.1533130131457002
0.1786602159026285
0.2102830743238221
0.222489854904541
0.1489449879421882
0.1829369808738285
0.2113253325084387
0.2224888640531335
0.1437272100584763
0.1876060903422765
0.2129161291149003
0.2226132467026759
0.1390487710660935
0.1994238810677084
0.2188314096958348
0.2235311481506503
0.116078802233567
0.1914406183338768
0.2176618607208645
0.2234194862302162
0.09692937489204692
0.1821353459694382
0.2169353690155141
0.2234647326936879
0.08121617807547862
0.175067307064918
0.216609227821612
0.2244899148852036
0.2320721175229931
0.221394167053851
0.174178858947206
0.05321624792588078
0.2291993383818984
0.2201204077379897
0.1742445444934433
0.07253555746636604
0.2272665039882971
0.2183944099158498
0.1723933902233891
0.0739948938386189
0.2262495345170914
0.2169800016248892
0.1690868025347414
0.06823146656956136
0.05198494111028419
0.1728895955833587
0.223241652434422
0.2363158509536145
0.08691820340726353
0.1852433508171237
0.2255981765424862
0.2410504171737596
0.1311077373818225
0.1990009566553557
0.2298995200300779
0.2465603357964566
0.1875800039920096
0.216739067058068
0.24028380247114
0.2537297408398703
0.2688478325541438
0.2915294000313729
0.305628165255346
0.3202637915245409
0.2674706464983999
0.2769599776027125
0.2821380104820377
0.2973621964477623
0.2634545801176373
0.2629450308998638
0.2588576374950451
0.2680360151413069
0.2581465090114162
0.2516078394376391
0.2376536800520777
0.2330812903702117
0.3360858143806434
0.3272446047480375
0.2987918972147774
0.2586675008219323
0.3493508632682729
0.3444410718334212
0.2966025338105586
0.2469820798293376
0.3618913127150351
0.3484420070738195
0.2820879875762488
0.2373724406834911
0.3736733013682331
0.3470974131307536
0.2651506478688399
0.2312644438723685
0.22675236611446
0.2306963760594461
0.2665975598894263
0.3845280267718111
0.2257541083126948
0.2332910576731312
0.2862187288644104
0.384115148596087
0.2261774974101502
0.2392092966899917
0.3116792749197042
0.3875968851944768
0.2277762169231506
0.2496189428681872
0.3348894234450581
0.3832618446640134
0.2268111249253351
0.2269977827336664
0.227495099473731
0.2275322018930919
0.2292792517654227
0.2283256565011879
0.2286239959338983
0.2288735230523817
0.2486711090319599
0.233848762611348
0.2310972118124853
0.2314865564262526
0.3573529170319225
0.2954149849203537
0.2365885057270964
0.2257914104431099
0.2272746743067299
0.2289562241646281
0.2323892212960516
0.225525644606675
0.226858644356239
0.2289176849647698
0.2336846398932768
0.2263601026370656
0.2263069945206166
0.2287683163722125
0.2349358004328225
0.2270998984419897
0.2257495109946226
0.2284636901079413
0.2358869289076241
0.2284543858986441
0.2241531989867883
0.2252532790970278
0.2347448790870157
0.2436279742474453
0.2243777824006741
0.2262087577913841
0.235860643465588
0.2366720981061274
0.2247180535311471
0.2272170613476402
0.2365383235061941
0.2331385398436023
0.2251948622116809
0.227942839015875
0.2365729985772688
0.2308249475654088
0.2560354123802506
0.2311937571901311
0.2244460959130697
0.2240395949568405
0.2574508745762415
0.2291734713976801
0.2242088514539266
0.2240094180795289
0.2568432509781185
0.2276524847090182
0.2241022651607081
0.2239988445063097
0.2539939072734541
0.2264582913222153
0.2240201688631257
0.2239955037681977
0.2520201458924427
0.2250683319918935
0.2239977477223621
0.2239952242259381
0.2500084461853561
0.2247513400456266
0.2239968608570022
0.2239950459407107
0.2455342930483548
0.2244566828530252
0.2239953271652113
0.2239950334137216
0.2401924486054504
0.2242817645037791
0.2239951096714347
0.2239950332612173
0.2239950333699093
0.2239950336979472
0.224021930911096
0.2277382251807991
0.2239950333704065
0.2239950343328749
0.2240283847214964
0.229490660505498
0.2239950333721685
0.2239950371315927
0.2240567381341693
0.2315875082988435
0.2239950333946447
0.2239950499073844
0.2241222544704077
0.234709960239687
0.230985998489667
0.234081782014523
0.2390621012400628
0.2488978309721338
0.2340817820151072
0.2381172604463964
0.245574649903869
0.2600339404372614
0.239062101240276
0.2455746499038603
0.2575887382440191
0.2748615377807674
0.248897830972264
0.2600339404368017
0.2748615377812874
0.2928126882329578
0.3104165893213868
0.2953224412530093
0.2891127426400659
0.2745361984138704
0.3072130383292691
0.3028630044746807
0.3034057207269472
0.2963688697059494
0.3073448475185023
0.3059054423623735
0.3051216841389741
0.3025786203444895
0.3028575319292789
0.3020908512880867
0.3018048815474572
0.300091598723453
0.2950239802054395
0.2917401135806414
0.285388115553073
0.2766609386852653
0.2958574145267583
0.2924022093872941
0.285838392141723
0.2774974388062446
0.2966768641672162
0.292935802008697
0.2859251108386195
0.2782979067987527
0.2970753471393149
0.2928005243197393
0.2862005180273056
0.275841052342488
0.2263160603276103
0.2042670492401807
0.2017444875840648
0.2026249621208072
0.2115210490325559
0.1977466756144367
0.1990277793357002
0.20063711447571
0.1993451737482863
0.1972927391110464
0.2000145770845745
0.2014856042673245
0.1809417602672099
0.1925854037353121
0.1978578001534103
0.1999102388787884
0.2023253651719488
0.2029381114346376
0.2046257695241508
0.2066686418688062
0.2009346172938589
0.2018169122838273
0.2037637145547216
0.2063170723478692
0.2016266440981136
0.2022707807980406
0.2039853468832147
0.2060235739792974
0.2003335258398981
0.2011787101184217
0.2033036346504376
0.2060925975835789
0.2180896293676717
0.2812240831701754
0.3614438454474672
0.3822066375298616
0.2229323724303979
0.2927327388716433
0.3544344646922614
0.367446662358658
0.2263441361734703
0.2975601931184628
0.3517789470743402
0.3643075047960135
0.2283713373206683
0.3061287960815294
0.3524197236744154
0.3640314543302937
0.4398971869056938
0.4300656392077683
0.4215549230105524
0.4060844915005038
0.4369343467726589
0.4303678430002831
0.4218071902962247
0.4064957559939239
0.4312655040412412
0.4288339550383948
0.4202852397631998
0.40550287465835
0.4223956182753962
0.430339446589944
0.4216467122347756
0.4068342950762155
0.3875017982498533
0.3713092163691171
0.3555409968908345
0.3469265732545067
0.3887688609892961
0.3719732123977336
0.3555330899304258
0.3465953942893911
0.3881578652033398
0.3703917554824432
0.3547426563386886
0.3453439236337513
0.3906698539530749
0.3717222996882106
0.3564608086422371
0.3464652168639832
0.3381630157863048
0.3240653163203654
0.3003142722412573
0.2623605590378547
0.3387632332442638
0.3267216406522644
0.3038970550848354
0.2701431047666193
0.3380920433780237
0.3272108855544828
0.303534587944005
0.2700298681054276
0.3396838164729815
0.3305056202381526
0.3044647473866148
0.3119512265331344
0.1731391721671116
0.05034380436973533
0.008911977201622269
0.004212853810531893
0.1365655648582421
0.0344846329427855
0.01027404122285971
0.00810428511481681
0.1037545933398707
0.02499458544336143
0.0109000235643122
0.009786733490553041
0.07437612397766499
0.01516464400309823
0.01060718892092666
0.01059524462164975
0.007180999374286593
0.01439571420303191
0.02016582422173704
0.02856992899964499
0.01249892332096372
0.0187267138683733
0.02471777541984276
0.03400887322654781
0.01535758334525828
0.02183524627681323
0.02993106722686314
0.03977564367248532
0.01757997586687271
0.02469631791614552
0.03513808248915234
0.04478704270152241
0.03597867509629243
0.05195662965796587
0.07156284775271138
0.09542421740566188
0.0389683917218592
0.05280904205326164
0.07024365623057562
0.09111911437729632
0.04275496973016457
0.0528766154337517
0.0680581079719203
0.08778045568094259
0.04171633923277243
0.04958602232228359
0.05995657205593875
0.08265024671277919
0.09972306280429498
0.09878568603401454
0.0991876566577415
0.101037839856238
0.09008954049551939
0.09155984626421244
0.09365989030647222
0.09517700036587329
0.08610363156391747
0.09010306448131308
0.09206427064134562
0.09461476249357463
0.08127586119956066
0.08658445376012483
0.08919856855259067
0.09399556948877112
0.09891504995510811
0.1032403302578846
0.1060220925870231
0.1069892397436958
0.09791347331716257
0.1011868416586308
0.1034642943408703
0.1045904841180079
0.09812561276605512
0.1013573304227973
0.1046580150334258
0.1063074361691474
0.1051230063153331
0.1089086022820172
0.1123101934974526
0.1130949531535675
0.1069892397437105
0.1045904841179559
0.1063074361692086
0.1130949531535586
0.1060220925871447
0.1034642943409039
0.1046580150334579
0.1123101934974122
0.1032403302578789
0.1011868416587373
0.1013573304229129
0.1089086022820848
0.09891504995535171
0.09791347331715033
0.09812561276611211
0.1051230063154383
0.1010378398564893
0.09918765665778054
0.0987856860341236
0.09972306280434216
0.09517700036593926
0.093659890306594
0.0915598462643229
0.09008954049558598
0.09461476249370986
0.09206427064155137
0.09010306448144886
0.08610363156406436
0.09399556948883876
0.08919856855268789
0.08658445376022875
0.08127586119970669
0.0826502467130248
0.05995657205626746
0.0495860223225561
0.04171633923301368
0.08778045568113636
0.06805810797212078
0.05287661543402482
0.04275496973048081
0.09111911437747977
0.07024365623085718
0.05280904205353634
0.0389683917220947
0.09542421740580781
0.07156284775298884
0.05195662965816217
0.03597867509664296
0.02856992899981389
0.02016582422182036
0.014395714202952
0.007180999374220957
0.03400887322671201
0.02471777541997349
0.01872671386836457
0.01249892332096474
0.03977564367265839
0.02993106722703184
0.02183524627682206
0.01535758334524994
0.0447870427016846
0.03513808248928905
0.02469631791618216
0.01757997586685872
0.004212853810441682
0.008911977201458081
0.05034380436939737
0.1731391721670759
0.008104285114801719
0.01027404122280072
0.03448463294262607
0.1365655648580525
0.009786733490547326
0.01090002356426833
0.02499458544329387
0.1037545933398153
0.01059524462162212
0.01060718892088242
0.01516464400306705
0.07437612397753722
0.2623605590378283
0.3003142722409141
0.3240653163195826
0.3381630157859749
0.2701431047662622
0.303897055084555
0.3267216406519022
0.338763233243603
0.2700298681051287
0.3035345879435852
0.3272108855544658
0.3380920433777866
0.3119512265329457
0.3044647473862815
0.3305056202383519
0.3396838164725036
0.3469265732540311
0.3555409968899169
0.3713092163686252
0.38750179824874
0.3465953942888904
0.3555330899302522
0.3719732123960855
0.3887688609881364
0.3453439236339402
0.3547426563378339
0.3703917554809723
0.3881578652021996
0.3464652168636234
0.3564608086417057
0.3717222996873613
0.3906698539525139
0.4060844914998645
0.4215549230099815
0.430065639207395
0.4398971869058691
0.4064957559935986
0.4218071902957982
0.4303678429996081
0.4369343467728954
0.4055028746581729
0.4202852397627314
0.4288339550381439
0.4312655040412328
0.4068342950761983
0.421646712234543
0.4303394465891261
0.4223956182760455
0.3822066375298714
0.3614438454470466
0.28122408317035
0.2180896293682561
0.3674466623585586
0.3544344646920391
0.2927327388717883
0.2229323724309726
0.3643075047959498
0.3517789470742039
0.2975601931185408
0.2263441361740677
0.3640314543296482
0.3524197236742894
0.3061287960816112
0.2283713373212904
0.2066686418691618
0.2046257695234624
0.2029381114334746
0.2023253651710995
0.2063170723483223
0.203763714554471
0.2018169122827265
0.200934617293397
0.2060235739798195
0.2039853468828801
0.2022707807970073
0.2016266440977018
0.2060925975840915
0.2033036346499429
0.201178710117359
0.20033352583921
0.202624962119866
0.2017444875833398
0.2042670492403864
0.2263160603278229
0.2006371144747934
0.1990277793348521
0.1977466756148545
0.2115210490326764
0.2014856042664244
0.2000145770837399
0.1972927391115945
0.199345173748341
0.1999102388778755
0.1978578001524113
0.1925854037358593
0.1809417602673635
0.2766609386852549
0.2853881155529782
0.2917401135810525
0.2950239802052125
0.2774974388061388
0.2858383921422791
0.2924022093875744
0.2958574145263232
0.2782979067987966
0.2859251108385356
0.2929358020086191
0.2966768641669824
0.2758410523423823
0.2862005180278803
0.292800524320412
0.2970753471390417
0.300091598722466
0.3025786203429267
0.296368869704233
0.2745361984137377
0.3018048815459509
0.3051216841373394
0.3034057207245222
0.2891127426391981
0.3020908512870826
0.3059054423606505
0.3028630044724008
0.295322441251385
0.3028575319279169
0.3073448475172632
0.3072130383264572
0.3104165893181273
0.1499156817349935
0.2006580555609979
0.2185670632320648
0.2235520923630406
0.1465640537626219
0.1988683680014303
0.2174186480637156
0.223352373180681
0.1435241250845649
0.196407337702265
0.2163008839583118
0.2231149525130667
0.1411691613813724
0.1921317996228076
0.2146289845601769
0.2228457300384125
0.2225128653398168
0.2098488500699212
0.1757860690927322
0.1554762477790085
0.2224898549043159
0.2102830743237872
0.178660215902699
0.1533130131456703
0.2224888640530484
0.2113253325085734
0.1829369808738289
0.1489449879422765
0.2226132467024954
0.2129161291147112
0.1876060903423096
0.1437272100585951
0.2228457300380479
0.223114952512829
0.2233523731803225
0.2235520923622935
0.2146289845595805
0.2163008839580773
0.2174186480630333
0.2185670632316511
0.1921317996228792
0.1964073377021588
0.1988683680016114
0.2006580555612965
0.1411691613813654
0.1435241250844675
0.1465640537626111
0.149915681735047
)
;

boundaryField
{
    back
    {
        type            empty;
    }
    inlet
    {
        type            calculated;
        value           nonuniform List<scalar> 
16
(
0.2239950333699092
0.2239950333702082
0.2239950333717012
0.2239950333941023
0.223995033259515
0.2239950334139612
0.2239950459401247
0.2239952242250021
0.2239952242259381
0.2239950459407107
0.2239950334137216
0.2239950332612173
0.2239950333699093
0.2239950333704065
0.2239950333721685
0.2239950333946447
)
;
    }
    front
    {
        type            empty;
    }
    top
    {
        type            calculated;
        value           nonuniform List<scalar> 
40
(
0.2239955037675072
0.2239988445067411
0.2240094180795507
0.2240395949560241
0.2241531989869489
0.2243777824011715
0.2247180535304646
0.225194862212095
0.2257495109951715
0.2263069945206505
0.2268586443569306
0.2272746743062118
0.2275322018929858
0.2274950994729707
0.2269977827338013
0.2268111249252255
0.2267523661145976
0.2257541083116751
0.2261774974085299
0.2277762169228293
0.2312644438722309
0.2373724406827941
0.2469820798290125
0.2586675008202222
0.268847832553582
0.2674706464984775
0.2634545801184722
0.2581465090116103
0.2537297408394505
0.2465603357958343
0.2410504171736334
0.2363158509534377
0.2320721175224852
0.2291993383819491
0.2272665039881908
0.2262495345169523
0.2244899148857992
0.2234647326947204
0.2234194862312227
0.2235311481514425
)
;
    }
    outlet
    {
        type            calculated;
        value           uniform 0.2239950333699093;
    }
    bottom
    {
        type            calculated;
        value           nonuniform List<scalar> 
40
(
0.2235311481506503
0.2234194862302162
0.2234647326936879
0.2244899148852036
0.2320721175229931
0.2291993383818983
0.2272665039882971
0.2262495345170914
0.2363158509536145
0.2410504171737596
0.2465603357964566
0.2537297408398703
0.2688478325541438
0.2674706464983999
0.2634545801176373
0.2581465090114162
0.2586675008219323
0.2469820798293376
0.2373724406834911
0.2312644438723685
0.22675236611446
0.2257541083126948
0.2261774974101502
0.2277762169231506
0.2268111249253351
0.2269977827336664
0.227495099473731
0.2275322018930919
0.2272746743067299
0.226858644356239
0.2263069945206166
0.2257495109946226
0.2241531989867883
0.2243777824006741
0.2247180535311471
0.2251948622116809
0.2240395949568405
0.2240094180795289
0.2239988445063097
0.2239955037681977
)
;
    }
    wall
    {
        type            calculated;
        value           nonuniform List<scalar> 
104
(
0.3104165893213868
0.3072130383292691
0.3073448475185023
0.3028575319292789
0.2970753471393149
0.2928005243197393
0.2862005180273056
0.275841052342488
0.1809417602672099
0.1925854037353121
0.1978578001534103
0.1999102388787883
0.2003335258398981
0.2011787101184217
0.2033036346504375
0.2060925975835789
0.2283713373206683
0.3061287960815294
0.3524197236744154
0.3640314543302937
0.4223956182753962
0.430339446589944
0.4216467122347755
0.4068342950762155
0.3906698539530749
0.3717222996882105
0.3564608086422371
0.3464652168639832
0.3396838164729815
0.3305056202381526
0.3044647473866148
0.3119512265331344
0.07437612397766499
0.01516464400309823
0.01060718892092666
0.01059524462164975
0.01757997586687271
0.02469631791614552
0.03513808248915234
0.04478704270152241
0.04171633923277243
0.04958602232228359
0.05995657205593875
0.08265024671277919
0.08127586119956066
0.08658445376012483
0.08919856855259067
0.09399556948877112
0.09891504995510809
0.1032403302578846
0.1060220925870231
0.1069892397436958
0.1069892397437105
0.1060220925871447
0.1032403302578789
0.09891504995535171
0.09399556948883876
0.08919856855268789
0.08658445376022875
0.08127586119970669
0.0826502467130248
0.05995657205626746
0.0495860223225561
0.04171633923301368
0.0447870427016846
0.03513808248928905
0.02469631791618216
0.01757997586685872
0.01059524462162212
0.01060718892088242
0.01516464400306705
0.07437612397753722
0.3119512265329457
0.3044647473862815
0.3305056202383519
0.3396838164725036
0.3464652168636234
0.3564608086417057
0.3717222996873614
0.3906698539525139
0.4068342950761983
0.421646712234543
0.4303394465891261
0.4223956182760455
0.3640314543296482
0.3524197236742894
0.3061287960816112
0.2283713373212904
0.2060925975840916
0.2033036346499429
0.201178710117359
0.20033352583921
0.1999102388778755
0.1978578001524113
0.1925854037358594
0.1809417602673635
0.2758410523423823
0.2862005180278803
0.292800524320412
0.2970753471390417
0.3028575319279169
0.3073448475172632
0.3072130383264572
0.3104165893181273
)
;
    }
}


// ************************************************************************* //
