/*--------------------------------*- C++ -*----------------------------------*\
  =========                 |
  \\      /  F ield         | OpenFOAM: The Open Source CFD Toolbox
   \\    /   O peration     | Website:  https://openfoam.org
    \\  /    A nd           | Version:  11
     \\/     M anipulation  |
\*---------------------------------------------------------------------------*/
FoamFile
{
    format      ascii;
    class       volScalarField;
    location    "0.3592353";
    object      T;
}
// * * * * * * * * * * * * * * * * * * * * * * * * * * * * * * * * * * * * * //

dimensions      [0 0 0 1 0 0 0];

internalField   nonuniform List<scalar> 
880
(
500.0000000000027
500.000000292371
500.0240603320877
503.3407820846664
500.0000000004407
500.0000008570672
500.0298640324801
504.8871074131906
500.0000000016358
500.0000033381324
500.0553409713118
506.7156216837672
500.0000000211684
500.0000146203254
500.1147608314546
509.4283653213689
499.9999999006574
500.000000075423
500.0000101657997
500.0001636964561
500.0000671566198
500.0002570852635
500.0016144183703
500.0023565931734
500.2633610491384
500.4346979190578
500.7186497697355
500.9607512433701
514.9177854543509
521.1125081172177
526.374212544256
529.0291389317298
500.0004089516166
500.0033846626232
500.0128249746895
500.0397777152066
500.0227912974627
500.0985653135438
500.2005061744673
500.4220169256844
502.4155672881672
503.6983747421668
505.2861275285272
507.230688681232
531.2572555477573
533.8983521083353
534.3925479575404
533.1639953959005
522.8401699716034
517.6388933963699
515.4439848567341
513.96955182854
511.0474776840746
512.6641408784467
513.5779086238467
513.7075300668886
501.1772286280524
502.0602927992241
503.0082953183306
503.7665553137566
500.1411451748329
500.3405959383992
500.6412501717236
501.0639112772873
501.5574314502389
502.0498768733304
502.5355806736661
502.8872140623602
504.3928050993723
504.7489795487157
504.9504390929934
504.9005469677902
513.0678691736152
512.1692134898832
510.9866082988636
509.7491129893515
512.2219204828626
511.0323480664673
510.2808471066964
509.5130053502652
508.9399901921268
508.8784186790678
504.759752116527
503.0952688340813
519.1984438794428
508.0402685588637
504.3860123793787
503.0560333629032
571.3177491179559
510.4332838612018
503.9291741302571
502.6033890717924
620.3433895496713
523.8954610576052
504.7804694263738
502.4448502303204
502.3964810523617
506.0673546904086
539.6770341172937
637.4090676139367
501.5158120921371
508.5902215140002
556.3024753995314
635.1890351430036
501.8917889001384
514.4419774642457
576.6099892754646
636.1937579103834
503.3245454076398
524.8670101282013
594.7474483980633
633.4378595662695
628.3169352983523
604.8051031917717
539.8151276803526
506.4863212448922
621.8132354839155
607.4543903316165
554.9974731903776
512.1637343727889
614.4988541229663
605.28397038127
566.994267652291
521.158723382548
606.6429157775619
594.2588501358857
569.0864458755377
532.0890738345623
541.2916214161687
563.5992573040039
579.7593058479617
597.1536675219454
539.8324003027325
552.055806870491
562.8278511980254
582.2094167278024
535.8348883155251
540.3213537082354
544.5106866688745
560.5778802166067
530.6368754606876
529.8354860617205
525.3123575138339
530.4063403110812
526.7520685511472
520.4504219944592
508.4953326454597
495.5317708563242
520.5909239175726
511.2779290795744
491.9683462665091
459.8351906885743
515.762807170693
506.0172152105495
477.9307569421215
425.1201631188018
511.588090820805
504.5831547430264
477.6788289934589
399.8635722543721
410.5428147314501
486.8268329818134
503.2609175938544
507.7682946667962
477.9413198976598
493.0373888672235
502.4041472974463
505.1697207174258
517.2617473511007
495.7348226603067
500.8735035701623
503.3598040660543
530.1729043187569
500.4063835753253
500.227276631575
502.2904352206165
539.0029612342462
504.327162589984
498.9655289241086
500.3929037915352
533.7935676286355
504.2973976830176
497.6634610972813
499.2219043039009
525.7944812027336
503.4848584804253
497.2753881803089
499.1942548817298
517.7063799665231
499.1153976372498
497.0794233754457
499.4039180914189
479.7731736388779
469.402322858659
488.9356266183747
498.6805894802956
474.2552572056943
471.2942782594159
489.4247622596362
498.6804290134837
465.2298659765033
473.4183402985808
490.3270380057169
498.6945964541147
459.5019746089783
476.2502309865017
491.3791695016101
498.7839340132761
517.7063799665918
499.1153976369329
497.0794233757981
499.4039180911594
525.7944812028468
503.4848584797855
497.2753881803013
499.1942548809585
533.7935676286862
504.2973976823278
497.6634610961274
499.2219043029571
539.0029612343296
504.3271625892131
498.9655289239314
500.3929037909703
507.7682946670446
503.2609175940989
486.8268329820754
410.5428147305068
505.1697207173334
502.4041472974906
493.0373888677522
477.9413198967603
503.3598040660137
500.8735035702398
495.7348226594615
517.2617473509365
502.2904352204917
500.2272766319996
500.4063835747216
530.1729043191006
399.8635722559789
477.6788289933661
504.5831547430931
511.5880908209367
425.1201631187578
477.9307569421818
506.0172152109246
515.76280717068
459.8351906887491
491.9683462670018
511.2779290795594
520.5909239177588
495.531770856732
508.4953326451749
520.4504219939138
526.7520685512501
541.2916214161871
563.5992573045971
579.759305848621
597.1536675224243
539.8324003022798
552.0558068701628
562.8278511982231
582.2094167283814
535.8348883147527
540.3213537079492
544.5106866688052
560.5778802169554
530.6368754604453
529.8354860613067
525.3123575136823
530.4063403115002
606.6429157779131
594.2588501362815
569.0864458758275
532.0890738355013
614.4988541234563
605.2839703816653
566.9942676523917
521.1587233824719
621.8132354844389
607.4543903319592
554.9974731900704
512.1637343728004
628.316935298881
604.8051031921111
539.8151276807887
506.4863212448026
502.3964810522336
506.0673546903939
539.6770341171567
637.4090676139704
501.5158120928905
508.590221514385
556.3024753996372
635.1890351431919
501.8917889011804
514.4419774652574
576.6099892758442
636.1937579102519
503.3245454076516
524.8670101280198
594.7474483986135
633.4378595665459
502.4448502301528
502.6033890716433
503.0560333634567
503.0952688342326
504.7804694256651
503.9291741299257
504.3860123793695
504.7597521164127
523.8954610568819
510.4332838611818
508.0402685583511
508.8784186789303
620.3433895494575
571.3177491175547
519.1984438795299
508.939990191997
502.8872140628599
504.9005469680979
509.7491129897259
509.5130053507045
502.5355806734685
504.9504390934358
510.9866082992346
510.2808471069357
502.0498768733488
504.748979548925
512.1692134898232
511.0323480658741
501.5574314498155
504.392805099223
513.0678691739756
512.2219204830324
500.1411451743733
501.1772286277576
511.0474776846003
522.8401699720113
500.3405959377607
502.0602927987558
512.6641408790559
517.638893396474
500.6412501720939
503.0082953180016
513.5779086242394
515.4439848559558
501.0639112768656
503.7665553137055
513.707530067366
513.9695518281262
533.1639953959343
507.2306886813702
500.4220169255448
500.0397777156466
534.3925479576535
505.2861275286922
500.2005061742431
500.012824974544
533.8983521087458
503.6983747420892
500.098565312329
500.0033846620567
531.2572555478919
502.4155672879133
500.0227912970843
500.0004089522476
529.0291389315053
500.9607512436515
500.0023565934105
500.0001636972167
526.3742125437641
500.7186497697697
500.0016144180346
500.0000101662836
521.1125081166028
500.4346979190153
500.0002570848737
500.0000000750825
514.9177854538353
500.263361049018
500.0000671562572
499.999999901189
500.0000000001753
500.0000002925185
500.0240603320151
503.3407820844395
500.0000000005271
500.0000008567644
500.0298640324359
504.8871074132176
500.0000000018922
500.0000033379117
500.0553409714146
506.7156216842591
500.0000000219067
500.0000146201806
500.1147608315392
509.4283653216247
506.225394891481
508.9278124370319
513.249134774353
521.8954747087236
508.9278124375024
512.3866951549841
518.7554590976652
531.3319919197571
513.2491347746274
518.7554590977171
528.8805045654256
544.0767446894956
521.8954747088028
531.3319919196066
544.0767446900388
560.2594536978567
577.2415788959848
564.235878922581
557.3543913294362
544.949780396908
575.4560795075827
571.5455817477113
570.3313819675184
564.6287898302218
575.3921424137544
574.3217089937837
573.7613313337841
572.0572956239878
571.9799312666747
571.5450320299984
571.6839418645978
570.9796504460586
567.8988270635149
565.553525366846
560.4612774221687
553.2864748990477
567.558300774147
565.1532339056134
560.2394960165034
553.9644515701677
567.57469972167
564.9924874206873
559.9824108177783
554.5583849786232
567.6370333218018
564.7358829505802
560.1859849117249
550.9724976401052
512.381391548525
492.8099237524725
489.9499854894385
490.4503519340498
501.8265013462872
488.708460898676
489.9705298307198
491.0968106603456
491.5798460646158
488.8778290262912
491.5594031828202
492.8374484685357
469.9267179143255
484.1233824702157
489.9013612659178
491.5987992138431
490.7932239963686
491.8105467522973
493.3327952608404
494.8470423892853
491.0039541826716
491.480862292399
492.8627672796019
494.861643509976
492.3164908942118
492.3386860244538
493.2673777255062
494.7357793423793
491.2483597303121
491.4195594700213
492.7259011312377
494.8404619809224
505.0240719238639
567.6790526642128
639.3613378749671
664.5431149344577
510.944625751499
581.1653896027445
642.0075435801335
660.2508116060268
516.4238140265934
589.4964833703486
641.9776099745787
660.9491951546164
520.2329356613758
597.7643158600639
642.1822642263336
661.362152987531
694.3007173291043
681.4453480255578
670.1401490997417
656.8753176465029
702.7508498444239
690.0069051912677
676.8983884680694
662.5495292135843
708.7285221850087
697.471945091499
683.0151447906143
668.0408340411208
706.6522896497988
701.2940250379581
687.1941506441783
671.8352926103698
643.6164457965195
633.0273533857654
623.2183657626623
618.9683327263898
648.714979410098
637.1082235183752
625.9498089288119
621.0677523720141
653.878378795291
640.61858817042
629.5063156032859
623.1777187011618
658.2970273522754
643.6928050951966
632.9970274739433
625.5985027182992
615.0673959809025
607.6463010516989
590.9806254283868
565.0080190722049
616.8448008897491
609.2347753083315
593.778465443427
592.6505193201633
617.838927362095
610.1544909726452
602.7702944263269
620.4156481801327
619.7333946927982
614.0056448212224
616.3504503041689
603.9811803637714
522.5290356520757
460.1975134794511
422.66530163883
426.5574814438913
512.0672216562532
421.983360031952
305.5277356809742
252.969822159033
468.7318579688738
368.1011659883571
252.1782768449713
231.8540917565756
368.0077055123884
282.585979470921
227.8297927052832
239.5913717261173
376.1177896862457
403.9284066594791
471.0881198596974
522.9247137598037
306.4930165530902
380.3617491209607
441.8191029743813
491.7072752701332
291.6676894659132
350.9024454523632
404.401148467991
445.1306615719459
298.9378844516765
351.4327964991366
402.1231071326635
431.1494552356894
487.0602988579471
510.3454935723438
509.2791299318255
509.6864850575785
435.7731152720488
473.928693312367
492.6746243468428
510.5667156919899
407.3528827289065
432.9141997789364
470.554436906686
514.1740067852121
392.4919291073595
408.2739153406576
445.0625658122556
512.9341720820762
491.8257674300622
470.6130690630329
459.3924190074115
459.7028258567237
495.177979874092
486.021685881156
482.0169603744486
475.8951769798559
504.2368114851864
507.4083182375001
501.6103012000291
488.617748328129
503.6012530417162
508.6045979516232
498.7249397083575
484.0921096161442
465.9313099349575
450.6274576496991
442.2373788333835
439.895678075697
471.5291800182188
455.688755860758
444.4203639406194
441.056528180766
469.7954372626459
461.2959091958123
452.6151922727049
448.9987456393927
462.8004813831133
460.2205685697383
455.4800090540721
452.3453364395453
439.8956780756612
441.0565281807446
448.9987456394032
452.3453364396372
442.2373788332051
444.4203639404583
452.6151922727005
455.4800090543323
450.627457649422
455.6887558604848
461.2959091957409
460.2205685699246
465.9313099345453
471.529180018031
469.7954372625933
462.8004813832517
459.7028258568608
459.3924190074562
470.6130690633476
491.8257674303144
475.8951769798858
482.0169603745418
486.0216858814207
495.1779798743319
488.6177483279905
501.6103011999425
507.4083182375149
504.2368114852517
484.0921096159439
498.7249397082666
508.6045979515876
503.6012530416841
512.9341720821578
445.0625658126798
408.2739153412695
392.4919291079672
514.1740067853179
470.5544369071033
432.9141997795271
407.3528827295893
510.5667156921629
492.6746243471316
473.9286933129113
435.7731152729388
509.6864850577176
509.2791299320149
510.3454935727997
487.0602988586647
522.9247137596188
471.088119859618
403.9284066579774
376.1177896950409
491.7072752701271
441.8191029746228
380.3617491203008
306.4930165533175
445.1306615722427
404.4011484685454
350.902445452168
291.6676894656832
431.1494552360768
402.123107133239
351.4327964994171
298.9378844515276
426.5574814654524
422.6653016407292
460.1975134796124
522.5290356526558
252.9698221621126
305.5277356809737
421.9833600318747
512.0672216564251
231.8540917566483
252.1782768446941
368.1011659888505
468.7318579693905
239.5913717263861
227.8297927048541
282.5859794715274
368.0077055127636
565.0080190725733
590.980625428787
607.6463010522159
615.0673959812846
592.6505193205165
593.7784654435696
609.2347753085903
616.8448008901447
620.4156481803843
602.7702944263448
610.1544909726001
617.8389273623162
603.9811803643148
616.3504503041082
614.0056448210688
619.7333946930607
618.9683327269541
623.218365763091
633.0273533856357
643.6164457964127
621.0677523725203
625.9498089288729
637.1082235180463
648.7149794097335
623.1777187013921
629.5063156034545
640.6185881700701
653.8783787950838
625.5985027186416
632.9970274741584
643.6928050951374
658.2970273518151
656.8753176462377
670.1401490994343
681.4453480252635
694.3007173289689
662.5495292132173
676.8983884680472
690.0069051910515
702.7508498441626
668.0408340408569
683.0151447903781
697.4719450909831
708.728522184924
671.8352926100977
687.1941506440098
701.2940250377557
706.6522896494283
664.5431149344497
639.3613378747084
567.6790526641727
505.0240719243271
660.2508116058838
642.0075435798487
581.165389602646
510.9446257520561
660.9491951543852
641.9776099742421
589.4964833701447
516.4238140271644
661.3621529875929
642.1822642259946
597.7643158598431
520.2329356619418
494.8470423899353
493.3327952607728
491.8105467515672
490.7932239959717
494.8616435106214
492.8627672794379
491.4808622914296
491.0039541822572
494.7357793430215
493.2673777251795
492.3386860234665
492.3164908936781
494.8404619815543
492.725901130871
491.419559468966
491.2483597296383
490.4503519332677
489.9499854888153
492.8099237528428
512.3813915488927
491.0968106595952
489.9705298298736
488.7084608991975
501.8265013465764
492.8374484677627
491.5594031818449
488.8778290267418
491.5798460648288
491.5987992130446
489.9013612647545
484.1233824705912
469.9267179145453
553.2864748992423
560.4612774224585
565.5535253674664
567.8988270633721
553.9644515702896
560.2394960167119
565.1532339061536
567.5583007740123
554.5583849785609
559.9824108178658
564.9924874210285
567.5746997213632
550.9724976401397
560.1859849117899
564.7358829508099
567.6370333215698
570.9796504451381
572.0572956228605
564.628789829344
544.9497803970287
571.6839418636089
573.7613313323355
570.3313819658596
557.3543913289067
571.5450320289219
574.3217089920589
571.5455817449421
564.2358789206568
571.979931265757
575.3921424118722
575.4560795041507
577.2415788923239
505.1312245332539
497.2537290847018
496.8135995128991
499.4842407188278
485.4160464779736
492.0361078340161
495.392689137252
499.3454238964904
470.3699629537268
486.3989543056035
493.9791845677208
499.1480598216029
460.1372591864284
480.4285347185956
492.4956036636949
498.9411009355376
498.6805894799199
488.9356266183768
469.4023228586178
479.7731736389663
498.6804290131098
489.4247622597848
471.2942782593452
474.255257206047
498.69459645413
490.3270380061321
473.4183402983519
465.2298659768014
498.7839340133541
491.3791695017867
476.2502309863324
459.5019746091072
498.9411009353907
499.148059821467
499.3454238967693
499.4842407189755
492.4956036634344
493.979184567527
495.3926891368938
496.8135995129783
480.4285347187239
486.3989543059273
492.0361078345657
497.2537290851105
460.137259186254
470.369962953478
485.4160464779833
505.1312245333733
)
;

boundaryField
{
    back
    {
        type            empty;
    }
    inlet
    {
        type            zeroGradient;
    }
    front
    {
        type            empty;
    }
    top
    {
        type            zeroGradient;
    }
    outlet
    {
        type            fixedValue;
        value           uniform 500;
    }
    bottom
    {
        type            zeroGradient;
    }
    wall
    {
        type            zeroGradient;
    }
}


// ************************************************************************* //
