/*--------------------------------*- C++ -*----------------------------------*\
  =========                 |
  \\      /  F ield         | OpenFOAM: The Open Source CFD Toolbox
   \\    /   O peration     | Website:  https://openfoam.org
    \\  /    A nd           | Version:  11
     \\/     M anipulation  |
\*---------------------------------------------------------------------------*/
FoamFile
{
    format      ascii;
    class       volScalarField;
    location    "4.1";
    object      p;
}
// * * * * * * * * * * * * * * * * * * * * * * * * * * * * * * * * * * * * * //

dimensions      [0 2 -2 0 0 0 0];

internalField   nonuniform List<scalar> 
5472
(
98.515872
96.204865
93.897516
91.597692
89.320481
87.115038
84.971522
82.873869
80.868797
78.978989
77.176011
75.503045
73.957942
72.561907
71.320361
70.228886
69.347607
68.621363
68.092424
99.141308
97.015432
94.857265
92.696097
90.529267
88.410374
86.345254
84.313258
82.35146
80.483344
78.70437
77.044152
75.500874
74.114581
72.879759
71.774667
70.874298
70.098554
69.492033
99.743165
97.777997
95.760951
93.741286
91.702688
89.673466
87.676865
85.721559
83.814311
81.972346
80.218642
78.562733
77.031773
75.651419
74.398476
73.305272
72.375916
71.588163
71.004378
100.29133
98.480533
96.630441
94.740286
92.810236
90.88454
88.972691
87.093192
85.234042
83.429264
81.703731
80.06257
78.545872
77.161946
75.910445
74.823358
73.878662
73.108083
72.526819
100.78155
99.113511
97.400505
95.632342
93.828216
92.020809
90.200206
88.395092
86.591374
84.831697
83.123866
81.511435
80.01937
78.641957
77.402301
76.309646
75.371598
74.613067
74.03051
101.18528
99.680017
98.110437
96.450251
94.760902
93.072192
91.359902
89.637294
87.903839
86.185007
84.51801
82.944294
81.453626
80.093354
78.868068
77.783452
76.853504
76.097513
75.520501
101.56953
100.17188
98.71563
97.19827
95.645537
94.052514
92.431952
90.776153
89.119229
87.466989
85.846999
84.308751
82.851099
81.512244
80.286574
79.225884
78.306896
77.551052
76.987126
101.86585
100.61803
99.278212
97.871846
96.436571
94.95954
93.444311
91.867224
90.284943
88.687721
87.121941
85.620003
84.201314
82.884481
81.682545
80.638333
79.720501
78.996674
78.431644
102.13569
100.98735
99.765334
98.490126
97.153961
95.761438
94.347716
92.884443
91.38287
89.843194
88.34839
86.88789
85.500205
84.211995
83.041518
82.001551
81.095504
80.375061
79.830292
102.36491
101.33703
100.21702
99.033938
97.798207
96.529492
95.205521
93.817
92.387647
90.923613
89.486311
88.077585
86.748416
85.490694
84.348629
83.322826
82.441156
81.731536
81.204287
102.571
101.6218
100.61092
99.52708
98.374557
97.199762
95.975892
94.697512
93.338876
91.953458
90.576904
89.220522
87.932134
86.708876
85.600912
84.601317
83.750895
83.047539
82.540133
102.73084
101.87717
100.94966
99.957074
98.921359
97.833704
96.676136
95.472343
94.193121
92.901913
91.597122
90.308557
89.06096
87.884284
86.792938
85.817109
84.998887
84.317746
83.83331
102.88647
102.09954
101.25759
100.35652
99.403633
98.396031
97.329991
96.203808
95.001964
93.773245
92.527931
91.314459
90.124315
88.999741
87.941292
86.993591
86.1826
85.531051
85.063853
102.99348
102.28792
101.52277
100.69981
99.830975
98.898726
97.91502
96.871119
95.758743
94.589781
93.407125
92.241575
91.107929
90.036598
89.016965
88.125558
87.352237
86.713567
86.253434
103.10486
102.47145
101.77084
101.01678
100.21369
99.349406
98.432421
97.455609
96.429913
95.343732
94.243863
93.138442
92.053489
91.013918
90.032891
89.153623
88.396049
87.807514
87.368046
103.19249
102.62064
101.98145
101.29472
100.56521
99.776778
98.920577
98.001517
97.026911
96.007657
94.982305
93.944222
92.926176
91.933833
91.003725
90.15242
89.437459
88.855833
88.429821
103.27181
102.75044
102.16873
101.53767
100.86489
100.15096
99.36877
98.516111
97.602471
96.645713
95.67233
94.68672
93.71619
92.771865
91.880202
91.066614
90.381924
89.820051
89.417478
103.35549
102.88399
102.35448
101.76753
101.13975
100.47209
99.743892
98.956763
98.111619
97.22568
96.316249
95.388989
94.460153
93.557633
92.706955
91.941825
91.277388
90.736455
90.345726
103.43078
102.99965
102.51534
101.98491
101.41278
100.78785
100.10362
99.362646
98.56313
97.732715
96.879216
96.007828
95.130269
94.268896
93.455598
92.723557
92.089788
91.575841
91.199033
103.50722
103.11323
102.6644
102.17706
101.65123
101.07236
100.43823
99.743874
98.99508
98.21426
97.407198
96.579951
95.748697
94.930086
94.150187
93.443292
92.834935
92.34288
91.977739
103.59548
103.23858
102.82486
102.36557
101.86813
101.33093
100.73745
100.08319
99.379865
98.642034
97.878176
97.090709
96.297586
95.524666
94.795935
94.109886
93.519478
93.043681
92.694287
103.67885
103.3581
102.98074
102.55966
102.09634
101.58712
101.02445
100.40707
99.744583
99.045202
98.314011
97.557287
96.78303
96.018835
95.286138
94.654527
94.099422
93.636761
93.297353
103.76193
103.47664
103.13237
102.74308
102.31064
101.8317
101.30064
100.71401
100.08039
99.411366
98.71956
98.006008
97.284171
96.570996
95.880468
95.228436
94.669198
94.215137
93.884982
103.85843
103.60748
103.3014
102.94427
102.54029
102.08878
101.58196
101.01895
100.40097
99.739263
99.045474
98.324104
97.589921
96.872343
96.19182
95.586626
95.051672
94.606514
94.285478
103.93805
103.73313
103.46856
103.14458
102.77056
102.35012
101.88169
101.36168
100.7852
100.16618
99.513654
98.835182
98.138114
97.424645
96.723894
96.069099
95.506598
95.049758
94.72641
104.01821
103.8672
103.64723
103.35698
103.00189
102.58399
102.10623
101.56846
100.97599
100.33248
99.652228
98.948523
98.235912
97.536033
96.857741
96.235268
95.679724
95.226853
94.917057
104.07963
104.0118
103.87933
103.67996
103.41444
103.07832
102.67045
102.19148
101.63948
101.02102
100.34375
99.620556
98.874261
98.108363
97.341299
96.607671
95.960623
95.47013
95.136157
67.642583
67.373347
67.32408
67.474372
67.753926
68.224271
68.807416
69.528142
70.377244
71.303878
72.435085
73.626298
75.010496
76.511538
78.118624
79.877432
81.633257
83.567611
85.527425
69.094863
68.893608
68.874414
69.088266
69.460675
70.049429
70.778344
71.704344
72.74818
73.943537
75.329364
76.775013
78.444394
80.140064
82.018905
83.954144
85.962433
88.104296
90.239172
70.605276
70.425907
70.447904
70.728879
71.207509
71.925547
72.807109
73.924588
75.143364
76.592632
78.161353
79.852378
81.704182
83.597654
85.694608
87.781733
90.018239
92.277737
94.590561
72.117405
71.944828
72.018578
72.3717
72.966495
73.806746
74.852536
76.117619
77.524392
79.16248
80.883677
82.768678
84.737083
86.815382
89.000678
91.213121
93.531244
95.816968
98.148893
73.612714
73.459302
73.586372
74.014862
74.715768
75.682123
76.870832
78.269873
79.85525
81.610876
83.48362
85.476707
87.54488
89.713028
91.909271
94.154062
96.387176
98.590573
100.7227
75.103215
74.973372
75.145079
75.655212
76.463177
77.542973
78.851632
80.390224
82.097401
83.960511
85.939314
87.992859
90.123712
92.288549
94.444619
96.590258
98.640231
100.61167
102.40949
76.575523
76.461589
76.692039
77.281756
78.179406
79.35336
80.782406
82.422174
84.23074
86.184124
88.214297
90.305221
92.417951
94.51567
96.556965
98.507375
100.31701
102.00097
103.47126
78.023688
77.935612
78.215226
78.872886
79.851309
81.122604
82.661867
84.380717
86.274277
88.26158
90.311186
92.372116
94.409625
96.389418
98.252714
99.978249
101.54035
102.92807
104.09967
79.442825
79.364916
79.711235
80.441474
81.482676
82.836216
84.442361
86.228129
88.172652
90.163207
92.188379
94.168088
96.105038
97.905689
99.566697
101.06333
102.3672
103.47889
104.39083
80.829127
80.772182
81.181087
81.944455
83.052842
84.486148
86.148615
87.985047
89.927243
91.884652
93.840124
95.71604
97.495656
99.087799
100.54742
101.79129
102.85484
103.70816
104.34156
82.158426
82.157966
82.594285
83.385753
84.5645
86.045806
87.74575
89.598986
91.506903
93.412745
95.26684
97.004099
98.592197
99.98636
101.21859
102.20338
103.01741
103.5406
103.85806
83.46443
83.495465
83.928087
84.781011
86.013426
87.526714
89.240282
91.075821
92.929687
94.753465
96.4683
98.038939
99.431835
100.62093
101.60152
102.32317
102.84393
103.05564
103.08443
84.713641
84.758322
85.203068
86.117992
87.372664
88.908236
90.621363
92.410628
94.179931
95.892525
97.455069
98.850835
100.03873
101.00426
101.73278
102.21205
102.47549
102.52379
102.43059
85.914925
85.95415
86.436003
87.386131
88.654793
90.191635
91.869277
93.592162
95.267919
96.847787
98.248079
99.464701
100.4473
101.19356
101.71803
102.0284
102.15453
102.18598
102.15534
87.045428
87.080096
87.612947
88.573198
89.842693
91.363941
92.997442
94.639014
96.206985
97.642676
98.885174
99.916412
100.70732
101.28364
101.67381
101.91774
102.03872
102.13741
102.24551
88.107404
88.170338
88.733456
89.668332
90.937911
92.424328
93.992537
95.549373
97.005575
98.2973
99.382724
100.24153
100.88948
101.3643
101.69289
101.95015
102.13374
102.32005
102.53465
89.09764
89.199893
89.749371
90.679052
91.953364
93.38656
94.887239
96.355348
97.695913
98.850084
99.783632
100.50497
101.0522
101.49078
101.82315
102.12212
102.37358
102.63226
102.87048
90.036306
90.146885
90.672468
91.623573
92.861867
94.233578
95.673186
97.050577
98.264141
99.284889
100.10732
100.74246
101.24789
101.6828
102.03975
102.38156
102.66923
102.94747
103.18954
90.905837
91.005649
91.550126
92.497925
93.68114
95.01839
96.393541
97.662333
98.765839
99.66564
100.43446
101.01289
101.50571
101.94262
102.32302
102.67451
102.96957
103.24759
103.48871
91.690331
91.784298
92.33127
93.243394
94.403899
95.696351
96.982617
98.159342
99.187124
100.02154
100.73
101.29323
101.79868
102.22167
102.59779
102.92691
103.22148
103.4887
103.68827
92.421199
92.523581
93.079152
93.970644
95.113068
96.334367
97.532878
98.659169
99.599569
100.40962
101.05518
101.60755
102.09403
102.49005
102.84921
103.13732
103.38461
103.56593
103.64756
93.024436
93.126788
93.656172
94.538723
95.653726
96.832619
97.997792
99.074244
99.964613
100.7393
101.36645
101.90432
102.34691
102.72683
103.02935
103.23988
103.3815
103.40448
103.31838
93.625452
93.740957
94.298466
95.196085
96.268651
97.418109
98.535434
99.52312
100.37189
101.08855
101.67762
102.17138
102.56166
102.8601
103.0434
103.14126
103.12561
102.97795
102.78111
94.025363
94.131411
94.669571
95.530517
96.606589
97.763359
98.87047
99.860724
100.69595
101.3909
101.96787
102.41299
102.74056
102.94162
103.0199
102.97804
102.80028
102.56729
102.33414
94.472418
94.62296
95.231235
96.157053
97.250548
98.405506
99.471327
100.36937
101.10035
101.72734
102.20372
102.53615
102.73281
102.79606
102.74387
102.59581
102.40499
102.20594
101.97206
94.660728
94.80228
95.380468
96.275232
97.375066
98.511159
99.581777
100.52671
101.33561
101.96485
102.42913
102.71091
102.83158
102.81642
102.6882
102.48542
102.22145
101.90001
101.55969
94.876484
95.094148
95.83129
96.887754
98.138921
99.37624
100.45017
101.29836
101.94012
102.37758
102.61847
102.70004
102.62274
102.43419
102.18713
101.90405
101.61522
101.34739
101.14118
87.586228
89.696292
91.834234
94.132088
96.386554
98.833394
101.17835
103.46656
105.58174
107.05672
107.78124
106.84234
103.77815
98.89206
92.105672
82.253621
67.806249
53.796371
40.803802
92.487275
94.608649
96.828771
99.090556
101.42733
103.94654
106.29811
108.81404
110.79852
112.00618
112.05559
110.09183
106.13798
100.80822
93.695218
85.099359
75.177197
64.657825
55.213331
96.915344
99.05682
101.21827
103.34378
105.66352
107.96938
110.2271
112.3427
113.83565
114.81947
114.43796
112.3199
108.68822
104.15434
98.133573
90.797149
82.943316
75.238637
68.617743
100.39009
102.41657
104.30952
106.23144
108.23761
110.14111
111.96025
113.46108
114.62265
115.29716
115.03501
113.21013
109.92244
105.75542
100.60848
94.872203
88.999351
83.417575
78.726299
102.68327
104.36843
105.90295
107.48266
109.05719
110.51483
111.85275
112.85537
113.77465
114.27606
114.18601
112.76499
109.93923
106.17048
101.61334
96.908206
92.499979
88.612593
85.35869
104.00636
105.34516
106.55676
107.78827
108.97505
110.00872
110.93812
111.6127
112.29073
112.43863
111.96336
110.34771
107.6231
104.19976
100.33815
96.370911
92.766337
89.99113
88.134704
104.74306
105.79954
106.72324
107.70135
108.57482
109.33237
110.05195
110.55917
110.58349
109.88451
108.5573
106.19834
102.99732
99.379924
95.875186
92.897691
90.123447
87.778937
86.512308
105.11199
105.8864
106.59386
107.31937
107.83779
108.14778
107.84138
108.07145
107.45955
105.84636
103.07537
99.391051
95.075354
90.839597
87.065165
84.44198
83.101891
82.890131
83.334546
105.15008
105.71164
106.31244
106.79756
107.03078
106.71836
105.76913
104.18422
101.79153
98.478026
94.019792
88.669053
82.83211
77.467199
73.80787
71.931928
71.683545
73.212253
75.793398
104.79217
105.2269
105.68338
105.9683
105.89538
105.24978
103.64109
100.91342
96.71284
90.316689
82.840483
74.777148
66.763858
59.525842
53.997322
51.27089
51.772038
54.979888
59.868593
103.97269
104.22437
104.48238
104.54448
104.25495
103.50571
102.16196
99.808462
94.968659
85.175334
74.676779
62.15739
48.974476
36.599186
26.233036
21.136395
22.94872
31.096099
42.10025
102.90254
102.85864
102.81049
102.45989
101.63827
100.18442
97.848681
94.19672
88.74065
80.450475
69.961396
57.996592
45.717545
34.58685
26.918337
24.33666
27.472002
35.969896
46.735183
102.12577
101.96202
101.78767
101.34203
100.47561
99.148916
97.260152
94.550628
90.914548
85.987185
79.765267
72.725622
65.512482
58.751893
53.805246
51.355748
52.081438
56.060394
62.249269
101.99182
101.91747
101.79415
101.4879
100.88053
100.10469
99.041092
97.602244
95.742513
93.291339
90.233134
86.836341
83.060075
79.4834
76.596955
74.243393
73.204704
74.111047
76.714428
102.28383
102.31584
102.26319
102.05055
101.69735
101.29729
100.68565
99.908553
98.858743
97.451809
95.799023
93.796107
91.498937
89.300275
87.083008
85.585658
85.296423
85.743352
86.13297
102.70329
102.7865
102.75046
102.62568
102.45091
102.21277
101.85877
101.39576
100.74262
99.885185
98.882796
97.595698
96.203406
94.749377
93.013236
91.297527
89.864193
88.645699
87.672502
103.09731
103.23857
103.26977
103.23308
103.15942
103.05163
102.85515
102.55052
102.09057
101.46523
100.64827
99.627599
98.54192
97.128444
95.241344
93.239903
91.278841
89.327805
87.403659
103.50707
103.71194
103.80326
103.81508
103.87717
103.88239
103.80059
103.60655
103.26345
102.74327
102.0282
101.27434
100.12309
98.059963
95.43137
92.642588
89.241991
84.743313
79.170083
103.84245
104.04192
104.14958
104.27034
104.42733
104.5442
104.57179
104.58084
104.43534
103.6212
102.37346
101.27688
100.48356
99.206258
96.949735
93.640115
89.189138
83.665656
77.602156
103.9557
104.11941
104.2552
104.44896
104.60472
104.7208
104.69941
104.56961
104.13334
103.53179
103.22167
103.25191
101.9203
99.845465
97.331756
94.347108
90.667653
86.504964
82.268114
103.7452
103.85153
104.0337
104.25879
104.42922
104.5334
104.60488
104.40733
104.35159
103.09075
101.6372
100.50186
99.226144
97.606894
95.808518
93.883448
91.844934
89.94413
88.372557
103.16986
103.27449
103.45821
103.59902
103.69814
103.72487
103.73204
103.41944
103.22466
102.02463
99.351392
96.6358
95.271816
94.092053
92.98783
92.117795
91.482807
91.351421
91.814675
102.54788
102.5936
102.67676
102.73698
102.7581
102.72947
102.68089
102.54813
102.13096
101.15224
99.777981
97.909276
95.307723
92.284427
89.407513
87.133608
85.776177
85.773854
87.013362
102.08771
102.05073
102.05728
102.0511
101.96405
101.83982
101.61865
101.28436
100.73457
99.671771
97.835739
95.243791
92.295357
89.443901
86.968128
85.410558
85.079894
85.981206
87.943239
101.82031
101.78522
101.76757
101.7167
101.62702
101.56343
101.48897
101.43049
101.39367
101.35102
101.20355
100.89811
100.57938
99.869733
98.303443
96.31421
94.912686
94.336685
94.512814
101.32931
101.39686
101.52094
101.59971
101.64808
101.68228
101.69206
101.64846
101.45714
101.15226
100.67338
99.523126
98.25267
97.70482
98.092776
98.711382
99.125529
99.147846
98.637973
100.92463
101.04927
101.16527
101.24875
101.33141
101.46011
101.62871
101.8447
102.08025
102.40871
102.99523
103.68455
104.01869
103.95165
103.5436
102.7723
101.71955
100.39816
99.150951
30.878657
25.140704
23.956495
26.927118
32.871921
40.445843
48.3066
55.911309
62.993524
69.33607
74.658187
79.273271
83.054636
86.057293
88.4717
90.244677
91.612094
92.556819
93.200039
48.121872
44.013704
43.165085
45.064612
48.934191
53.992602
59.507665
64.936825
69.916213
74.462544
78.484179
81.809983
84.730458
87.138069
89.107349
90.690684
91.88416
92.838026
93.477007
63.730257
60.861269
60.109299
61.043463
63.279853
66.25663
69.674764
73.207202
76.713765
79.707687
82.538698
85.002949
87.065854
88.93191
90.468418
91.752506
92.786094
93.595473
94.198148
75.243228
73.28037
72.644176
73.084449
74.288931
76.146879
78.363475
80.520239
82.688394
84.831651
86.735511
88.504136
89.979081
91.326787
92.568849
93.496538
94.279025
94.946552
95.343557
83.050906
81.742604
81.175436
81.595851
82.575927
83.762484
85.228522
86.860142
88.283288
89.641825
90.900227
92.101127
93.125794
93.993518
94.910805
95.624379
96.126001
96.563621
96.744387
86.920371
86.329895
86.412044
86.978927
87.966753
89.182987
90.488565
91.698942
92.804079
93.891824
94.797682
95.54454
96.193095
96.745002
97.296964
97.811503
98.133331
98.364584
98.392995
86.252546
86.91644
88.230373
89.737952
91.136016
92.354986
93.745161
95.139438
96.181731
97.080863
97.83558
98.44723
98.914484
99.230909
99.58737
99.918925
100.14497
100.22545
100.1136
84.466984
86.071805
87.962935
90.257354
92.605368
94.535285
95.993147
97.420288
98.613158
99.553596
100.29175
100.76288
101.13705
101.35212
101.54566
101.75141
101.91143
101.92297
101.73049
79.051342
82.543732
85.832253
89.178688
92.596176
95.560757
97.701678
99.324583
100.63505
101.53685
102.23941
102.73794
103.00335
103.12394
103.19834
103.28597
103.36036
103.35657
103.10759
66.098055
72.922808
79.558523
85.394761
90.587113
94.968476
98.208528
100.38734
102.02944
103.16074
103.80101
104.2212
104.46757
104.54403
104.52291
104.5392
104.5303
104.48652
104.23941
53.610107
64.55115
74.183441
82.061197
88.49157
93.852838
97.874684
100.5537
102.42633
103.79983
104.67943
105.10781
105.32536
105.43361
105.41886
105.38204
105.35556
105.2877
105.08229
57.478624
67.659073
76.646044
84.063398
90.01608
94.81938
98.390446
100.81411
102.58989
103.88718
104.76094
105.30268
105.58879
105.74589
105.79973
105.7975
105.7887
105.73088
105.58138
69.303043
76.427361
83.076347
88.866096
93.617425
97.36552
100.12643
101.89249
103.25136
104.3154
104.88315
105.35186
105.66543
105.86836
105.9648
105.98814
106.00444
105.94912
105.82343
80.375202
84.340658
88.488351
92.456398
95.94126
98.897716
101.21754
102.91614
104.15894
104.97403
105.66421
105.95907
106.07591
106.18864
106.25005
106.22622
106.20743
106.15294
105.99928
86.80003
88.304605
90.395294
92.770246
95.278781
97.779839
100.18953
102.33391
104.14278
105.21962
105.41243
105.68154
106.21869
106.37886
106.44263
106.41922
106.35431
106.29695
106.14859
87.275307
87.540052
88.289347
89.41966
91.086256
93.254173
95.852812
98.38478
100.63469
102.42612
104.01847
105.2867
105.79568
106.24147
106.38742
106.40927
106.31984
106.2414
106.14615
85.675387
84.195107
83.101142
82.71483
83.22527
84.943786
87.867432
91.383402
95.048924
98.572084
101.96059
104.39707
105.21652
105.83503
106.02378
106.08409
106.02275
105.89394
105.8396
73.199758
67.522009
63.597283
62.835324
65.639727
71.543379
78.998567
86.568999
93.342001
98.771097
102.23073
103.89973
104.59052
104.99186
105.18353
105.27802
105.27165
105.17457
105.14727
71.554173
65.474208
62.274479
62.124187
64.724795
69.278113
75.494557
82.661162
89.405036
94.983959
98.930953
101.17953
102.45036
103.25075
103.74676
104.10056
104.27809
104.34101
104.38862
78.43959
75.676048
74.75811
75.921764
78.796122
82.727337
87.028522
91.185847
94.882253
97.847246
99.907687
101.3014
102.2286
102.87392
103.31554
103.64579
103.84782
103.95426
104.04163
87.342092
87.177826
88.060694
89.660584
91.85031
94.423734
96.897811
98.952902
100.54029
101.67685
102.44456
102.98494
103.33554
103.57983
103.74349
103.86072
103.95939
103.99246
104.02518
92.819678
94.272849
96.045104
97.849309
99.298371
100.6301
101.82325
102.75565
103.43489
103.85713
104.0794
104.20209
104.24198
104.23937
104.18725
104.11607
104.08581
104.04618
104.00698
88.893061
91.176509
93.78097
96.631018
99.154332
100.91986
102.1345
103.00616
103.72162
104.28302
104.46694
104.41002
104.3834
104.26358
104.1745
104.06373
103.96041
103.89711
103.80646
90.611948
93.591731
96.330602
98.684893
100.56307
101.80951
102.69809
103.05378
103.80921
104.206
104.14403
104.16122
104.11458
103.96593
103.84822
103.72939
103.61699
103.48156
103.41125
95.253222
96.364292
97.611104
98.8377
99.814026
100.33541
100.56891
100.77619
102.15638
103.19271
103.26989
103.40141
103.26638
103.20274
103.09402
102.96992
102.85617
102.68418
102.6097
97.850793
97.219848
97.051955
97.651009
98.940912
100.64458
102.36236
103.60118
103.4267
102.71107
102.19935
102.10852
101.98451
101.91424
101.86734
101.81288
101.75531
101.67317
101.67857
98.224951
97.521845
96.974178
96.368549
95.915552
95.961494
96.422488
97.199526
98.109243
99.260841
99.973769
100.20178
100.35821
100.44298
100.51942
100.58232
100.63172
100.6527
100.66093
93.599659
93.735958
93.658181
93.421093
93.028658
92.531338
91.96528
91.327615
90.6903
90.007482
89.31519
88.65384
88.002159
87.376883
86.835526
86.324567
85.972217
85.686489
85.558605
93.943129
94.194141
94.248347
94.121534
93.86679
93.45471
92.983247
92.396394
91.790446
91.147392
90.433289
89.753271
89.080075
88.411843
87.860859
87.366272
86.982837
86.725593
86.601908
94.642388
94.893198
94.974682
94.919868
94.754018
94.416556
94.003064
93.477583
92.878143
92.244375
91.533344
90.826773
90.134745
89.453304
88.853204
88.379581
87.977467
87.72567
87.623669
95.580542
95.751989
95.800176
95.722049
95.569479
95.284869
94.898385
94.426229
93.858293
93.235878
92.560934
91.858864
91.16104
90.469563
89.862095
89.354365
88.966031
88.705018
88.639234
96.795374
96.814916
96.731272
96.584982
96.39268
96.101739
95.732505
95.29684
94.773226
94.170305
93.516793
92.827407
92.148072
91.446534
90.843001
90.315066
89.930065
89.689496
89.633671
98.22269
98.041534
97.808563
97.568707
97.291179
96.954236
96.5773
96.141822
95.639728
95.072784
94.446316
93.762008
93.092287
92.408113
91.78421
91.270297
90.868731
90.65765
90.603724
99.766449
99.382787
99.019883
98.65482
98.277415
97.882279
97.456359
97.000075
96.495419
95.925457
95.330813
94.662131
93.981172
93.333304
92.700299
92.199211
91.788884
91.584539
91.57193
101.29477
100.79552
100.28446
99.795974
99.326421
98.850192
98.37273
97.874875
97.352735
96.778635
96.179123
95.551887
94.854818
94.211716
93.583997
93.081982
92.698892
92.508251
92.499804
102.642
102.0997
101.53586
100.93961
100.38079
99.843791
99.293863
98.76146
98.194308
97.618738
96.996543
96.378696
95.705453
95.059231
94.442647
93.93937
93.553049
93.391216
93.40653
103.79246
103.2424
102.65172
102.05162
101.41421
100.82674
100.22372
99.644018
99.046408
98.44658
97.817107
97.183981
96.520337
95.877843
95.268866
94.771329
94.401327
94.2282
94.295334
104.6803
104.18864
103.60926
103.02227
102.38811
101.76176
101.12338
100.50259
99.876705
99.251728
98.609247
97.966717
97.305597
96.661516
96.068732
95.560106
95.220913
95.025435
95.134673
105.2705
104.89623
104.39798
103.84768
103.23986
102.61704
101.97563
101.32951
100.67803
100.03396
99.376779
98.722245
98.064769
97.404484
96.836281
96.315031
96.004779
95.830443
95.93194
105.60244
105.34416
104.96681
104.50178
103.95599
103.36635
102.73478
102.08853
101.4355
100.77915
100.11155
99.436714
98.793768
98.113556
97.555284
97.052848
96.729889
96.590034
96.683065
105.77958
105.60554
105.32871
104.96982
104.51095
103.98727
103.39809
102.76613
102.12211
101.464
100.81245
100.12314
99.480207
98.824468
98.230893
97.753601
97.415374
97.305277
97.408832
105.91858
105.78438
105.55763
105.27817
104.91631
104.46955
103.94802
103.35826
102.74807
102.08925
101.44199
100.76583
100.10661
99.469674
98.867766
98.411712
98.073539
97.973646
98.095418
105.97496
105.85497
105.67808
105.45538
105.18282
104.81501
104.3779
103.83631
103.26791
102.6488
102.01025
101.35896
100.69866
100.08026
99.471827
99.015167
98.688878
98.587386
98.734345
105.82275
105.80152
105.69907
105.53878
105.34761
105.04998
104.69761
104.23679
103.7079
103.13663
102.5263
101.89766
101.23781
100.63414
100.04527
99.580084
99.273586
99.197333
99.343714
105.3463
105.47953
105.53935
105.47856
105.37308
105.16577
104.88257
104.5173
104.05244
103.52463
102.94851
102.3571
101.72405
101.13047
100.57303
100.10247
99.804044
99.717238
99.889609
104.74564
104.99025
105.18475
105.26836
105.27289
105.18324
104.9821
104.70806
104.32436
103.86135
103.33218
102.77959
102.18487
101.58124
101.04121
100.57918
100.29655
100.22367
100.40151
104.28763
104.52294
104.75552
104.9391
105.04081
105.06372
104.9608
104.77511
104.48097
104.0924
103.61029
103.08498
102.53541
101.96802
101.45386
101.00434
100.72373
100.66106
100.84197
104.10113
104.24098
104.42062
104.61743
104.77751
104.88144
104.87796
104.78101
104.57887
104.26651
103.87443
103.39867
102.90011
102.35217
101.83191
101.39889
101.11615
101.06652
101.28048
103.97492
104.099
104.22502
104.37626
104.53699
104.666
104.7332
104.71053
104.59138
104.34797
104.0201
103.58791
103.10249
102.60595
102.12199
101.71585
101.4508
101.39227
101.55862
103.76736
103.92832
104.05609
104.18763
104.32575
104.46263
104.577
104.61811
104.57187
104.41305
104.15389
103.82925
103.40972
102.94057
102.4491
102.02262
101.75882
101.71416
101.93234
103.5157
103.75148
103.92027
104.07621
104.21608
104.33591
104.44555
104.51633
104.51221
104.41553
104.20311
103.88542
103.49528
103.0456
102.60432
102.22187
101.97378
101.93878
102.13244
102.92848
103.26792
103.52569
103.73361
103.92127
104.08068
104.2342
104.37138
104.45209
104.43058
104.29766
104.06539
103.76452
103.37343
102.91326
102.4835
102.19418
102.15178
102.3793
102.18857
102.73449
103.22136
103.59525
103.88178
104.09638
104.22093
104.32718
104.40149
104.40332
104.29756
104.06752
103.72061
103.35512
102.94558
102.55609
102.28542
102.2528
102.49076
101.11177
101.60009
102.11732
102.62121
103.08115
103.4639
103.78643
104.04071
104.23931
104.36581
104.38048
104.26976
104.04029
103.682
103.25445
102.79698
102.43128
102.32835
102.57133
85.544732
85.777251
86.045251
86.432256
87.026176
87.76502
88.672983
89.714014
90.840457
92.117639
93.500194
94.980163
96.566931
98.197797
99.913578
101.67134
103.46116
105.24735
107.04988
86.605305
86.759188
87.119385
87.596378
88.222532
88.983602
89.892288
90.927355
92.051617
93.33642
94.685272
96.129611
97.687392
99.256373
100.88761
102.54118
104.20779
105.88179
107.51082
87.683217
87.904212
88.22564
88.731854
89.373463
90.185497
91.079467
92.123183
93.266575
94.512853
95.858441
97.25768
98.753894
100.26913
101.81176
103.34312
104.89563
106.43784
107.93593
88.727617
88.973821
89.326243
89.852645
90.527549
91.342718
92.247863
93.284051
94.439803
95.642785
96.951321
98.328173
99.755331
101.20681
102.66224
104.09912
105.51247
106.90738
108.28427
89.770587
90.010417
90.413434
90.952047
91.624555
92.449672
93.374714
94.402525
95.531792
96.735631
98.002671
99.3195
100.6914
102.07607
103.44815
104.77726
106.05189
107.30173
108.54473
90.78441
91.074378
91.473695
92.025012
92.704316
93.523014
94.459745
95.486946
96.596942
97.751803
98.999823
100.27285
101.56231
102.86618
104.12797
105.35658
106.52565
107.62558
108.72606
91.760865
92.06271
92.495439
93.047294
93.746172
94.556066
95.490711
96.504203
97.591441
98.724057
99.895373
101.12275
102.35269
103.55358
104.72306
105.83465
106.89202
107.90623
108.8964
92.732104
93.033353
93.489137
94.05225
94.749996
95.563282
96.480006
97.475491
98.519599
99.630873
100.75807
101.8978
103.05611
104.18732
105.25472
106.26438
107.22188
108.13401
109.01234
93.653207
93.986676
94.440402
95.015977
95.702616
96.507515
97.403685
98.385157
99.397379
100.44047
101.51257
102.60619
103.68779
104.72763
105.70079
106.60679
107.46735
108.30211
109.08975
94.548035
94.894512
95.349184
95.924048
96.606055
97.406764
98.283041
99.235074
100.21933
101.22683
102.24322
103.2503
104.2389
105.19117
106.08543
106.91548
107.68507
108.41146
109.11867
95.401201
95.75858
96.219839
96.801556
97.477651
98.254475
99.112309
100.02704
100.97421
101.92115
102.86638
103.80148
104.71166
105.59058
106.41496
107.16732
107.84952
108.47843
109.11366
96.232615
96.589582
97.06667
97.626694
98.287688
99.040576
99.867802
100.74089
101.64536
102.54842
103.43335
104.31334
105.16846
105.96558
106.70492
107.36459
107.97899
108.54256
109.09209
97.005981
97.360964
97.829951
98.394528
99.038512
99.771283
100.57567
101.41977
102.28635
103.13352
103.96577
104.7686
105.53115
106.24002
106.90405
107.50705
108.06084
108.57044
109.05901
97.743303
98.100865
98.567158
99.125919
99.755761
100.46709
101.2372
102.02864
102.84258
103.63005
104.39215
105.1307
105.83366
106.49985
107.11754
107.6664
108.14813
108.59174
109.00723
98.436573
98.796627
99.265284
99.804108
100.41084
101.09013
101.82302
102.57478
103.34277
104.09302
104.80546
105.49092
106.1352
106.7343
107.27113
107.74764
108.16707
108.55194
108.91892
99.076688
99.43334
99.873165
100.41242
101.01147
101.66967
102.366
103.07947
103.8003
104.50655
105.16239
105.77167
106.34245
106.88966
107.38207
107.82237
108.21518
108.56479
108.89701
99.685309
100.03887
100.47959
101.00925
101.57189
102.19592
102.8507
103.52429
104.19699
104.85153
105.4593
106.02128
106.55118
107.05769
107.51696
107.91227
108.24241
108.51969
108.80037
100.2273
100.57525
101.00149
101.50415
102.06168
102.66083
103.28368
103.92228
104.56015
105.17132
105.74024
106.25886
106.74206
107.187
107.59097
107.93613
108.23227
108.49064
108.73511
100.74042
101.08738
101.5093
102.00728
102.5286
103.09307
103.68897
104.29052
104.88518
105.44699
105.96654
106.44283
106.88369
107.2881
107.66298
107.99038
108.26412
108.495
108.70097
101.18256
101.52366
101.92568
102.38361
102.90163
103.46286
104.03672
104.60076
105.15194
105.68047
106.16914
106.61705
107.03316
107.40353
107.7456
108.03995
108.27569
108.46981
108.63981
101.61263
101.94435
102.34357
102.80745
103.32849
103.83605
104.35758
104.88809
105.4155
105.91544
106.37499
106.78278
107.15966
107.49643
107.80243
108.07139
108.28987
108.4774
108.63949
101.92107