/*--------------------------------*- C++ -*----------------------------------*\
  =========                 |
  \\      /  F ield         | OpenFOAM: The Open Source CFD Toolbox
   \\    /   O peration     | Website:  https://openfoam.org
    \\  /    A nd           | Version:  11
     \\/     M anipulation  |
\*---------------------------------------------------------------------------*/
FoamFile
{
    format      ascii;
    class       volScalarField;
    location    "3.8";
    object      p;
}
// * * * * * * * * * * * * * * * * * * * * * * * * * * * * * * * * * * * * * //

dimensions      [0 2 -2 0 0 0 0];

internalField   nonuniform List<scalar> 
5472
(
97.659935
95.30906
92.941134
90.590736
88.26436
85.973706
83.765205
81.635455
79.570713
77.623235
75.783902
74.064704
72.480132
71.024341
69.757506
68.607998
67.674721
66.937783
66.414786
98.322273
96.15066
93.935496
91.717749
89.506087
87.319136
85.188778
83.120146
81.111613
79.189938
77.364969
75.656899
74.073655
72.624354
71.362752
70.215011
69.265102
68.462899
67.838851
98.979503
96.968854
94.902689
92.816677
90.7238
88.645724
86.589979
84.578511
82.623467
80.732565
78.931285
77.23647
75.650876
74.220332
72.936626
71.794926
70.831591
70.016035
69.41208
99.575178
97.711625
95.798361
93.863263
91.885315
89.906728
87.936193
86.00058
84.099894
82.243151
80.463602
78.780502
77.21691
75.793063
74.49854
73.366078
72.394421
71.59015
70.986298
100.09121
98.389653
96.624886
94.802773
92.932807
91.070693
89.207274
87.352776
85.504903
83.69683
81.94576
80.282602
78.734006
77.313918
76.036778
74.910494
73.94018
73.144194
72.542292
100.54781
98.981619
97.365335
95.676609
93.930718
92.168282
90.405296
88.629272
86.85391
85.103399
83.379894
81.759483
80.234891
78.826069
77.553285
76.432489
75.475525
74.687397
74.090944
100.95357
99.530736
98.020892
96.444545
94.844241
93.198828
91.536537
89.833172
88.114586
86.41935
84.752774
83.167311
81.66551
80.293297
79.032812
77.92344
76.97819
76.196256
75.6009
101.28377
99.99013
98.614031
97.164159
95.6767
94.132814
92.573724
90.970124
89.339125
87.694856
86.081747
84.531709
83.063448
81.713449
80.4689
79.387977
78.446888
77.68089
77.104659
101.60007
100.42263
99.136861
97.805997
96.434305
94.996842
93.520024
92.005185
90.472859
88.892613
87.340283
85.842964
84.417042
83.087287
81.873717
80.808246
79.870707
79.129398
78.557514
101.84311
100.77866
99.626969
98.402566
97.108623
95.783115
94.426695
92.998053
91.52547
90.015583
88.528978
87.072735
85.698372
84.407088
83.23
82.177439
81.266039
80.53441
79.97378
102.08471
101.1016
100.04187
98.922862
97.731419
96.502122
95.221039
93.897197
92.512417
91.083611
89.663122
88.264427
86.933131
85.669943
84.523483
83.492346
82.618997
81.899553
81.36211
102.26783
101.37892
100.41665
99.380118
98.294597
97.172108
95.973228
94.725723
93.405667
92.059608
90.710444
89.387059
88.100392
86.886485
85.772196
84.7541
83.906357
83.206526
82.693523
102.45339
101.63445
100.75002
99.809076
98.814159
97.761541
96.649352
95.490693
94.257494
92.983966
91.686526
90.424145
89.192761
88.034314
86.956056
85.979463
85.146322
84.461366
83.967271
102.57901
101.84497
101.04657
100.17887
99.266641
98.294225
97.264239
96.179984
95.039324
93.840055
92.613711
91.404357
90.216745
89.107667
88.060671
87.131243
86.330043
85.681284
85.19895
102.71222
102.05225
101.31987
100.52432
99.683868
98.783465
97.827142
96.800904
95.730685
94.611135
93.47137
92.330246
91.207464
90.132099
89.122001
88.211233
87.427336
86.813957
86.351992
102.81451
102.21906
101.54988
100.82366
100.05145
99.23275
98.347558
97.386289
96.373473
95.310341
94.237797
93.160032
92.105204
91.078478
90.121253
89.248405
88.509726
87.903081
87.453308
102.92252
102.37402
101.76243
101.09616
100.37722
99.621332
98.807841
97.923868
96.978931
95.982966
94.967753
93.943369
92.933223
91.952692
91.033193
90.190076
89.475027
88.897061
88.474442
103.01924
102.5223
101.96662
101.35127
100.6869
99.97929
99.210999
98.38636
97.506067
96.580533
95.633864
94.675072
93.711191
92.771909
91.889829
91.090164
90.408851
89.847499
89.441032
103.1125
102.6577
102.14229
101.57856
100.97613
100.3211
99.601474
98.825757
97.990737
97.117723
96.224364
95.317813
94.407924
93.513807
92.664862
91.907851
91.249309
90.715394
90.322615
103.20711
102.79282
102.3146
101.79008
101.2302
100.62197
99.957549
99.2314
98.446227
97.624551
96.779659
95.91799
95.053741
94.20387
93.38978
92.651078
92.022483
91.511728
91.132214
103.30442
102.92944
102.49271
102.00407
101.47233
100.89913
100.27524
99.591662
98.854243
98.076826
97.27332
96.451614
95.624509
94.818165
94.055025
93.354971
92.737113
92.240855
91.877688
103.39699
103.05972
102.65992
102.21267
101.72072
101.17977
100.58526
99.934431
99.23681
98.50331
97.73718
96.947158
96.141738
95.34651
94.59839
93.913789
93.334182
92.854305
92.500744
103.49635
103.19384
102.82759
102.41133
101.95132
101.44315
100.88182
100.2622
99.592305
98.885866
98.156442
97.410583
96.658888
95.921828
95.216128
94.529018
93.935132
93.459912
93.116261
103.60078
103.33612
103.01168
102.63049
102.19972
101.72086
101.18514
100.59044
99.937407
99.237149
98.503162
97.745139
96.971889
96.204795
95.475084
94.865857
94.320161
93.860149
93.524748
103.68476
103.46775
103.18795
102.8452
102.4474
102.00095
101.50422
100.95406
100.34556
99.691532
99.001573
98.28532
97.556716
96.82092
96.094907
95.39998
94.805692
94.327249
93.990114
103.77264
103.61216
103.37853
103.06931
102.69157
102.24833
101.74101
101.17026
100.54352
99.864392
99.145038
98.401303
97.646382
96.902467
96.186934
95.548571
94.977526
94.505378
94.180149
103.83476
103.7645
103.62581
103.4156
103.13449
102.77746
102.3441
101.83631
101.25166
100.59663
99.880197
99.114317
98.325891
97.522274
96.721333
95.956844
95.279877
94.759903
94.41158
65.905735
65.589614
65.539178
65.658544
65.963949
66.368174
66.996141
67.676164
68.523431
69.487333
70.520092
71.759629
73.047004
74.529183
76.082851
77.731967
79.447501
81.204921
83.057201
67.38397
67.1728
67.157851
67.347593
67.731324
68.264308
69.041768
69.899746
70.99866
72.151442
73.495367
74.968348
76.536562
78.270947
80.031728
81.93622
83.847867
85.869532
87.903005
68.956797
68.776008
68.783941
69.054333
69.519689
70.223871
71.119806
72.195032
73.472711
74.836255
76.433897
78.086157
79.914989
81.794999
83.785619
85.865208
87.977606
90.196634
92.378494
70.532204
70.357532
70.413024
70.755113
71.3333
72.180923
73.214266
74.486445
75.901322
77.490872
79.239819
81.076133
83.053213
85.06562
87.217071
89.386863
91.637823
93.906755
96.149821
72.091637
71.928688
72.036855
72.457955
73.151103
74.117292
75.306564
76.710822
78.281354
80.030946
81.90108
83.884313
85.940843
88.073596
90.2617
92.469067
94.700761
96.894455
99.035974
73.637481
73.497541
73.657192
74.153613
74.950517
76.040394
77.355675
78.890884
80.606201
82.461139
84.443562
86.501594
88.614708
90.783358
92.937943
95.094882
97.181846
99.187019
101.04851
75.162817
75.040464
75.251377
75.829418
76.737227
77.924951
79.351806
80.998325
82.807494
84.761177
86.809186
88.905742
91.029536
93.149366
95.214636
97.215366
99.07159
100.80798
102.34778
76.666936
76.567059
76.833431
77.484683
78.474572
79.742585
81.290439
83.026287
84.926373
86.931387
88.999103
91.086873
93.148506
95.162647
97.075669
98.857476
100.46855
101.92537
103.15226
78.137107
78.051832
78.369425
79.106281
80.166713
81.521829
83.148861
84.941752
86.899487
88.916137
90.977572
92.99143
94.960803
96.824424
98.538563
100.09689
101.46213
102.64051
103.61147
79.577228
79.508768
79.893345
80.675256
81.790293
83.231346
84.91738
86.765896
88.741054
90.734767
92.730956
94.641659
96.483407
98.146516
99.663069
100.98983
102.12147
103.06793
103.82347
80.95887
80.929973
81.363492
82.173433
83.354997
84.857084
86.576886
88.454977
90.404373
92.348533
94.250922
96.044868
97.712628
99.177002
100.49092
101.57701
102.50567
103.21217
103.71764
82.305665
82.324244
82.759218
83.611054
84.857338
86.401279
88.137754
90.008022
91.905015
93.777971
95.557387
97.199683
98.678418
99.953487
101.0488
101.89871
102.58812
102.98582
103.20388
83.594433
83.636452
84.078908
84.995666
86.278702
87.838822
89.579115
91.416808
93.236298
95.009869
96.648075
98.125875
99.410394
100.48483
101.34227
101.95743
102.38156
102.54259
102.54971
84.841076
84.882098
85.356253
86.314845
87.613828
89.179398
90.895697
92.670642
94.401397
96.054895
97.536873
98.843793
99.932579
100.79598
101.43447
101.8531
102.07361
102.13445
102.08852
86.011917
86.051615
86.569437
87.550245
88.853252
90.407236
92.087117
93.785714
95.416691
96.931285
98.256497
99.390834
100.28174
100.95604
101.43481
101.72988
101.86873
101.9502
102.00274
87.118934
87.173738
87.738665
88.698957
89.99717
91.523916
93.143669
94.757291
96.280356
97.64917
98.826368
99.79147
100.51864
101.0584
101.44083
101.70512
101.86757
102.0268
102.21454
88.143461
88.237786
88.80173
89.750091
91.05769
92.542227
94.0958
95.619034
97.026379
98.26147
99.294009
100.1039
100.7094
101.17505
101.52679
101.8207
102.05027
102.28825
102.52908
89.118024
89.223398
89.760316
90.72988
92.017488
93.437958
94.926649
96.357795
97.652386
98.767413
99.662743
100.35803
100.89516
101.34359
101.70675
102.04364
102.32682
102.60358
102.8606
90.017857
90.118747
90.671521
91.655352
92.882395
94.262211
95.685788
97.019038
98.207152
99.203743
100.0069
100.62181
101.14021
101.58635
101.97268
102.33458
102.6411
102.92341
103.17261
90.831978
90.922932
91.480492
92.427962
93.631155
94.976414
96.325388
97.570254
98.671738
99.568281
100.31368
100.90205
101.42571
101.86361
102.2561
102.60789
102.91527
103.20075
103.42589
91.595054
91.699526
92.273382
93.200432
94.37987
95.657578
96.923074
98.096306
99.106528
99.966592
100.65496
101.22891
101.74021
102.16211
102.52939
102.84012
103.12626
103.34224
103.46669
92.214577
92.312435
92.855964
93.773799
94.944397
96.186954
97.406778
98.533905
99.490955
100.31993
100.98412
101.54863
102.01688
102.41671
102.75281
102.995
103.18089
103.26349
103.22461
92.848211
92.973253
93.552713
94.485842
95.599955
96.79199
97.964288
99.016285
99.926552
100.69746
101.32167
101.84172
102.26041
102.59406
102.81413
102.94979
102.9843
102.87903
102.70112
93.25247
93.353136
93.907135
94.814383
95.954478
97.183738
98.351604
99.400016
100.2934
101.03173
101.63572
102.10959
102.47012
102.70797
102.82372
102.82468
102.67944
102.44967
102.2073
93.730367
93.89129
94.52697
95.487632
96.627592
97.802496
98.923413
99.914177
100.73212
101.38884
101.8974
102.26384
102.49657
102.59761
102.57929
102.44873
102.25121
102.04679
101.80322
93.916353
94.054757
94.658418
95.613256
96.776219
98.034482
99.227468
100.22748
101.02661
101.65765
102.13353
102.45138
102.60998
102.62381
102.50638
102.30133
102.03946
101.71702
101.3734
94.146715
94.372927
95.145776
96.267893
97.590931
98.897493
100.01422
100.89918
101.56486
102.04579
102.34968
102.47766
102.43156
102.25782
102.01536
101.73651
101.44708
101.17487
100.95995
84.913528
86.845348
88.718832
90.700404
92.651104
94.593391
96.541912
98.184751
99.631562
100.57987
100.78778
99.749095
96.834772
91.912665
85.347682
76.611477
65.668576
52.108822
37.643789
89.966413
91.951299
93.864094
95.925381
97.876583
99.988995
102.0191
103.84352
105.44886
106.31326
106.18613
104.64592
101.18572
96.122244
88.926942
79.410263
68.624298
57.792539
47.118559
94.600835
96.581776
98.545119
100.51388
102.51173
104.62455
106.52585
108.39061
109.72761
110.38511
109.98767
107.85978
104.17692
99.781025
93.735407
86.112175
77.416849
68.470651
60.3821
98.356727
100.27878
102.10513
103.90307
105.81737
107.66247
109.3868
110.88615
111.92306
112.46934
111.71723
109.43955
105.91417
101.7359
96.551958
90.592778
84.17594
77.826313
72.299268
101.02988
102.70345
104.22745
105.78591
107.40544
108.92425
110.3279
111.41515
112.2198
112.55728
112.12849
110.39137
107.36913
103.56799
99.01065
94.189996
89.365552
84.810696
80.954334
102.70374
104.05365
105.28437
106.54212
107.80563
108.93483
109.94997
110.66641
111.26228
111.6039
111.36037
110.00686
107.48797
104.15711
100.16746
96.058895
92.348315
89.236633
86.686661
103.65972
104.74303
105.69176
106.66636
107.60032
108.38109
109.07809
109.58273
110.12625
110.04692
109.39359
107.72086
105.16695
102.03127
98.705468
95.298507
92.213091
89.951341
88.474037
104.19581
105.02792
105.73735
106.51223
107.1642
107.70296
108.1491
108.28556
108.33867
107.67529
106.11549
103.60669
100.44718
97.007145
93.782831
91.336431
89.277771
87.471919
86.459726
104.43704
105.03925
105.61052
106.15379
106.48478
106.52716
106.03144
105.98488
104.9782
103.11226
100.20203
96.357738
91.982056
87.904505
84.594449
82.385289
81.472772
81.702605
82.662617
104.43337
104.88557
105.37011
105.71919
105.79883
105.35988
104.27563
102.50042
99.642462
95.617125
90.710741
85.075465
79.083768
73.826612
70.518322
69.017217
69.254071
71.283019
74.404343
104.03808
104.39316
104.76683
104.96868
104.85805
104.25616
102.69595
99.781007
94.843177
87.757356
79.69343
70.995502
62.263865
54.300643
48.05845
44.991746
45.739304
49.797018
55.976519
103.24371
103.39761
103.57265
103.5266
103.13947
102.29353
100.80656
98.416172
93.857439
85.995404
75.670767
63.043604
49.188771
36.920667
26.950612
21.900421
23.545685
31.410327
42.318865
102.33217
102.25653
102.1898
101.85694
101.12454
99.839968
97.877427
94.897196
90.466294
83.817727
75.146618
64.988228
54.405703
44.737525
37.885035
35.14631
37.11011
43.443926
52.306038
101.85813
101.76899
101.64556
101.3241
100.64527
99.644966
98.253876
96.232872
93.508679
89.793967
84.962095
79.44021
73.605113
67.917847
63.604155
61.214874
61.101468
63.630074
68.27864
101.96204
101.96932
101.91138
101.69612
101.257
100.73422
99.973573
98.928687
97.557797
95.695975
93.360004
90.690655
87.646902
84.801717
82.541014
80.32166
78.834107
79.066034
80.776906
102.333
102.40224
102.38017
102.24114
102.00919
101.72616
101.28985
100.70279
99.895647
98.787581
97.490174
95.893709
94.027148
92.131506
89.964041
88.249156
87.610728
87.340712
86.966045
102.74686
102.87112
102.87593
102.82741
102.72076
102.58448
102.34192
101.98459
101.47053
100.75946
99.872896
98.708032
97.447746
96.102119
94.431763
92.687819
91.06334
89.658594
88.318089
103.16159
103.3512
103.44091
103.44396
103.46807
103.45817
103.35767
103.14248
102.76065
102.21523
101.41263
100.41401
99.32615
97.926397
95.962465
93.624534
91.132349
88.304206
84.926818
103.54392
103.76106
103.86708
103.95568
104.10559
104.2229
104.25579
104.21781
104.1066
103.71159
102.78307
101.36446
99.834089
97.980805
95.674002
92.701998
88.673733
83.454061
77.568686
103.73702
103.91792
104.05215
104.24005
104.40769
104.55158
104.54808
104.48557
103.98894
102.95106
102.62189
102.86385
102.29392
100.25112
97.630693
94.518044
90.599848
85.945291
80.933356
103.62644
103.75983
103.94255
104.17982
104.37487
104.51769
104.61766
104.48013
104.71412
103.20234
101.92854
101.12944
100.05733
98.49688
96.576079
94.388334
91.890364
89.323061
86.930116
103.13655
103.2514
103.46409
103.6479
103.79184
103.87191
103.95067
103.67137
103.38591
102.13536
99.858572
98.425063
97.645099
96.541224
95.272207
93.979592
92.751421
91.93935
91.587425
102.48384
102.5637
102.69061
102.7893
102.86752
102.90336
102.95088
102.89707
102.79006
102.22473
100.75446
98.459706
95.322767
91.571057
88.295672
86.65241
86.448635
87.40671
89.224751
101.94456
101.92692
101.95014
101.96116
101.89585
101.77866
101.56552
101.21096
100.63311
99.430635
97.246171
94.592598
91.962596
89.853447
88.21488
86.748971
85.930777
86.232746
87.819081
101.61662
101.5753
101.54974
101.49538
101.39263
101.31637
101.21895
101.12547
101.07936
100.9755
100.68038
100.07955
99.227166
97.938394
96.044122
94.071684
92.926691
92.683067
93.257982
101.13407
101.17594
101.26465
101.31728
101.34415
101.36015
101.34614
101.26339
101.04361
100.71862
100.33122
99.452134
98.240702
98.072496
98.913811
99.634007
99.695387
99.322283
98.729579
100.7628
100.85561
100.93535
100.98251
101.00973
101.07072
101.16005
101.29977
101.45904
101.67608
102.06386
102.56612
102.97338
102.78786
101.93772
100.9014
100.12576
99.551799
99.070553
25.175038
16.877558
13.077176
14.448088
20.091275
28.645022
38.803268
49.101192
58.656508
67.100707
74.251655
80.106086
84.649977
88.255337
90.915484
92.889945
94.313582
95.281456
95.947607
38.066717
32.066763
29.708782
31.11722
35.60409
42.068168
49.457307
57.017498
64.245183
70.797592
76.314963
81.084218
84.906488
88.000674
90.479443
92.35401
93.810345
94.850748
95.62293
54.001805
49.891921
48.320206
49.161875
51.966886
56.215969
61.232552
66.40942
71.273592
75.8235
79.894835
83.297351
86.295006
88.76223
90.818617
92.518529
93.834257
94.881163
95.677709
68.017027
65.282831
64.294359
64.931453
66.63106
69.034736
71.965373
75.131164
78.405722
81.37434
84.163804
86.561071
88.729861
90.658818
92.234145
93.587171
94.692768
95.512969
96.17169
78.160329
76.616518
75.952741
76.133478
77.211938
78.873877
80.874387
82.836585
84.793085
86.744334
88.604356
90.267388
91.72455
93.136133
94.320946
95.266659
96.123529
96.722594
97.133064
84.829229
83.721617
83.373706
83.882925
84.848571
86.081892
87.433899
88.839473
90.295206
91.653366
92.816433
93.886942
94.824995
95.741304
96.600339
97.28233
97.851947
98.276979
98.467883
87.679084
87.488933
87.838615
88.502902
89.450826
90.683228
92.083366
93.236642
94.300556
95.430297
96.337568
97.097174
97.695425
98.273108
98.855803
99.329567
99.712765
99.996526
100.02108
86.51867
87.326788
88.758333
90.56747
92.175384
93.514948
94.90143
96.254212
97.305913
98.278541
99.021239
99.623351
100.11898
100.46496
100.85984
101.20173
101.47894
101.63138
101.55631
84.283739
86.227075
88.396669
90.962768
93.445687
95.485782
97.050266
98.433638
99.543007
100.45976
101.22684
101.72479
102.07706
102.31451
102.54376
102.75752
102.95256
103.03579
102.89614
78.244856
82.264066
85.992009
89.56063
93.136134
96.174571
98.38861
100.04648
101.39492
102.27365
102.90448
103.40117
103.69602
103.83882
103.94579
104.06666
104.15505
104.2049
104.03164
63.512693
71.369161
78.768024
85.115591
90.63687
95.134773
98.336943
100.50395
102.20593
103.38993
104.09178
104.50892
104.78488
104.93746
104.9809
105.03796
105.08149
105.08819
104.93422
54.134984
65.351544
74.990241
82.80572
89.140716
94.23101
97.896957
100.36751
102.23427
103.54711
104.44655
104.95103
105.25946
105.45261
105.54346
105.59957
105.64009
105.63677
105.52887
61.838299
71.172446
79.452292
86.315502
91.805334
96.063319
99.048508
101.02163
102.60739
103.72739
104.47013
105.02659
105.40726
105.65903
105.79893
105.88068
105.93885
105.92842
105.85083
74.007683
79.96598
85.693334
90.786715
95.005276
98.328865
100.73845
102.4044
103.61728
104.69199
105.19142
105.50644
105.77199
105.99169
106.10792
106.14528
106.18911
106.16633
106.05353
83.36175
86.28633
89.634412
92.963182
96.036532
98.78564
101.12083
103.03364
104.59539
104.91753
105.32601
106.07068
106.34672
106.44555
106.48915
106.46369
106.43528
106.39678
106.26329
87.006774
87.943923
89.540089
91.464999
93.549561
95.840135
98.357678
100.69963
102.68484
104.16036
105.14654
105.55251
106.02178
106.37199
106.52506
106.55399
106.49178
106.4492
106.34129
87.170094
86.517016
86.440992
87.115077
88.329309
89.947798
92.221222
95.153168
98.151514
100.69426
103.06248
104.97301
105.77102
106.2868
106.42302
106.45465
106.38083
106.27182
106.21387
81.465207
78.083425
75.266597
74.009439
74.820192
77.472123
81.44111
86.721494
93.134778
98.96091
102.7365
104.48238
105.24664
105.67957
105.832
105.87711
105.82806
105.69796
105.65683
71.878809
67.232006
64.676155
64.812983
67.578482
73.119363
80.042701
87.045527
92.63442
97.107202
100.59637
102.55132
103.57034
104.17408
104.52785
104.77395
104.87089
104.87255
104.87325
75.920387
71.861563
69.984079
70.663901
73.589169
78.17998
83.683037
89.096682
93.807369
97.448124
99.931607
101.50111
102.496
103.17966
103.64223
103.98404
104.17519
104.26943
104.35207
85.083025
84.137574
84.33198
85.631988
87.974676
91.021626
94.178787
96.957308
99.220634
100.88095
101.99275
102.74743
103.2397
103.58458
103.8182
103.99398
104.1176
104.16697
104.2222
91.924201
93.151135
95.032222
96.785012
98.187678
99.585046
101.03286
102.27341
103.15416
103.696
103.99306
104.19101
104.26561
104.29652
104.27184
104.23801
104.2343
104.19993
104.18026
91.405404
93.545136
95.705489
98.030122
100.01755
101.38127
102.41485
103.45209
104.25125
104.59086
104.65843
104.5848
104.5135
104.40199
104.314
104.211
104.11953
104.05678
103.97262
89.990649
92.695142
95.359895
97.977055
100.42212
101.71262
102.75056
103.18524
103.71452
104.22497
104.3451
104.31355
104.26588
104.10313
103.99465
103.87893
103.76671
103.65249
103.59432
94.394307
95.849758
97.446559
99.006205
100.31665
101.12957
101.53097
101.52251
102.70002
103.64593
103.55607
103.60476
103.45471
103.38238
103.27555
103.16088
103.04988
102.87741
102.80319
98.04894
97.470597
97.238471
97.480162
98.30159
99.912268
101.95295
103.59247
103.71731
102.8542
102.24823
102.23946
102.15531
102.11076
102.06394
102.00658
101.94502
101.84121
101.83069
98.739353
98.592697
98.569969
98.546137
98.405269
98.183298
97.979677
98.170355
98.787433
99.846315
100.53072
100.65986
100.69561
100.70013
100.71845
100.73974
100.76181
100.76073
100.74708
96.262376
96.385671
96.308966
96.070871
95.651233
95.14771
94.548003
93.920097
93.241758
92.551084
91.881354
91.198551
90.568478
89.957164
89.372043
88.884392
88.499552
88.198121
88.036264
96.15439
96.430789
96.529348
96.450711
96.199456
95.828967
95.354403
94.81504
94.235441
93.546972
92.894155
92.199894
91.526271
90.906035
90.326251
89.826803
89.449194
89.162292
89.00289
96.312288
96.70171
96.911652
96.953414
96.8261
96.562664
96.192717
95.699802
95.173124
94.524063
93.85623
93.179487
92.472111
91.828546
91.251
90.750181
90.349947
90.09719
89.964167
96.754264
97.113063
97.307738
97.415943
97.365219
97.170099
96.882322
96.45778
95.974778
95.394206
94.752368
94.095446
93.398486
92.741056
92.14872
91.645522
91.248217
90.994471
90.913895
97.507781
97.716212
97.836244
97.916535
97.872583
97.719254
97.488969
97.127879
96.684248
96.160629
95.567976
94.94377
94.279916
93.623165
93.041954
92.518924
92.15202
91.891773
91.836644
98.572215
98.586012
98.575133
98.559196
98.464034
98.31017
98.086179
97.768791
97.375677
96.895551
96.340432
95.744802
95.116342
94.467365
93.896883
93.382846
93.009815
92.7856
92.735863
99.854729
99.682381
99.520877
99.350686
99.178138
98.96894
98.720229
98.418401
98.035231
97.591577
97.076699
96.495258
95.906688
95.29015
94.709577
94.223142
93.838869
93.654035
93.619729
101.24667
100.90351
100.5863
100.28559
99.995479
99.708854
99.412973
99.085286
98.707417
98.277324
97.791861
97.233904
96.643392
96.073113
95.495909
95.033958
94.663975
94.486463
94.484739
102.54045
102.12329
101.68333
101.2631
100.88733
100.51085
100.14656
99.77629
99.368625
98.946036
98.46544
97.950217
97.365511
96.811762
96.254744
95.798162
95.445217
95.299837
95.319329
103.64745
103.20891
102.74816
102.24937
101.77763
101.34849
100.90777
100.49812
100.05808
99.615381
99.129756
98.62143
98.066977
97.523656
96.988672
96.5459
96.204529
96.064351
96.131495
104.5744
104.13791
103.65904
103.17056
102.64992
102.1661
101.67558
101.21622
100.75034
100.28077
99.784234
99.276738
98.733879
98.202447
97.692932
97.251705
96.942308
96.785504
96.912665
105.24685
104.89271
104.43849
103.96639
103.448
102.94123
102.42636
101.92294
101.42414
100.93557
100.42749
99.914615
99.378804
98.844355
98.368587
97.924121
97.660752
97.512539
97.644173
105.65084
105.40378
105.04773
104.62421
104.14295
103.63865
103.1172
102.60015
102.07761
101.56491
101.04774
100.52184
100.00215
99.454247
99.006011
98.573663
98.312774
98.206068
98.328134
105.86854
105.71202
105.45698
105.12307
104.70526
104.23738
103.72987
103.21559
102.69073
102.1639
101.64792
101.10311
100.59433
100.05054
99.593219
99.197501
98.927204
98.863223
98.991672
106.04374
105.92641
105.71985
105.46653
105.13014
104.72296
104.26277
103.76482
103.25264
102.71221
102.19852
101.65152
101.12858
100.6091
100.13428
99.782197
99.511253
99.469365
99.616576
106.1557
106.04807
105.87714
105.6717
105.41709
105.08435
104.6894
104.21736
103.7401
103.21537
102.69826
102.17415
101.64373
101.1435
100.65661
100.30982
100.06019
100.02737
100.20067
106.12836
106.06836
105.94684
105.79214
105.61026
105.33757
105.02118
104.60424
104.15248
103.6694
103.1643
102.64822
102.11431
101.63348
101.1575
100.80434
100.5785
100.55638
100.7517
105.77883
105.86095
105.8679
105.78694
105.67644
105.47417
105.22137
104.89054
104.48145
104.02871
103.54365
103.0591
102.54188
102.07092
101.62312
101.26203
101.05078
101.02966
101.2431
105.19951
105.41594
105.58602
105.6348
105.62263
105.5235
105.3379
105.09294
104.75201
104.35546
103.89787
103.44387
102.95098
102.46434
102.03848
101.68326
101.49166
101.48582
101.70588
104.65117
104.9156
105.15942
105.33077
105.42025
105.43233
105.33325
105.16874
104.90754
104.57449
104.16041
103.7167
103.26565
102.80603
102.39995
102.05514
101.86734
101.86244
102.09977
104.3595
104.54773
104.76771
104.99002
105.158
105.26336
105.26174
105.18099
105.00408
104.73942
104.41834
104.01502
103.59778
103.14841
102.7352
102.405
102.21604
102.24071
102.4844
104.19569
104.34563
104.50591
104.69619
104.88417
105.03457
105.11444
105.10696
105.00827
104.80374
104.53196
104.17763
103.77279
103.37078
102.98784
102.68285
102.51179
102.53474
102.78929
103.94984
104.13389
104.29056
104.45634
104.62953
104.79932
104.9403
105.00356
104.98089
104.85404
104.64627
104.38461
104.051
103.66741
103.27269
102.94979
102.78133
102.81807
103.08202
103.68794
103.93235
104.12476
104.3137
104.48646
104.63653
104.7817
104.88112
104.90497
104.84261
104.67242
104.41003
104.10326
103.75328
103.40933
103.12027
102.96622
103.01923
103.29698
103.11143
103.45462
103.71772
103.93962
104.14837
104.34088
104.53011
104.70318
104.81645
104.83228
104.74747
104.57468
104.32656
104.02418
103.66517
103.33896
103.14801
103.20294
103.49417
102.3742
102.94008
103.43029
103.81371
104.11717
104.34004
104.49055
104.64503
104.74917
104.78072
104.72547
104.56566
104.32532
104.02167
103.69741
103.39942
103.21867
103.28375
103.59455
101.22792
101.74203
102.28075
102.80406
103.27619
103.67901
104.0272
104.30692
104.53791
104.69973
104.7523
104.69537
104.53031
104.27217
103.94963
103.59065
103.32141
103.33531
103.67222
88.00564
88.18446
88.44246
88.830516
89.350529
90.037855
90.894602
91.855951
92.968102
94.205053
95.50175
96.951246
98.467689
100.05815
101.71848
103.40659
105.14121
106.87024
108.61056
89.00455
89.160164
89.436608
89.899168
90.480742
91.194829
92.041453
93.025508
94.137997
95.348436
96.631829
98.062088
99.531965
101.04714
102.63317
104.21945
105.83851
107.43281
109.01806
90.008729
90.169299
90.480176
90.957193
91.576567
92.320783
93.176246
94.183205
95.266214
96.466099
97.748418
99.10931
100.54562
102.00128
103.48474
104.97338
106.47272
107.94762
109.38917
90.983216
91.191806
91.517102
92.019328
92.644518
93.411873
94.279292
95.278335
96.356981
97.52448
98.800139
100.1167
101.49269
102.90008
104.30327
105.67736
107.02733
108.37887
109.69856
91.938656
92.165019
92.534854
93.033015
93.686652
94.462737
95.340792
96.332002
97.410086
98.558038
99.77708
101.05955
102.38562
103.71226
105.03157
106.29129
107.51321
108.70969
109.9066
92.893243
93.130424
93.528021
94.046954
94.693874
95.479414
96.372606
97.350276
98.399945
99.528025
100.72827
101.93585
103.18985
104.44455
105.65585
106.81989
107.92005
108.98373
110.06818
93.792972
94.073078
94.469989
95.003994
95.676462
96.449484
97.342592
98.304844
99.341324
100.42396
101.56231
102.75236
103.92085
105.08011
106.18999
107.24723
108.26364
109.22922
110.1738
94.684646
94.974817
95.416244
95.943249
96.619369
97.390891
98.266024
99.217691
100.22524
101.28571
102.35766
103.47376
104.58487
105.6585
106.67081
107.62868
108.53246
109.39967
110.24087
95.554249
95.858745
96.29285
96.840709
97.50256
98.276257
99.132729
100.06455
101.0283
102.0445
103.08833
104.13029
105.15169
106.14039
107.06206
107.92543
108.75286
109.53455
110.27191
96.375808
96.702616
97.137559
97.695679
98.353072
99.118563
99.95742
100.87198
101.81352
102.77367
103.7421
104.71103
105.65536
106.56401
107.41835
108.19915
108.91465
109.59842
110.28453
97.166239
97.513984
97.95637
98.511843
99.161335
99.910375
100.73038
101.60212
102.50423
103.4084
104.31594
105.21724
106.09411
106.93096
107.70347
108.4001
109.03256
109.63274
110.24421
97.923868
98.273636
98.730035
99.275792
99.914101
100.6364
101.42896
102.26828
103.1383
104.0005
104.85354
105.69996
106.50113
107.24444
107.93401
108.55693
109.13374
109.65863
110.18119
98.640061
98.989525
99.449795
99.985302
100.61389
101.32663
102.09872
102.90626
103.72821
104.53438
105.32481
106.08002
106.80258
107.48051
108.1103
108.6769
109.19061
109.66258
110.11184
99.318541
99.671664
100.13367
100.66683
101.28069
101.96512
102.69449
103.45516
104.22991
104.97848
105.71509
106.42126
107.09305
107.72457
108.29138
108.78855
109.23045
109.64075
110.03301
99.953044
100.30857
100.76642
101.29041
101.87753
102.53839
103.23937
103.96612
104.70244
105.4137
106.09545
106.73877
107.33701
107.89474
108.39005
108.83236
109.22508
109.58278
109.92374
100.54469
100.89911
101.34471
101.8502
102.43593
103.07726
103.7401
104.42557
105.11558
105.77898
106.39486
106.96775
107.51169
108.03266
108.49273
108.90103
109.25619
109.56738
109.86804
101.09848
101.45258
101.89539
102.406
102.95547
103.55752
104.18068
104.82792
105.47078
106.09061
106.66611
107.19938
107.70031
108.17375
108.58901
108.93751
109.22939
109.48522
109.74228
101.59541
101.94857
102.37742
102.8678
103.3938
103.98361
104.58129
105.19492
105.8025
106.38028
106.91546
107.39873
107.84548
108.25731
108.62725
108.94276
109.21707
109.45229
109.67366
102.06154
102.41333
102.83563
103.31969
103.84625
104.38719
104.95053
105.52506
106.08989
106.61851
107.10643
107.55045
107.96006
108.34099
108.68856
108.98113
109.22286
109.42186
109.5997
102.46752
102.81544
103.22072
103.68125
104.17408
104.70073
105.25793
105.80354
106.32955
106.82667
107.28423
107.7039
108.0864
108.42692
108.73956
108.99797
109.20419
109.37505
109.5281
102.85343
103.19445
103.59477
104.04787
104.54013
105.06375
105.56686
106.06872
106.56529
107.0332
107.4601
107.83591
108.18233
108.49168
108.77397
109.01544
109.20946
109.3741
109.51596
103.14575
103.48556