/*--------------------------------*- C++ -*----------------------------------*\
  =========                 |
  \\      /  F ield         | OpenFOAM: The Open Source CFD Toolbox
   \\    /   O peration     | Website:  https://openfoam.org
    \\  /    A nd           | Version:  11
     \\/     M anipulation  |
\*---------------------------------------------------------------------------*/
FoamFile
{
    format      ascii;
    class       surfaceScalarField;
    location    "3.8";
    object      phi;
}
// * * * * * * * * * * * * * * * * * * * * * * * * * * * * * * * * * * * * * //

dimensions      [0 3 -1 0 0 0 0];

internalField   nonuniform List<scalar> 
10792
(
0.069372589
-0.043225029
-0.069894497
0.043746937
0.068829765
-0.04127754
0.041820365
0.068157713
-0.03910105
0.039773102
0.067505263
-0.036909741
0.037562191
0.066697601
-0.034650141
0.035457805
0.065873112
-0.032187271
0.03301176
0.065076188
-0.029954738
0.030751662
0.064270244
-0.027452708
0.028258652
0.063457101
-0.025095542
0.025908686
0.062716992
-0.022540328
0.023280437
0.061923022
-0.020144491
0.020938461
0.061283159
-0.017445559
0.018085423
0.060612666
-0.015131498
0.015801991
0.060062425
-0.012327425
0.012877665
0.059582857
-0.010009546
0.010489115
0.059109864
-0.0071844371
0.00765743
0.05883083
-0.0048150415
0.0050940756
0.058594697
-0.0021860177
0.002422151
0.0003587846
0.058679216
-0.00044330339
0.073293279
-0.042749626
-0.073768683
0.072725773
-0.040710033
0.072046848
-0.038422125
0.071364366
-0.03622726
0.070554523
-0.033840298
0.069828563
-0.031461312
0.069088593
-0.029214767
0.068321242
-0.026685357
0.06754344
-0.02431774
0.066787261
-0.021784148
0.066024042
-0.019381272
0.065376456
-0.016797972
0.064676734
-0.014431776
0.064141204
-0.011791895
0.063658437
-0.0095267799
0.063249604
-0.0067756034
0.063015098
-0.0045805348
0.062718941
-0.0018898602
0.00042844223
0.062649283
0.077964574
-0.042302137
-0.078412063
0.077379429
-0.040124888
0.076703308
-0.037746003
0.076022438
-0.03554639
0.07527672
-0.03309458
0.074612446
-0.030797037
0.073805215
-0.028407536
0.073010629
-0.025890771
0.072193073
-0.023500185
0.071386614
-0.02097769
0.070622788
-0.018617446
0.069915048
-0.016090233
0.069249343
-0.01376607
0.06870206
-0.011244613
0.068170398
-0.0089951175
0.06778715
-0.0063923554
0.067441392
-0.0042347764
0.067184268
-0.0016327357
0.00055659941
0.067056111
0.082440962
-0.041962039
-0.08278106
0.081768076
-0.039452002
0.08113473
-0.037112658
0.080464727
-0.034876388
0.079796426
-0.032426279
0.079072391
-0.030073003
0.078166949
-0.027502095
0.077403754
-0.025127575
0.076602118
-0.022698549
0.075873548
-0.020249119
0.075144477
-0.017888375
0.074456025
-0.015401781
0.073818373
-0.013128419
0.073253907
-0.010680146
0.072734507
-0.0084757171
0.072363274
-0.0060211224
0.072017501
-0.0038890029
0.071838423
-0.0014536579
0.0006887007
0.071706322
0.087674775
-0.041441616
-0.088195198
0.086962677
-0.038739904
0.086475944
-0.036625924
0.085751164
-0.034151608
0.085018937
-0.031694051
0.084166783
-0.02922085
0.083381453
-0.026716765
0.08271284
-0.024458963
0.081932131
-0.02191784
0.081242446
-0.019559434
0.080464495
-0.017110424
0.079784388
-0.014721674
0.07910161
-0.012445641
0.078513919
-0.010092455
0.077990136
-0.0079519334
0.077604023
-0.0056350092
0.077244878
-0.0035298576
0.077020365
-0.0012291455
0.00083638938
0.076872676
0.092803854
-0.040840873
-0.093404597
0.092234593
-0.038170643
0.091596363
-0.035987695
0.090722345
-0.03327759
0.090035641
-0.031007348
0.089264863
-0.028450071
0.088608481
-0.026060383
0.087813809
-0.023664291
0.087008901
-0.021112932
0.086283217
-0.018833749
0.085502619
-0.016329827
0.084880513
-0.014099568
0.084209015
-0.011774143
0.083698002
-0.0095814417
0.083162711
-0.0074166419
0.082764231
-0.0052365292
0.082395757
-0.0031613835
0.082189581
-0.0010229699
0.00099079017
0.08203518
0.09858299
-0.040143997
-0.099279866
0.098046767
-0.03763442
0.097356925
-0.035297853
0.096638017
-0.032558682
0.096054141
-0.030423472
0.09529911
-0.027695041
0.094642765
-0.025404038
0.093762453
-0.022783979
0.093062256
-0.020412735
0.09228874
-0.018060233
0.0915763
-0.015617387
0.090934535
-0.013457803
0.090252425
-0.011092034
0.089700695
-0.0090297111
0.089113694
-0.0068296406
0.088711521
-0.004834357
0.088292783
-0.0027426452
0.088055704
-0.00078589115
0.0011522654
0.087894229
0.10484913
-0.039441558
-0.10555157
0.10426024
-0.037045529
0.10344629
-0.034483901
0.10278221
-0.031894599
0.10199587
-0.029637138
0.1011378
-0.026836969
0.10044793
-0.024714171
0.099622445
-0.021958491
0.098988059
-0.019778348
0.098185167
-0.017257341
0.097545817
-0.014978037
0.096796133
-0.012708118
0.096182765
-0.010478665
0.095624138
-0.0084710836
0.095130155
-0.0063356577
0.094752732
-0.004456934
0.09438087
-0.0023707839
0.094185284
-0.00059030456
0.0013371631
0.094000386
0.11140527
-0.038652264
-0.11219456
0.11078778
-0.036428038
0.1100725
-0.03376862
0.10944802
-0.03127012
0.10851077
-0.028699887
0.10780471
-0.026130912
0.10709815
-0.024007607
0.10640811
-0.021268448
0.10578563
-0.019155874
0.1049668
-0.016438509
0.10431771
-0.01432895
0.10352791
-0.011918313
0.10298297
-0.009933724
0.10232827
-0.0078163897
0.10185362
-0.0058610069
0.10136739
-0.0039707021
0.10102376
-0.0020271513
0.10075922
-0.00032576801
0.0015480228
0.10054836
0.11868341
-0.037872892
-0.11946278
0.11790348
-0.035648108
0.1170866
-0.032951737
0.11650285
-0.030686367
0.11573583
-0.027932874
0.11507839
-0.025473468
0.1141215
-0.023050717
0.11343165
-0.020578603
0.11270715
-0.018431375
0.11205063
-0.015781989
0.11142969
-0.013708005
0.11070811
-0.011196737
0.11015452
-0.009380135
0.10946767
-0.0071295365
0.10905436
-0.0054477004
0.10857808
-0.0034944208
0.10832271
-0.0017717791
0.10802761
-3.0671671e-05
0.0016922058
0.10788343
0.12644063
-0.037058847
-0.12725467
0.12563789
-0.034845376
0.12481052
-0.032124358
0.12396423
-0.029840086
0.12318201
-0.02715065
0.1225929
-0.024884355
0.12172158
-0.022179396
0.12099851
-0.01985553
0.12007505
-0.017507916
0.11944611
-0.015153057
0.11871838
-0.012980269
0.11809358
-0.010571934
0.11743355
-0.0087201069
0.11681206
-0.006508053
0.11634763
-0.0049832654
0.1158424
-0.0029891912
0.11556764
-0.001497022
0.11525119
0.0002857807
0.0017827276
0.11516067
0.13514618
-0.036307712
-0.13589731
0.13415292
-0.033852119
0.13335789
-0.031329321
0.13245077
-0.028932966
0.13158863
-0.026288511
0.13075376
-0.024049484
0.12992739
-0.021353028
0.12922799
-0.019156129
0.1283683
-0.01664823
0.12776326
-0.014548018
0.12698354
-0.012200552
0.12649724
-0.010085628
0.12580016
-0.0080230237
0.12533133
-0.0060392257
0.1247817
-0.0044336393
0.12438805
-0.0025955351
0.1240753
-0.0011842731
0.12381034
0.00055073675
0.0019143284
0.12367874
0.14386836
-0.035225595
-0.14495048
0.14278308
-0.032766843
0.14194654
-0.030492775
0.14098081
-0.027967242
0.14025698
-0.02556468
0.13934936
-0.023141867
0.13856255
-0.020566215
0.13778476
-0.018378337
0.13698177
-0.015845241
0.13627563
-0.013841882
0.13549564
-0.011420554
0.13491875
-0.009508739
0.13418846
-0.0072927346
0.13373374
-0.0055845094
0.13310784
-0.0038077399
0.13277794
-0.00226563
0.13235665
-0.00076298102
0.13218901
0.00071837322
0.0021362087
0.13196713
0.15413895
-0.034036534
-0.15532801
0.15297439
-0.031602284
0.15193145
-0.029449841
0.15087368
-0.026909463
0.14999645
-0.02468745
0.1489677
-0.02211312
0.14825369
-0.019852208
0.14734708
-0.017471723
0.14663427
-0.01513243
0.14584434
-0.01305195
0.14520913
-0.010785349
0.14457716
-0.0088767635
0.14395643
-0.0066720052
0.1434337
-0.00506178
0.142823
-0.0031970422
0.14250172
-0.0019443514
0.14210411
-0.00036536929
0.14199446
0.00082802077
0.0023711957
0.14175948
0.16415202
-0.032644366
-0.16554419
0.16298508
-0.030435341
0.1617553
-0.028220069
0.16068752
-0.025841674
0.15970132
-0.023701252
0.15878794
-0.021199744
0.15803004
-0.019094309
0.15706377
-0.016505447
0.15634327
-0.014411929
0.15545879
-0.012167476
0.15485072
-0.010177276
0.15413774
-0.0081637847
0.1536938
-0.0062280614
0.15312368
-0.0044916631
0.15267818
-0.0027515484
0.15225588
-0.0015220421
0.15190603
-1.5525327e-05
0.15176095
0.00097310535
0.0024499535
0.15168219
0.17636431
-0.031114293
-0.17789438
0.17498517
-0.029056199
0.17365493
-0.026889828
0.17250684
-0.024693592
0.17132254
-0.022516948
0.17037246
-0.020249659
0.16938975
-0.018111609
0.16854033
-0.015656021
0.16777354
-0.013645144
0.16694295
-0.01133688
0.16626201
-0.0094963374
0.1655395
-0.007441275
0.1650823
-0.005770861
0.16443536
-0.0038447232
0.16405572
-0.002371912
0.16344729
-0.00091360427
0.16313675
0.00029500993
0.16272766
0.0013821997
0.002558068
0.16261954
0.18835155
-0.029422251
-0.1900436
0.18675766
-0.027462303
0.18530535
-0.025437523
0.18398233
-0.023370568
0.18268604
-0.021220655
0.18161045
-0.019174071
0.18055714
-0.017058302
0.1797313
-0.01483018
0.17888302
-0.012796858
0.17812616
-0.010580026
0.17736644
-0.0087366133
0.176694
-0.0067688344
0.17613077
-0.0052076318
0.17568943
-0.0034033829
0.17545214
-0.0021346212
0.17510766
-0.00056913134
0.17495365
0.00044901814
0.17464318
0.0016926775
0.0025792772
0.17462197
0.20242606
-0.027503697
-0.20434462
0.20065598
-0.025692223
0.19909488
-0.02387642
0.19760438
-0.021880071
0.19629962
-0.019915896
0.19509166
-0.017966109
0.19397617
-0.015942815
0.19304515
-0.013899154
0.19211992
-0.011871627
0.19134261
-0.0098027197
0.19052052
-0.0079145222
0.18980105
-0.0060493684
0.18905273
-0.0044593067
0.18848791
-0.0028385627
0.18797263
-0.0016193487
0.18764214
-0.00023863667
0.18737279
0.00071836363
0.18715736
0.0019081153
0.002670697
0.18706594
0.21668774
-0.025358718
-0.21883272
0.21469519
-0.023699678
0.21284474
-0.022025968
0.21116397
-0.020199295
0.20969941
-0.018451339
0.20829928
-0.016565974
0.20705842
-0.014701963
0.20598147
-0.012822196
0.20506056
-0.010950725
0.20430027
-0.0090424259
0.20360749
-0.0072217429
0.20304548
-0.0054873566
0.20247158
-0.0038854051
0.202042
-0.0024089857
0.2015848
-0.0011621486
0.20130202
4.4142146e-05
0.20102993
0.00099045774
0.20094295
0.0019950891
0.002736292
0.20087736
0.23303725
-0.022952282
-0.23544368
0.23083259
-0.021495016
0.22877645
-0.019969827
0.22693864
-0.018361487
0.225278
-0.016790697
0.22377164
-0.015059617
0.22241929
-0.013349617
0.22118483
-0.011587736
0.220091
-0.009856896
0.21918099
-0.0081324077
0.2184215
-0.0064622612
0.21777829
-0.0048441391
0.21722728
-0.0033344022
0.21678129
-0.0019629883
0.21640025
-0.0007811125
0.21610068
0.00034371089
0.21583853
0.001252606
0.21572669
0.0021069307
0.0028173079
0.21564568
0.24968645
-0.020396983
-0.25224175
0.24732147
-0.019130032
0.24503688
-0.017685237
0.24300413
-0.016328739
0.24112273
-0.014909297
0.23953443
-0.013471316
0.23809769
-0.011912878
0.23684295
-0.010332991
0.23575134
-0.0087652944
0.23480839
-0.0071894482
0.23399405
-0.0056479209
0.2333275
-0.0041775986
0.23281439
-0.0028212912
0.23241544
-0.0015640364
0.23215138
-0.000517048
0.23196652
0.00052856734
0.23186861
0.0013505131
0.23183243
0.0021431184
0.0027598663
0.23188987
0.26848001
-0.017652025
-0.27122497
0.26589139
-0.016541405
0.26349435
-0.015288198
0.26117834
-0.014012731
0.25902789
-0.012758846
0.25715246
-0.011595891
0.25549978
-0.010260195
0.2541139
-0.0089471129
0.25291628
-0.0075676756
0.25195798
-0.0062311478
0.25113746
-0.0048274028
0.25047121
-0.0035113427
0.2498966
-0.0022466843
0.24948096
-0.0011483973
0.24911241
-0.00014849999
0.24893551
0.00070546815
0.24888943
0.0013965928
0.24893038
0.0021021752
0.002586799
0.24910344
0.28795721
-0.014788838
-0.29082039
0.28521163
-0.013795828
0.28275799
-0.012834561
0.28043611
-0.011690848
0.27828979
-0.010612526
0.27625262
-0.0095587242
0.27443155
-0.0084391252
0.27285238
-0.0073679407
0.27147492
-0.0061902141
0.27035788
-0.0051141065
0.26946802
-0.0039375466
0.26878229
-0.0028256056
0.26826572
-0.0017301186
0.26789899
-0.00078166433
0.26773618
1.4305715e-05
0.26762392
0.00081772907
0.26763422
0.0013862975
0.26775694
0.0019794496
0.0024103046
0.26793344
0.30934915
-0.011537689
-0.3126003
0.30627639
-0.010723064
0.30337944
-0.0099376174
0.30077444
-0.0090858455
0.298412
-0.0082500801
0.29627541
-0.0074221369
0.29438556
-0.006549279
0.29269545
-0.0056778233
0.29125808
-0.0047528527
0.29005639
-0.0039124129
0.28913602
-0.0030171773
0.28848634
-0.0021759237
0.28805531
-0.0012990834
0.28777853
-0.00050489259
0.28763165
0.00016118929
0.28767442
0.00077496274
0.28786982
0.0011908912
0.28818048
0.001668791
0.0019564124
0.28863437
0.3323336
-0.008171298
-0.33569999
0.32914013
-0.0075295937
0.32611312
-0.0069106022
0.32331718
-0.0062899032
0.32074375
-0.0056766538
0.31842299
-0.0051013807
0.31636516
-0.0044914508
0.31454717
-0.003859828
0.31301438
-0.0032200673
0.3117263
-0.0026243324
0.31068162
-0.0019724977
0.30992257
-0.0014168707
0.30939997
-0.00077648726
0.30918908
-0.0002939972
0.3092065
0.00014376548
0.3093414
0.00064006362
0.30963613
0.00089616516
0.30996918
0.0013357438
0.0014576529
0.31046794
0.35685507
-0.004318627
-0.36070774
0.35332198
-0.0039965003
0.35005588
-0.0036445083
0.34705729
-0.0032913112
0.34431755
-0.0029369117
0.3418399
-0.0026237334
0.33964693
-0.0022984752
0.33773384
-0.0019467431
0.3361305
-0.0016167254
0.33478364
-0.0012774754
0.33377141
-0.00096026293
0.33303783
-0.00068329284
0.33264103
-0.0003796855
0.33249825
-0.00015121723
0.33255442
8.7595412e-05
0.33295483
0.000239658
0.33351164
0.00033934833
0.33415636
0.0006910268
0.00063837957
0.33497563
0.38435856
-0.38867719
0.38036206
0.37671755
0.37342624
0.37048933
0.36786559
0.36556712
0.36362038
0.36200365
0.36072617
0.35976591
0.35908262
0.35870293
0.35855172
0.35863931
0.35887897
0.35921832
0.35990935
0.36054772
0.05856469
0.0029161494
-0.0028016233
0.058827077
0.0055337413
-0.005796128
0.05931392
0.0076510221
-0.0081378653
0.059968286
0.010520991
-0.011175357
0.060936972
0.012485696
-0.013454382
0.061910084
0.015230781
-0.016203893
0.063372371
0.017339588
-0.018801874
0.064683416
0.019761938
-0.021072982
0.066457522
0.022172072
-0.023946178
0.068213805
0.024080747
-0.02583703
0.070049331
0.026679918
-0.028515443
0.072279862
0.028226958
-0.030457488
0.074173698
0.030519182
-0.032413018
0.076655577
0.032182166
-0.034664044
0.078914006
0.033935391
-0.036193819
0.081381026
0.035720475
-0.038187494
0.083982171
0.036872411
-0.039473556
0.086338989
0.038291197
-0.040648014
0.03908607
0.089084614
-0.041831695
0.062582918
0.0029825149
0.062909827
0.0052068327
0.063359148
0.0072017009
0.064202709
0.0096774311
0.065170981
0.011517424
0.066310582
0.014091181
0.067802327
0.015847842
0.06918357
0.018380695
0.071090297
0.020265345
0.072681239
0.022489805
0.074675705
0.024685453
0.076481704
0.026420959
0.078297378
0.028703509
0.080287634
0.03019191
0.081906373
0.032316652
0.083747556
0.033879292
0.085156879
0.035463088
0.086574957
0.036873119
0.037819871
0.087841156
0.066978064
0.0030605614
0.067305144
0.0048797524
0.067711397
0.0067954475
0.068562661
0.008826167
0.069431508
0.010648577
0.070671692
0.012850997
0.071962474
0.01455706
0.07344441
0.016898759
0.07504475
0.018665005
0.076600886
0.02093367
0.078379989
0.02290635
0.079858997
0.024941951
0.081528762
0.027033743
0.082878171
0.028842501
0.084202669
0.030992154
0.08517396
0.032908001
0.085761303
0.034875745
0.085985387
0.036649036
0.038093924
0.085711333
0.07170213
0.0030647539
0.072002464
0.0045794182
0.072484466
0.0063134457
0.073301971
0.0080086625
0.074213485
0.0097370636
0.075437008
0.011627475
0.076653097
0.013340971
0.078134017
0.01541784
0.079461806
0.017337216
0.080998109
0.019397367
0.082299162
0.021605297
0.083620388
0.023620726
0.084692388
0.025961743
0.085471524
0.028063366
0.086040512
0.030423166
0.08602692
0.032921593
0.085621412
0.035281254
0.084479837
0.03779061
0.039945576
0.082628186
0.07679856
0.0031388697
0.077002012
0.0043759656
0.077405134
0.0059103237
0.078082646
0.0073311504
0.078964486
0.0088552239
0.080064687
0.010527274
0.081229802
0.012175856
0.082513926
0.014133716
0.083738666
0.016112477
0.084925074
0.01821096
0.085939244
0.020591127
0.08687883
0.022681139
0.087345437
0.025495136
0.087661229
0.027747574
0.087214957
0.030869437
0.08656813
0.03356842
0.084899736
0.036949648
0.082707571
0.039982776
0.043362375
0.079290772
0.082075544
0.0030985057
0.082334466
0.0041170437
0.082863182
0.005381608
0.083636733
0.0065575996
0.084538318
0.0079536389
0.085584735
0.009480857
0.086562917
0.011197674
0.08764746
0.013049174
0.088570132
0.015189806
0.089385869
0.017395224
0.090000376
0.019976621
0.090255021
0.022426494
0.090175265
0.025574893
0.089598484
0.028324355
0.088321025
0.032146897
0.086790919
0.035098527
0.084073438
0.039667129
0.08111856
0.042937654
0.047724183
0.076756753
0.087843001
0.0031497329
0.087976956
0.0039830889
0.088425438
0.0049331259
0.089017733
0.0059653044
0.089823511
0.0071478609
0.090685388
0.0086189806
0.091626215
0.010256848
0.092542494
0.012132896
0.093262461
0.014469839
0.093828341
0.016829344
0.093978095
0.019826868
0.093826821
0.022577768
0.093093667
0.026308047
0.091797697
0.029620325
0.089921617
0.034022977
0.087383804
0.03763634
0.084302638
0.042748295
0.080694147
0.046546146
0.052407171
0.076011158
0.093982652
0.0031674663
0.094149973
0.0038157681
0.094603212
0.0044798876
0.095250123
0.0053183931
0.09605577
0.0063422147
0.096804238
0.0078705135
0.097597779
0.0094633074
0.098037392
0.011693283
0.098470045
0.014037187
0.098437008
0.016862382
0.098234179
0.020029696
0.097400648
0.0234113
0.096148609
0.027560086
0.094355875
0.031413059
0.091968269
0.036410584
0.088981903
0.040622706
0.08560997
0.046120228
0.08139683
0.050759285
0.057151116
0.076652886
0.10047619
0.003239641
0.10058279
0.0037091619
0.10097485
0.0040878283
0.10147891
0.0048143324
0.10211412
0.005707004
0.10276992
0.0072147128
0.10339915
0.0088340868
0.10376705
0.011325384
0.10404144
0.013762793
0.10366098
0.017242839
0.10318188
0.020508803
0.10175568
0.024837494
0.10031465
0.029001116
0.097835202
0.033892511
0.095355085
0.038890701
0.091972295
0.044005495
0.088421613
0.04967091
0.084168139
0.05501276
0.061586546
0.079732709
0.1077233
0.0033997704
0.10781725
0.0036152095
0.10820877
0.00369631
0.10863799
0.0043851103
0.10911649
0.0052285123
0.10954724
0.0067839617
0.10981712
0.0085642097
0.10984615
0.011296353
0.10959627
0.014012671
0.10891182
0.01792729
0.10797651
0.021444115
0.10632787
0.026486133
0.10459576
0.030733222
0.1019523
0.036535978
0.099641181
0.041201818
0.096157054
0.047489622
0.093413313
0.052414652
0.089751465
0.058674608
0.064439056
0.086898955
0.11491683
0.0036436097
0.11509763
0.0034344126
0.11535682
0.003437119
0.11568462
0.0040573073
0.11608459
0.0048285479
0.11651503
0.0063535131
0.1166909
0.0083883414
0.11657955
0.01140771
0.11610074
0.014491477
0.11529286
0.01873517
0.11396888
0.022768098
0.11228992
0.028165093
0.1103337
0.032689439
0.10813028
0.038739397
0.10605832
0.043273785
0.10360941
0.049938528
0.10232088
0.053703181
0.10077141
0.060224078
0.063205617
0.10200485
0.12343297
0.0038893822
0.12363228
0.003235098
0.12367607
0.0033933349
0.12389681
0.0038365695
0.12403659
0.0046887649
0.12415626
0.0062338452
0.1240002
0.0085443995
0.12372967
0.011678244
0.12299624
0.0152249
0.12200597
0.019725445
0.12054238
0.024231687
0.11917034
0.029537136
0.11751635
0.034343428
0.1162689
0.039986852
0.1151148
0.044427878
0.11500272
0.050050606
0.11622953
0.052476376
0.11924644
0.057207165
0.056204612
0.12624745
0.13183848
0.0040180315
0.13193166
0.0031419135
0.13205473
0.0032702704
0.13243204
0.0034592564
0.13258744
0.0045333675
0.1325864
0.0062348856
0.13230174
0.0088290635
0.13192149
0.012058493
0.13099475
0.016151638
0.13004073
0.020679465
0.12877362
0.025498796
0.12798713
0.030323628
0.12717099
0.035159565
0.12735292
0.039804927
0.12817101
0.043609788
0.13132525
0.046896363
0.13598269
0.047818935
0.14390183
0.04928803
0.045468841
0.1546376
0.14162638
0.0041511221
0.14129417
0.0034741314
0.14132904
0.0032353952
0.1415023
0.0032859982
0.14150755
0.0045281176
0.14147034
0.0062721021
0.14121531
0.0090840874
0.14069984
0.012573969
0.13985568
0.016995793
0.13927725
0.021257901
0.13867112
0.026104918
0.13884184
0.030152915
0.13935471
0.034646689
0.14146876
0.037690879
0.1448997
0.040178847
0.15104113
0.040754932
0.15848861
0.040371456
0.16897834
0.038798301
0.034250814
0.18019637
0.15174633
0.0040869776
0.15155172
0.0036687464
0.1517083
0.003078811
0.15169639
0.0032979107
0.15164313
0.0045813828
0.15153419
0.006381039
0.15117105
0.0094472245
0.15059108
0.013153941
0.15011498
0.017471896
0.15005446
0.021318419
0.15038587
0.025773512
0.15166989
0.028868897
0.15388469
0.03243189
0.15808937
0.033486199
0.16373335
0.034534864
0.17177329
0.032714988
0.18040022
0.031744529
0.19079243
0.028406088
0.024923821
0.20011943
0.16240487
0.0043016502
0.16233781
0.0037358023
0.16248697
0.0029296575
0.16235049
0.003434387
0.16240471
0.0045271681
0.16224269
0.006543053
0.16196262
0.0097273008
0.16176517
0.013351386
0.16200572
0.017231345
0.16272167
0.020602468
0.16420404
0.024291144
0.16669606
0.02637688
0.17063713
0.028490821
0.17642142
0.027701907
0.18334815
0.027608138
0.19181447
0.024248667
0.19989373
0.023665263
0.20835408
0.019945744
0.019063781
0.21421412
0.17424665
0.0046769654
0.17446678
0.0035156729
0.17435285
0.0030435913
0.17429369
0.0034935452
0.17439845
0.0044224096
0.17410529
0.0068362085
0.17399785
0.0098347486
0.17423321
0.013116026
0.17509352
0.016371033
0.17652802
0.019167968
0.1790674
0.021751764
0.18270804
0.022736241
0.18803615
0.023162705
0.19452053
0.021217528
0.20154208
0.020586586
0.20874159
0.017049163
0.21471897
0.017687878
0.22003135
0.014633363
0.017097159
0.22199798
0.18686556
0.0048773424
0.18708321
0.0032980188
0.1868329
0.0032939071
0.18713005
0.0031963925
0.18715438
0.0043980784
0.18715813
0.0068324582
0.18757448
0.0094184031
0.18844272
0.012247785
0.19003777
0.014775987
0.19229063
0.016915108
0.19609382
0.017948572
0.20062624
0.018203818
0.20660052
0.017188426
0.212489
0.015329051
0.21824624
0.014829337
0.22285446
0.012440946
0.22598466
0.014557677
0.2273945
0.013223523
0.018992969
0.22549869
0.20095468
0.0048000187
0.20092968
0.0033230271
0.2009589
0.0032646799
0.20119774
0.0029575537
0.20103919
0.0045566327
0.20141487
0.00645678
0.20215519
0.0086780821
0.2034997
0.010903274
0.20551501
0.012760674
0.20837097
0.014059142
0.21268135
0.013638201
0.21722154
0.013663628
0.22277108
0.011638885
0.22687677
0.011223356
0.23082742
0.010878687
0.23254107
0.0107273
0.23305934
0.014039401
0.23071695
0.015565918
0.024051284
0.22565863
0.21580155
0.0046441397
0.21573275
0.0033918305
0.2160895
0.0029079353
0.216269
0.0027780473
0.21661807
0.0042075669
0.2175197
0.0055551473
0.21870101
0.0074967707
0.22055688
0.0090474085
0.22300538
0.010312172
0.22675102
0.010313498
0.2307693
0.0096199248
0.23512256
0.0093103643
0.23904715
0.0077142986
0.24119342
0.0090770804
0.24295466
0.0091174467
0.2413534
0.012328561
0.23888491
0.016507895
0.23291493
0.0215359
0.031220926
0.22574528
0.2320278
0.0045062113
0.23206885
0.0033507732
0.23231862
0.0026581671
0.2322629
0.0028337653
0.23297814
0.0034923351
0.23381367
0.004719611
0.23526513
0.0060453105
0.23748367
0.0068288701
0.24027048
0.0075253579
0.24389049
0.0066934947
0.24675531
0.0067550974
0.25026031
0.0058053699
0.25185326
0.0061213429
0.25271516
0.0082151867
0.25153837
0.010294231
0.24757742
0.016289513
0.24330143
0.020783886
0.23670142
0.028135913
0.035716524
0.23220582
0.2494617
0.0041479575
0.24992736
0.0028851098
0.25030077
0.0022847559
0.25087434
0.0022602004
0.25174865
0.0026180254
0.25277804
0.0036902155
0.25473063
0.0040927255
0.2569345
0.004624995
0.25974222
0.0047176394
0.2623691
0.0040666127
0.26471551
0.0044086893
0.26654095
0.0039799267
0.2663125
0.0063498002
0.26538213
0.0091455477
0.26162509
0.014051279
0.25811851
0.019796085
0.25465803
0.024244368
0.25202923
0.03076472
0.03326173
0.25448402
0.26830673
0.0037746612
0.26850697
0.0026848708
0.26885137
0.0019403614
0.26965293
0.0014586342
0.27039508
0.0018758773
0.27168637
0.0023989225
0.27330884
0.002470258
0.27517764
0.0027561906
0.27748698
0.0024083053
0.27906425
0.0024893412
0.28052923
0.0029437046
0.28049021
0.0040189497
0.27932398
0.0075160346
0.27730268
0.011166839
0.27496065
0.016393313
0.27470963
0.020047102
0.27490235
0.024051654
0.27946849
0.026198574
0.024599738
0.28813048
0.28931829
0.0030907452
0.28986562
0.0021375405
0.29057253
0.0012334547
0.29134714
0.00068402457
0.29237481
0.00084820573
0.29369952
0.0010742097
0.29489128
0.0012784986
0.29651195
0.0011355234
0.29792861
0.00099164126
0.29903879
0.0013791572
0.29943147
0.0025510303
0.29832011
0.0051303086
0.29705231
0.0087838332
0.29588083
0.012338322
0.29658288
0.015691259
0.29894408
0.017685904
0.30397862
0.019017117
0.31315512
0.017022065
0.015715766
0.3220391
0.31116615
0.0023925353
0.31158874
0.0017149417
0.31217851
0.0006436882
0.31289189
-2.9351234e-05
0.31355645
0.00018364119
0.31423527
0.00039538854
0.31502634
0.0004874326
0.31573648
0.00042538306
0.31618603
0.00054208807
0.31649449
0.0010706966
0.31641064
0.0026348839
0.31644799
0.0050929541
0.31758524
0.0076465856
0.32012262
0.0098009436
0.32463012
0.01118376
0.33059081
0.011725208
0.33840426
0.011203672
0.34545063
0.0099756931
0.01126107
0.34990533
0.33611267
0.0012555019
0.33722741
0.00060019779
0.33803545
-0.0001643544
0.33862185
-0.00061574592
0.3391454
-0.00033991128
0.33952772
1.3069989e-05
0.33982978
0.00018536757
0.34007928
0.0001758894
0.34040736
0.00021400157
0.34068568
0.00079237416
0.34118605
0.002134515
0.34272152
0.0035574838
0.34508645
0.0052816596
0.3490106
0.0058767894
0.35359154
0.0066028216
0.35912342
0.0061933281
0.36431303
0.0060140672
0.36860655
0.0056821646
0.0060512872
0.37381634
0.36180323
0.36240342
0.36223907
0.36162332
0.36128341
0.36129648
0.36148185
0.36165774
0.36187174
0.36266411
0.36479863
0.36835611
0.37363777
0.37951456
0.38611738
0.39231071
0.39832478
0.40400694
0.41005823
0.085754269
0.045655733
-0.042325388
0.082832933
0.045651362
-0.042730024
0.07946592
0.045746539
-0.042379526
0.076933212
0.044741247
-0.042208539
0.073615064
0.043718648
-0.0404005
0.070971754
0.042560008
-0.039916697
0.068512522
0.039588822
-0.03712959
0.065344332
0.037449452
-0.034281262
0.064090454
0.032379345
-0.031125466
0.061627265
0.028147638
-0.025684448
0.059179403
0.023142132
-0.02069427
0.061475262
0.012956168
-0.015252027
0.064297168
0.0019566196
-0.0047785262
0.062644231
-0.0040077679
0.0056607053
0.056518726
-0.0061443107
0.012269816
0.045604383
-0.0040657514
0.014980095
0.029860143
0.00069882557
0.015045415
0.0097322461
0.0095316026
0.010596294
0.019957242
-0.011371544
0.0011465481
0.083865277
0.049631612
0.079614392
0.049902246
0.075436046
0.049924885
0.071370752
0.048806542
0.066821906
0.048267494
0.06346106
0.045920853
0.058395704
0.044654179
0.054723454
0.041121702
0.050289987
0.036812812
0.046060913
0.032376712
0.047296035
0.02190701
0.048259961
0.011992242
0.040515405
0.0097011759
0.026292615
0.010215022
0.0093404566
0.010807848
-0.0090993071
0.014374012
-0.027911097
0.019510616
-0.046608859
0.028229364
0.038671731
-0.065323347
0.080939546
0.054403399
0.075612605
0.055229187
0.070402988
0.055134503
0.064430614
0.054778915
0.058874086
0.053824023
0.052537151
0.052257788
0.046471337
0.050719994
0.040738407
0.046854632
0.032697345
0.044853875
0.029141082
0.035932975
0.025661576
0.025386517
0.015970439
0.021683379
0.0015115612
0.024160054
-0.015259704
0.026986288
-0.033072807
0.028620951
-0.051968073
0.033269278
-0.071314049
0.038856592
-0.089486656
0.046401971
0.054473617
-0.10528854
0.076612477
0.060419108
0.070394101
0.061447564
0.063682605
0.061845999
0.056571407
0.061890114
0.049366244
0.061029186
0.040910011
0.060714021
0.032972472
0.058657533
0.022552592
0.057274512
0.013812627
0.05359384
0.007590086
0.042155516
-0.005033442
0.038010046
-0.02032132
0.036971257
-0.035872316
0.03971105
-0.052160856
0.043274828
-0.069611539
0.046071635
-0.086584346
0.050242085
-0.10271735
0.0549896
-0.117201
0.060885618
0.066261791
-0.12898917
0.072093208
0.067616673
0.064985649
0.068555122
0.057219687
0.069611962
0.049090895
0.070018905
0.040152892
0.069967189
0.030435503
0.07043141
0.019588744
0.069504293
0.0076439528
0.069219302
0.00053687482
0.060700919
-0.010059779
0.05275217
-0.027874361
0.055824628
-0.046701323
0.055798219
-0.064269725
0.057279452
-0.080585979
0.059591083
-0.096456509
0.061942165
-0.11124212
0.065027697
-0.12446961
0.068217085
-0.13499776
0.071413773
0.074340596
-0.14307657
0.068942162
0.075431263
0.060947612
0.076549673
0.052567369
0.077992204
0.0439391
0.078647175
0.034357374
0.079548915
0.024520053
0.080268732
0.013194578
0.080829768
0.0029709241
0.079442956
-0.0044133921
0.068085235
-0.018978188
0.067316966
-0.037400739
0.074247179
-0.057133757
0.075531237
-0.077248063
0.077393758
-0.095559296
0.077902316
-0.11165437
0.078037237
-0.12524728
0.07862061
-0.13646741
0.079437216
-0.14506312
0.080009483
0.080557936
-0.15128046
0.0675535
0.083888922
0.058897242
0.085205931
0.050018363
0.086871084
0.041072807
0.087592731
0.031967797
0.088653925
0.023486112
0.088750417
0.013875423
0.090440457
0.0045765278
0.088741852
-0.0082935317
0.080955295
-0.029405935
0.088429369
-0.049276872
0.094118116
-0.069257437
0.095511802
-0.088961069
0.09709739
-0.1069003
0.095841548
-0.12278939
0.093926329
-0.13572448
0.091555699
-0.14510997
0.0888227
-0.15125967
0.086159188
0.084089739
-0.15479147
0.067396613
0.093145194
0.057857656
0.094744888
0.048164559
0.096564181
0.038168534
0.097588757
0.028321915
0.098500545
0.019693414
0.097378918
0.010919192
0.099214679
-0.0016740148
0.10133506
-0.025262382
0.10454366
-0.051980018
0.11514701
-0.076482466
0.11862056
-0.099550902
0.11858024
-0.11941098
0.11695747
-0.13571123
0.1121418
-0.14851372
0.10672883
-0.15715128
0.10019325
-0.16288943
0.094560852
-0.16595232
0.089222074
0.084605137
-0.16646771
0.069467684
0.10341022
0.058064602
0.10614797
0.046066062
0.10856272
0.032996311
0.11065851
0.018903225
0.11259363
0.0042325684
0.11204957
-0.0093182844
0.11276553
-0.029378219
0.12139499
-0.058949998
0.13411544
-0.085648503
0.14184551
-0.1118377
0.14480976
-0.13596893
0.14271147
-0.15648639
0.13747492
-0.173189
0.12884441
-0.18530772
0.11884755
-0.19227639
0.10716192
-0.1950901
0.097374562
-0.19500469