/*--------------------------------*- C++ -*----------------------------------*\
  =========                 |
  \\      /  F ield         | OpenFOAM: The Open Source CFD Toolbox
   \\    /   O peration     | Website:  https://openfoam.org
    \\  /    A nd           | Version:  11
     \\/     M anipulation  |
\*---------------------------------------------------------------------------*/
FoamFile
{
    format      ascii;
    class       surfaceScalarField;
    location    "18.7";
    object      phi;
}
// * * * * * * * * * * * * * * * * * * * * * * * * * * * * * * * * * * * * * //

dimensions      [0 3 -1 0 0 0 0];

internalField   nonuniform List<scalar> 
10792
(
0.06739971
-0.041743197
-0.067793051
0.042136538
0.066827
-0.039698407
0.040271117
0.066267839
-0.037270812
0.037829973
0.06565374
-0.03513543
0.035749529
0.064871839
-0.03251337
0.03329527
0.064155736
-0.030307896
0.031023999
0.063379418
-0.027817077
0.028593395
0.062539884
-0.025195616
0.02603515
0.06175931
-0.022753956
0.02353453
0.060994924
-0.020095009
0.020859395
0.060276081
-0.017492438
0.018211281
0.059625048
-0.014822131
0.015473164
0.058957858
-0.01206093
0.01272812
0.058370046
-0.0093307666
0.0099185791
0.057795108
-0.0064814521
0.0070563901
0.05730169
-0.0036899383
0.004183356
0.05703464
-0.00096267486
0.0012297255
0.056797395
0.0019595083
-0.0017222635
0.004852934
0.05657177
-0.0046273085
0.071438219
-0.041354105
-0.07182731
0.070894435
-0.039154623
0.070323734
-0.036700111
0.069607219
-0.034418914
0.068923159
-0.03182931
0.068234402
-0.029619139
0.067366379
-0.026949054
0.06662951
-0.024458746
0.065867726
-0.021992172
0.065125885
-0.019353168
0.064445831
-0.016812383
0.063726461
-0.014102761
0.063063712
-0.011398181
0.06248066
-0.0087477144
0.061971291
-0.0059720836
0.061574342
-0.0032929892
0.061189913
-0.00057824547
0.060904986
0.0022444359
0.0050357044
0.060722215
0.07614951
-0.040949918
-0.076553697
0.07553112
-0.038536234
0.074935488
-0.036104479
0.074298382
-0.033781808
0.073631732
-0.03116266
0.072797375
-0.028784782
0.072007225
-0.026158903
0.071320942
-0.023772464
0.070486324
-0.021157554
0.069753859
-0.018620702
0.068962763
-0.016021287
0.068222876
-0.013362874
0.06758047
-0.010755775
0.066977566
-0.0081448108
0.066470182
-0.0054646998
0.066033034
-0.0028558401
0.0656451
-0.00019031188
0.065347364
0.0025421723
0.0052091217
0.065173947
0.080682774
-0.040398351
-0.081234341
0.080108805
-0.037962264
0.079556649
-0.035552323
0.078846581
-0.03307174
0.078136176
-0.030452254
0.077408444
-0.02805705
0.076738314
-0.025488774
0.075952375
-0.022986525
0.075118311
-0.02032349
0.074369264
-0.017871655
0.073575072
-0.015227095
0.072942553
-0.012730355
0.072293677
-0.010106898
0.071746669
-0.0075978031
0.071242253
-0.0049602829
0.070780586
-0.002394173
0.070383335
0.00020693855
0.070078029
0.0028474785
0.0054432966
0.069843855
0.085843511
-0.039717378
-0.086524484
0.085330003
-0.037448757
0.084704538
-0.034926858
0.083949115
-0.032316317
0.083342043
-0.029845182
0.082592077
-0.027307085
0.081822676
-0.024719373
0.080973924
-0.022137773
0.080217516
-0.019567083
0.079449897
-0.017104035
0.078738942
-0.01451614
0.078083916
-0.01207533
0.077400544
-0.0094235253
0.076824708
-0.0070219674
0.076240026
-0.0043756008
0.075796349
-0.0019504959
0.075368139
0.00063514909
0.075129835
0.003085782
0.0056827099
0.074890422
0.09136991
-0.039218914
-0.091868375
0.090874709
-0.036953555
0.090083993
-0.034136142
0.089456746
-0.03168907
0.088760665
-0.029149101
0.087991099
-0.026537519
0.087278732
-0.024007006
0.086496685
-0.021355726
0.085851955
-0.018922352
0.085049464
-0.016301545
0.084357778
-0.013824453
0.083576507
-0.011294059
0.082931983
-0.0087790015
0.08230447
-0.0063944548
0.081751674
-0.0038228047
0.081345496
-0.0015443173
0.080969115
0.0010115299
0.080719374
0.0033355229
0.0059188628
0.080483222
0.097296129
-0.038493648
-0.098021395
0.096559061
-0.036216486
0.095942772
-0.033519854
0.095391347
-0.031137645
0.094570023
-0.028327776
0.093845084
-0.02581258
0.093089764
-0.023251685
0.092351481
-0.020617444
0.091556318
-0.018127189
0.090703076
-0.015448303
0.090003907
-0.013125284
0.089228286
-0.010518438
0.088687559
-0.0082382739
0.088048577
-0.0057554731
0.087629986
-0.0034042131
0.087109418
-0.0010237494
0.086769757
0.0013511912
0.086471668
0.0036336113
0.0060882193
0.086302312
0.10381355
-0.037919826
-0.10438737
0.10317859
-0.035581528
0.10239357
-0.032734839
0.10163104
-0.030375108
0.10089781
-0.027594547
0.10024962
-0.025164388
0.099422022
-0.02242409
0.098715452
-0.019910874
0.097906968
-0.017318704
0.097181046
-0.014722381
0.096462382
-0.012406621
0.095765891
-0.0098219463
0.095163484
-0.0076358663
0.094513805
-0.0051057939
0.094019525
-0.0029099329
0.093460159
-0.00046438397
0.093159938
0.0016514133
0.092758395
0.004035154
0.0062024454
0.092644169
0.11039756
-0.037210352
-0.11110703
0.10963163
-0.034815601
0.10890955
-0.032012755
0.10816986
-0.029635419
0.10736042
-0.026785107
0.10662543
-0.0244294
0.10585883
-0.021657488
0.10516822
-0.019220265
0.10440934
-0.016559827
0.10373511
-0.014048147
0.10294476
-0.011616278
0.10227471
-0.0091518964
0.10159201
-0.0069531613
0.10100492
-0.0045187032
0.10056332
-0.0024683287
0.10009363
5.3034921e-06
0.099858739
0.0018863026
0.099564924
0.0043289682
0.0062456473
0.099521723
0.11813956
-0.036536103
-0.11881381
0.11730681
-0.033982846
0.11661582
-0.031321772
0.11584535
-0.028864944
0.11514452
-0.026084278
0.11438759
-0.02367247
0.11351828
-0.020788177
0.11275204
-0.018454028
0.1119079
-0.015715685
0.11120257
-0.013342819
0.11038992
-0.010803631
0.10975144
-0.008513408
0.10902318
-0.0062249009
0.10844655
-0.0039420773
0.10784028
-0.0018620617
0.10741437
0.00043121754
0.10698112
0.0023195548
0.10665218
0.0046579035
0.0063997994
0.10649803
0.12583334
-0.035762024
-0.12660741
0.12490334
-0.033052846
0.12404341
-0.030461846
0.1231139
-0.027935431
0.12236293
-0.025333306
0.12153532
-0.022844864
0.12080726
-0.020060112
0.1200227
-0.017669474
0.11920874
-0.014901727
0.11849599
-0.012630065
0.1177128
-0.010020442
0.11712536
-0.0079259711
0.11640548
-0.0055050182
0.11596448
-0.0035010725
0.11536163
-0.0012592123
0.11504474
0.00074810385
0.11466183
0.0027024688
0.11458748
0.0047322552
0.0064998012
0.11448747
0.13452271
-0.03493625
-0.13534848
0.13370207
-0.032232207
0.13294248
-0.029702255
0.13201566
-0.027008617
0.13119342
-0.024511062
0.13027943
-0.02193088
0.12961952
-0.019400194
0.12877038
-0.016820335
0.12801771
-0.014149062
0.127205
-0.011817349
0.12648123
-0.0092966793
0.12577875
-0.0072234875
0.12507833
-0.0048046032
0.12451632
-0.0029390559
0.12387914
-0.00062203865
0.1234935
0.0011337489
0.12297746
0.0032185121
0.12282489
0.0048848202
0.0067408323
0.12258386
0.14313251
-0.033942974
-0.14412579
0.14222788
-0.031327574
0.14134447
-0.028818848
0.14049451
-0.026158658
0.13961889
-0.023635437
0.13869012
-0.021002109
0.13793177
-0.018641843
0.13709357
-0.015982141
0.13644437
-0.013499856
0.13562516
-0.010998142
0.13498258
-0.0086540956
0.13424235
-0.0064832634
0.13376061
-0.0043228593
0.13325147
-0.0024299197
0.13285459
-0.00022515349
0.13251918
0.0014691534
0.13220407
0.0035336298
0.1320604
0.0050284899
0.0069137591
0.13188747
0.15353657
-0.032838982
-0.15464056
0.15258653
-0.030377536
0.15162286
-0.027855175
0.15071043
-0.02524623
0.14975155
-0.022676555
0.14882221
-0.020072761
0.14791618
-0.017735814
0.14707737
-0.015143335
0.1463688
-0.012791283
0.14557167
-0.010201011
0.144825
-0.0079074253
0.14395001
-0.0056082726
0.14332648
-0.0036993365
0.14259178
-0.001695219
0.14223818
0.00012844774
0.14182756
0.0018797719
0.14169373
0.0036674659
0.14154052
0.0051817
0.0068667345
0.14158754
0.16333487
-0.031680809
-0.16449304
0.16225822
-0.029300887
0.1611953
-0.026792257
0.16031049
-0.024361414
0.15942072
-0.021786787
0.15861261
-0.019264657
0.15769326
-0.01681646
0.15688489
-0.01433496
0.15619032
-0.012096715
0.1555964
-0.0096070913
0.15506621
-0.0073772385
0.15451085
-0.0050529093
0.15390624
-0.0030947309
0.15323841
-0.0010273855
0.15282638
0.00054047204
0.1523418
0.0023643538
0.15221723
0.0037920386
0.15203825
0.0053606775
0.0067331334
0.15217185
0.17552568
-0.030434622
-0.17677186
0.1743001
-0.028075308
0.17318504
-0.0256772
0.17213645
-0.023312826
0.17117146
-0.020821794
0.17023967
-0.018332864
0.16919531
-0.015772103
0.16820813
-0.013347779
0.16721361
-0.011102195
0.16643751
-0.008830991
0.16576049
-0.0067002221
0.16525474
-0.0045471563
0.16473184
-0.0025718304
0.16427649
-0.0005720396
0.16386753
0.00094943401
0.16350422
0.0027276612
0.16332592
0.0039703373
0.16321944
0.0054671627
0.0066136321
0.16333894
0.18706684
-0.02911824
-0.18838322
0.18570508
-0.026713555
0.18451873
-0.024490845
0.18337631
-0.022170405
0.18243361
-0.019879098
0.18159074
-0.017489991
0.1808518
-0.015033167
0.18010515
-0.012601122
0.17926996
-0.010267005
0.17848842
-0.0080494527
0.1777271
-0.0059388995
0.17712462
-0.003944676
0.17654938
-0.0019965921
0.17614629
-0.00016894964
0.17573927
0.0013564567
0.17551387
0.0029530598
0.17534525
0.0041389521
0.17532555
0.005486862
0.0065433831
0.1753958
0.20100734
-0.027561954
-0.20256363
0.19956098
-0.025267189
0.19826037
-0.023190242
0.19689147
-0.0208015
0.19561697
-0.018604595
0.19440349
-0.016276519
0.19342586
-0.014055531
0.1925155
-0.011690759
0.19174453
-0.0094960398
0.1910072
-0.0073121239
0.19031588
-0.0052475735
0.18971221
-0.0033410104
0.18920074
-0.0014851206
0.18881529
0.00021650364
0.18847939
0.0016923484
0.18834329
0.0030891617
0.18824055
0.0042416924
0.18831929
0.0054081216
0.006418589
0.18844409
0.21449282
-0.025844468
-0.2162103
0.21299611
-0.023770481
0.21160556
-0.021799694
0.21038332
-0.019579264
0.20928938
-0.017510647
0.20816929
-0.015156433
0.20710788
-0.012994123
0.20612878
-0.010711655
0.20531021
-0.0086774732
0.20457665
-0.006578562
0.20396208
-0.0046330032
0.20339014
-0.0027690738
0.20292777
-0.001022751
0.20258404
0.00056023821
0.20232813
0.0019482579
0.20219196
0.0032253343
0.20216248
0.0042711701
0.20227342
0.0052971824
0.0062280446
0.20246396
0.23033156
-0.023733253
-0.23244278
0.22851351
-0.021952428
0.22680815
-0.020094334
0.22540027
-0.018171386
0.22408737
-0.016197747
0.22301447
-0.014083531
0.22198437
-0.011964018
0.22106714
-0.0097944283
0.22019119
-0.00780152
0.21939092
-0.0057782989
0.21873209
-0.0039741658
0.21815586
-0.0021928444
0.21767634
-0.00054323329
0.21733272
0.00090385867
0.21713542
0.0021455604
0.21707565
0.0032851
0.21714007
0.0042067518
0.21736296
0.0050742908
0.0058543767
0.21773663
0.24701111
-0.021542214
-0.24920215
0.24496933
-0.019910642
0.24308052
-0.018205531
0.24135771
-0.01644857
0.23980881
-0.014648849
0.23853988
-0.012814606
0.23743701
-0.010861147
0.23658752
-0.0089449349
0.23578038
-0.0069943751
0.23514311
-0.0051410332
0.23448776
-0.0033188155
0.23398016
-0.0016852411
0.23362714
-0.00019022057
0.2333552
0.0011758024
0.23318188
0.002318885
0.23316071
0.0033062687
0.23324026
0.0041271984
0.23346709
0.004847462
0.0054740513
0.23384742
0.26516851
-0.018899448
-0.26781127
0.26280477
-0.017546905
0.2607902
-0.016190967
0.25899706
-0.014655424
0.25735604
-0.013007827
0.25585168
-0.011310245
0.25453907
-0.0095485387
0.25341171
-0.0078175798
0.25253863
-0.0061212906
0.25187455
-0.0044769524
0.25134973
-0.0027940026
0.25095255
-0.0012880535
0.25060934
0.00015298481
0.25046768
0.0013174662
0.25042258
0.0023639858
0.25057239
0.0031564602
0.25081219
0.0038873987
0.25124868
0.004410966
0.0049330541
0.25178968
0.28537654
-0.015806646
-0.28846935
0.28256116
-0.014731519
0.2800213
-0.013651115
0.27785379
-0.012487913
0.27599587
-0.011149906
0.27438576
-0.0097001306
0.27303071
-0.0081934861
0.27180866
-0.006595535
0.27081111
-0.005123738
0.26996948
-0.0036353189
0.26939154
-0.0022160634
0.26901157
-0.00090808394
0.26885052
0.00031403259
0.26879191
0.0013760762
0.26886172
0.0022941733
0.26907748
0.0029407067
0.2694062
0.0035586722
0.26990227
0.0039149024
0.0042725952
0.27056273
0.30684567
-0.012467649
-0.31018467
0.30372909
-0.011614934
0.30084022
-0.010762248
0.29817069
-0.0098183782
0.29592189
-0.0089011044
0.29404138
-0.0078196278
0.29252497
-0.0066770716
0.29136391
-0.0054344796
0.29044003
-0.0041998519
0.28976919
-0.0029644795
0.28929068
-0.0017375607
0.28898059
-0.00059799031
0.28885086
0.00044376283
0.28893528
0.0012916601
0.28918448
0.0020449711
0.28953996
0.0025852228
0.2900318
0.0030668352
0.29063015
0.0033165552
0.0034909883
0.29141175
0.33059669
-0.0087423448
-0.334322
0.32713186
-0.0081501043
0.32394416
-0.0075745484
0.32099661
-0.0068708239
0.31833733
-0.006241827
0.31600579
-0.0054880914
0.31402115
-0.0046924299
0.31242489
-0.0038382128
0.31118102
-0.0029559863
0.31030295
-0.0020864068
0.30979384
-0.0012284524
0.30963852
-0.00044267433
0.30978997
0.00029231859
0.31013121
0.00095041882
0.31062626
0.0015499167
0.31125045
0.0019610373
0.3119315
0.0023857816
0.31273379
0.002514273
0.0025937682
0.31363101
0.35588552
-0.0045655895
-0.36006228
0.35204064
-0.0043052235
0.34845898
-0.0039928848
0.34523337
-0.0036452148
0.34228257
-0.0032910297
0.33969134
-0.0028968593
0.33747053
-0.0024716182
0.33567138
-0.0020390685
0.33428964
-0.0015742429
0.33333295
-0.0011297205
0.33279115
-0.00068664581
0.33260688
-0.00025840636
0.33279896
0.00010023275
0.3333345
0.00041488816
0.33412371
0.00076070678
0.33508115
0.0010035928
0.33601873
0.0014482048
0.33717281
0.0013601885
0.0014859775
0.3382806
0.38394009
-0.38850568
0.37963487
0.37564198
0.37199677
0.36870574
0.36580888
0.36333726
0.36129819
0.35972395
0.35859423
0.35790758
0.35764918
0.35774941
0.3581643
0.358925
0.3599286
0.3613768
0.36273699
0.36422297
0.056304628
0.0079720789
-0.0077049371
0.056100342
0.010901436
-0.010697149
0.056104141
0.013813908
-0.013817707
0.056187629
0.016667913
-0.016751402
0.056546081
0.019622448
-0.0199809
0.056990128
0.022535023
-0.02297907
0.057619812
0.025601152
-0.026230836
0.058248697
0.028459962
-0.029088847
0.058985989
0.031510747
-0.03224804
0.059732011
0.034266463
-0.035012484
0.060530621
0.037293969
-0.038092579
0.061366433
0.039975478
-0.040811289
0.062249436
0.042936389
-0.043819391
0.063146571
0.045649648
-0.046546784
0.063960965
0.048509326
-0.04932372
0.064552548
0.051256491
-0.051848074
0.064755466
0.053862424
-0.054065342
0.064636908
0.056465549
-0.056346991
0.059133682
0.063860482
-0.058357255
0.060390531
0.0083037636
0.060264328
0.011027639
0.060376038
0.013702199
0.060569832
0.016474119
0.06098913
0.019203151
0.061473969
0.022050184
0.062131649
0.024943472
0.062815927
0.027775684
0.063570178
0.030756496
0.064251757
0.033584885
0.064934554
0.036611172
0.065534085
0.039375947
0.066060238
0.042410236
0.066467362
0.045242524
0.066767749
0.04820894
0.066746327
0.051277913
0.066376308
0.054232443
0.06537655
0.057465307
0.060673461
0.06383677
0.064788415
0.0086892951
0.064685369
0.011130686
0.064719443
0.013668125
0.06495035
0.016243212
0.065320041
0.018833459
0.065816481
0.021553744
0.066454156
0.024305798
0.067184712
0.027045128
0.067978111
0.029963097
0.06871767
0.032845326
0.069413762
0.03591508
0.069947188
0.038842521
0.07032141
0.042036014
0.070508683
0.045055252
0.070354123
0.0483635
0.069902177
0.05172986
0.068932669
0.055201951
0.067349954
0.059048022
0.06279196
0.065231454
0.069489953
0.009043197
0.069375161
0.011245477
0.069419099
0.013624187
0.069706473
0.015955838
0.070082996
0.018456936
0.070596511
0.021040229
0.071184195
0.023718113
0.071868428
0.026360896
0.072603018
0.029228507
0.073310464
0.032137881
0.073955596
0.035269948
0.074465633
0.038332484
0.074819288
0.041682359
0.074836878
0.045037662
0.074421743
0.048778634
0.073723053
0.05242855
0.072353528
0.056571477
0.070688867
0.060712683
0.065445741
0.068035086
0.074590747
0.009342872
0.074395611
0.011440613
0.074479042
0.013540756
0.074726119
0.015708761
0.075140656
0.018042399
0.07565862
0.020522265
0.076298384
0.023078349
0.076899835
0.025759445
0.077536181
0.028592162
0.078122299
0.031551762
0.078693491
0.034698757
0.079078562
0.037947413
0.07931027
0.041450651
0.079227275
0.045120658
0.078992256
0.049013653
0.078354562
0.053066244
0.077401077
0.057524962
0.076221935
0.061891825
0.067278646
0.07438903
0.080153974
0.0096721195
0.079942644
0.011651944
0.080097347
0.013386053
0.080287583
0.015518526
0.080716618
0.017613364
0.08116034
0.020078543
0.081824888
0.022413802
0.082384484
0.025199849
0.083046172
0.027930474
0.083571681
0.031026254
0.08407716
0.034193278
0.084415187
0.037609387
0.084721371
0.041144467
0.084793389
0.04504864
0.085009736
0.048797306
0.084735293
0.053340686
0.085079807
0.057180448
0.085207112
0.061764521
0.066024046
0.086461712
0.085952807
0.010021625
0.08583538
0.011769371
0.086014249
0.013207183
0.086245376
0.015287399
0.086733291
0.017125449
0.087250781
0.019561054
0.087920294
0.021744288
0.088499502
0.024620641
0.08913548
0.027294497
0.089705307
0.030456428
0.090273505
0.03362508
0.090819091
0.037063802
0.091426772
0.040536786
0.091950131
0.044525281
0.092882451
0.047864986
0.093937273
0.052285864
0.09623233
0.054885391
0.098918747
0.059078104
0.060635946
0.10430685
0.092190144
0.01047565
0.092228276
0.011731238
0.092266403
0.013169057
0.092565694
0.014988108
0.09300885
0.016682294
0.09359072
0.018979184
0.094238676
0.021096333
0.094911342
0.023947975
0.095662556
0.026543283
0.096438921
0.029680063
0.09732313
0.032740871
0.098224341
0.036162592
0.099396594
0.039364533
0.10081103
0.043110844
0.10307837
0.045597646
0.10621421
0.049150024
0.11053207
0.050567536
0.11635903
0.053251145
0.052561646
0.12443333
0.0990959
0.010901473
0.099210547
0.011616592
0.099157356
0.013222249
0.09963918
0.014506284
0.10003162
0.016289855
0.10069968
0.018311123
0.10137838
0.020417638
0.10213411
0.023192238
0.10310322
0.025574174
0.10416846
0.028614821
0.10546105
0.031448291
0.10687957
0.034744072
0.10891296
0.03733114
0.11162812
0.04039568
0.11531134
0.04191443
0.12028457
0.044176794
0.12646214
0.044389967
0.1345262
0.045187085
0.043145556
0.14394229
0.10615936
0.011240141
0.10620428
0.01157167
0.10624251
0.013184018
0.10682743
0.013921368
0.10726709
0.015850193
0.10814247
0.017435751
0.10887627
0.019683829
0.10995109
0.022117421
0.11119611
0.024329158
0.11255816
0.027252774
0.11431956
0.029686891
0.11658601
0.032477615
0.11966372
0.034253434
0.12385455
0.036204852
0.1287748
0.036994179
0.13530703
0.037644566
0.14263234
0.037064655
0.15141542
0.036404005
0.033922993
0.16063798
0.11444035
0.011287268
0.11439924
0.011612773
0.11458458
0.012998682
0.11506588
0.013440073
0.11561164
0.015304427
0.11659054
0.016456854
0.11749187
0.0187825
0.11893141
0.020677882
0.1203114
0.022949165
0.12227189
0.025292288
0.12464838
0.027310406
0.12799027
0.029135723
0.13191498
0.030328726
0.13725247
0.030867356
0.14300643
0.03124022
0.15026523
0.030385769
0.1576633
0.029666588
0.16592298
0.028144324
0.026381204
0.17346477
0.12263494
0.011236192
0.12254477
0.01170294
0.12299189
0.012551562
0.12341871
0.013013254
0.12420625
0.014516886
0.1252148
0.015448302
0.12644138
0.017555926
0.12813309
0.018986167
0.12994124
0.021141022
0.13268223
0.02255129
0.13571912
0.024273518
0.14000623
0.024848614
0.14453874
0.02579622
0.15054144
0.024864656
0.15659082
0.025190833
0.16377318
0.023203412
0.17038623
0.023053536
0.17727044
0.021260117
0.020845561
0.18280608
0.13193452
0.011189145
0.1317862
0.01185126
0.13247584
0.011861919
0.13289846
0.012590639
0.13401472
0.013400618
0.13514511
0.014317919
0.13673576
0.01596527
0.13865094
0.017070991
0.14104165
0.018750314
0.14421966
0.019373276
0.14786469
0.020628487
0.15257592
0.02013739
0.15765062
0.020721521
0.16363655
0.018878717
0.16933916
0.019488228
0.17555528
0.016987296
0.18046829
0.018140516
0.18529177
0.016436639
0.017676828
0.18846051
0.14153654
0.011240145
0.14165795
0.011729852
0.14237835
0.011141523
0.14293292
0.012036062
0.14427704
0.012056499
0.14550393
0.013091028
0.1475156
0.013953604
0.14971688
0.01486971
0.15266452
0.015802677
0.15611037
0.015927423
0.16037694
0.016361921
0.16511508
0.015399245
0.17016641
0.015670197
0.17539477
0.013650352
0.18028905
0.014593947
0.18492827
0.012348081
0.18805187
0.015016918
0.19057977
0.013908731
0.017613281
0.19064332
0.15192123
0.011490765
0.15244912
0.011201968
0.15295159
0.010639052
0.15384498
0.011142675
0.15530266
0.01059882
0.15676503
0.011628658
0.15911173
0.011606903
0.16149961
0.012481831
0.16502791
0.012274371
0.16864726
0.012308077
0.1730696
0.011939583
0.17736273
0.011106111
0.18205079
0.010982142
0.18609561
0.0096055302
0.18966041
0.011029152
0.1919672
0.010041291
0.19303671
0.0139474
0.19309839
0.013847056
0.019953804
0.19075787
0.16327523
0.011554472
0.16401722
0.01045998
0.16448234
0.010173929
0.16594137
0.0096836494
0.16729359
0.0092465968
0.16921953
0.009702726
0.1717171
0.0091093305
0.17440036
0.0097985676
0.17812115
0.0085535791
0.18148487
0.0089443568
0.18587449
0.0075499647
0.18958182
0.0073987797
0.19341291
0.0071510567
0.19580109
0.0072173474
0.19754102
0.0092892215
0.19734572
0.010236596
0.19638401
0.01490911
0.19395154
0.01627952
0.024137453
0.18976789
0.17552998
0.011420299
0.17612336
0.0098665962
0.17679624
0.0095010461
0.17831614
0.0081637517
0.17959549
0.0079672446
0.18210149
0.0071967314
0.18443452
0.006776297
0.18761981
0.0066132734
0.19091595
0.0052574399
0.19423116
0.0056291538
0.19803414
0.0037469769
0.2005158
0.0049171239
0.20306841
0.0045984522
0.20361902
0.0066667341
0.20366131
0.009246929
0.20160269
0.012295217
0.19889408
0.017617725
0.1940316
0.021141999
0.03066247
0.18750658
0.18890461
0.010959773
0.18954957
0.0092216357
0.19062771
0.0084229143
0.19208765
0.0067038058
0.19378861
0.0062662839
0.19643914
0.0045462016
0.19875532
0.0044601215
0.20216064
0.0032079522
0.20470505
0.002713029
0.20800349
0.0023307182
0.21011246
0.0016379984
0.21145423
0.003575363
0.21220809
0.0038445923
0.21090886
0.0079659618
0.2094692
0.010686591
0.20546304
0.016301375
0.20119297
0.021887789
0.19419005
0.028144926
0.038228593
0.18662392
0.20298749
0.010436249
0.20354076
0.0086683661
0.20478056
0.0071831062
0.2061656
0.0053187739
0.20815217
0.0042797051
0.21031441
0.0023839673
0.21261428
0.0021602496
0.21558597
0.00023625968
0.21776342
0.00053558081
0.22027419
-0.00018005332
0.22089652
0.0010156731
0.22175055
0.0027213352
0.22060613
0.0049890043
0.21830411
0.010267984
0.21494668
0.014044018
0.2093944
0.02185366
0.20416354
0.027118647
0.19683404
0.035474429
0.043128668
0.19193396
0.21840364
0.0097692409
0.21935399
0.0077180112
0.22078946
0.0057476415
0.22223118
0.0038770536
0.22436158
0.0021493063
0.22616153
0.00058401309
0.22863728
-0.000315498
0.23076739
-0.0018938554
0.23239534
-0.0010923656
0.23357658
-0.0013612928
0.2333835
0.0012087557
0.2329186
0.0031862283
0.22997552
0.0079320831
0.22711057
0.013132941
0.2222628
0.018891789
0.21763676
0.026479692
0.2135662
0.031189215
0.21010676
0.038933862
0.041293835
0.2119416
0.23452832
0.0090883389
0.23549154
0.0067547923
0.23679134
0.0044478337
0.2384207
0.0022477007
0.2402907
0.00027930449
0.24194828
-0.0010735642
0.24406405
-0.0024312701
0.24490278
-0.0027325905
0.24598654
-0.0021761265
0.24589358
-0.0012683325
0.24504698
0.0020553565
0.24299309
0.0052401166
0.23950135
0.011423822
0.23639584
0.016238459
0.23252503
0.022762593
0.23128179
0.027722931
0.23090263
0.03156838
0.23485703
0.034979458
0.032561926
0.24358894
0.25278726
0.0080907577
0.25390313
0.0056389173
0.25527551
0.0030754564
0.25680443
0.00071878597
0.2582311
-0.0011473737
0.25981663
-0.0026590861
0.26093109
-0.0035457327
0.26142192
-0.0032234236
0.26192726
-0.002681468
0.26081506
-0.00015613275
0.25944188
0.0034285393
0.25660715
0.0080748489
0.25401282
0.014018154
0.25199956
0.018251715
0.25153295
0.023229203
0.25385365
0.025402228
0.25819343
0.027228603
0.26775614
0.025416751
0.022752709
0.27756535
0.27170979
0.0069436922
0.27293897
0.0044097343
0.27427899
0.0017354398
0.27534523
-0.00034745707
0.27632
-0.002122142
0.2771215
-0.0034605867
0.27722156
-0.0036457892
0.27719122
-0.0031930845
0.27622276
-0.001713012
0.27471909
0.0013475431
0.27295091
0.0051967148
0.27102211
0.010003649
0.27085496
0.014185308
0.27186737
0.0172393
0.27532953
0.01976704
0.28083422
0.019897543
0.28883493
0.01922789
0.29789229
0.016359395
0.016685779
0.30395922
0.29277707
0.0055783789
0.29406864
0.003118157
0.2951877
0.00061638682
0.29602955
-0.0011893061
0.29665055
-0.0027431499
0.296934
-0.0037440359
0.29706783
-0.0037796196
0.29678043
-0.002905681
0.29564075
-0.00057332975
0.29435392
0.0026343687
0.2929873
0.0065633391
0.29274479
0.010246157
0.29419906
0.012731039
0.297006
0.014432361
0.30201595
0.014757091
0.30840313
0.013510363
0.31550306
0.012127958
0.32052955
0.011332899
0.014367881
0.32284745
0.31514691
0.004062477
0.31651276
0.0017523022
0.31722953
-0.00010038445
0.31732255
-0.0012823239
0.31694308
-0.0023636757
0.31613789
-0.0029388485
0.31502535
-0.0026670801
0.3137399
-0.0016202382
0.31268476
0.00048181451
0.31224888
0.0030702465
0.31307689
0.0057353284
0.31573118
0.0075918658
0.31987441
0.0085878085
0.32532609
0.0089806857
0.3315817
0.008501478
0.33715709
0.0079349777
0.34101227
0.008272773
0.3423465
0.0099986752
0.014210218
0.34250416
0.34012037
0.0022227101
0.34140214
0.00047053213
0.34176821
-0.00046645592
0.34140936
-0.00092347098
0.34051918
-0.0014735012
0.33959038
-0.00201005
0.33885933
-0.0019360315
0.33835386
-0.0011147615
0.33830422
0.00053145582
0.3392637
0.0021107654
0.34119947
0.0037995537
0.34432724
0.0044640976
0.34771404
0.0052010083
0.35166438
0.0050303495
0.35468199
0.0054838628
0.35715974
0.0054572289
0.35894963
0.0064828869
0.36126663
0.0076816697
0.0085595674
0.36691728
0.36644568
0.36691621
0.36644975
0.36552628
0.36405278
0.36204273
0.3601067
0.35899194
0.35952339
0.36163416
0.36543371
0.36989781
0.37509882
0.38012917
0.38561303
0.39107026
0.39755315
0.40523482
0.41379438
0.058586392
0.065136089
-0.059861999
0.052784655
0.06764051
-0.061838774
0.046844449
0.068094947
-0.062154741
0.040251264
0.06993268
-0.063339494
0.033509967
0.06999701
-0.063255713
0.025710575
0.069077038
-0.061277646
0.017145925
0.068313177
-0.059748527
0.010081478
0.059018382
-0.051953935
0.00024584081
0.042981439
-0.033145803
-0.016239968
0.041994735
-0.025508926
-0.034812382
0.049455085
-0.030882671
-0.051694826
0.054539924
-0.037657479
-0.068377962
0.053627553
-0.036944417
-0.085527959
0.053916657
-0.03676666
-0.099710035
0.052691295
-0.038509219
-0.11024467
0.050018096
-0.039483464
-0.11866448
0.048317799
-0.039897988
-0.12432352
0.047162747
-0.041503711
0.045901168
-0.12788087
-0.042343811
0.057531245
0.071441615
0.050873942
0.074297813
0.043536185
0.075432704
0.035731381
0.077737483
0.027232101
0.07849629
0.017431298
0.078877841
0.0091124727
0.076632003
0.0023814203
0.065749434
-0.013502271
0.058865131
-0.035515736
0.064008201
-0.054462772
0.068402121
-0.070767978
0.070845129
-0.087014807
0.069874382
-0.10225357
0.069155423
-0.11391058
0.064348299
-0.12245134
0.058558858
-0.12849154
0.054357999
-0.13187574
0.050546944
0.047659509
-0.13363408
0.05786112
0.078811949
0.050222779
0.081936154
0.041080183
0.084575301
0.031146756
0.087670911
0.01985
0.089793046
0.0068124195
0.091915421
-0.0042209326
0.087665355
-0.01601853
0.077547032
-0.037181948
0.080028549
-0.061669196
0.088495449
-0.082193851
0.088926776
-0.10022636
0.088877636
-0.11608868
0.085736701
-0.12831762
0.081384361
-0.13610826
0.07213894
-0.14094386
0.063394462
-0.14314944
0.056563577
-0.14258125
0.049978752
0.045414694
-0.14033643
0.060079083
0.086767952
0.051248528
0.090766709
0.040942942
0.094880887
0.029280826
0.099333027
0.015420146
0.10365373
-0.0013221265
0.10865769
-0.02099567
0.1073389
-0.041400055
0.097951417
-0.062859502
0.101488
-0.084856895
0.11049284
-0.10587409
0.10994397
-0.12452134
0.10752489
-0.13999464
0.10121
-0.15204271
0.09343243
-0.16061463
0.080710855
-0.16517693
0.067956769
-0.16572262
0.057109266
-0.16324469
0.04750082
0.040220499
-0.1580505
0.066507362
0.09464962
0.057634443
0.099639629
0.047660475
0.10485486
0.036223416
0.11077008
0.022818361
0.11705878
0.0067698559
0.1247062
-0.017074977
0.13118373
-0.045891179
0.12676762
-0.069833513
0.12543033
-0.08953814
0.13019747
-0.11005247
0.1304583
-0.12851527
0.12598769
-0.14466137
0.1173561
-0.15799903
0.1067701
-0.16826207
0.090973894
-0.17410216
0.073796859
-0.17482277
0.057829875
-0.17164391
0.044321959
0.034154573
-0.16557799
0.079738838
0.10137249
0.072729523
0.10664894
0.065340431
0.11224395
0.057359698
0.11875082
0.048598032
0.12582045
0.039032138
0.13427209
0.025919942
0.14429593
0.0022568287
0.15043073
-0.024448079
0.15213524
-0.047311586
0.15306097
-0.068366053
0.15151277
-0.087185443
0.14480708
-0.10313408
0.13330473
-0.11433392
0.11796994
-0.12170243
0.0983424
-0.12463651
0.076730938
-0.12376647
0.05695984
-0.12118854
0.041744031
0.031532083
-0.11856605
0.099436805
0.10624254
0.09518247
0.11090328
0.090994721
0.1164317
0.08765198
0.12209356
0.084965812
0.12850662
0.083863063
0.13537484
0.084972066
0.14318693
0.084297468
0.15110533
0.080707073
0.15572563
0.075613963
0.15815409
0.069987105
0.15713963
0.063157068
0.15163712
0.055245604
0.1412162
0.04696028
0.12625527
0.038087075
0.10721561
0.028280459
0.086537554
0.017695163
0.067545136
0.0064864859
0.052952708
0.0431038
-0.0050852307
0.12158973
0.10908613
0.11927365
0.11321936
0.11778236
0.11792298
0.11775169
0.12212423
0.11898978
0.12726853
0.12235216
0.13201246
0.12838737
0.13715171
0.13650244
0.14299026
0.14529634
0.14693173
0.15385594
0.14959448
0.16143155
0.14956402
0.16666485
0.14640381
0.16847212
0.13940893
0.166432
0.12829539
0.1602836
0.11336401
0.1489167
0.097904449
0.13300008
0.083461757
0.11421906
0.071733727
0.063279747
0.094043115
0.14196061
0.11106781
0.14040536
0.11477462
0.14005811
0.11827023
0.14092946
0.12125289
0.14362934
0.12456864
0.14750084
0.12814096
0.15318201
0.13147054
0.16144326
0.13472901
0.17161584
0.13675916
0.18283117
0.13837915
0.19333583
0.13905935
0.20296085
0.1367788
0.20996476
0.13240502
0.21293186
0.12532829
0.20990375
0.11639212
0.20162417
0.10618403
0.1885841
0.096501828
0.17238729
0.087930544
0.080902894
0.15476414
0.15847511
0.11323069
0.15735172
0.115898
0.15688865
0.1187333
0.15760696
0.12053457
0.15957244
0.12260316
0.16248537
0.12522804
0.16690321
0.1270527
0.17333929
0.12829294
0.18069401
0.12940444