/*--------------------------------*- C++ -*----------------------------------*\
  =========                 |
  \\      /  F ield         | OpenFOAM: The Open Source CFD Toolbox
   \\    /   O peration     | Website:  https://openfoam.org
    \\  /    A nd           | Version:  11
     \\/     M anipulation  |
\*---------------------------------------------------------------------------*/
FoamFile
{
    format      ascii;
    class       volVectorField;
    location    "4.5";
    object      U;
}
// * * * * * * * * * * * * * * * * * * * * * * * * * * * * * * * * * * * * * //

dimensions      [0 1 -1 0 0 0 0];

internalField   nonuniform List<vector> 
4455
(
(99.971051 -0.010166291 0)
(99.948073 0.10110816 -1.6493819e-18)
(99.693922 0.25540936 5.6776441e-18)
(99.560935 0.75960836 2.5793589e-20)
(98.880473 1.2668934 5.3765404e-18)
(98.511251 2.1753861 -2.0293227e-17)
(97.576628 3.2625733 9.0378604e-18)
(96.511338 4.75992 0)
(94.259414 7.2979072 -5.5866569e-17)
(99.969879 0.017973328 -1.0780613e-17)
(99.979991 0.19449216 1.0510916e-17)
(99.736895 0.39026654 -1.2954682e-17)
(99.498528 0.93521176 2.1640483e-17)
(98.982563 1.5180794 -4.1586574e-17)
(98.451527 2.4210524 4.5460295e-17)
(97.656071 3.4845421 -4.3650956e-18)
(96.518083 5.0411949 6.3674755e-18)
(93.913047 7.0461415 2.4300683e-16)
(99.996912 0.037986617 -1.1298345e-17)
(99.98209 0.25571639 1.4293359e-17)
(99.777635 0.53541084 1.2690515e-17)
(99.485482 1.1586477 -1.2638967e-17)
(99.03141 1.7125765 5.5500115e-17)
(98.567579 2.792317 -3.1355262e-17)
(97.580912 3.8096542 4.0331883e-18)
(96.583092 5.6333161 -8.9921659e-17)
(93.762408 7.3347159 -1.7223586e-16)
(100.0243 0.058767454 2.9883989e-20)
(99.984423 0.34559386 -1.5882587e-18)
(99.801896 0.65197283 3.0127456e-17)
(99.556471 1.3290206 4.1286445e-18)
(99.021592 1.8983119 9.2057016e-21)
(98.716921 3.1087876 -6.014689e-18)
(97.728803 4.2204819 6.6906439e-17)
(96.5111 6.3398772 1.7983131e-16)
(93.428081 8.1872699 1.4452939e-16)
(100.03124 0.070702725 2.1855932e-17)
(100.04211 0.41479191 -2.4474671e-17)
(99.768442 0.74245326 3.1190016e-17)
(99.631534 1.4751109 2.4621978e-20)
(99.132533 2.1305652 -3.8035031e-17)
(98.727672 3.3796293 -1.1674476e-17)
(97.887504 4.4756456 -5.2735201e-17)
(96.752245 6.8999289 -8.4467769e-17)
(93.131593 8.5515455 -4.2725635e-16)
(100.03524 0.080093971 0)
(100.07055 0.47642986 0)
(99.813805 0.82348049 -5.4366134e-17)
(99.64022 1.6029443 -6.2588914e-17)
(99.266878 2.3073144 0)
(98.910195 3.6912848 -8.4349422e-17)
(97.944221 4.9310457 -7.1570644e-18)
(96.715449 7.6474931 -5.129196e-18)
(92.681777 9.3195059 5.2878307e-16)
(100.0488 0.088433259 0)
(100.06571 0.50546783 -1.4728639e-18)
(99.877099 0.8966381 1.6583206e-18)
(99.717915 1.690769 6.1181398e-17)
(99.311424 2.4614608 -4.5117374e-18)
(99.07572 3.8529261 1.7959193e-16)
(98.19041 5.1480789 0)
(96.963139 8.3431668 0)
(92.440518 9.732492 2.4447017e-16)
(100.07045 0.096754629 4.1315145e-17)
(100.07163 0.53321733 0)
(99.910856 0.94199191 0)
(99.781238 1.8233038 0)
(99.457748 2.6154131 0)
(99.181179 4.12729 -8.9634075e-17)
(98.306379 5.5391321 -9.5964649e-17)
(97.056442 9.0562016 1.3772173e-16)
(92.06944 10.519631 2.8266297e-18)
(100.07889 0.098288376 -4.0685486e-17)
(100.09202 0.54087793 -1.4170626e-18)
(99.922522 0.96260471 -1.6027155e-18)
(99.892249 1.8119805 3.6295769e-18)
(99.541547 2.7495479 1.4001589e-16)
(99.430269 4.2289894 1.5782707e-16)
(98.569477 5.6995498 3.0539393e-16)
(97.372263 9.7647198 -1.351691e-16)
(91.964612 10.896622 -4.1979512e-16)
(100.08194 0.10011168 0)
(100.08562 0.094707037 7.5396342e-17)
(100.07552 0.085710761 -7.4789083e-17)
(100.07377 0.076709615 7.1756947e-17)
(100.07149 0.067495664 -7.0129097e-17)
(100.05902 0.06202614 1.4002527e-16)
(100.04751 0.04721451 -1.3594308e-16)
(100.03267 0.031835173 0)
(100.01417 0.0016239152 0)
(100.10777 0.5482778 0)
(100.10749 0.53253094 1.304391e-18)
(100.14257 0.51453328 0)
(100.13682 0.47901563 3.719872e-18)
(100.1537 0.43246397 7.5982205e-17)
(100.16304 0.38395878 -2.2696756e-16)
(100.1553 0.32976285 1.4691067e-16)
(100.17229 0.29326737 -2.2373836e-18)
(100.14588 0.20252994 1.4131651e-16)
(99.97827 0.99237362 9.5075956e-17)
(100.02287 1.0108474 -1.8746145e-16)
(100.05867 1.0038974 1.7888208e-16)
(100.13878 0.98888927 -5.6453531e-18)
(100.15717 0.93879304 -8.4381278e-17)
(100.23801 0.88893921 -2.5649797e-18)
(100.24184 0.80830039 0)
(100.29966 0.74563147 4.8414946e-18)
(100.2509 0.57290788 -2.3548657e-18)
(99.941008 1.9289745 9.9305191e-17)
(100.04704 1.9676009 -2.0175299e-16)
(100.10187 1.9969078 1.9187701e-16)
(100.20505 2.0317161 -9.2959361e-17)
(100.25426 1.9945665 -5.8137708e-18)
(100.35251 1.9989719 2.8035435e-18)
(100.40471 1.9552779 0)
(100.56757 1.9312041 -2.6284778e-18)
(100.5551 1.7687961 1.5801588e-16)
(99.6871 2.8381389 -1.1244826e-16)
(99.833917 3.0579095 0)
(99.960489 3.0829208 -1.0379635e-16)
(100.15514 3.2088482 1.0702902e-16)
(100.2607 3.1518972 -9.6548162e-17)
(100.46556 3.1610516 9.9760065e-17)
(100.52966 3.0763885 0)
(100.72557 3.0316783 0)
(100.69201 2.8151642 5.6166171e-18)
(99.487006 4.4796618 -1.376816e-16)
(99.818149 4.7463901 -1.3140031e-16)
(99.897958 5.0006677 1.2631031e-16)
(100.23108 5.2154089 1.2075548e-16)
(100.33125 5.4344534 -1.1641074e-16)
(100.67077 5.6186732 0)
(100.79571 5.7503948 2.141609e-16)
(101.21224 5.8781179 -1.0486035e-18)
(101.23613 5.745041 -3.9672922e-16)
(98.73608 6.0079973 -1.6171972e-16)
(99.08521 6.4035721 0)
(99.329976 6.6472072 0)
(99.710035 6.9877719 4.3703336e-18)
(99.987166 7.117296 0)
(100.3454 7.3911205 0)
(100.62483 7.4081079 0)
(101.00118 7.6551567 0)
(101.16977 7.504854 0)
(97.52721 10.508782 6.3992223e-18)
(98.104065 11.861033 0)
(98.454056 12.414478 5.6404751e-18)
(99.280624 13.256832 -1.0360539e-17)
(99.738108 13.415162 -1.5334422e-16)
(100.53535 14.120423 -1.4422966e-16)
(101.05591 13.978632 2.7806536e-16)
(101.89264 14.459152 2.6644235e-16)
(102.29951 14.056554 -2.5208506e-16)
(91.849977 12.06241 7.8497565e-16)
(92.880382 12.738214 -4.8997539e-16)
(94.453117 13.354517 4.3667715e-16)
(96.432616 14.193993 -4.2030798e-16)
(97.814115 15.038509 -5.8011952e-16)
(99.244255 15.511063 1.0817407e-15)
(100.75112 15.825231 -6.814989e-16)
(102.02821 16.4038 -3.1917524e-16)
(103.02866 17.139039 3.0031181e-16)
(100.01518 -0.020617073 -1.8582204e-19)
(100.04689 -0.020880636 1.9115152e-16)
(100.09452 -0.0090380667 -1.1699499e-19)
(100.151 0.0076399397 -1.9250821e-16)
(100.21691 0.028105935 1.881521e-19)
(100.29684 0.052315353 1.9355548e-16)
(100.39306 0.079786748 -1.9449854e-16)
(100.50907 0.10977695 -1.8964519e-19)
(100.65848 0.15221512 -9.7741948e-17)
(100.22651 0.25138597 -2.0289573e-16)
(100.25698 0.37205441 2.0446085e-16)
(100.36027 0.40278561 -2.0452757e-16)
(100.40576 0.53351638 0)
(100.53821 0.55018841 2.0608025e-16)
(100.62552 0.70975567 1.0681203e-19)
(100.81841 0.70971046 2.5349351e-19)
(100.95795 0.91339334 -2.0721248e-16)
(101.21063 0.88606639 1.0414569e-16)
(100.34771 0.62094057 2.173322e-16)
(100.38668 0.77356508 -2.1786844e-16)
(100.57773 0.8300602 -2.1933873e-16)
(100.64919 1.0726088 2.1999291e-16)
(100.91508 1.1360594 -2.2163043e-16)
(101.00531 1.4246097 2.2092019e-16)
(101.30587 1.4866109 -2.2285869e-16)
(101.41776 1.8097931 -1.8538877e-20)
(101.76224 1.867343 2.2308741e-16)
(100.81057 1.9605311 -2.3152599e-16)
(100.83774 2.3161535 -9.1250523e-19)
(101.08982 2.4756571 9.1865364e-19)
(101.09317 2.8107086 0)
(101.36345 2.949265 -2.4681066e-21)
(101.42481 3.3280343 -2.3512375e-16)
(101.74466 3.4476879 2.3905742e-16)
(101.87251 3.8639528 9.3176688e-19)
(102.24668 3.9528329 9.3428219e-19)
(100.94893 2.9623769 -9.8063294e-19)
(101.00202 3.3177251 -2.532154e-16)
(101.34427 3.4443225 -5.3659277e-19)
(101.46068 3.8903071 2.5545841e-16)
(101.88828 4.014843 2.5670048e-16)
(102.01674 4.4898643 -2.5797486e-16)
(102.47219 4.5896367 -1.0017703e-18)
(102.63446 5.0695605 -1.00458e-18)
(103.1116 5.139608 -1.0073005e-18)
(101.65123 6.0932426 2.7231126e-16)
(101.74825 6.7030556 0)
(102.07551 6.9422093 0)
(102.12839 7.4435536 2.7362142e-16)
(102.47831 7.6661448 -2.7730312e-16)
(102.58097 8.1542633 -2.7777824e-16)
(102.98635 8.3832906 5.5577419e-16)
(103.1519 8.8926282 -7.3863046e-19)
(103.59954 9.1159009 -5.5922979e-16)
(101.5896 7.7746571 -1.1720776e-18)
(101.92133 8.2589535 0)
(102.39733 8.5064068 1.1759678e-18)
(102.83711 8.9984453 3.0604548e-16)
(103.37409 9.2342525 -3.0786654e-16)
(103.76406 9.6648599 3.0754887e-16)
(104.26597 9.8112819 -3.0821891e-16)
(104.64106 10.184255 -1.1863304e-18)
(105.13666 10.233554 3.0953389e-16)
(102.93123 14.580242 -3.2322716e-16)
(103.37808 15.068611 3.277514e-16)
(103.87322 15.397125 -3.2865094e-16)
(104.27997 15.735828 3.2695325e-16)
(104.74127 15.977387 -3.2471e-16)
(105.14495 16.232435 5.3145016e-19)
(105.64157 16.373227 3.2859882e-16)
(106.00652 16.445647 2.5738832e-18)
(106.4459 16.501765 1.6364545e-16)
(103.96467 18.023011 0)
(104.66068 18.577165 -3.6279066e-16)
(105.74438 18.319326 5.4073247e-18)
(106.51602 17.789127 6.3385158e-18)
(107.64631 17.163041 7.1411131e-16)
(108.20844 16.4777 -3.5609812e-16)
(109.51951 15.889014 -3.5360982e-16)
(110.10002 15.007466 3.5503019e-16)
(111.24066 13.978682 1.7923459e-16)
(111.47122 12.697579 -2.0935772e-16)
(112.07419 11.393067 0)
(111.84079 10.651658 2.1199804e-16)
(111.83614 9.9762147 -2.1169094e-16)
(111.08804 9.4178763 0)
(110.76881 8.6720243 0)
(109.67364 7.9129827 0)
(109.14993 7.2134885 -2.3115623e-16)
(107.78573 6.6497967 2.3115759e-16)
(106.68104 16.435412 -1.8638565e-16)
(107.05462 16.325912 0)
(107.2359 16.252613 0)
(107.46758 16.101555 0)
(107.56905 15.964269 0)
(107.66803 15.787394 0)
(107.60091 15.653372 0)
(107.50812 15.522469 1.8793339e-16)
(107.22298 15.410827 -3.7739257e-16)
(105.44914 10.533514 -6.0401532e-19)
(105.88742 10.809214 -3.397102e-16)
(106.15583 11.025761 0)
(106.53509 11.246672 -1.6932466e-16)
(106.76331 11.419799 1.6932467e-16)
(107.08904 11.612155 0)
(107.23098 11.739201 0)
(107.46962 11.906455 0)
(107.4609 12.080524 0)
(103.77087 9.5946038 3.0050794e-16)
(104.24892 9.892706 0)
(104.43882 10.354017 1.4901222e-16)
(104.93819 10.641455 -2.976249e-16)
(105.134 11.080979 1.4861111e-16)
(105.65063 11.342973 0)
(105.84278 11.756884 0)
(106.35694 11.983783 0)
(106.50814 12.396902 1.4701682e-16)
(103.2573 5.6406541 0)
(103.77997 5.7753893 2.7199832e-16)
(103.96203 6.3431661 -4.0773334e-16)
(104.53686 6.5002279 1.356771e-16)
(104.69065 7.089016 1.3496196e-16)
(105.29837 7.2633041 -3.4918762e-19)
(105.45186 7.8885283 -2.6889783e-16)
(106.06159 8.0704805 2.6819773e-16)
(106.2338 8.7259584 -1.3392044e-16)
(102.38069 4.376546 0)
(102.83367 4.4885045 1.232472e-16)
(103.00849 4.8473658 -1.2326595e-16)
(103.46325 5.0399499 0)
(103.75556 5.3623547 -2.4433302e-16)
(104.19559 5.5908602 2.4433302e-16)
(104.60564 5.9165317 1.2133185e-16)
(104.96001 6.1989837 -2.4221939e-16)
(105.56767 6.4728765 1.208875e-16)
(101.8992 2.2463007 0)
(102.28932 2.3116751 0)
(102.4971 2.7287043 0)
(102.89057 2.8310324 -1.1329373e-16)
(103.14292 3.2013373 2.2623604e-16)
(103.64183 3.3530294 -2.2552953e-16)
(103.84401 3.71558 1.1254768e-16)
(104.43527 3.8679474 -1.1172995e-16)
(104.7058 4.2844115 2.2308599e-16)
(101.3898 1.121184 -2.110154e-16)
(101.70134 1.0800387 2.604038e-19)
(101.92651 1.3595153 1.0516052e-16)
(102.28587 1.3054414 -1.0460387e-16)
(102.60384 1.5832698 1.0460524e-16)
(102.98646 1.6121271 0)
(103.35737 1.8097732 1.0351157e-16)
(103.86346 1.874652 -2.0660209e-16)
(104.22652 2.0641427 1.0309051e-16)
(100.75001 0.21022913 2.0011571e-19)
(100.94644 0.22322768 9.8870368e-17)
(101.17919 0.35577343 9.841375e-17)
(101.42464 0.39949462 -9.8413759e-17)
(101.68389 0.5041023 0)
(101.97133 0.54189375 0)
(102.27687 0.66584946 -9.7356176e-17)
(102.64115 0.6917207 1.9437643e-16)
(103.01167 0.816289 -9.7020226e-17)
(103.4811 0.88192961 0)
(103.91368 0.99649714 -9.5756943e-17)
(104.49196 1.0759711 5.0787671e-19)
(104.98357 1.1992167 5.4978582e-19)
(105.65628 1.2884911 6.0185991e-19)
(106.23198 1.4144982 9.4097413e-17)
(106.99454 1.509084 9.2718612e-17)
(107.66469 1.643325 -9.2718617e-17)
(108.54583 1.7484438 0)
(104.81985 2.1689912 0)
(105.24179 2.3412703 0)
(105.93557 2.4055534 -1.010268e-16)
(106.37946 2.6856467 6.2730612e-19)
(107.17378 2.7420325 6.7421117e-19)
(107.67758 2.9654973 9.9725254e-17)
(108.56922 3.0906533 9.820522e-17)
(109.09638 3.3733484 -9.82052e-17)
(110.11784 3.4346617 0)
(105.31374 4.39003 -1.1131687e-16)
(105.63149 4.8591509 0)
(106.33572 5.0106851 0)
(106.64847 5.4416281 -1.0916826e-16)
(107.47397 5.6651478 2.1768664e-16)
(107.82075 6.0996195 -6.8958196e-19)
(108.70139 6.3856912 -7.4134564e-19)
(109.12505 6.7678849 -1.0710584e-16)
(110.06865 7.179613 0)
(105.81553 6.8312706 -1.1994527e-16)
(106.52405 7.1559717 1.1994524e-16)
(106.84181 7.4396415 0)
(107.56176 7.9037921 0)
(107.93282 8.1653648 1.1771724e-16)
(108.69437 8.6738421 -1.1771722e-16)
(109.11319 8.9323873 1.1635112e-16)
(109.90001 9.5491919 -5.8562925e-17)
(110.38778 9.7941195 -5.7793103e-17)
(106.87124 8.9246296 -1.3322271e-16)
(107.02819 9.5907172 1.3322167e-16)
(107.66827 9.7897514 0)
(107.87435 10.480181 0)
(108.44202 10.676752 0)
(108.72943 11.405433 0)
(109.23421 11.654025 0)
(109.52335 12.427911 0)
(110.12278 12.71892 0)
(106.98156 12.616603 -1.4701579e-16)
(107.08096 13.008007 1.4675173e-16)
(107.54335 13.224261 -1.467507e-16)
(107.60117 13.63812 1.4662103e-16)
(108.03717 13.871396 -1.466365e-16)
(108.06258 14.382141 0)
(108.44864 14.666032 0)
(108.49659 15.298398 0)
(108.85204 15.681174 0)
(107.62046 12.318044 0)
(107.52951 12.513846 -1.7132985e-16)
(107.64038 12.799748 1.7125932e-16)
(107.44031 13.040573 0)
(107.53984 13.425719 1.7343368e-16)
(107.22219 13.75261 -1.7343588e-16)
(107.34204 14.285704 0)
(106.86699 14.775652 8.8027516e-17)
(107.0284 15.459843 -1.7656164e-16)
(106.97833 15.414717 1.8958166e-16)
(106.4561 15.421679 1.9340987e-16)
(106.14486 15.51372 -1.9351061e-16)
(105.50206 15.624747 1.9801502e-16)
(105.14931 15.840609 -3.9833952e-16)
(104.34515 16.08712 4.0338256e-16)
(103.92386 16.421752 -4.0867613e-16)
(102.92757 16.858981 2.056799e-16)
(102.45597 17.397194 0)
(106.89407 6.4709329 -2.4076824e-16)
(105.39863 6.2821538 2.407685e-16)
(104.63571 6.3145213 0)
(103.15007 6.1582778 0)
(102.34585 6.2430232 0)
(100.75405 6.0374009 0)
(99.905085 6.141291 0)
(98.1693 6.1223908 -1.377956e-16)
(97.292378 6.8813535 1.3776706e-16)
(95.181294 7.46131 1.4305619e-16)
(101.24087 18.234602 0)
(106.44535 16.259391 8.8495791e-17)
(108.87053 16.497548 0)
(110.30621 13.553494 0)
(111.24236 10.455066 0)
(110.5806 7.5336553 5.2236578e-17)
(110.72957 3.7660816 4.7698057e-17)
(109.31118 1.8894217 4.5044289e-17)
(94.322319 8.9089644 -1.4310717e-16)
(100.73291 19.043474 0)
(106.65483 17.101788 0)
(109.25253 16.981656 7.3090399e-17)
(111.05511 13.887521 0)
(111.7279 10.78957 -5.6405325e-17)
(111.54387 8.0112122 -1.0395327e-16)
(111.8153 3.896159 -9.4843994e-17)
(110.31648 2.007075 -8.9561507e-17)
(91.978044 9.6092364 0)
(99.454684 20.285784 0)
(105.99238 18.211426 8.9749118e-17)
(109.35719 18.056142 -7.3092938e-17)
(111.22358 14.826831 0)
(112.72216 11.457814 5.6405315e-17)
(112.26712 8.3280782 5.1716704e-17)
(112.53227 4.2131081 4.7145935e-17)
(111.19858 2.152018 4.4517209e-17)
(91.157931 11.025992 1.5099993e-16)
(99.065131 21.222841 0)
(106.24022 19.125654 -1.7985609e-16)
(109.72162 18.629441 0)
(112.05899 15.213777 0)
(113.23088 11.873348 -5.522767e-17)
(113.12034 8.9627707 -5.0529039e-17)
(113.71741 4.3637761 0)
(112.32106 2.2750989 -4.3302818e-17)
(88.861521 12.23636 -1.5099957e-16)
(97.769225 22.615709 -1.117599e-16)
(105.6276 20.469458 9.0080131e-17)
(110.01153 19.906 0)
(112.28116 16.327217 0)
(114.33134 12.611491 5.5227653e-17)
(114.15835 9.2000315 5.052902e-17)
(114.54727 4.7361958 0)
(113.33519 2.428787 4.3302812e-17)
(88.012063 13.691186 0)
(97.456662 23.675254 1.1172435e-16)
(105.99152 21.474893 -9.0337626e-17)
(110.4424 20.561151 0)
(113.17678 16.739861 0)
(114.90917 13.069197 -5.3779774e-17)
(114.92233 9.890386 -4.9107967e-17)
(115.81762 4.8643666 0)
(114.58076 2.5643367 -4.1846322e-17)
(85.653206 15.840208 0)
(96.130254 25.341021 0)
(105.40234 23.054809 9.0337525e-17)
(110.85658 22.029784 -3.5699479e-17)
(113.59027 18.049589 -3.0925906e-17)
(116.16769 13.862296 8.0247054e-17)
(116.21186 10.194617 7.3252739e-17)
(116.77456 5.3429047 0)
(115.72694 2.7209501 6.2356022e-17)
(84.918199 18.637477 0)
(96.054975 26.657272 -5.6786595e-17)
(105.88556 24.159805 0)
(111.39166 22.756857 3.5690124e-17)
(114.43194 18.487913 3.0918529e-17)
(116.80454 14.397134 -4.6802777e-19)
(116.9838 10.854229 -4.7840264e-17)
(118.13162 5.4237119 0)
(117.1077 2.8460185 -2.0509704e-17)
(82.865026 22.636406 -7.9976195e-17)
(94.887175 29.014587 5.6772351e-17)
(105.36787 26.243342 0)
(112.01844 24.474273 0)
(115.26156 19.969771 0)
(118.24368 15.215562 -5.1486353e-17)
(118.4923 11.237954 4.9706542e-19)
(119.2411 5.9399667 0)
(118.3731 2.9968168 0)
(120.0653 3.1344877 0)
(120.63656 6.0582253 0)
(119.34382 11.832873 -8.7370935e-19)
(118.94728 15.867819 2.6734773e-17)
(115.97115 20.471039 0)
(112.66002 25.164703 -4.539098e-18)
(106.24357 27.25387 -6.8069492e-19)
(95.413642 30.635522 -4.7232967e-17)
(82.235691 26.22068 1.4873831e-16)
(121.65362 3.2253718 -9.3524526e-18)
(121.94964 6.3880731 -1.2857897e-18)
(121.12831 12.037962 1.1670356e-17)
(120.58485 16.290494 -7.5479529e-20)
(117.47209 21.50247 -1.2598774e-17)
(113.6398 26.783148 1.662879e-17)
(106.36607 29.602177 -5.723655e-18)
(94.909823 33.739022 6.1092141e-17)
(82.315692 32.097687 -7.5554233e-17)
(123.25653 3.2897221 1.8571993e-17)
(123.37321 6.4935326 0)
(122.098 12.607968 2.2073725e-17)
(121.43024 17.041748 -1.1968259e-17)
(118.35394 22.135578 1.2712715e-17)
(114.68945 27.374228 -3.1329563e-17)
(108.09252 30.436521 -2.6812466e-17)
(96.966141 35.023323 1.3851264e-17)
(85.268813 34.427826 1.8927374e-18)
(124.94304 3.3448042 -9.2300213e-18)
(124.92958 6.7267813 -1.2346213e-18)
(124.10137 12.791225 -9.6689173e-18)
(123.31637 17.364598 1.3689124e-17)
(120.2511 23.211033 5.245532e-18)
(116.13051 29.100983 1.6732152e-17)
(108.8351 32.989103 2.149901e-17)
(97.376995 38.050964 7.3808548e-18)
(85.993839 38.918876 -8.4524136e-18)
(126.72351 3.3965169 2.1430633e-18)
(126.42361 6.8525501 -2.3159646e-18)
(125.26098 13.282196 -1.3319707e-18)
(124.31803 18.062091 4.3076488e-18)
(121.43371 23.559937 -5.2640358e-18)
(117.46928 29.502098 -5.9517945e-18)
(111.01845 33.567819 -5.5786478e-18)
(99.889465 39.04716 6.2991228e-18)
(88.695178 40.472105 -1.0108649e-17)
(128.57628 3.4414763 -2.167793e-18)
(128.18661 7.023832 2.3438112e-18)
(127.38721 13.391314 -1.2948135e-18)
(126.46507 18.382607 -1.2566839e-20)
(123.49766 24.812708 -1.6236163e-18)
(119.20782 31.237916 4.0500441e-18)
(112.02722 36.124231 -5.4956564e-18)
(100.56696 42.022947 6.220692e-18)
(89.239278 44.324167 0)
(130.48044 3.4700244 -1.9710404e-18)
(129.74084 7.1464867 -1.1259049e-18)
(128.70547 13.802988 -1.1932108e-18)
(127.60714 18.846875 -1.4380934e-18)
(124.96073 24.823183 -1.6237917e-18)
(120.76402 31.432138 4.1942697e-18)
(114.46575 36.447669 -1.0087022e-17)
(103.19591 42.73362 1.3267414e-17)
(91.976689 45.347158 -8.2610283e-18)
(132.42354 3.474955 5.7408005e-18)
(131.69649 7.2591759 4.1265773e-18)
(130.97187 13.816017 5.8555954e-18)
(129.9689 19.164622 6.476645e-18)
(127.15198 26.133193 4.8934782e-18)
(122.78286 33.131431 -1.8202178e-18)
(115.7693 38.998771 -5.275788e-18)
(104.24489 45.671465 -1.0279894e-18)
(92.972732 48.776081 -9.2059432e-18)
(134.40476 3.4499602 -1.0861423e-17)
(133.26175 7.3637579 -4.1780336e-18)
(132.41277 14.135768 -1.4629347e-17)
(131.23198 19.399249 -3.9855209e-18)
(128.78316 25.863552 1.0221334e-17)
(124.52761 33.085278 5.6963898e-18)
(118.36157 39.028905 -2.8103918e-17)
(107.06838 46.051618 5.8611728e-18)
(95.950766 49.530075 1.7828387e-17)
(97.030667 52.759889 -1.7278098e-17)
(108.48031 48.920185 6.7566393e-18)
(120.06327 41.539932 4.1011417e-17)
(126.87831 34.694689 -5.4662953e-18)
(131.26753 27.022095 2.1234376e-18)
(133.77255 19.63183 6.8896246e-18)
(134.74875 13.90603 1.0011421e-17)
(135.36919 7.2928646 -4.7394473e-19)
(136.4129 3.3931149 1.4204547e-17)
(99.956584 53.302922 6.6395518e-17)
(111.46366 48.993495 5.4989925e-18)
(122.80586 41.250455 -5.7014104e-17)
(128.79289 34.356409 -1.5934341e-18)
(132.91666 26.612881 -9.9725341e-18)
(135.12728 19.625327 -8.3651026e-18)
(136.29721 14.129047 -1.6619022e-17)
(136.90638 7.4137633 0)
(138.43425 3.3008255 -6.6913974e-18)
(101.23511 56.39553 -8.4969398e-17)
(113.23101 51.815031 5.581118e-17)
(124.92521 43.680797 3.0171398e-17)
(131.46479 35.841046 -1.4987714e-18)
(135.73087 27.457747 1.9810786e-17)
(137.8384 19.735026 6.6075266e-20)
(138.74243 13.710464 3.2238912e-18)
(139.09351 7.2014786 1.2048714e-17)
(140.44661 3.1713485 1.1244661e-17)
(104.24862 56.622251 -1.6262176e-17)
(116.39677 51.593634 8.0082644e-18)
(127.77865 43.022437 -4.344344e-18)
(133.52811 35.125595 0)
(137.40435 26.857215 -2.0044191e-17)
(139.24123 19.457888 0)
(140.26318 13.77201 1.3823116e-17)
(140.60524 7.2233982 -2.414542e-17)
(142.42882 3.0005247 -1.1806644e-18)
(105.85333 59.587029 -7.1004699e-18)
(118.54758 54.407298 -4.1882102e-17)
(130.35059 45.306042 4.0774158e-18)
(136.5044 36.434596 0)
(140.4985 27.355078 -1.7510895e-17)
(142.01741 19.317927 1.3704762e-17)
(142.7458 13.102614 8.11865e-19)
(142.77426 6.8453447 2.2781129e-17)
(144.34706 2.7785728 -1.0305176e-17)
(108.93385 59.497192 -6.8554074e-17)
(121.88628 53.869572 -3.2514101e-17)
(133.25009 44.229478 -7.2224448e-19)
(138.60764 35.320832 -2.678808e-18)
(142.18289 26.479636 1.1554956e-18)
(143.48764 18.741506 -2.600681e-17)
(144.24621 12.94956 7.3054741e-19)
(144.27614 6.7465111 -1.0906518e-17)
(146.18024 2.4920074 0)
(110.90719 62.3678 4.7233708e-17)
(124.48082 56.6534 4.7324835e-17)
(136.33409 46.259704 -7.1281621e-19)
(141.90971 36.304497 -2.3870233e-18)
(145.37841 26.709429 1.4094172e-17)
(146.15715 18.43448 1.3134854e-17)
(146.65156 12.086136 6.2910023e-19)
(146.3764 6.2132703 -5.7644345e-19)
(147.84591 2.1642857 0)
(114.08697 61.931405 0)
(127.99827 55.717852 -3.6010628e-18)
(139.1901 44.733404 3.0704957e-18)
(143.92056 34.845889 -2.5460297e-17)
(147.16869 25.327248 -7.7543855e-19)
(147.77128 17.397078 1.7495602e-17)
(148.01297 11.712173 -1.563279e-17)
(147.76192 5.8753844 1.4531433e-17)
(149.37807 1.8058795 1.1623855e-17)
(116.55401 64.769809 9.7929957e-17)
(131.00395 58.361176 6.0410875e-17)
(142.82762 46.392668 -2.6585007e-18)
(147.54666 35.319589 2.6888495e-17)
(150.1984 25.289743 -5.9620091e-19)
(150.18291 16.942929 -1.7880817e-17)
(150.33973 10.623068 1.6901319e-17)
(149.68821 5.2161932 -1.5157897e-17)
(150.76004 1.4328777 -2.3352137e-18)
(151.95362 1.0501689 -9.3923867e-18)
(150.85266 4.7658306 9.5196625e-18)
(151.50589 10.022936 0)
(151.91941 15.377838 -8.085992e-19)
(152.11095 23.455044 1.302151e-17)
(149.53235 33.399766 1.3944516e-17)
(145.60872 44.199248 0)
(135.02718 56.8621 -1.0684377e-17)
(120.19272 63.814234 -9.5462624e-17)
(152.93864 0.66660325 0)
(152.55787 3.8784652 -9.8547868e-18)
(153.68517 8.6648073 0)
(153.92782 14.5604 -5.8200673e-19)
(155.06506 22.722204 -1.9621813e-17)
(153.66124 33.080897 -1.5173634e-17)
(150.17309 45.135727 1.4606849e-17)
(139.15518 59.271979 -3.8024918e-17)
(124.2197 67.136568 6.183385e-17)
(153.69191 0.28418991 0)
(153.36469 3.2812429 0)
(154.47952 7.7344446 -5.2472465e-18)
(155.81383 12.583718 0)
(156.87186 20.423728 8.0295057e-18)
(155.5871 30.448811 -2.2517632e-18)
(153.13713 42.11218 -1.3196771e-17)
(144.05039 56.997022 -1.0115773e-18)
(128.75172 65.233468 -2.0652472e-17)
(154.19754 -0.075683764 0)
(154.6938 2.2997304 0)
(156.38713 6.3170036 5.3561717e-18)
(157.17466 11.49595 1.3076429e-18)
(159.56657 19.214525 -5.8259586e-19)
(159.39428 29.574475 2.3375976e-18)
(157.76045 42.141205 0)
(148.52158 58.441805 1.9862585e-18)
(134.04128 68.439744 -6.151356e-17)
(154.42286 -0.39470095 2.7314941e-20)
(155.10004 1.697675 -3.0007466e-20)
(156.72266 5.1482519 0)
(158.74001 9.2381021 -2.9325187e-18)
(160.85878 16.517797 5.8199673e-18)
(161.25322 26.24074 -3.1982928e-19)
(160.59515 38.336292 -1.2107837e-17)
(153.45102 55.344309 -2.7616729e-18)
(138.91292 65.581575 2.4756599e-17)
(154.74785 -0.46407309 -6.0385107e-21)
(155.982 0.6552434 6.5965892e-21)
(158.154 3.7340396 0)
(159.86794 8.0415113 1.7796644e-18)
(163.25955 14.973825 -5.834303e-18)
(164.39198 24.919369 6.5477722e-19)
(164.88968 37.41907 1.2523664e-17)
(158.02978 55.594183 0)
(145.90393 68.182939 -2.3972951e-17)
(154.08625 -1.0197446 -1.1799487e-20)
(155.85178 0.01346886 -1.3166789e-18)
(158.02588 2.39718 1.1354251e-19)
(160.45683 5.6210885 -6.0983409e-18)
(163.8754 11.93919 -1.253109e-17)
(166.02686 21.010297 0)
(167.31222 32.896626 0)
(162.48766 51.505643 3.7940577e-17)
(151.26892 63.761861 0)
(154.18821 -1.078289 0)
(156.22357 -1.0764061 1.3559971e-18)
(158.91805 1.110212 0)
(161.52395 4.2470352 7.223895e-18)
(165.623 10.232625 1.162175e-17)
(168.3014 19.277861 -2.6723491e-17)
(171.07131 31.183829 0)
(166.5121 50.477345 -4.2118841e-17)
(159.8047 65.241563 7.0025165e-17)
(152.85869 -1.4554652 0)
(155.50596 -1.743061 0)
(158.25951 -0.32498631 2.1854741e-19)
(161.20087 1.7264272 5.1521095e-19)
(165.50221 6.3872716 -8.4954771e-19)
(169.66624 14.32774 2.758321e-17)
(173.43609 24.350697 0)
(170.86193 43.387311 0)
(166.13056 58.071189 -7.0279348e-17)
(151.81115 -1.6832972 8.1374661e-20)
(155.68193 -2.8734011 5.246236e-20)
(158.6754 -1.4769769 -6.3904396e-18)
(162.12486 0.74200012 0)
(166.65365 5.9411993 0)
(170.68606 13.717678 2.2791999e-18)
(175.97551 25.635985 5.18377e-17)
(172.3227 45.8504 -1.6615738e-18)
(172.6072 61.016184 0)
(150.57675 -1.880273 8.5583284e-20)
(154.85881 -3.3906643 6.1237327e-20)
(157.87441 -2.2379037 5.8436995e-18)
(162.17969 -0.58504939 0)
(167.03185 4.8382896 0)
(172.90646 13.249981 -2.6131024e-18)
(179.66088 25.938481 -1.723318e-16)
(172.99604 48.50206 1.8792847e-18)
(166.43248 61.057027 -1.9938107e-16)
(149.12425 -2.0746115 0)
(154.79013 -4.6850795 -8.9534364e-18)
(158.13101 -3.4316551 0)
(163.34033 -1.8984036 -9.94712e-19)
(168.73127 3.8019917 1.0852475e-18)
(174.58207 12.529545 2.9657033e-18)
(182.58983 26.880867 2.5704172e-16)
(173.22442 50.756589 -2.1096852e-18)
(150.29896 63.457089 1.8893791e-16)
(147.44863 -2.2674838 -8.0899182e-19)
(153.62652 -5.2426068 8.5922196e-18)
(157.12197 -4.3980173 -1.4063233e-17)
(163.51874 -3.4194515 -3.096988e-17)
(169.16342 2.3787681 4.9289975e-17)
(176.60206 10.975362 -8.3285325e-17)
(186.36122 26.65265 -1.4027309e-16)
(171.24652 52.745376 -1.4779165e-16)
(125.18972 74.001015 0)
(145.58225 -2.4717928 2.1313402e-19)
(153.26946 -6.6143275 -8.8567015e-18)
(157.14896 -5.8578708 1.3607666e-17)
(164.35313 -5.4260463 -3.2437535e-18)
(171.08518 0.78406653 -4.763122e-17)
(178.74769 9.8946362 -7.0907156e-18)
(188.62567 27.072543 0)
(168.36441 58.556114 1.4201037e-16)
(94.897172 87.306484 0)
(143.51541 -2.6779438 3.0357732e-18)
(151.67415 -7.2860598 8.5401432e-18)
(155.86238 -6.9453148 -1.4355846e-17)
(164.3639 -7.1798069 3.2755556e-17)
(171.48136 -1.0616759 2.1285445e-18)
(180.15917 8.073655 8.4402074e-17)
(191.19254 27.42642 -1.8567661e-16)
(160.11185 60.34358 -1.7400547e-16)
(38.233552 45.959964 1.4941836e-16)
(141.27962 -2.8906042 -2.2589983e-18)
(150.97086 -8.5804827 -1.920679e-19)
(155.42115 -8.4927572 1.3401647e-17)
(164.80451 -9.2828192 -1.3472369e-18)
(173.3151 -2.5380284 1.4533358e-18)
(182.1712 6.7089052 1.0090674e-16)
(190.75074 26.635657 3.777589e-16)
(142.71066 56.919527 1.6360772e-16)
(5.2652131 25.649789 -1.4159339e-16)
(138.81866 -3.0473074 1.0151557e-20)
(148.9448 -9.263446 -1.0919253e-20)
(153.906 -9.636605 -1.1933995e-17)
(164.58761 -11.13272 -3.5986829e-17)
(173.34401 -5.207844 6.0534593e-17)
(182.9887 4.7845648 -2.0291406e-16)
(188.98237 26.050196 -4.0392482e-16)
(120.3658 57.864422 -1.7747238e-16)
(-4.2527162 38.137966 1.5267683e-16)
(136.59869 -3.123876 8.3646379e-18)
(147.83114 -10.479288 1.2423146e-19)
(153.07643 -11.149863 7.0271552e-19)
(164.24619 -13.573665 3.4898823e-17)
(174.94225 -6.6319539 -5.6094111e-17)
(183.75366 2.5377697 1.0420217e-16)
(184.82408 25.443783 2.0256206e-16)
(98.247718 53.056093 1.6684293e-16)
(-16.023473 35.418917 -1.4546472e-16)
(-22.101509 41.056477 -2.6587891e-16)
(83.258957 51.066277 -1.9060858e-18)
(182.11784 24.718325 3.6167737e-18)
(183.24873 0.56692822 -3.1315504e-18)
(174.53043 -9.3787227 0)
(163.9032 -15.022539 4.0982629e-19)
(151.28652 -12.342763 2.1321678e-17)
(145.5347 -10.999492 3.0130057e-18)
(134.09948 -3.0923087 -1.91685e-17)
(-24.405388 42.060906 2.5827258e-16)
(72.632816 48.030369 0)
(179.40225 22.903948 0)
(183.94107 -3.0855657 2.8815508e-16)
(175.21465 -11.624834 0)
(162.7618 -17.784782 -7.7273997e-17)
(150.09386 -13.787845 -2.8691787e-17)
(143.88037 -12.119263 -2.8024314e-18)
(131.41885 -3.1413351 -1.5546347e-17)
(-28.40183 44.384372 2.4218295e-18)
(60.372162 45.84576 -1.9515923e-18)
(175.77793 22.321464 0)
(182.75725 -4.6671743 -2.8172735e-16)
(174.43929 -14.320046 0)
(162.06112 -19.081881 7.6349305e-17)
(147.95208 -15.005489 1.7674509e-17)
(141.24619 -12.464588 -3.0395735e-21)
(128.60195 -3.0983421 2.6032056e-17)
(-30.604774 44.841568 5.31309e-16)
(49.420471 42.033764 -6.1040504e-16)
(172.22587 19.442903 4.3184432e-18)
(182.99513 -8.2336338 0)
(174.45228 -16.358732 -1.5543269e-16)
(160.40569 -21.702814 0)
(146.60331 -16.215774 -3.0233759e-20)
(139.21033 -13.495906 -5.0268216e-20)
(125.70106 -3.241413 7.1406125e-20)
(-34.515643 45.630216 -5.1020836e-16)
(36.856027 39.061911 -2.9706301e-17)
(167.5995 19.426407 6.1783323e-16)
(181.31914 -9.7367965 -3.2115978e-18)
(173.60234 -18.939181 -1.8794142e-18)
(159.34844 -22.847685 0)
(144.02283 -17.400711 -7.4442819e-18)
(136.4592 -13.66233 0)
(122.7252 -3.1748498 0)
(-34.853193 46.309825 2.4425529e-18)
(25.436872 34.753501 5.9141066e-16)
(163.16257 16.325132 -1.1951101e-15)
(181.26233 -13.434581 2.9504518e-16)
(173.18107 -21.010502 1.5161098e-16)
(157.32613 -25.465402 6.2460665e-17)
(142.52723 -18.39766 7.1211392e-18)
(134.16447 -14.589243 -1.4441075e-19)
(119.55958 -3.5929135 4.0417474e-17)
(-36.309447 47.343942 2.436304e-18)
(11.905616 29.790034 -6.1311451e-16)
(157.22598 16.893334 5.9063458e-16)