/*--------------------------------*- C++ -*----------------------------------*\
  =========                 |
  \\      /  F ield         | OpenFOAM: The Open Source CFD Toolbox
   \\    /   O peration     | Website:  https://openfoam.org
    \\  /    A nd           | Version:  11
     \\/     M anipulation  |
\*---------------------------------------------------------------------------*/
FoamFile
{
    format      ascii;
    class       volScalarField;
    location    "0.093";
    object      T;
}
// * * * * * * * * * * * * * * * * * * * * * * * * * * * * * * * * * * * * * //

dimensions      [0 0 0 1 0 0 0];

internalField   nonuniform List<scalar> 
880
(
300
300
300
300.0001054883847
300
300
300.0000000004972
300.0007689917266
300
300
300.0000000001278
300.0035629173718
300.0000000000001
300
300.0000000268024
300.0008512919409
300
300
299.9999999999999
300.000000000482
300
300
299.9999999999997
300
299.9999994588024
300.0000105778021
300.0202984419076
299.9522909960743
300.8042298760223
303.7089943222143
306.3125058091868
307.5203228267071
300.0000028943805
300.0000076415366
300.0000088781611
300.0000044494434
300.0000821429539
300.0002012363158
300.0003498275958
300.0002008687841
300.0664734468272
300.1124017477761
300.1543372908619
300.1415697327909
309.0086326349366
310.5508092923584
311.7019167771524
312.991978204414
311.9979539775443
309.5108765958992
307.0098441415774
304.8838205145464
300.2577660241301
300.3937099899535
300.4849134201654
300.3936818897971
300.0007305826874
300.0015152201054
300.0024430675515
300.0022141254871
300.0000236804092
300.0000458126958
300.0000648269073
300.0000531544256
300.0000229510514
300.0000040955199
300.0000002171005
300.0000000021865
300.001294379995
300.0004008965875
300.000053613603
300.000002281913
300.2286158580476
300.0851620788188
300.0182309682769
300.0014758302023
303.1204251885019
301.7075477969736
300.6512176501778
300.1253137340348
300.0081430508566
300.0000290402975
300.000000021444
300.0000000004776
300.000668025365
300.0000061080423
299.9999999846661
299.9999999980019
299.9966408669733
299.99986459029
300.0000016134853
300.0000004048808
301.7147035756889
300.0026346713095
299.9996506945413
299.9999833536712
299.9999782371647
299.9998351013516
300.0434002182212
317.3186933383083
299.99999666258
300.0002157257738
300.2418644846285
331.6593317832244
300.0000360593642
300.0011667612134
300.5670725491699
341.2778809151756
300.0000786329763
300.002861613843
301.0407188850756
350.5386938892475
357.4783135900228
301.3569254653183
300.0036047455663
300.0001037638249
362.9952913260397
301.8192949498916
300.0058827031002
300.0001597984486
365.8242602643749
302.0221365892111
300.0062859606851
300.0001796042231
368.9602623445469
302.6125451845704
300.0107497044204
300.0003161551073
300.0003246327646
300.0110693804997
303.0696530126123
373.2863673854557
300.0004627182446
300.0160924934652
303.9089678002576
374.9681208756462
300.0007303959798
300.0217380570383
304.205142982989
369.779922573909
300.0000099218055
300.0049400617818
302.2300314668981
350.524488324557
300.0015194919433
300.0549695050435
303.4768292115375
331.2367478407199
300.0001848003696
300.0737101171908
302.7377087320208
315.2048344351326
299.9988852960215
300.0051342044774
301.5088791936648
309.9937719233619
299.9992165347023
299.9246158924492
299.7315478249257
307.5995728817972
300.7182134811489
298.7665978203732
299.9325102591023
299.9997918504027
293.245701580244
298.6149360526773
299.9643945709487
299.9998745586296
286.0823381399387
298.6274093997557
299.9818592495159
299.9999497263284
286.0625561551664
298.7235610611481
299.9822685315216
299.9999481223178
286.0873752368946
299.4540650002422
299.9952531807165
299.9999845435169
286.5351967574297
299.7707782334203
299.9988282167241
299.9999969249467
288.5920582622765
299.8743741203737
299.9995590869116
299.9999991264239
292.9944494444156
299.9437294111733
299.9998179006288
299.9999993909817
297.2828738637881
299.8205905372783
299.9966325086933
299.9999796342212
297.5715034705827
299.8233487048792
299.9966198453816
299.9999796256968
297.8737181453046
299.8209805591483
299.996560295201
299.9999795464754
299.0577291190937
299.8348887249977
299.9964263630253
299.9999796658075
292.9944494437675
299.9437294105675
299.9998178996213
299.9999993923947
288.5920582617925
299.8743741197146
299.9995590849057
299.9999991266176
286.5351967573972
299.7707782342331
299.9988282170204
299.9999969250319
286.0873752373122
299.4540650022483
299.9952531808657
299.9999845428995
299.9997918505043
299.9325102608972
298.7665978204767
300.7182134809167
299.9998745605171
299.9643945712612
298.6149360528889
293.2457015802821
299.9999497253122
299.9818592508099
298.6274093990049
286.0823381407089
299.9999481224208
299.9822685321838
298.723561063124
286.0625561546182
307.5995728808086
299.7315478238017
299.9246158904939
299.9992165335349
309.9937719219769
301.5088791924683
300.0051342028842
299.9988852931982
315.2048344351047
302.7377087309267
300.0737101176127
300.0001848009829
331.2367478410781
303.4768292112149
300.0549695041231
300.0015194947591
300.0003246318716
300.0110693824633
303.069653013524
373.2863673862021
300.0004627182722
300.0160924947584
303.9089678008709
374.9681208757875
300.0007303972939
300.0217380570803
304.2051429819847
369.779922573985
300.0000099243691
300.0049400619434
302.230031465964
350.5244883243728
368.9602623458338
302.612545183979
300.010749706682
300.0003161550609
365.8242602656487
302.0221365944107
300.0062859595221
300.0001796046576
362.9952913251876
301.8192949482775
300.0058827077403
300.0001597978348
357.4783135906364
301.3569254619833
300.0036047431225
300.0001037633123
299.9999782383641
299.9998351023518
300.0434002184057
317.318693337308
299.9999966618893
300.0002157244807
300.2418644850374
331.659331783073
300.0000360585829
300.0011667602649
300.5670725489562
341.2778809151367
300.0000786319806
300.0028616156957
301.0407188871135
350.5386938901427
299.9999833534077
300.0000004054156
299.9999999979728
300.0000000003309
299.9996506934549
300.0000016135194
299.9999999857977
300.0000000208419
300.0026346716511
299.9998645905457
300.0000061073104
300.0000290399524
301.7147035758202
299.9966408673479
300.0006680253812
300.008143050897
300.0000000012966
300.0000022820061
300.0014758313491
300.1253137345939
300.0000002167921
300.0000536131267
300.0182309707659
300.6512176500599
300.0000040964144
300.0004008968127
300.085162077079
301.707547796762
300.0000229513276
300.0012943800137
300.2286158595124
303.1204251878073
300.0000236788462
300.0007305814056
300.2577660244282
311.9979539773316
300.0000458111368
300.0015152200334
300.3937099902109
309.5108765949809
300.0000648261561
300.0024430688359
300.4849134199719
307.0098441411291
300.0000531537812
300.0022141264234
300.3936818895326
304.8838205138067
312.9919782048827
300.1415697355822
300.0002008680331
300.0000044487201
311.7019167778446
300.1543372930276
300.0003498273948
300.0000088783982
310.5508092935795
300.1124017451372
300.0002012368975
300.0000076411864
309.0086326345396
300.0664734426419
300.0000821422307
300.0000028948903
307.5203228273579
299.9522910014046
300
300.0000000006686
306.3125058086065
300.0202984366419
300
300.0000000000001
303.7089943227276
300.0000105774619
300
300
300.8042298757585
299.9999994584227
300
299.9999999999999
300
299.9999999999999
300
300.0001054880714
300.0000000000002
300
300.0000000004265
300.0007689827278
300
300
300.0000000003245
300.003562916589
300
300
300.0000000261973
300.0008512917656
300.0001719941644
300.0007978038544
300.0051780292085
300.1793343863977
300.0007978158719
300.0008075367825
300.0014883208322
300.7311511713905
300.0051780256032
300.0014882997489
300.2659416740389
305.2629882197147
300.1793343819754
300.7311511764396
305.262988306544
324.3873357992789
353.4455258328265
333.9140709805095
320.770445077285
309.2956638442546
349.3654919420279
344.5288688912589
339.9752018296252
331.037606112256
345.8690457245294
344.1147369750515
342.3128243506935
338.1553846837069
344.5573484267386
343.1717829352117
342.2858434190037
340.3890327343397
343.3534374049723
344.9004328551468
345.8026368294904
348.2565860358125
343.2553966294447
344.5223936622329
345.3860370919542
348.5193336426954
343.1611740789523
343.6751983627983
344.6754995376816
346.6664158812566
343.1665345630623
343.0837278653978
344.1622123456768
342.4195762691648
331.6613567283781
315.0544023201318
306.6596279079014
303.3214454351098
322.9472815516543
306.9199657597616
304.5668316679282
304.0964718181442
312.6643531534166
300.5834309889142
304.8946327727126
305.1434870511026
287.983885039028
292.1912007283735
302.8465153846342
304.2283507904385
303.2157927490891
302.7444386590369
301.3800112258479
300.4079185939236
303.6224050451027
302.828085266909
301.3702234761594
300.4471657135333
304.3202643597004
303.2485529550326
301.624921823096
300.5799395287485
303.5085325551213
302.871602377684
301.2225359717789
300.2625664593017
300.061153975201
300.0030164212632
299.9988224859869
325.3615584255693
300.0821406363364
300.0052657100855
299.9988449459578
341.0680845134709
300.116621210565
300.0077417487905
299.9999539317014
350.2492920073283
300.0166326226008
299.9975097600039
299.9998250353968
353.5949771486619
399.5596889753325
413.3291421350872
418.5871283805232
424.7261351007419
415.8766814398824
418.9609845333819
418.3732418103726
421.2287470618764
421.4740260561185
415.8833136770357
415.8187386516416
416.3073173803534
431.7324561325712
420.5956831963418
414.4179600461051
414.1159395650178
430.4396240432928
435.3410736676505
436.420119605767
436.8827013411953
424.5257139182403
428.3732116557136
429.3262009644162
429.7614965500513
417.6929192322295
420.6300735282235
421.9457787216667
422.4117661045599
414.9515051502476
417.4571313548805
418.8517154985583
419.3410104471565
436.1630541166589
432.2904138120079
421.6139334031015
400.764664031189
429.1645194670835
425.6373836444506
416.4336799608917
414.8607395717128
421.9961533771134
418.9836580991068
413.6757357605924
424.9595461585491
418.8367894516983
417.158665406989
416.5002735952525
406.2101792384825
359.1920575820637
299.3827900684046
224.4938282508079
213.450356351286
346.5126221077782
262.4668324271842
205.8732811076575
187.4325743923228
309.7646951020851
224.1556761161401
179.3462612341563
162.5436969977681
239.1461495020578
168.6910400906009
176.6668234914648
153.6902249480765
215.7948171969307
215.8665100428885
214.6819261467606
210.3986289214255
186.7727104803037
184.6679175703832
184.9053367100688
189.3884214567316
158.0102810359439
156.0030823962848
162.0091406719323
193.724795250844
145.799094023019
143.5764606274526
151.9603598005774
198.5108954047877
257.9621922648308
258.0010291913977
259.6611720814286
269.5883391554478
275.3805044083471
269.3435323461751
261.6167281935042
272.8621034672799
268.7052813422654
284.8789997656511
278.2592753365215
284.1103196107836
242.2289838907783
272.779619209649
283.5594881086856
296.6263581568968
247.140073130858
217.3893190680488
178.657116723302
183.5994345256601
247.4279515746569
214.4493970022006
177.8744003876714
132.3090761715775
240.203725708134
192.3344070373061
130.0762510305028
109.2175095628033
210.2276375594407
133.0290694259036
85.33898105642135
101.2058266176488
127.1518303202416
155.5967594868747
181.1295912598823
193.1041412730471
142.0829537730565
171.8081362588157
194.2076655122761
204.6671377393192
162.7694218596531
202.5003500184699
219.765153094209
228.1944141835215
240.0078242752239
268.8328712505684
267.8086753759635
265.8336804835864
193.1041412731124
204.6671377392866
228.1944141834773
265.8336804834556
181.1295912601605
194.2076655122071
219.7651530941715
267.8086753756656
155.5967594870806
171.8081362588917
202.5003500182439
268.8328712501793
127.1518303203439
142.0829537731446
162.7694218595067
240.0078242739655
183.5994345247521
178.6571167228265
217.3893190673724
247.1400731299719
132.3090761716713
177.8744003881313
214.4493970025042
247.4279515742201
109.2175095629152
130.076251030104
192.3344070367565
240.2037257079594
101.2058266175826
85.33898105631341
133.0290694257465
210.2276375591806
296.6263581566384
283.5594881085107
272.7796192094336
242.2289838896546
284.1103196106341
278.2592753365635
284.8789997657732
268.7052813413155
272.8621034670506
261.6167281934809
269.343532346181
275.3805044077315
269.5883391550302
259.6611720812505
258.0010291910626
257.9621922641306
210.3986289210419
214.6819261477143
215.8665100429469
215.7948171965783
189.388421456642
184.9053367111495
184.6679175708412
186.7727104799786
193.7247952509732
162.0091406726287
156.003082396734
158.0102810358167
198.5108954046534
151.9603598010019
143.5764606278093
145.7990940230641
213.4503563501719
224.4938282494523
299.3827900683432
359.1920575822269
187.4325743908938
205.8732811063463
262.466832426857
346.5126221071554
162.5436969967322
179.3462612328573
224.1556761164066
309.7646951019111
153.6902249476146
176.666823489936
168.6910400898359
239.146149501885
400.7646640312034
421.6139334032179
432.2904138120752
436.1630541167186
414.8607395718098
416.4336799609906
425.6373836446427
429.1645194674592
424.9595461586148
413.675735760757
418.9836580995789
421.9961533778078
406.2101792384314
416.5002735956942
417.1586654075439
418.8367894526054
436.8827013410449
436.4201196048181
435.3410736690008
430.4396240431662
429.7614965503009
429.3262009639307
428.3732116561694
424.5257139181324
422.4117661052009
421.9457787215689
420.6300735280126
417.6929192326863
419.3410104481124
418.8517154985097
417.4571313542658
414.9515051510136
424.7261351017465
418.5871283796537
413.329142134757
399.5596889746975
421.2287470633723
418.3732418091138
418.9609845338709
415.876681439274
416.3073173818091
415.8187386500409
415.8833136775137
421.4740260554287
414.1159395670617
414.4179600439932
420.5956831970362
431.7324561316813
325.3615584247815
299.998822480931
300.0030164222517
300.061153975331
341.0680845125578
299.9988449433156
300.0052657110435
300.0821406365142
350.2492920062015
299.99995393074
300.007741749497
300.1166212107825
353.5949771474426
299.9998250346983
299.9975097608562
300.016632622916
300.4079185939352
301.3800112252829
302.7444386591196
303.2157927488994
300.4471657134279
301.3702234758809
302.8280852666313
303.622405044665
300.5799395286251
301.6249218230103
303.248552954497
304.3202643591601
300.2625664590095
301.2225359715594
302.8716023771991
303.5085325545976
303.3214454346612
306.6596279074031
315.0544023194655
331.661356727945
304.0964718176244
304.566831667546
306.9199657591082
322.9472815513633
305.1434870505174
304.8946327723745
300.5834309882746
312.6643531532293
304.2283507896578
302.8465153843655
292.1912007275917
287.9838850386946
348.2565860348162
345.802636829183
344.9004328567331
343.3534374071227
348.5193336418083
345.3860370920294
344.5223936637182
343.255396630753
346.6664158805967
344.6754995374733
343.6751983634842
343.1611740797553
342.4195762686383
344.1622123454454
343.0837278660596
343.1665345636621
340.389032732051
338.1553846840551
331.0376061133319
309.2956638458245
342.2858434182634
342.3128243508659
339.9752018317757
320.7704450709537
343.1717829350833
344.1147369756271
344.5288688926109
333.9140709699369
344.5573484264798
345.8690457237412
349.3654919412176
353.4455258367385
296.310944470841
299.9378176507274
299.9995445982699
299.9999982905251
296.1959078602494
299.9177311025837
299.9991725065458
299.9999960213693
298.1985408462642
299.9024195433905
299.9984958717743
299.9999918331511
299.3909112534135
299.8629619066153
299.9970389025403
299.9999841527774
299.9999796351144
299.9966325085883
299.8205905368484
297.2828738634622
299.9999796263399
299.9966198463499
299.8233487036001
297.5715034708826
299.9999795454602
299.9965602963526
299.8209805581981
297.8737181441342
299.999979662856
299.9964263643722
299.8348887218856
299.0577291183218
299.999984152043
299.9999918320667
299.9999960176382
299.9999982871564
299.9970389029042
299.9984958717502
299.9991725060925
299.9995445969862
299.8629619064879
299.9024195424948
299.9177311035742
299.9378176498545
299.390911252849
298.1985408449831
296.1959078598678
296.3109444709488
)
;

boundaryField
{
    back
    {
        type            empty;
    }
    inlet
    {
        type            zeroGradient;
    }
    front
    {
        type            empty;
    }
    top
    {
        type            zeroGradient;
    }
    outlet
    {
        type            fixedValue;
        value           uniform 300;
    }
    bottom
    {
        type            zeroGradient;
    }
    wall
    {
        type            zeroGradient;
    }
}


// ************************************************************************* //
