/*--------------------------------*- C++ -*----------------------------------*\
  =========                 |
  \\      /  F ield         | OpenFOAM: The Open Source CFD Toolbox
   \\    /   O peration     | Website:  https://openfoam.org
    \\  /    A nd           | Version:  11
     \\/     M anipulation  |
\*---------------------------------------------------------------------------*/
FoamFile
{
    format      ascii;
    class       volScalarField;
    location    "0.11";
    object      Ma;
}
// * * * * * * * * * * * * * * * * * * * * * * * * * * * * * * * * * * * * * //

dimensions      [0 0 0 0 0 0 0];

internalField   nonuniform List<scalar> 
880
(
1.443353270571932
1.443353270571932
1.443353270571932
1.443352412473737
1.443353270571932
1.443353270571932
1.443353270577465
1.443344168496463
1.443353270571932
1.443353270571933
1.443353270620763
1.443334865226803
1.443353270571932
1.443353270571932
1.443353272452532
1.443266966716109
1.443353270571932
1.443353270571932
1.443353270571933
1.443353270559276
1.443353270571932
1.443353270571932
1.443353270571935
1.443353270571932
1.443353446045989
1.443352448253255
1.443320892450408
1.443556568889126
1.433746815820195
1.408298222874344
1.392494941344351
1.388279479608039
1.443353237326119
1.44335314707569
1.44335290337617
1.443353041987316
1.443352003405733
1.44335060111257
1.443350083165578
1.4433506658896
1.442567431903762
1.442288823920175
1.442194474938542
1.442078942176632
1.385514692917268
1.379958808990965
1.384550918690519
1.373172176923336
1.397683433254684
1.425678596527063
1.447975954556864
1.45850786742883
1.441291761687388
1.438602506978202
1.440590378046228
1.442483200035319
1.443344980768034
1.443325397390562
1.443312463337336
1.443330833372307
1.443352617376141
1.44335176431226
1.443350059309926
1.443349628253042
1.44335028286036
1.44335181369437
1.443352932882788
1.443353238551682
1.443347716050284
1.443358110259699
1.443356170344699
1.443353668648122
1.443866509537243
1.444219646804496
1.443841519450487
1.443476235097055
1.459968779614012
1.457311999275973
1.452704403369871
1.447824663533438
1.44454414782593
1.443365006542805
1.443353286375557
1.443353269541914
1.443473982310619
1.44335382982751
1.443353271675594
1.44335327049401
1.443386719087933
1.443354921241971
1.443353273968174
1.443353267170485
1.425044161473338
1.443291266366538
1.443355855743625
1.443353530899562
1.443353360599336
1.4433542665025
1.442683072905001
1.279112402157445
1.443353236419983
1.443345940090055
1.439738759046665
1.178575466168563
1.443352692744573
1.443329877288632
1.435729796031884
1.129601595490327
1.443350788096792
1.443317164833443
1.432160866169932
1.116445975536442
1.11291759581821
1.428146056149012
1.443293170318454
1.443350157969552
1.119172042852818
1.425410160643528
1.443281066514931
1.443346814839132
1.116133310989259
1.420953420766853
1.443246508402856
1.443346812533229
1.112253890488216
1.416074412625173
1.443210314688572
1.443340736617452
1.4433394199474
1.44317564381204
1.409129183154581
1.091220238162475
1.443333558531933
1.443057745100434
1.400058518086974
1.107680018229013
1.443325059612652
1.443018351660927
1.40218701348565
1.148976503883747
1.443340294677405
1.443017509627259
1.413578095167686
1.250967196221336
1.443289414363487
1.443178608043444
1.43882701851544
1.428741524084837
1.443248175694619
1.444311048589681
1.453777742026262
1.547700301887013
1.443353875560536
1.443931267434011
1.448447258743097
1.478039604763385
1.443359882600467
1.443249699510336
1.429636142033489
1.295041209893534
1.174726145970429
1.422733245058165
1.44319062653842
1.44335436136056
1.117442820688744
1.416072889821825
1.44293193814342
1.443351812596986
1.107674850423121
1.41644936923682
1.443056664443982
1.443352985045114
1.060528576348221
1.412019356282717
1.442987416930456
1.44335267732123
1.160098828135019
1.424400313322497
1.443192346859783
1.443352993655828
1.280860420236384
1.435128723712932
1.443310867406381
1.443353205737673
1.369271781630436
1.440445054184302
1.443344017325093
1.443353262195415
1.426935279066886
1.44316888472358
1.443355980107816
1.443353273358489
1.370786132137329
1.43950073780228
1.443287996678444
1.443352850576896
1.372632155264814
1.439607682880555
1.443289198246509
1.443352854012513
1.369593950423893
1.439517287855431
1.443289854289759
1.443352855467394
1.365598572857056
1.439594045458587
1.443297113725586
1.443352882268482
1.426935279074025
1.443168884728834
1.443355980116455
1.44335327334578
1.369271781634516
1.440445054190567
1.443344017342672
1.443353262194021
1.280860420234321
1.435128723707014
1.443310867404576
1.443353205736816
1.160098828127717
1.424400313306574
1.443192346857399
1.443352993660758
1.443354361347117
1.443190626520613
1.422733245055376
1.174726145968654
1.443351812581822
1.44293193813441
1.416072889818164
1.117442820685389
1.443352985055238
1.44305666443243
1.416449369236705
1.107674850415238
1.443352677320745
1.442987416925665
1.412019356267751
1.060528576349758
1.295041209901996
1.429636142044446
1.443249699531987
1.443359882613453
1.478039604776251
1.448447258753801
1.443931267448105
1.443353875582719
1.547700301886612
1.453777742037682
1.444311048588972
1.443248175702132
1.428741524082879
1.438827018520365
1.443178608050569
1.443289414336838
1.443339419954662
1.443175643800584
1.409129183150839
1.091220238155039
1.443333558531842
1.443057745086928
1.400058518080474
1.107680018228022
1.443325059597807
1.443018351659644
1.402187013493395
1.148976503883735
1.443340294661159
1.443017509625833
1.413578095173722
1.250967196222303
1.11225389047581
1.416074412622419
1.443210314665318
1.443340736616607
1.116133310975789
1.420953420732411
1.443246508403873
1.443346812529278
1.119172042852795
1.425410160650388
1.443281066490026
1.443346814845303
1.112917595815665
1.428146056171947
1.443293170337496
1.443350157973505
1.443353360588869
1.443354266493337
1.44268307290955
1.279112402162768
1.443353236426687
1.443345940101554
1.439738759032736
1.178575466180862
1.443352692753487
1.443329877295769
1.435729796031527
1.129601595476606
1.443350788107622
1.443317164813655
1.432160866164761
1.116445975539688
1.443353530900322
1.443353267164863
1.443353270493172
1.443353269543435
1.443355855754662
1.443353273966683
1.443353271663635
1.443353286382209
1.443291266363437
1.443354921239203
1.443353829836402
1.443365006546431
1.42504416147256
1.443386719089217
1.443473982307176
1.444544147826214
1.443353238560853
1.443353668648104
1.443476235086188
1.447824663529344
1.443352932887415
1.44335617034842
1.443841519429689
1.452704403369954
1.443351813684632
1.443358110259985
1.444219646814779
1.45731199927755
1.443350282857847
1.443347716050372
1.443866509527877
1.459968779620184
1.443352617391103
1.443344980779023
1.4412917616781
1.397683433254433
1.443351764326908
1.443325397392611
1.43860250697869
1.42567859653421
1.44335005931617
1.44331246332364
1.440590378050161
1.447975954562382
1.443349628258457
1.443330833361469
1.442483200037985
1.458507867434723
1.373172176920782
1.44207894215059
1.44335066589813
1.443353041994023
1.384550918686718
1.442194474913496
1.443350083168601
1.443352903371604
1.379958808981096
1.442288823939196
1.443350601109415
1.443353147080316
1.385514692918901
1.442567431958567
1.443352003409055
1.443353237321746
1.388279479603417
1.443556568851951
1.443353270571932
1.443353270556915
1.392494941346086
1.443320892481092
1.443353270571932
1.443353270571933
1.40829822286839
1.443352448257125
1.443353270571932
1.443353270571933
1.433746815818048
1.443353446048973
1.443353270571932
1.443353270571934
1.443353270571932
1.443353270571933
1.443353270571938
1.443352412535171
1.443353270571931
1.443353270571932
1.443353270577538
1.443344168565011
1.443353270571932
1.443353270571932
1.443353270619762
1.443334865228009
1.443353270571932
1.443353270571932
1.443353272459392
1.443266966720675
1.443351338962148
1.443343386442274
1.443290972385311
1.441698700054835
1.443343386252512
1.443342897529549
1.443289376301718
1.434654149071146
1.443290972362182
1.443289376209557
1.4397826650539
1.386867701832841
1.441698700043781
1.434654149094653
1.386867702070457
1.206389163199181
1.038279679133543
1.12805868043825
1.282266621046876
1.372346008366432
1.088619851666861
1.11186419176588
1.173071495889934
1.247345694834994
1.139379931111766
1.163880398246671
1.205356132462456
1.255228873446112
1.178465691652296
1.204805035772187
1.239361036328833
1.272386562737376
1.277956329136592
1.282366161539348
1.290300100851815
1.286011246031451
1.267090442754278
1.280957694634442
1.288780800698933
1.312481494928244
1.247298946045416
1.275619963161933
1.284711805422504
1.398492116459738
1.177596563738305
1.196092928755305
1.20586564847278
1.517038403804178
1.409467480820043
1.546508304532558
1.535128712718943
1.500742316459137
1.503186998195432
1.635760590402401
1.589213633651029
1.538062101211628
1.684641697380403
1.733516540155131
1.620176281103886
1.551174374557714
1.274787822779062
1.291970532214318
1.260148339250712
1.279814150734728
1.480772888238606
1.468367060893106
1.462553111363552
1.455781890521461
1.505601275320121
1.485079308756805
1.473900233820786
1.463719252166266
1.517671936274215
1.497391229391458
1.482941366799203
1.470267427345943
1.328273594811663
1.380024887607753
1.412990704678135
1.425434791327267
1.44819290746599
1.444336635785973
1.443433398765618
1.256384004287134
1.45244487204422
1.445469538960466
1.443583221250196
1.110507953457303
1.456471449542117
1.446796771545608
1.443778061631663
0.9695429785006953
1.43585866643191
1.44140307764263
1.443169103096582
0.7180411679686668
0.8578563157299802
0.8652829325269082
0.894616825688997
0.9311052683371869
0.7425740954096288
0.8215897740784098
0.8876635306321685
0.9308596724678326
0.6131852502863134
0.7470064255277936
0.8556355768917315
0.9195994969258527
0.4133388482132525
0.5925397131180167
0.7104454423542589
0.8167514036022789
0.9553367749856845
0.9674227578829644
0.9765157812335868
0.9795355873873386
0.9571438711766878
0.9701081214651419
0.982473068336141
0.9873453993936968
0.9538054757691611
0.9699524596986644
0.9851178362599267
0.9917141151714088
0.8841970097364079
0.9133801841344905
0.930397585503331
0.9329885153141612
0.9816294794125079
1.005460570848834
1.054734005901433
1.156535147595713
0.9899342898684761
1.010884184998843
1.066010286682131
1.214088548796108
0.9955305371778012
1.011425797332758
1.094833199210502
1.532902566657372
0.9499210962004959
0.9704509756689699
1.106502749932383
2.124551619914949
1.386491866950818
1.684917989303956
0.6591878768747476
0.3541007295551468
1.470403135620763
1.487065027699424
0.5007053512850266
0.1746397729500181
1.524609272198665
1.153659272457916
0.2741737082180511
0.1072210209447844
1.19180359992388
0.5961931746098914
0.0811320156695258
0.07537871472003184
0.1823800034030267
0.09253805743565588
0.05140944806075459
0.0927491676382239
0.07044985260366272
0.09162813415952506
0.110704751004909
0.2105886136483067
0.05633902580188947
0.1152209862697534
0.2003566730383888
0.3409149054811803
0.02429206093603765
0.1171100642738346
0.2771361793461811
0.3755831204499287
0.6615423013842572
1.108583606068846
1.359687830926325
1.46719768329738
0.3292794660390059
0.8319725252663179
1.191186083104362
1.373917160206291
0.06595903344844888
0.3980678374562684
0.8510989379072655
1.281493410151865
0.1644041966959743
0.1521925158463023
0.5948957509143149
1.404182330907395
1.66169595055664
1.915085950904123
2.590661218530711
2.438981075660254
1.61239165656431
1.891380400924787
2.695334544225067
1.61359315475395
1.608436888819424
2.072642352903279
2.403661558655227
0.7114465343676054
1.398383202588357
1.545604653984399
0.7511352591750292
0.2941042525860692
0.4645124665731171
0.5201321788974215
0.3992338398997127
0.2308850515448509
0.3596174065859428
0.3997974162764189
0.3342560365324229
0.2283159118189099
0.6437254213075639
0.1217738587519426
0.115920037617478
0.1252858798715532
1.318707564828877
0.6961882638863276
0.4310145767133081
0.3203089487217399
0.2308850515444628
0.2283159118189527
0.1252858798712759
0.3203089487175735
0.3992338398986282
0.3342560365334422
0.1159200376163329
0.4310145767100739
0.5201321788976531
0.3997974162765865
0.1217738587519064
0.6961882638847617
0.4645124665736669
0.359617406584791
0.6437254213071802
1.318707564829005
2.438981075662224
2.590661218539791
1.915085950914003
1.661695950566707
1.613593154753156
2.695334544223395
1.89138040092606
1.612391656571321
0.7114465343694687
2.403661558653597
2.072642352908732
1.608436888821544
0.2941042525873468
0.7511352591716629
1.545604653985061
1.398383202589715
1.404182330910453
0.594895750914302
0.1521925158464481
0.1644041966990233
1.281493410154701
0.8510989379078585
0.3980678374518103
0.06595903344510146
1.37391716021034
1.191186083104719
0.8319725252610422
0.329279466033331
1.467197683302886
1.359687830925747
1.108583606065368
0.661542301378743
0.0927491676341072
0.05140944805514998
0.09253805743079346
0.1823800033994127
0.2105886136489297
0.1107047510020274
0.09162813416398868
0.07044985261107184
0.3409149054795811
0.2003566730338144
0.1152209862741546
0.05633902580658185
0.3755831204487938
0.2771361793423059
0.1171100642777179
0.02429206093853333
0.3541007295598745
0.6591878768745704
1.684917989303861
1.386491866951455
0.1746397729539061
0.500705351287421
1.487065027701793
1.470403135626693
0.1072210209431389
0.2741737082196588
1.153659272460315
1.52460927220435
0.07537871471257901
0.08113201566816294
0.5961931746186502
1.191803599929763
1.156535147595916
1.05473400589953
1.005460570846695
0.9816294794063832
1.214088548797603
1.066010286681291
1.010884184997207
0.9899342898635607
1.532902566662379
1.094833199212123
1.011425797331632
0.9955305371746994
2.12455161992344
1.106502749938127
0.9704509756757662
0.949921096206734
0.9795355873767497
0.9765157812289575
0.9674227578877479
0.9553367749805943
0.9873453993867435
0.9824730683321861
0.9701081214700338
0.9571438711782548
0.9917141151672236
0.9851178362570874
0.9699524597041578
0.9538054757731357
0.9329885153163737
0.9303975855017624
0.9133801841401826
0.88419700973737
0.9311052683272382
0.8946168256877941
0.8652829325342194
0.8578563157289317
0.9308596724593294
0.887663530629734
0.8215897740817907
0.7425740954080426
0.9195994969188838
0.8556355768897648
0.7470064255272424
0.6131852502855337
0.8167514035859339
0.7104454423559712
0.5925397131189835
0.4133388482079037
1.256384004282459
1.443433398751888
1.444336635791019
1.448192907457577
1.110507953456273
1.443583221257967
1.445469538963923
1.452444872036175
0.9695429785013433
1.443778061652246
1.446796771535009
1.456471449540325
0.7180411679717501
1.443169103110064
1.441403077662794
1.435858666415238
1.455781890523784
1.462553111368482
1.468367060895514
1.480772888244561
1.463719252167581
1.473900233823395
1.485079308758577
1.505601275324075
1.470267427345652
1.482941366801734
1.49739122939081
1.517671936277591
1.425434791325835
1.412990704680056
1.380024887603769
1.328273594807492
1.500742316462534
1.535128712723254
1.546508304537198
1.409467480821152
1.538062101217623
1.589213633653611
1.63576059040743
1.503186998197637
1.55117437456529
1.62017628110557
1.733516540163028
1.684641697384448
1.27981415074149
1.260148339252601
1.291970532217902
1.274787822778533
1.286011246037747
1.290300100859888
1.282366161531017
1.277956329117516
1.312481494935802
1.288780800702278
1.280957694626997
1.267090442742101
1.398492116470295
1.284711805424525
1.275619963157863
1.247298946042595
1.517038403823091
1.205865648491234
1.196092928760914
1.177596563732367
1.272386562741713
1.255228873448627
1.247345694832359
1.372346008393426
1.239361036341514
1.205356132479025
1.173071495861526
1.282266621034121
1.204805035789808
1.163880398263761
1.111864191726724
1.12805868029451
1.178465691647161
1.139379931095258
1.088619851654869
1.038279679061032
1.428891614332094
1.442506345725315
1.443345475140576
1.443353242785475
1.430731763855752
1.442293886875207
1.443339977052597
1.443353200430805
1.402779292123686
1.44144252533344
1.443329495766573
1.44335313130892
1.367034100546296
1.440109211063745
1.443312965538125
1.443352998361647
1.443352850570439
1.443287996679791
1.439500737801823
1.370786132119412
1.44335285400579
1.443289198238733
1.439607682892111
1.372632155268148
1.443352855474837
1.443289854279582
1.439517287865606
1.369593950433595
1.44335288229076
1.443297113714288
1.439594045483077
1.365598572869292
1.44335299836691
1.443353131315919
1.443353200458256
1.443353242811578
1.443312965534543
1.443329495767487
1.443339977058213
1.443345475153678
1.440109211066384
1.441442525338442
1.442293886865802
1.442506345735579
1.367034100554656
1.402779292132883
1.430731763858872
1.428891614331587
)
;

boundaryField
{
    back
    {
        type            empty;
    }
    inlet
    {
        type            calculated;
        value           nonuniform List<scalar> 
16
(
1.443353270571932
1.443353270571932
1.443353270571932
1.443353270571932
1.443353270571932
1.443353270571932
1.443353270571932
1.443353270572497
1.443353270571633
1.443353270571932
1.443353270571932
1.443353270571933
1.443353270571932
1.443353270571932
1.443353270571932
1.443353270571932
)
;
    }
    front
    {
        type            empty;
    }
    top
    {
        type            calculated;
        value           uniform 0;
    }
    outlet
    {
        type            calculated;
        value           nonuniform List<scalar> 
16
(
1.443352691789402
1.443352694283479
1.44335269149703
1.443352700130546
1.443353228813971
1.443353171444995
1.443353074673511
1.443352857942247
1.443352691785327
1.443352694278708
1.443352691501264
1.443352700144475
1.443352857945042
1.443353074676687
1.443353171461236
1.443353228830481
)
;
    }
    bottom
    {
        type            calculated;
        value           uniform 0;
    }
    wall
    {
        type            calculated;
        value           uniform 0;
    }
}


// ************************************************************************* //
