/*--------------------------------*- C++ -*----------------------------------*\
  =========                 |
  \\      /  F ield         | OpenFOAM: The Open Source CFD Toolbox
   \\    /   O peration     | Website:  https://openfoam.org
    \\  /    A nd           | Version:  11
     \\/     M anipulation  |
\*---------------------------------------------------------------------------*/
FoamFile
{
    format      ascii;
    class       volScalarField;
    location    "0.11";
    object      rho;
}
// * * * * * * * * * * * * * * * * * * * * * * * * * * * * * * * * * * * * * //

dimensions      [0 0 0 0 0 0 0];

internalField   nonuniform List<scalar> 
880
(
0.3733250556165154
0.3733250556165154
0.3733250556165154
0.3733259534919864
0.3733250556165154
0.3733250556165154
0.3733250556171614
0.373328565727018
0.3733250556165154
0.3733250556165153
0.3733250556264329
0.3733448456590543
0.3733250556165154
0.3733250556165154
0.3733250558284475
0.3733732961377423
0.3733250556165154
0.3733250556165155
0.3733250556165152
0.3733250556157585
0.3733250556165154
0.3733250556165154
0.3733250556165151
0.3733250556165154
0.3733250529554593
0.3733250379805282
0.3734091050990743
0.3731810803352252
0.3762761869264472
0.3840625285350763
0.3899924300313314
0.3927032145416697
0.37332507174128
0.3733251232216661
0.3733251396534932
0.3733251068807366
0.3733253623988782
0.3733258655135818
0.3733272713781004
0.3733266691317553
0.373481073574194
0.3736634769721477
0.373921162747028
0.3739393229161743
0.3954415219217146
0.3991861473272391
0.4034440536988407
0.4084800068580368
0.4062924578621575
0.3985951548823956
0.3931284612626765
0.3900989450922888
0.3743846373474004
0.3754825332614691
0.3760184591701941
0.3757559921404001
0.3733295484406145
0.3733379120260701
0.3733512979279135
0.3733539598381834
0.3733252587886858
0.3733255412818047
0.3733259554644461
0.3733259556041247
0.3733256605971063
0.3733252666735468
0.3733250836720312
0.373325056497391
0.3733487488693885
0.3733381378172928
0.3733285980073908
0.3733254413304543
0.375306303196583
0.3746285202437047
0.3738492613130623
0.3734319331184667
0.3868342078586289
0.3832821159792621
0.3796159075931311
0.3762389457044684
0.3740766701160353
0.3733345167350883
0.3733250709166677
0.3733250556336508
0.3734099078326495
0.3733257559785471
0.3733250568386127
0.3733250556042648
0.3733217267779269
0.3733241149093516
0.3733250479509608
0.3733250568093645
0.3792444172408608
0.3733526001464047
0.3733242136841007
0.3733249839923078
0.3733249420972716
0.3733246624877736
0.3735326774175159
0.4198381853440358
0.3733250288199343
0.3733270893950588
0.374392710542337
0.4565239866629531
0.3733253097262637
0.3733307584073243
0.3752826157642769
0.4728303474974236
0.3733257777157643
0.3733414102936994
0.3767378091996468
0.4872314425438727
0.4998030515934871
0.3779529235534353
0.3733469833190072
0.3733260821158876
0.5175235280607646
0.3799387923312836
0.3733649759590768
0.3733268395053562
0.5307898073491176
0.3811619667856204
0.3733709892112503
0.3733269877936219
0.5467706443713423
0.383359431938552
0.3734003308927865
0.3733285457267404
0.3733288858360058
0.3734131322918917
0.3859014422072823
0.5623865072525489
0.3733308700911893
0.3734552750901208
0.3891108534691441
0.5679132010315326
0.3733356217380237
0.3735051025090165
0.3899967292955219
0.5460333937284434
0.3733244853976723
0.3733991983584732
0.3834293172454272
0.4885503705788578
0.3733448689572324
0.3737832496878596
0.3837870098875213
0.4051030995740044
0.373349619829275
0.3737698571463092
0.374452406170725
0.3102339671285222
0.3733266800151687
0.3734263168002399
0.3686215016980597
0.2545362322284795
0.3733237063980273
0.3731078492318365
0.3615443281562857
0.2241193663604738
0.2200962035717001
0.3594437126062218
0.3730590337194035
0.3733235798188945
0.2143433002580109
0.3582783085618231
0.3730375781718108
0.3733236149814846
0.2129059389118066
0.359140677178051
0.3731309069262395
0.3733244383874634
0.2030406674973923
0.3579163285302833
0.3731238358928414
0.3733244344758949
0.236388151400317
0.3649843948941726
0.3732542133079934
0.3733248382167563
0.2771694109469305
0.3700454028832033
0.3733066802490228
0.3733250063133068
0.3081226344205891
0.3720005292686644
0.3733192509360369
0.3733250419853713
0.3324240241568495
0.3728892764485482
0.3733234863614871
0.3733250491290221
0.3355269383363245
0.37122812037417
0.3732907642235821
0.3733248296352824
0.3376842925735724
0.3712963928758119
0.3732912988778987
0.3733248311705534
0.3404749693117604
0.3713654484912771
0.3732916117760806
0.3733248317486935
0.3440010233454574
0.3716136927461214
0.3732949555722785
0.3733248466787631
0.3324240241567448
0.3728892764474672
0.3733234863604751
0.3733250491297752
0.308122634419084
0.3720005292673512
0.3733192509321123
0.3733250419854192
0.2771694109457485
0.3700454028835801
0.373306680248256
0.3733250063139298
0.2363881514008795
0.364984394896236
0.3732542133078369
0.3733248382159318
0.3733235798205562
0.3730590337228082
0.359443712608242
0.2200962035712555
0.3733236149807658
0.3730375781732739
0.3582783085635318
0.2143433002589942
0.3733244383852192
0.373130906928812
0.3591406771779068
0.2129059389120763
0.3733244344767276
0.373123835893154
0.3579163285340246
0.203040667496419
0.2241193663580079
0.3615443281538244
0.3731078492303109
0.3733237063999192
0.2545362322255387
0.3686215016958522
0.3734263167976233
0.3733266800097814
0.3102339671277771
0.3744524061681114
0.3737698571467929
0.373349619827239
0.405103099574455
0.3837870098870564
0.373783249686482
0.3733448689613492
0.3733288858348075
0.3734131322967677
0.3859014422103879
0.5623865072563311
0.3733308700920501
0.3734552750890795
0.3891108534685617
0.5679132010314487
0.3733356217397295
0.3735051025087032
0.3899967292930303
0.5460333937280951
0.3733244854031681
0.3733991983583512
0.3834293172439173
0.4885503705785112
0.5467706443758571
0.3833594319306207
0.3734003308958227
0.3733285457265691
0.5307898073528218
0.3811619667909992
0.3733709892126371
0.3733269877947299
0.5175235280616045
0.3799387923438856
0.3733649759629522
0.3733268395043335
0.4998030515972344
0.3779529235457032
0.3733469833234737
0.3733260821150935
0.3733249420999873
0.3733246624902741
0.3735326774187203
0.4198381853400081
0.3733250288179289
0.3733270893915093
0.3743927105405173
0.4565239866646047
0.3733253097244699
0.3733307584097548
0.3752826157687788
0.4728303474979465
0.3733257777140412
0.3733414102885516
0.3767378091952961
0.487231442544393
0.3733249839912365
0.3733250568105495
0.3733250556044773
0.3733250556335699
0.3733242136809581
0.3733250479509253
0.373325056841594
0.3733250709151327
0.3733526001473335
0.3733241149103956
0.3733257559766315
0.3733345167339544
0.3792444172418185
0.3733217267789061
0.3734099078311579
0.3740766701162944
0.3733250564948795
0.3733254413307356
0.3734319331191203
0.3762389457054295
0.3733250836715248
0.373328598006412
0.3738492613177315
0.3796159075941131
0.3733252666748978
0.373338137817199
0.3746285202417264
0.3832821159793658
0.3733256605982663
0.3733487488687826
0.3753063031985513
0.386834207857922
0.3733252587854462
0.3733295484376853
0.3743846373440348
0.406292457861381
0.3733255412793014
0.3733379120266547
0.3754825332608876
0.3985951548799969
0.3733259554636845
0.3733512979315936
0.3760184591707452
0.3931284612617812
0.3733259556033632
0.3733539598405319
0.3757559921411494
0.3900989450907127
0.4084800068593152
0.3739393229174416
0.3733266691297601
0.3733251068790528
0.4034440536992568
0.3739211627507248
0.3733272713776713
0.3733251396530308
0.399186147330565
0.3736634769780797
0.3733258655136075
0.3733251232219731
0.3954415219207534
0.3734810735747823
0.3733253623981132
0.3733250717420635
0.3927032145416804
0.3731810803330163
0.3733250556165154
0.3733250556161738
0.3899924300306995
0.3734091050930705
0.3733250556165154
0.3733250556165154
0.3840625285362343
0.3733250379799551
0.3733250556165154
0.3733250556165153
0.3762761869252433
0.3733250529542337
0.3733250556165154
0.3733250556165151
0.3733250556165154
0.3733250556165154
0.3733250556165154
0.3733259534890679
0.3733250556165152
0.3733250556165155
0.3733250556172326
0.3733285657033563
0.3733250556165154
0.3733250556165154
0.3733250556265298
0.3733448456495363
0.3733250556165154
0.3733250556165154
0.3733250558269833
0.3733732961354606
0.3733267142734991
0.3733317033030879
0.3733607476656876
0.374026237157781
0.3733317033905416
0.3733331079468009
0.3733541923627137
0.3760130373156187
0.3733607476409309
0.3733541922863643
0.3743676353158228
0.3900376017976857
0.3740262371093135
0.3760130372874113
0.3900376019565641
0.4430541065198427
0.5257159819258469
0.4680572253766744
0.4376215005727649
0.4040695143159615
0.5113911762689641
0.5001370404273628
0.496714293396638
0.4715820429950073
0.5048884996331355
0.5019848226800184
0.503819087494781
0.4928976108734192
0.5081032256396766
0.5053030776076857
0.5057443320619756
0.4976726882654078
0.5017999163943951
0.5028343864340258
0.5057271636914258
0.5126061723241093
0.5072720639039633
0.5086451936070256
0.5113275263174362
0.518972168336615
0.5088616124238979
0.5102283635111994
0.51301230438007
0.519640336573407
0.5101304604486548
0.5105275381713009
0.5132823952343732
0.5185877510069317
0.4521914645965438
0.3868011284432436
0.3723237826995972
0.3751840487295747
0.4228548707553705
0.3630226889399743
0.3646835959480457
0.3728950239141876
0.394201710953175
0.354280458157376
0.3675612058494829
0.3759375665678907
0.3367435089774649
0.3385284103021811
0.3628879034375262
0.3736490164711305
0.3773684331512837
0.3789104429489743
0.3799118224005896
0.3785524881609805
0.37603107573378
0.3785181801210403
0.3796497853713298
0.3781930632411937
0.3778762172840928
0.3797319085876271
0.3805199066596796
0.3787846385463397
0.376103969536653
0.3777975926176724
0.3795929336380529
0.3776969644248209
0.3756549154896354
0.3738265222605593
0.3733288404303468
0.4437351040740902
0.3756356305876774
0.3739393158559575
0.3733171970119827
0.4750575191355266
0.3760502078284257
0.3741074350790937
0.3734096665199718
0.4882919618198904
0.3750504487408007
0.3736280943961341
0.3734253519867257
0.4948136608020629
0.6745518851544937
0.6992932970811008
0.6958982084856175
0.6894876090052521
0.7259025144521298
0.7228585906436451
0.711285436091927
0.7025913663055514
0.7123783946971303
0.7079878242913846
0.7147554896932721
0.711394399999285
0.7363227199650457
0.7228724007134142
0.719162261747346
0.7154707747803463
0.6842723591994849
0.6937317237177115
0.7019126859910854
0.7117736977389809
0.6966885360112011
0.7054616251708626
0.7125288919920261
0.7215607835990332
0.7065901224262134
0.7157928817318056
0.7241511066128362
0.733352097815677
0.7107247536619768
0.7198371242408649
0.7279394798860457
0.7375829056373154
0.7113659553759973
0.6968476608098938
0.6593654670569117
0.5748994719615248
0.7193563169969797
0.705129882799583
0.6645449799653854
0.5860275641968549
0.7321905555424753
0.717495181024372
0.6720997055109232
0.6066936798518082
0.7372756051933137
0.7248270433619878
0.675702061800975
0.705289439133541
0.3865275562471597
0.09684027265237162
0.03955835566469814
0.05115981383532339
0.3089219534668863
0.06413295402689224
0.04842119934277484
0.06033090320569747
0.232087175983537
0.04328359067182121
0.04741216114453541
0.07179099355039827
0.1685398280467644
0.02905368023706783
0.0540346898660062
0.07672326163232006
0.06237348568372871
0.06738511383401059
0.06849658164517293
0.06080922614865384
0.07170214640189011
0.07392360769547163
0.06876373370973095
0.05677352804426524
0.0855356891209122
0.08493465347193729
0.07372942913925362
0.05884900644651246
0.09067636713544781
0.08668075172894546
0.07340117933599903
0.06540216762362686
0.1116652538182477
0.1636555278646512
0.2033254783178427
0.2530701162681422
0.1037204827088386
0.1512289696530496
0.1859715890777519
0.2387771368206551
0.09547696897818556
0.1403223564883163
0.1781447602869901
0.2191198575593212
0.08170941445092021
0.1210643847521708
0.1576149507032394
0.2010686175536122
0.1944404246416642
0.140024986934528
0.07771114757053263
0.06247244798035842
0.174929760074205
0.1135650130706994
0.05835773931626171
0.0720861109905446
0.1386973145116824
0.07838060978611142
0.04417097040312831
0.0924754150661907
0.1025305849055862
0.05258286503048067
0.04884753314865841
0.11677285900661
0.146111117785479
0.138857915225703
0.1320752053221677
0.1331586763354875
0.1252117286451444
0.1196490572883008
0.1146225565459431
0.1131228467706409
0.1077799963959842
0.1140504994923411
0.1145315587838644
0.115042155042192
0.1129783002503358
0.1505973117759735
0.1535471709138896
0.1533207390540183
0.1331586763354632
0.113122846770625
0.1150421550422506
0.1533207390541119
0.1320752053220405
0.1146225565459164
0.1145315587839746
0.1535471709139143
0.1388579152255028
0.1196490572883216
0.1140504994924857
0.1505973117758275
0.1461111177853676
0.1252117286453327
0.1077799963961069
0.1129783002499975
0.06247244798005747
0.07771114757012969
0.1400249869340449
0.194440424640803
0.07208611099035032
0.05835773931593306
0.1135650130705178
0.1749297600737158
0.09247541506640267
0.04417097040295219
0.07838060978582423
0.1386973145114984
0.1167728590066749
0.04884753314878924
0.05258286503041626
0.102530584905402
0.2010686175532562
0.1576149507028676
0.1210643847512504
0.08170941445007426
0.219119857559086
0.1781447602868059
0.1403223564876014
0.0954769689772945
0.2387771368204545
0.185971589077648
0.151228969652671
0.1037204827080258
0.2530701162679314
0.2033254783174541
0.1636555278641105
0.1116652538175945
0.06080922614801951
0.06849658164546543
0.06738511383412132
0.06237348568338576
0.05677352804401405
0.06876373370989908
0.07392360769547068
0.07170214640168437
0.0588490064463282
0.07372942913952076
0.08493465347199128
0.08553568912044453
0.06540216762335391
0.07340117933621958
0.08668075172910004
0.09067636713478816
0.05115981383480884
0.03955835566405557
0.09684027265142559
0.3865275562466083
0.06033090320530199
0.04842119934215226
0.06413295402644227
0.308921953465787
0.07179099354969606
0.04741216114393449
0.04328359067161284
0.2320871759828862
0.07672326163122281
0.05403468986517498
0.02905368023668343
0.1685398280465014
0.5748994719606533
0.6593654670571438
0.6968476608108586
0.7113659553793336
0.5860275641961143
0.6645449799657933
0.7051298828009002
0.719356317000679
0.6066936798510363
0.6720997055111795
0.7174951810259836
0.7321905555453984
0.705289439133115
0.6757020618015067
0.7248270433635101
0.7372756051959567
0.7117736977440625
0.7019126859925272
0.693731723713781
0.6842723592048459
0.7215607836026096
0.712528891992157
0.7054616251683247
0.6966885360160577
0.7333520978175798
0.7241511066124627
0.715792881730857
0.706590122431266
0.7375829056390535
0.7279394798854243
0.7198371242399172
0.7107247536676587
0.689487609013237
0.6958982084801655
0.6992932970842695
0.6745518851503174
0.7025913663149103
0.7112854360849862
0.7228585906460564
0.7259025144488032
0.7113944000070012
0.7147554896841355
0.7079878242917094
0.7123783946913854
0.7154707747843395
0.7191622617390955
0.7228724007144907
0.736322719956169
0.4437351040726194
0.3733288404274643
0.373826522263071
0.3756549154896892
0.4750575191298894
0.3733171970052187
0.3739393158618812
0.3756356305857889
0.4882919618101594
0.3734096665137258
0.3741074350891662
0.3760502078242772
0.4948136607895489
0.3734253519799034
0.3736280944128756
0.375050448732213
0.3785524881616166
0.3799118224001188
0.378910442948369
0.3773684331512739
0.3781930632416398
0.3796497853707187
0.378518180120724
0.3760310757335738
0.3787846385472345
0.3805199066591007
0.3797319085880747
0.3778762172834165
0.3776969644272168
0.3795929336368774
0.3777975926193479
0.3761039695357249
0.375184048727737
0.3723237826991053
0.3868011284420766
0.4521914645975079
0.3728950239120049
0.3646835959478207
0.3630226889389424
0.4228548707561973
0.3759375665658572
0.367561205849435
0.3542804581565465
0.3942017109536002
0.3736490164689873
0.3628879034377387
0.3385284103010791
0.336743508976823
0.512606172323848
0.5057271636871967
0.502834386433486
0.5017999163989405
0.5189721683343259
0.5113275263140514
0.5086451936094004
0.5072720639088388
0.5196403365704907
0.5130123043778496
0.5102283635141915
0.5088616124275815
0.5185877510054823
0.5132823952333315
0.5105275381745914
0.5101304604499867
0.4976726882677761
0.49289761087138
0.4715820429870616
0.4040695143178499
0.5057443320616652
0.5038190874910699
0.4967142933943797
0.4376215005409108
0.5053030776073033
0.5019848226802947
0.500137040425424
0.4680572253233115
0.5081032256382357
0.5048884996346191
0.5113911762620285
0.525715981921776
0.3458780271699842
0.3727216669438414
0.3733202427575499
0.3733250361954269
0.3427301333441876
0.3725358563724757
0.3733171020863043
0.3733250144812325
0.3418599900312185
0.372319769136318
0.3733122948667247
0.3733249787078255
0.3405297028277671
0.3719545050088881
0.373303492713017
0.3733249082798881
0.3733248296363436
0.3732907642246365
0.3712281203718444
0.3355269383330557
0.3733248311715049
0.3732912988797193
0.3712963928732491
0.3376842925731659
0.3733248317472164
0.3732916117769278
0.3713654484911866
0.3404749693104868
0.3733248466742718
0.3732949555739614
0.3716136927436503
0.3440010233444103
0.3733249082780288
0.373324978706458
0.3733250144762974
0.3733250361898177
0.3733034927139118
0.3733122948666351
0.3733171020856283
0.3733202427557627
0.3719545050079367
0.3723197691336395
0.3725358563743421
0.372721666943487
0.3405297028277553
0.3418599900288874
0.3427301333427819
0.345878027171298
)
;

boundaryField
{
    back
    {
        type            empty;
    }
    inlet
    {
        type            calculated;
        value           nonuniform List<scalar> 
16
(
0.3733250556165154
0.3733250556165154
0.3733250556165154
0.3733250556165154
0.3733250556165154
0.3733250556165155
0.3733250556165152
0.3733250556157585
0.3733250556161738
0.3733250556165154
0.3733250556165154
0.3733250556165151
0.3733250556165154
0.3733250556165152
0.3733250556165154
0.3733250556165154
)
;
    }
    front
    {
        type            empty;
    }
    top
    {
        type            calculated;
        value           nonuniform List<scalar> 
40
(
0.37332507174128
0.3733251232216661
0.3733251396534932
0.3733251068807366
0.3733252587886858
0.3733255412818047
0.3733259554644461
0.3733259556041247
0.3733256605971063
0.3733252666735468
0.3733250836720312
0.373325056497391
0.3733250556336508
0.3733250556042648
0.3733250568093645
0.3733249839923078
0.3733249420972716
0.3733250288199343
0.3733253097262637
0.3733257777157642
0.3733260821158876
0.3733268395053562
0.3733269877936219
0.3733285457267403
0.3733288858360058
0.3733308700911893
0.3733356217380237
0.3733244853976723
0.3733448689572324
0.373349619829275
0.3733266800151687
0.3733237063980273
0.3733235798188945
0.3733236149814846
0.3733244383874634
0.3733244344758949
0.3733248382167563
0.3733250063133068
0.3733250419853713
0.3733250491290221
)
;
    }
    outlet
    {
        type            calculated;
        value           uniform 0.3733250556165154;
    }
    bottom
    {
        type            calculated;
        value           nonuniform List<scalar> 
40
(
0.3733250491297753
0.3733250419854192
0.3733250063139298
0.3733248382159318
0.3733235798205561
0.3733236149807658
0.3733244383852192
0.3733244344767276
0.3733237063999192
0.3733266800097814
0.373349619827239
0.3733448689613493
0.3733288858348075
0.3733308700920501
0.3733356217397295
0.3733244854031681
0.3733285457265691
0.3733269877947298
0.3733268395043335
0.3733260821150935
0.3733249420999873
0.3733250288179289
0.3733253097244699
0.3733257777140412
0.3733249839912365
0.3733250568105495
0.3733250556044774
0.3733250556335699
0.3733250564948795
0.3733250836715248
0.3733252666748979
0.3733256605982663
0.3733252587854462
0.3733255412793014
0.3733259554636845
0.3733259556033632
0.3733251068790528
0.3733251396530308
0.3733251232219731
0.3733250717420635
)
;
    }
    wall
    {
        type            calculated;
        value           nonuniform List<scalar> 
104
(
0.5257159819258469
0.5113911762689641
0.5048884996331355
0.5081032256396766
0.5101304604486548
0.5105275381713009
0.5132823952343732
0.5185877510069317
0.3367435089774649
0.3385284103021811
0.3628879034375263
0.3736490164711305
0.376103969536653
0.3777975926176723
0.3795929336380529
0.3776969644248209
0.3750504487408007
0.3736280943961341
0.3734253519867257
0.4948136608020629
0.7363227199650457
0.7228724007134142
0.719162261747346
0.7154707747803463
0.7107247536619768
0.7198371242408649
0.7279394798860457
0.7375829056373154
0.7372756051933137
0.7248270433619878
0.675702061800975
0.705289439133541
0.1685398280467644
0.02905368023706783
0.05403468986600621
0.07672326163232004
0.09067636713544781
0.08668075172894546
0.07340117933599903
0.06540216762362686
0.08170941445092021
0.1210643847521708
0.1576149507032394
0.2010686175536122
0.1025305849055862
0.05258286503048067
0.04884753314865841
0.11677285900661
0.146111117785479
0.138857915225703
0.1320752053221677
0.1331586763354875
0.1331586763354632
0.1320752053220405
0.1388579152255028
0.1461111177853676
0.1167728590066749
0.04884753314878924
0.05258286503041626
0.102530584905402
0.2010686175532562
0.1576149507028676
0.1210643847512504
0.08170941445007426
0.06540216762335391
0.07340117933621958
0.08668075172910004
0.09067636713478816
0.07672326163122281
0.05403468986517498
0.02905368023668343
0.1685398280465014
0.705289439133115
0.6757020618015067
0.7248270433635101
0.7372756051959567
0.7375829056390535
0.7279394798854243
0.7198371242399172
0.7107247536676587
0.7154707747843395
0.7191622617390955
0.7228724007144907
0.736322719956169
0.4948136607895489
0.3734253519799034
0.3736280944128756
0.375050448732213
0.3776969644272168
0.3795929336368774
0.3777975926193479
0.3761039695357249
0.3736490164689873
0.3628879034377387
0.3385284103010791
0.336743508976823
0.5185877510054823
0.5132823952333315
0.5105275381745914
0.5101304604499867
0.5081032256382357
0.5048884996346191
0.5113911762620285
0.525715981921776
)
;
    }
}


// ************************************************************************* //
