/*--------------------------------*- C++ -*----------------------------------*\
  =========                 |
  \\      /  F ield         | OpenFOAM: The Open Source CFD Toolbox
   \\    /   O peration     | Website:  https://openfoam.org
    \\  /    A nd           | Version:  11
     \\/     M anipulation  |
\*---------------------------------------------------------------------------*/
FoamFile
{
    format      ascii;
    class       volScalarField;
    location    "0.021";
    object      p;
}
// * * * * * * * * * * * * * * * * * * * * * * * * * * * * * * * * * * * * * //

dimensions      [0 2 -2 0 0 0 0];

internalField   nonuniform List<scalar> 
880
(
80
80
80
79.999999994992
80
80
79.99999999999991
79.99999998793854
80
79.99999999999999
80
79.99999841075626
80
80
80
80.00000900842136
80
80.00000000000001
79.99999999999994
80
79.99999999999999
80
79.99999999999983
80
80
80
80.00000003519033
79.999999524754
80.00531992794348
80.01816206166086
80.02149978035816
80.01947219287828
80
80
79.99999999999996
80
80.0000000010632
80.00000000123055
80.00000000141013
80.00000000014576
80.00000568306505
80.00000623914561
80.00000658065368
80.00000247502386
80.02153975447905
80.02350583625761
80.02406420700838
80.01837358451935
80.05259465674008
80.02095966370628
80.00257031577921
80.00005739453488
80.00003183528881
80.00001554389063
80.0000023514969
80.00000007446889
80.00000001139307
80.00000000605758
80.00000000089547
80.00000000000703
79.99999999999514
80.00000000002321
80
80
79.99999999999996
79.99999999999997
80
80.00000000000001
80
80.00000000000001
80.00000000000001
80.00000000000001
79.99999999971273
79.99999999998649
79.99999999999989
80
79.99999896978272
79.99999980202722
79.99999999496522
79.99999999999993
80.00000000000809
80
79.99999999999999
80
79.99999997567419
79.99999999982936
80
79.99999999999999
80.00002704659997
80.0000002456661
79.99999999996869
79.99999999999999
79.96164435415673
79.99997855406778
79.99999999296283
79.99999999999999
79.99999999999991
79.99999999999902
80.00000021494429
80.00228470647025
80
80.00000000026139
80.00000172415632
80.0128416014139
80
80.00000000030784
80.00000203659032
80.01407491063968
80
80.00000000031967
80.00000232607258
80.01470478738841
80.01545100835146
80.00000268058405
80.00000000043133
80
80.01628668018627
80.00000311277307
80.00000000052768
80
80.01718100985083
80.00000362936615
80.00000000065181
79.99999999999999
80.0189321800606
80.000004491789
80.00000000090095
80
79.99999999999993
80.0000000004858
80.00000243025401
80.01164314241528
80
80.00000000042886
80.00000208112067
80.00855144950123
80.00000000203237
80.00000000051514
80.00000178689987
80.00661856304619
79.99999998590123
80.00000000922182
80.00000246456757
80.00285521707512
80.00000013632699
79.99999691162901
79.99427675967456
79.16055244310165
80.00000013359373
79.99999340067532
79.98731906463119
76.6376658386049
80.00000010154979
79.99999438756164
79.98670526991403
75.68747429943667
80.00000007725809
79.99999646007565
79.98857153081028
75.61146836878045
76.74091221544622
79.99254702511064
79.99999645604699
80.00000005471202
76.89553906704474
79.99372435360601
79.99999752732435
80.00000005032371
77.16197478836706
79.99500899638055
79.99999834167541
80.00000004371556
76.32833273788434
79.99357852371982
79.99999739798282
80.00000002516325
79.56419674933751
79.99960966817139
79.99999994604224
80.00000000335783
79.99248971771725
79.99999836245287
80.00000001905188
80.00000000017434
79.9990908759904
79.99999918894009
80.00000000006681
80
79.99045731293103
79.999989890064
79.99999999634342
79.99999999999956
79.95268162126479
80.00004500745946
80.00000188755253
80.00000000175119
79.95256973321953
80.00004405649214
80.00000187908154
80.00000000184832
79.95169540839393
80.000033200187
80.00000174550436
80.00000000184666
79.949936188534
80.0000070176428
80.00000135678405
80.00000000196411
79.9904573128086
79.99998988996799
79.99999999622966
79.99999999999422
79.99909087583279
79.99999918884184
79.99999999985478
80
79.99248971765607
79.99999836246789
80.00000001904914
80.00000000018206
79.56419674953597
79.99960966840929
79.99999994604975
80.00000000330121
80.00000005487804
79.99999645629985
79.99254702522862
76.74091221550783
80.00000005042102
79.99999752737035
79.99372435370887
76.89553906706718
80.00000004357531
79.99999834182557
79.99500899638387
77.16197478865926
80.00000002518955
79.99999739802278
79.993578523972
76.32833273771126
75.61146836857144
79.98857153067922
79.99999645999371
80.00000007722767
75.68747429919972
79.9867052697586
79.99999438730292
80.00000010132372
76.63766583852576
79.98731906441328
79.99999340066157
80.00000013339728
79.16055244316846
79.99427675959458
79.99999691154133
80.00000013659543
79.99999999999991
80.00000000056177
80.0000024303686
80.0116431426153
80.00000000000001
80.00000000044615
80.00000208112313
80.00855144944327
80.00000000213267
80.00000000049347
80.00000178679031
80.00661856301882
79.99999998607638
80.00000000921395
80.00000246447402
80.00285521707553
80.01893218044883
80.00000449165054
80.00000000099634
80
80.01718101016509
80.00000362957174
80.00000000068336
80
80.01628668016033
80.00000311300816
80.00000000058925
79.99999999999999
80.01545100851091
80.00000268043377
80.00000000043735
80
80
79.99999999999541
80.0000002149291
80.00228470616577
80
80.00000000022257
80.00000172422968
80.01284160143939
80
80.00000000031186
80.00000203662063
80.01407491078271
79.99999999999999
80.00000000034245
80.00000232595475
80.01470478742932
80
80
80
80
79.99999999280662
79.99999999998532
80
80.00000000000001
79.9999785541003
80.00000024580014
79.99999999977679
80
79.96164435416253
80.00002704660498
79.99999997568413
80.00000000000809
79.99999999999991
80
79.99999999999989
80
80
79.99999999999999
80
79.99999999496657
79.99999999999999
80
79.9999999999481
79.99999980203954
80
79.99999999999999
79.99999999978031
79.99999896975694
79.9999999999891
80.00000001122812
80.00003183514794
80.05259465669971
79.9999999999952
80.00000000607943
80.00001554390428
80.02095966351955
79.99999999999999
80.00000000104572
80.00000235143081
80.00257031576184
80
80.00000000000853
80.00000007449074
80.00005739439952
80.01837358460124
80.0000024752309
80.00000000012329
79.99999999999999
80.0240642069306
80.00000658101845
80.00000000139042
79.99999999999999
80.0235058364766
80.00000623932
80.00000000124831
79.99999999999993
80.02153975441807
80.00000568261143
80.00000000102605
80
80.01947219300561
79.99999952476684
80
80
80.02149978028893
80.00000003500887
80
79.99999999999999
80.01816206179146
80.00000000000001
80
79.99999999999999
80.00531992791315
80
80
79.99999999999989
80
79.99999999999997
80
79.9999999953271
80.00000000000003
80.00000000000001
79.99999999999999
79.99999998801886
80
80
80
79.9999984107034
80
80
79.99999999999989
80.0000090083187
79.99999959156354
79.99999111559335
79.99983854858934
80.00153611394963
79.99999111552054
79.99992407802318
79.99645723998748
79.96840392211634
79.99983854858709
79.99645723999798
80.00146765753088
80.81378139052312
80.00153611404029
79.96840392217217
80.81378139055357
91.03090146731665
123.198153161248
95.73844292320625
86.11414309113046
80.61367344939354
137.2830723907974
111.529224850513
97.55306114016444
82.58967383785958
140.8821941560603
115.805166817094
101.3164548438548
83.40199076832853
141.3330200346787
116.1498842069078
101.4468984153568
83.39319163370537
83.77148636985874
84.00099003242963
84.0330539167427
83.69192411857061
102.6533565740363
103.3094222570845
103.4106195426993
105.0676157134979
116.6130937126155
116.8610562601669
116.9437759291797
123.5639070753471
142.3210826896382
142.5633963509233
142.6621991211377
154.7004101977858
84.2716641118417
81.12374540981865
80.0816870581757
80.00057219157367
92.43385793175683
81.99511717428608
80.0947964739308
79.99704193551813
92.09007634038413
81.40931682070838
80.00949211833318
79.99259241602613
82.82117341873104
79.76473832079505
79.90141838633311
79.97460493432492
79.99985416154972
79.99998580054827
79.99999981618087
80.00000000097099
79.99962628633857
79.99999375036703
80.00000001291924
80.00000000953982
79.99965113675921
79.99999899653717
80.00000003042793
80.00000001702072
79.99789741668287
79.99996856750005
79.9999999846562
80.00000002198256
80.00000000013348
80.00000000040222
80.00000035078533
76.75362426157299
80.00000000169136
80.00000000011009
80.00000012714264
69.29825582012505
80.00000000377361
80.00000000011762
80.00000000960631
66.84682448025198
80.00000000592895
80.00000000014434
80.00000000111619
80.06636566901462
82.26983553807486
87.48443410003534
87.84410284155156
87.8140626051061
124.1298641378332
153.1765680324593
154.3417918474873
154.1504056156961
177.2444766230794
201.8542626458236
202.3923558780408
202.1737674412284
234.1092367275029
268.7937504860666
269.8979922018351
269.6367184649388
87.80916889099227
87.81034676321963
87.81178119280737
88.01565275011144
154.0981497134126
154.0976090182441
154.0991610437975
154.4230641253895
202.1012094047044
202.0968838541278
202.096577376628
202.0519793729463
269.4518785430755
269.4348026995728
269.4347796760954
269.2545911707831
85.03862262836243
83.59676208336981
82.63225802272197
81.0191298332213
144.4156198078429
137.4056290747211
130.866828891692
115.1278276477036
197.4239399701561
193.8724605675295
189.4749381357421
185.7136513851823
266.4178898349396
266.4001328441702
263.0985633228325
285.4222423628887
72.78045753080463
42.32535196264983
25.06880851269106
24.32105258382533
66.46767498862836
27.84049365772448
12.38994631132058
11.43434506596814
62.44469956080639
14.99205259921096
6.027308885607681
5.549587396463598
47.0603505591891
5.901739258729845
2.751621091216165
2.600270871684955
23.58045383718475
23.69858105307219
23.53936524394173
16.04511749536076
11.48814945649691
11.50352388066718
11.87654524781725
8.6222682712795
5.197987978462563
5.192472302971229
5.764247145142646
6.608524076498352
2.339198078539087
2.316026957919934
2.708716583466147
4.032279510971999
62.68647221005229
79.16692599209931
79.91469475696209
79.0498581783465
48.13713234181768
76.23832554357102
79.32180460362882
77.54048500346966
38.1258861570421
70.57282801801368
76.92270885298507
76.60537437795722
28.2623465581719
61.78541001145637
73.49974843592615
73.60149675000009
78.30375287854315
75.19045496260769
71.86264922641496
70.90302096169783
68.20356060242575
57.28823017439979
46.44747132711322
42.600789035485
47.31154828737515
33.82416672871946
20.46226054120377
14.9254243241653
29.24499881604564
16.71460442060654
8.51674542007402
4.09960288959175
3.910368246774133
3.873196526515698
3.783834383054929
3.73573893223257
13.78430677380087
13.47481015076351
13.08747921979768
12.92261697283421
41.06741631192154
40.81810148373933
40.52524674944274
40.39267739241882
70.07531178550498
70.03407800113114
69.99182499616765
69.98280204916192
3.735738932233753
12.9226169728225
40.39267739258207
69.98280204936457
3.783834383063375
13.08747921981909
40.52524674945321
69.9918249961015
3.873196526511397
13.4748101507887
40.81810148370352
70.03407800108896
3.91036824678316
13.78430677380152
41.06741631187414
70.07531178542558
70.90302096162975
71.86264922634284
75.19045496246893
78.30375287830817
42.60078903537902
46.44747132715119
57.28823017453677
68.2035606023198
14.92542432418306
20.46226054122873
33.82416672871652
47.31154828736526
4.099602889595612
8.516745420078239
16.71460442060964
29.24499881604208
73.60149674996083
73.4997484358218
61.78541001147519
28.26234655816003
76.6053743779222
76.92270885292974
70.57282801801111
38.1258861570329
77.54048500345455
79.32180460345874
76.23832554353159
48.13713234183806
79.04985817829817
79.91469475687026
79.16692599205776
62.68647221010178
16.04511749534067
23.53936524390146
23.69858105303467
23.58045383710198
8.6222682712772
11.87654524781466
11.50352388070075
11.48814945651983
6.608524076532476
5.764247145151142
5.19247230299115
5.197987978482883
4.032279510975927
2.708716583472014
2.316026957921077
2.339198078547047
24.32105258368371
25.06880851270896
42.3253519626295
72.78045753080995
11.43434506602018
12.38994631131921
27.8404936576289
66.46767498846054
5.549587396492971
6.027308885590438
14.99205259918842
62.44469956066874
2.600270871708889
2.751621091192638
5.90173925869804
47.06035055912817
81.01912983322421
82.63225802280347
83.59676208328287
85.03862262842875
115.1278276473468
130.8668288916189
137.4056290746525
144.4156198076901
185.7136513848991
189.4749381356578
193.872460567524
197.4239399700717
285.4222423627628
263.0985633227848
266.4001328441412
266.4178898349593
88.01565275005906
87.81178119299562
87.81034676324185
87.80916889101897
154.423064125072
154.0991610439022
154.0976090183227
154.0981497132983
202.0519793726295
202.096577376654
202.0968838541554
202.1012094046165
269.2545911705303
269.4347796760708
269.4348026995352
269.451878543098
87.81406260494495
87.84410284173674
87.48443409995596
82.26983553820396
154.1504056156323
154.3417918476612
153.1765680321428
124.1298641381867
202.1737674411405
202.3923558781458
201.8542626456498
177.2444766232547
269.6367184648018
269.8979922019206
268.7937504859435
234.1092367275267
76.75362426155068
80.00000035078213
80.00000000039857
80.0000000001334
69.29825582013821
80.00000012714091
80.00000000010867
80.00000000169034
66.84682448027927
80.00000000960578
80.00000000011748
80.00000000377361
80.06636566904767
80.00000000111704
80.00000000014455
80.00000000592912
80.00000000097073
79.99999981621866
79.99998580055127
79.9998541615706
80.00000000954017
80.00000001295862
79.99999375037204
79.99962628633341
80.00000001701419
80.00000003047148
79.99999899653996
79.99965113673657
80.00000002198229
79.99999998468289
79.99996856750258
79.99789741665437
80.00057219153523
80.08168705816543
81.12374540974466
84.27166411178446
79.99704193549996
80.09479647392736
81.9951171742514
92.43385793171791
79.99259241601295
80.00949211833185
81.40931682068332
92.09007634038993
79.97460493429921
79.90141838633463
79.76473832077626
82.8211734187432
83.69192411861242
84.03305391668064
84.00099003239482
83.77148637000363
105.0676157132631
103.410619542579
103.3094222569664
102.6533565741585
123.563907075158
116.9437759290718
116.8610562599422
116.613093712708
154.7004101976492
142.6621991209971
142.5633963506553
142.321082689746
83.39319163376311
83.40199076826617
82.58967383793888
80.61367344948756
101.4468984152442
101.3164548435829
97.55306114012683
86.11414309110715
116.1498842069387
115.8051668168017
111.5292248504257
95.73844292313386
141.3330200347618
140.8821941558497
137.2830723907809
123.1981531612976
79.98614294576706
79.99999514303767
80.00000024059671
80.0000000013936
79.95885126161338
79.99998501426674
80.0000007163982
80.00000000404974
79.92999279734887
79.99995668036544
80.0000007724818
80.00000000665358
79.92257886317354
79.99996237659623
80.00000097418163
80.00000000668888
80.0000000018034
80.00000188749283
80.0000450075088
79.9526816212794
80.00000000187437
80.00000187921047
80.00004405628002
79.95256973333909
80.00000000181394
80.00000174563392
80.00003320022218
79.95169540817032
80.00000000184748
80.00000135692623
80.00000701712791
79.94993618849385
80.00000000667671
80.00000000663837
80.00000000391796
80.00000000124503
80.00000097421675
80.0000007724815
80.00000071634966
80.00000024044957
79.99996237673807
79.99995668009841
79.99998501455141
79.99999514286834
79.92257886300435
79.92999279708259
79.95885126171174
79.98614294581152
)
;

boundaryField
{
    back
    {
        type            empty;
    }
    inlet
    {
        type            zeroGradient;
    }
    front
    {
        type            empty;
    }
    top
    {
        type            zeroGradient;
    }
    outlet
    {
        type            fixedValue;
        value           uniform 80;
    }
    bottom
    {
        type            zeroGradient;
    }
    wall
    {
        type            zeroGradient;
    }
}


// ************************************************************************* //
