/*--------------------------------*- C++ -*----------------------------------*\
  =========                 |
  \\      /  F ield         | OpenFOAM: The Open Source CFD Toolbox
   \\    /   O peration     | Website:  https://openfoam.org
    \\  /    A nd           | Version:  11
     \\/     M anipulation  |
\*---------------------------------------------------------------------------*/
FoamFile
{
    format      ascii;
    class       surfaceScalarField;
    location    "1.5";
    object      phi;
}
// * * * * * * * * * * * * * * * * * * * * * * * * * * * * * * * * * * * * * //

dimensions      [0 3 -1 0 0 0 0];

internalField   nonuniform List<scalar> 
8667
(
1.5884493
0.1893277
7.6411827e-07
1.3984125
0.19003489
1.9119027e-06
1.2071156
0.19129331
3.5885725e-06
1.0168949
0.19021787
2.8090256e-06
0.82504215
0.19184901
3.7771946e-06
0.63570318
0.18933403
4.9431658e-06
0.44473778
0.19096063
4.7634633e-06
0.26063608
0.18409668
5.0210827e-06
0.18149074
6.0553411e-06
0.07913928
1.5886482
0.37845732
1.3982176
0.38046547
1.2071679
0.382343
1.0160788
0.38130703
0.82466481
0.38326296
0.63425141
0.37974743
0.44440116
0.38081088
0.26067976
0.36781808
0.36452525
0.077645254
1.5884797
0.5677554
1.3983068
0.57063843
1.2069675
0.57368227
1.0157835
0.57249099
0.82386334
0.57518315
0.63358513
0.57002565
0.44331103
0.57108498
0.25925428
0.55187484
0.54817612
0.075603409
1.5884362
0.75709698
1.3984483
0.76062639
1.2069284
0.76520213
1.0157443
0.76367508
0.82334352
0.76758393
0.632585
0.76078416
0.4419927
0.76167728
0.25762642
0.73624111
0.732093
0.073709536
1.5884551
0.94641948
1.3985164
0.95056512
1.20725
0.95646856
1.0157796
0.95514548
0.82317986
0.96018364
0.63172599
0.95223803
0.4407548
0.95264848
0.2558616
0.92113431
0.91554835
0.072406253
1.5885964
1.1356009
1.3987288
1.1404327
1.2075703
1.1476271
1.0158769
1.1468389
0.82326674
1.1527938
0.63105967
1.1444451
0.43937076
1.1443374
0.25370235
1.1068027
1.0989495
0.070301245
1.5886253
1.3247534
1.3989415
1.3301165
1.2082007
1.3383679
1.0162379
1.3388016
0.8232276
1.3458041
0.63060161
1.3370711
0.43825379
1.3366852
0.2514634
1.2935931
1.2824685
0.067944325
1.5888902
1.5136409
1.3993026
1.5197041
1.2086541
1.5290165
1.0168555
1.5306002
0.82353041
1.5391292
0.63014015
1.5304613
0.43689299
1.5299324
0.24910576
1.4813803
1.4659029
0.065671394
1.5890189
1.7023998
1.3998218
1.7089012
1.2092182
1.7196201
1.0173803
1.722438
0.82388799
1.7326216
0.63015743
1.7241919
0.4358539
1.7242359
0.24635768
1.6708766
1.6504355
0.061825066
1.8848176
1.59536
2.067035
1.5955604
2.2490418
1.5957716
2.4308311
1.5959888
2.6123971
1.5962099
2.7937285
1.5964466
2.9743855
1.597121
3.1540036
1.5981599
1.598324
3.3334575
1.8919403
1.4123208
2.0745672
1.4129335
2.2567886
1.4135502
2.4387212
1.4140561
2.6204611
1.41447
2.8023614
1.4145464
2.9850018
1.4144806
3.1680581
1.4151037
1.4150708
3.3513113
1.9044261
1.2275148
2.0891002
1.2282595
2.2734764
1.229174
2.4574929
1.2300396
2.6408722
1.2310908
2.823085
1.2323335
3.0042805
1.2332851
3.1845871
1.234797
1.2353768
3.3642811
1.9088813
1.0410716
2.095179
1.0419618
2.2816189
1.042734
2.4677236
1.043935
2.6541218
1.0446925
2.8408435
1.0456118
3.0279763
1.0461523
3.2146828
1.0480905
1.0487136
3.401346
1.9214373
0.85225578
2.1104495
0.85294968
2.2998026
0.85338091
2.4892074
0.85453022
2.6785604
0.85533946
2.867345
0.85682726
3.05545
0.85804733
3.2439119
0.85962865
0.86140543
3.4312201
1.9141257
0.66232196
2.1052528
0.66182261
2.2969593
0.66167439
2.4899582
0.66153138
2.6829431
0.66235453
2.877263
0.66250737
3.0713699
0.66394043
3.2670157
0.66398279
0.66603583
3.4623853
1.9150229
0.47153498
2.1083929
0.46845254
2.3026448
0.4674225
2.5000067
0.46416944
2.6980191
0.46434215
2.8982433
0.46228319
3.0985288
0.46365492
3.2999665
0.46254513
0.46480663
3.5011957
1.8593158
0.2830957
2.0542671
0.27350132
2.2530294
0.26866021
2.4564998
0.26069902
2.6618671
0.25897487
2.8702414
0.25390885
3.0795715
0.25432486
3.2908202
0.25129642
0.25320268
3.5024241
1.841773
0.09175825
2.0529018
0.062372521
2.2777287
0.043833224
2.5091668
0.029260924
2.7433563
0.024785415
2.9772744
0.019990732
3.212801
0.018798315
3.4483271
0.01577033
3.6853486
0.016181088
3.3226333
0.01082419
3.3122861
0.010347262
3.3022607
0.010025395
3.2926116
0.0096491191
3.2834327
0.0091788933
3.274662
0.0087706897
3.2660999
0.0085620469
3.2578497
0.0082502354
0.0080222193
3.2498275
3.3428798
0.019255685
3.335008
0.018219106
3.3273885
0.017644886
3.3202526
0.016785022
3.313395
0.016036456
3.3072558
0.014909886
3.3014165
0.014401426
3.2964048
0.013261853
0.01249373
3.2919333
3.3565327
0.027004104
3.3493466
0.02540518
3.3422122
0.024779316
3.3358194
0.023177824
3.3292846
0.022571204
3.323557
0.020637525
3.3178929
0.020065485
3.3132177
0.017937085
0.017304767
3.3084067
3.3962467
0.032103346
3.3917171
0.029934818
3.3872683
0.029228131
3.3832728
0.027173312
3.3793991
0.026444879
3.3758775
0.024159115
3.372607
0.023335983
3.369446
0.021098059
0.020149518
3.3666013
3.4254326
0.037890841
3.4199451
0.035422282
3.4147471
0.034426204
3.4097107
0.032209684
3.4050906
0.031065013
3.4003284
0.028921226
3.3962305
0.027433961
3.3918185
0.025510023
0.023756431
3.3882116
3.459693
0.040583208
3.4572792
0.037836046
3.455358
0.036347417
3.4534854
0.034082296
3.4517637
0.0327867
3.4500558
0.030629164
3.4484483
0.029041455
3.4469738
0.026984505
0.025668271
3.4450619
3.4993339
0.042444942
3.4975286
0.039641429
3.4959464
0.037929572
3.4942208
0.035807857
3.4924291
0.034578467
3.4904244
0.032633839
3.4876901
0.031775713
3.4847192
0.029955458
0.029418542
3.4809689
3.5124577
0.032411377
3.5215833
0.030515811
3.5315906
0.027922313
3.540412
0.026986397
3.5494956
0.025494914
3.5563157
0.025813753
3.5620857
0.026005705
3.5640193
0.028021793
0.030100192
3.5633377
3.7041278
0.013632274
3.7197501
0.014893455
3.7313958
0.016276631
3.7389849
0.019397244
3.7408284
0.023651423
3.7372012
0.029441022
3.7270386
0.036168296
3.7089526
0.046107745
3.6869493
0.052103559
3.6715835
0.067514778
-0.052149009
3.6419133
0.06519385
-0.035523704
3.6061898
0.062137515
-0.026413986
3.5678068
0.060810039
-0.02242704
3.5277869
0.058056587
-0.01803668
3.4866504
0.056834872
-0.015698396
3.4454366
0.054701905
-0.013488121
3.404385
0.054692497
-0.013640848
0.053268102
3.3633491
-0.012232198
3.571394
0.059458451
3.5758821
0.060705818
3.5762584
0.061761135
3.5747459
0.062322589
3.5697585
0.063044011
3.5628772
0.063716105
3.5528597
0.06471946
3.542223
0.065329158
0.066942365
3.5285487
3.4887725
0.051654878
3.4958694
0.053608902
3.5021412
0.055489295
3.5069586
0.057505217
3.5106872
0.059315403
3.5131383
0.061265074
3.5146736
0.06318415
3.5149745
0.065028213
0.06773993
3.5141769
3.4561146
0.040602244
3.4666468
0.043076716
3.4776638
0.044472293
3.4879532
0.047215811
3.4988206
0.048447942
3.5088478
0.051237936
3.5191479
0.052884059
3.5282738
0.055902232
0.05819784
3.5378159
3.3966434
0.032170447
3.40572
0.034000138
3.4145212
0.035671032
3.4242974
0.037439655
3.4340679
0.038677464
3.4440948
0.041210973
3.4542267
0.042752174
3.4642879
0.04584102
0.047198785
3.475287
3.376361
0.022410779
3.3870163
0.023344781
3.3975285
0.025158865
3.4093804
0.025587719
3.4210491
0.027008782
3.4338331
0.028426989
3.4467036
0.029881678
3.4606856
0.031859011
0.032201413
3.475683
3.3169783
0.013839135
3.325325
0.014998112
3.334277
0.016206826
3.3432502
0.016614538
3.3526626
0.017596437
3.3627722
0.018317335
3.3728568
0.019797047
3.3838839
0.020831958
0.021026026
3.3950593
3.3007495
0.0050230069
3.3100737
0.0056738665
3.3199965
0.0062839907
3.3304281
0.0061830051
3.3418842
0.0061403075
3.3540255
0.0061760386
3.3665367
0.0072858702
3.3799523
0.0074163089
0.006555741
3.3944226
3.2548505
3.2605243
3.2668083
3.2729913
3.2791316
3.2853077
3.2925936
3.3000099
3.3065656
3.3085027
-0.0019370753
3.3054147
0.0030879402
3.2978132
0.0076015144
3.2898049
0.0080083539
3.2839838
0.0058210939
3.2848597
-0.00087587282
3.2970426
-0.012182956
3.3243301
-0.027287517
-0.037892628
3.3622228
3.4138214
-0.02133585
3.4386345
-0.021725208
3.469082
-0.022845956
3.5025647
-0.025474322
3.5382888
-0.02990302
3.5734389
-0.03602599
3.6039931
-0.042737138
3.6260304
-0.049324843
-0.056084268
3.644222
3.4077603
-0.034036903
3.4212424
-0.035207276
3.4362546
-0.037858109
3.4506395
-0.039859293
3.4648917
-0.044155177
3.4757309
-0.046865242
3.48605
-0.053056206
3.4941065
-0.057381319
-0.066238115
3.5042603
3.4918755
-0.050229414
3.5088791
-0.052210895
3.5271656
-0.056144599
3.5463602
-0.059053882
3.5666527
-0.064447707
3.587401
-0.067613568
3.6081417
-0.073796899
3.6287525
-0.077992095
-0.08448063
3.646995
3.4863484
-0.06129082
3.4984635
-0.064326045
3.5097682
-0.067449283
3.5219815
-0.071267171
3.5326713
-0.075137473
3.54458
-0.079522341
3.5545022
-0.083719009
3.5654452
-0.088935157
-0.09313425
3.5740988
3.5462769
-0.069751764
3.5551688
-0.073217984
3.5629312
-0.075211642
3.5705004
-0.078836418
3.5765053
-0.081142399
3.5822313
-0.085248257
3.5864973
-0.087985013
3.5908695
-0.093307354
-0.096733867
3.5944691
3.5122594
-0.067834236
3.5084835
-0.069442033
3.5044595
-0.071187673
3.4984807
-0.072857634
3.4926825
-0.075344228
3.485476
-0.078041697
3.4785419
-0.0810509
3.4701444
-0.084909861
-0.088406741
3.4618173
3.5141402
-0.053425698
3.4972098
-0.052511627
3.4797172
-0.053695114
3.4601622
-0.053302567
3.439838
-0.055020095
3.4178053
-0.056008935
3.3954486
-0.058694254
3.3715968
-0.061057982
-0.063908478
3.3470985
3.3232981
-0.013374683
3.2833231
-0.012536692
3.2438465
-0.014218461
3.2032326
-0.01268867
3.1635691
-0.015356582
3.1220429
-0.01448277
3.0814429
-0.018094269
3.0374593
-0.01707432
2.9947497
-0.021198957
0.067805288
2.9465802
-0.019635777
0.093494953
3.3214088
0.10307028
3.4522419
0.099448411
3.5980909
0.090464248
3.583083
0.07183319
3.6656261
0.05992686
3.5161667
0.04561321
3.6585357
3.407836
0.070521628
2.9030072
-0.026948574
0.097604209
3.2943262
0.10688092
3.4429652
0.10348436
3.6014875
0.096105431
3.5904619
0.080513069
3.6812184
0.064399881
3.5322798
0.049541749
3.6733938
3.4573777
0.076433574
2.8538073
-0.02723371
0.10419147
3.2665684
0.11403652
3.4331202
0.11065685
3.6048672
0.10261525
3.5985035
0.085269652
3.698564
0.064809374
3.5527401
0.051063042
3.6871402
3.5084408
0.082282068
2.8075902
-0.036064986
0.1091785
3.2396719
0.1182122
3.4240865
0.11438147
3.6086979
0.1062108
3.6066742
0.090859283
3.7139155
0.066333163
3.5772662
0.050621747
3.7028516
3.5590625
0.090975149
2.7514631
-0.03484801
0.1176755
3.2129716
0.12652105
3.4152409
0.12276345
3.6124555
0.11314718
3.6162905
0.094956977
3.7321057
0.066139879
3.6060833
0.04965696
3.7193345
3.6087195
0.097191366
2.7038009
-0.049529143
0.12371064
3.1864523
0.13152889
3.4074226
0.12681842
3.617166
0.11550376
3.6276051
0.098018527
3.749591
0.06670024
3.6374016
0.048028707
3.738006
3.6567482
0.10727845
2.6490547
-0.052532246
0.13396484
3.1597659
0.14161899
3.3997685
0.1367403
3.6220447
0.1235928
3.6407526
0.10243018
3.7707536
0.067870788
3.671961
0.047569107
3.7583077
3.7043173
0.11526132
2.609898
-0.076104606
0.14102971
3.1339975
0.1475183
3.3932799
0.14081844
3.6287445
0.12496684
3.6566042
0.10430184
3.7914186
0.069640379
3.7066225
0.047006302
3.7809418
3.7513236
0.13056555
2.5567403
-0.077407924
0.15469965
3.1098634
0.16021877
3.3877608
0.15243449
3.6365288
0.13492171
3.674117
0.10992607
3.8164142
0.072506583
3.744042
0.047739308
3.8057091
3.7990629
-0.0095469061
3.8086098
0.0037835883
3.7923786
0.0026681259
3.7451574
0.016591044
3.8024913
0.02695426
3.6637538
0.045212026
3.618271
0.062531853
3.370441
0.07791564
3.0944796
2.5769068
0.057749209
-0.0086206416
3.8172304
0.0020449245
3.781713
-0.0014474602
3.7486498
0.01017188
3.790872
0.01797978
3.6559459
0.033439688
3.6028111
0.046254664
3.357626
0.056227602
3.0845067
2.5768206
0.05631375
-0.0085019012
3.8257323
0.0015433735
3.7716677
-0.0006790742
3.7508723
0.011620893
3.778572
0.019359263
3.6482075
0.033765565
3.5884048
0.045811435
3.3455801
0.054957502
3.0753606
2.585246
0.04653209
-0.0076926915
3.833425
-0.00032661699
3.7643017
-0.0041181576
3.7546638
0.0053588103
3.7690951
0.010605558
3.6429608
0.022591097
3.5764193
0.031572979
3.3365982
0.038738562
3.068195
2.5875855
0.036399137
-0.0077058598
3.8411309
-0.0010133818
3.7576092
-0.0033215375
3.756972
0.0073823739
3.7583911
0.013589234
3.6367539
0.024877371
3.5651312
0.033503059
3.3279725
0.041344528
3.0603536
2.5978131
0.031116854
-0.0073196998
3.8484506
-0.003314666
3.7536041
-0.0064528644
3.7601102
0.0014675383
3.7504707
0.0052060459
3.6330154
0.014163374
3.5561738
0.020289175
3.3218467
0.028457095
3.0521857
2.5974027
0.028867486
-0.0071659761
3.8556166
-0.0029884127
3.7494266
-0.0041905977
3.7613123
0.0048974952
3.7413826
0.0096244832
3.6282884
0.017882558
3.5479158
0.023888812
3.3158405
0.033132466
3.042942
2.6032675
0.027267686
-0.0067197985
3.8623364
-0.0050521533
3.7477589
-0.0070685239
3.7633287
-0.00087329514
3.7351874
0.0014495999
3.6259655
0.0078088783
3.5415565
0.011671081
3.3119783
0.021410894
3.0332022
2.5973955
0.027282881
-0.0059631016
3.8682995
-0.0029806706
3.7447765
-0.0031551836
3.7635032
0.004158535
3.7278737
0.0077799305
3.6223441
0.013495176
3.5358412
0.017272409
3.308201
0.026953855
3.0235207
2.5991059
0.025243453
-0.014832017
2.5882407
0.025697239
-0.005999208
3.0146879
-0.0045215488
3.3067234
-0.00071784908
3.5320375
-6.5213338e-05
3.6216915
0.0048240217
3.7229845
0.0045247575
3.7638025
0.005035376
3.7442659
3.8733348
-0.021116237
2.5844042
0.02495274
-0.013653341
3.007225
-0.011927834
3.3049979
-0.0084860452
3.5285957
-0.0064785272
3.619684
-0.00060172081
3.7171077
0.00066905215
3.7625317
0.0033375184
3.7415974
3.8766724
-0.0093104854
2.5673943
0.026320418
-0.0035456583
3.0014602
-0.0048104696
3.3062627
-0.0034398284
3.5272251
-0.0039567185
3.6202009
-0.00048179353
3.7136327
0.00076502082
3.7612849
0.0017155482
3.7406469
3.8783879
-0.017282219
2.5592092
0.025467302
-0.0133987
2.9975767
-0.014212338
3.3070763
-0.013257516
3.5262703
-0.01270964
3.619653
-0.0081216225
3.7090447
-0.0046327779
3.7577961
-0.001290999
3.7373051
3.8770969
-0.0068645479
2.5391061
0.026967667
-0.0044769728
2.9951891
-0.0089559073
3.3115553
-0.011072448
3.5283868
-0.012854637
3.6214352
-0.0097452268
3.7059353
-0.0059778665
3.7540287
-0.0039085233
3.7352358
3.8731884
-0.017039329
2.5294594
0.026685998
-0.017104384
2.9952542
-0.021195864
3.3156467
-0.023010855
3.5302018
-0.023550462
3.6219748
-0.019285484
3.7016703
-0.013171971
3.7479152
-0.007771577
3.7298354
3.8654168
-0.008292656
2.5089405
0.028811509
-0.010225711
2.9971872
-0.018838703
3.3242597
-0.023997121
3.5353602
-0.026163044
3.6241407
-0.022969504
3.6984768
-0.016301749
3.7412474
-0.01118631
3.7247199
3.8542305
-0.020737556
2.5021116
0.027566524
-0.025714196
3.0021639
-0.034664282
3.3332098
-0.038816575
3.5395125
-0.039275371
3.6245995
-0.034193424
3.6933948
-0.024694717
3.7317487
-0.015645407
3.7156706
3.8385851
-0.014133275
2.486773
0.029471852
-0.022264254
3.0102948
-0.036133381
3.347079
-0.043540967
3.5469201
-0.045020276
3.6260788
-0.039912879
3.6882874
-0.029194941
3.7210308
-0.019560868
3.7060366
3.8190242
0.037517557
3.7815067
0.064169706
3.6793844
0.089676628
3.6955239
0.10652111
3.671443
0.11470244
3.6178975
0.11134327
3.5502793
0.092008194
3.366414
0.066697486
3.0356056
2.5074666
0.04600384
0.04193776
3.7395689
0.070571585
3.6507506
0.098366815
3.6677286
0.11728343
3.6525263
0.12659769
3.6085832
0.12201005
3.5548669
0.097747957
3.3906761
0.064174011
3.0691795
2.5207735
0.050867205
0.047292848
3.6922761
0.081715829
3.6163276
0.11385496
3.6355895
0.13643314
3.6299482
0.15056534
3.594451
0.15106903
3.5543632
0.12960058
3.4121446
0.09414068
3.1046394
2.5634365
0.05147765
0.051818566
3.6404575
0.088461928
3.5796842
0.12335948
3.6006919
0.14889334
3.6044143
0.16526749
3.5780769
0.16703752
3.5525932
0.14321313
3.435969
0.098805748
3.1490468
2.6050128
0.05722948
0.056994922
3.5834626
0.099815605
3.5368636
0.13941949
3.5610881
0.16943738
3.5743964
0.19151039
3.5560039
0.19983805
3.5442655
0.18120832
3.4545987
0.13723593
3.1930192
2.6832931
0.058955545
0.060152853
3.5233097
0.10608939
3.490927
0.14852276
3.5186547
0.18187497
3.5410442
0.20727477
3.5306041
0.21841525
3.5331251
0.20216543
3.4708485
0.15422969
3.2409549
2.7754421
0.062080708
0.066130538
3.4571792
0.11709605
3.4399615
0.16425386
3.4714969
0.20224873
3.5030493
0.233683
3.4991698
0.2521254
3.5146826
0.2447665
3.4782074
0.207276
3.2784454
2.915119
0.06759909
0.068525108
3.3886541
0.12259399
3.3858926
0.17219221
3.4218987
0.21340343
3.4618381
0.24851854
3.4640547
0.27169653
3.4915047
0.26860803
3.4812959
0.23953985
3.3075136
3.0601751
0.094483788
0.07428296
3.3143711
0.13333713
3.3268384
0.18741752
3.3678183
0.23420739
3.4150482
0.27651439
3.4217477
0.31210256
3.4559165
0.32450352
3.4688949
0.3147532
3.3172639
3.1642922
0.21063604
-0.090091888
3.404463
-0.19969984
3.4364464
-0.31961431
3.4877327
-0.45090045
3.5463344
-0.59093025
3.5617775
-0.74637235
3.6113586
-0.90585849
3.6283811
-1.0363312
3.4477366
3.1757278
-1.0477668
-0.086542783
3.4910058
-0.19323638
3.54314
-0.31210684
3.6066032
-0.44667071
3.6808982
-0.59404945
3.7091562
-0.75449089
3.7718
-0.92052928
3.7944195
-1.0282396
3.5554469
2.975586
-0.82809778
-0.082688268
3.5736941
-0.18806942
3.6485211
-0.30640206
3.7249359
-0.44196551
3.8164617
-0.59183639
3.8590271
-0.75837354
3.9383372
-0.93010242
3.9661483
-0.99717271
3.6225172
2.3010326
-0.32261929
-0.078360816
3.6520549
-0.17997134
3.7501317
-0.2969899
3.8419544
-0.43484016
3.9543119
-0.59166422
4.0158512
-0.76464756
4.1113205
-0.93127759
4.1327784
-0.93666216
3.6279018
1.4865857
-0.12221528
-0.074614494
3.7266694
-0.17482997
3.8503472
-0.29018149
3.9573059
-0.42897254
4.093103
-0.58843325
4.1753119
-0.76484772
4.287735
-0.93082816
4.2987588
-0.87871595
3.5757896
0.65525414
-0.047384366
-0.069903361
3.7965727
-0.16589519
3.946339
-0.28015336
4.0715641
-0.41956543
4.232515
-0.58449927
4.3402457
-0.76740438
4.4706401
-0.92234951
4.4537039
-0.73040318
3.3838433
-0.058808836
-0.016340201
-0.066088841
3.8626616
-0.160306
4.0405561
-0.27251504
4.1837731
-0.41245813
4.3724581
-0.57973635
4.507524
-0.76082151
4.6517253
-0.87984613
4.5727286
-0.47373429
2.9777314
-0.58182627
0.049283144
-0.061869582
3.9245311
-0.1514644
4.130151
-0.26179228
4.294101
-0.40214584
4.5128117
-0.57451152
4.6798896
-0.75116144
4.8283752
-0.81983691
4.641404
-0.40457378
2.5624683
-1.0203522
0.033952179
-0.058389149
3.9829203
-0.14560991
4.2173717
-0.25400313
4.4024942
-0.39345613
4.6522647
-0.56661089
4.8530444
-0.73350315
4.9952675
-0.75133523
4.6592361
-0.32902782
2.1401609
-1.4246349
0.075254849
0.15655955
-1.6443212
0.063126753
0.39083727
1.9058831
0.37754436
4.672529
0.27468423
5.0981276
0.17019589
4.9575327
0.092958372
4.7295022
0.04101839
4.4544342
0.0097569651
4.2486331
3.9926773
0.13277882
-1.8547929
0.077692937
0.3667918
1.6718702
0.36149523
4.6778256
0.26143092
5.1981919
0.15843246
5.0605312
0.084935755
4.8029989
0.035390632
4.5039793
0.0064242295
4.2775995
3.9991015
0.10380368
-2.0599329
0.1013363
0.3444767
1.4311972
0.35139597
4.6709063
0.25302388
5.296564
0.15058427
5.1629708
0.076395659
4.8771875
0.029546786
4.5508282
0.0055613002
4.301585
4.0046628
0.0801909
-2.2505241
0.11040031
0.31876157
1.1926265
0.33323481
4.6564331
0.23911928
5.3906795
0.13989445
5.2621956
0.070165905
4.9469161
0.026591821
4.5944023
0.0043408572
4.323836
4.0090036
0.051915647
-2.4321417
0.12970192
0.29547527
0.94906685
0.32267304
4.6292353
0.23037815
5.4829744
0.13188731
5.3606865
0.062498826
5.0163046
0.020975161
4.635926
0.002941492
4.3418697
4.0119451
0.033351982
-2.6003519
0.13485816
0.26930065
0.71311818
0.30363925
4.5948967
0.21610898
5.5705047
0.12139672
5.4553987
0.05600793
5.0816934
0.017702144
4.6742318
0.0019123601
4.3576594
4.0138575
0.0077144311
-2.740895
0.13282875
0.24523237
0.47560025
0.29232498
4.5478041
0.20634886
5.6564808
0.11301582
5.5487318
0.049828576
5.1448806
0.014812634
4.7092477
0.0024182598
4.3700538
4.0162758
-0.011534118
-2.8770941
0.1477332
0.21879997
0.24526616
0.27350783
4.4930962
0.19233649
5.7376522
0.10291069
5.6381576
0.043959599
5.2038317
0.011899046
4.7413082
0.0015487361
4.3804041
4.0178245
-0.040034274
-2.897655
0.060595141
0.17745578
0.027776109
0.25880787
4.4117441
0.18203247
5.8144276
0.09517556
5.7250145
0.038785265
5.260222
0.0096073479
4.7704862
0.0024788197
4.3875327
4.0203033
0.15477163
-2.9572493
-0.095177312
-0.021188162
0.2037359
-0.22363993
4.6141959
-0.34959211
5.9403797
-0.37115859
5.746581
-0.3139796
5.203043
-0.22251868
4.6790252
-0.10832679
4.2733408
3.9119765
0.141793
-2.9385143
-0.16052803
-0.082456784
0.42798569
-0.30568058
4.8374197
-0.41757005
6.0522692
-0.40946774
5.7384786
-0.32565702
5.1192323
-0.216582
4.5699502
-0.098298742
4.1550575
3.8136778
0.11834073
-2.8065623
-0.25029267
-0.12008072
0.66640714
-0.3563641
5.0737031
-0.43484039
6.1307455
-0.40829719
5.7119354
-0.31057731
5.0215124
-0.19994249
4.4593154
-0.094695418
4.0498104
3.7189824
0.091562264
-2.6691333
-0.22899132
-0.16030513
0.91827454
-0.41212297
5.3255209
-0.47606736
6.1946899
-0.42192861
5.6577967
-0.30202526
4.901609
-0.19110012
4.3483903
-0.077985417
3.9366957
3.6409969
0.061141597
-2.4782851
-0.25198975
-0.20436533
1.1837815
-0.44894804
5.5701036
-0.4706972
6.216439
-0.3980239
5.5851234
-0.28144102
4.7850262
-0.18488647
4.2518357
-0.071547265
3.8233565
3.5694497
0.044281816
-2.2459117
-0.2766553
-0.22399711
1.4520604
-0.48852969
5.8346362
-0.49487038
6.2227797
-0.40606678
5.4963198
-0.27604738
4.6550068
-0.17508631
4.1508747
-0.048812638
3.6970829
3.520637
0.010687619
-1.9726661
-0.28393314
-0.27544081
1.7381888
-0.51741994
6.0766154
-0.47725298
6.1826128
-0.36660243
5.3856692
-0.23850845
4.5269128
-0.15270194
4.0650681
-0.039114434
3.5834954
3.4815226
-0.0053208509
-1.7073665
-0.25997882
-0.28152183
2.0143898
-0.54094017
6.3360337
-0.48176974
6.1234424
-0.37015832
5.2740578
-0.23499661
4.3917511
-0.14291852
3.9729901
-0.025262085
3.4658389
3.4562605
-0.04714046
-0.1798287
-1.4803973
-0.34895627
2.3162056
-0.57383747
6.5609149
-0.45412077
6.0037257
-0.31910721
5.1390443
-0.1834047
4.2560486
-0.094240382
3.8838257
-0.014506899
3.3861054
3.4417536
-0.20142426
0.15291644
0.048598693
-9.0872541e-05
-0.27238819
0.070995927
-3.1999009e-05
-0.044379789
-0.22789776
-0.00011063743
0.32508186
-0.3695261
6.4453872e-05
0.712786
-0.38774613
4.1993321e-05
1.018416
-0.30564456
1.4545793e-05
1.2883522
-0.26995174
1.5610873e-05
1.51867
-0.23032998
1.212565e-05
-0.21730371
6.2339222e-06
-0.20122384
0.30554613
0.048594159
-0.27273275
0.14250483
-0.044495784
-0.45613473
0.32804365
-0.74206554
0.71715563
-0.77685811
1.0222283
-0.61071722
1.290816
-0.53853946
1.5203318
-0.45984578
-0.43424329
-0.20182926
0.45870187
0.048673518
-0.27293761
0.21361318
-0.042379523
-0.68669282
0.33426898
-1.118714
0.7251718
-1.1677609
1.029063
-0.91460839
1.295379
-0.80485548
1.5235198
-0.68798662
-0.65052093
-0.20295414
0.61296698
0.048689034
-0.2702648
0.28092384
-0.031241429
-0.92571619
0.34695362
-1.4969091
0.73720124
-1.5580086
1.0381156
-1.2155227
1.3018424
-1.0685823
1.5283818
-0.91452598
-0.86570204
-0.20604305
0.76941972
0.049590303
-0.26049681
0.3353776
-0.0021014792
-1.1841115
0.37074623
-1.8697568
0.75376463
-1.941027
1.0491174
-1.5108755
1.310761
-1.3302259
1.5354514
-1.1392164
-1.0787377
-0.20834316
0.92723237
0.050530518
-0.2400703
0.36710474
0.049856203
-1.474038
0.4094045
-2.2293051
0.77499363
-2.3066161
1.0623286
-1.7982105
1.3226701
-1.5905675
1.5445301
-1.3610763
-1.2879305
-0.20689536
1.0810213
0.053106473
-0.20738527
0.36759465
0.11840743
-1.7998307
0.46293214
-2.5738298
0.80163085
-2.6453148
1.077914
-2.0744936
1.3360733
-1.8487268
1.5535504
-1.5785534
-1.492381
-0.20402874
1.2299119
0.055138084
-0.17275507
0.33632098
0.19166142
-2.1642472
0.5242446
-2.906413
0.8327204
-2.9537906
1.0947448
-2.336518
1.348649
-2.102631
1.5610955
-1.7909999
-1.6928705
-0.20231679
0.056874534
1.3753542
-0.14741608
0.28142027
0.25062052
-2.5622838
0.5841032
-3.2398957
0.86742815
-3.2371155
1.1143778
-2.5834677
1.3621571
-2.3504102
1.5688206
-1.9976634
-1.8894907
-0.047155969
1.7070914
-0.17980709
-1.4801284
-0.34896279
-2.0143727
2.3161796
-0.57384856
-6.3360812
6.5609669
-0.45411019
-6.1233911
6.0036527
-0.31909184
-5.2740296
5.1390112
-0.18339485
-4.3916998
4.2560028
-0.094231944
-3.9729823
3.8838194
-0.014507763
-3.4657999
3.3860757
-3.4562776
3.4417698
-0.0053413902
1.9723933
-0.25996048
-0.2815254
-1.7381887
-0.54095379
-6.0766528
-0.48177182
-6.1825731
-0.37014535
-5.385656
-0.23498508
-4.52686
-0.14290828
-4.0650591
-0.025260841
-3.5834473
-3.4815384
0.010666182
2.2456663
-0.28393915
-0.2754424
-1.4520801
-0.51742361
-5.8346716
-0.47725331
-6.2227434
-0.36659516
-5.4963142
-0.23849877
-4.6549564
-0.15269463
-4.1508633
-0.039113309
-3.6970287
-3.5206517
0.044266765
2.4780678
-0.27666829
-0.22399644
-1.1838169
-0.48853263
-5.5701354
-0.49487513
-6.2164009
-0.40606017
-5.5851291
-0.27604175
-4.7849748
-0.17507896
-4.251826
-0.048809731
-3.8232979
-3.5694615
0.061122095
2.6689546
-0.25200888
-0.2043605
-0.91833434
-0.44893377
-5.3255621
-0.47069495
-6.1946397
-0.39802291
-5.6578012
-0.28143699
-4.9015607
-0.18488241
-4.3483806
-0.071544262
-3.936636
-3.6410057
0.091546057
2.8064121
-0.22900364
-0.16029835
-0.66648993
-0.41209975
-5.0737607
-0.47605922
-6.1306802
-0.42192692
-5.7119335
-0.30202372
-5.0214639
-0.19109678
-4.4593076
-0.07798136
-4.0497515
-3.7189871
0.11831409
2.9383748
-0.25027679
-0.12008087
-0.42809497
-0.35632871
-4.8375129
-0.4348197
-6.0521892
-0.40829343
-5.7384597
-0.31057433
-5.119183
-0.19994053
-4.5699414
-0.094691035
-4.1550009
-3.8136781
0.1417608
2.9571409
-0.16052685
-0.082459221
-0.20387495
-0.30564344
-4.6143287
-0.41753901
-5.9402936
-0.40945957
-5.7465392
-0.32565656
-5.2029861
-0.21657808
-4.6790198
-0.098293366
-4.2732857
-3.9119715
0.15472154
2.8976439
-0.095224598
-0.021205755
-0.027947658
-0.22361388
-4.4119205
-0.34955602
-5.8143515
-0.37114076
-5.7249544
-0.3139771
-5.2601497
-0.22251817
-4.7704788
-0.10832174
-4.3874821
-4.0202932
-0.0097558423
3.9926649
-3.982909
-0.041015224
4.2485901
-4.2173307
-0.092954689
4.4544174
-4.402478
-0.17018427
4.729443
-4.6522134
-0.27465911
4.9575106
-4.8530358
-0.37750066
5.0981081
-4.9952666
-0.39080211
4.6726049
-4.6593034
-0.15654517
1.9061041
-2.140361
-1.6442871
1.4245982
0.063143699
-0.0064239346
3.9990888
-0.035388813
4.277555
-0.084933553
4.5039622
-0.15842295
4.8029324
-0.26140847
5.0604961
-0.36145501
5.1981546
-0.36676902
4.6779189
-0.13276489
1.6721
-1.8547768
0.077724836
-0.0055619361
4.0046507
-0.02954665
4.3015397
-0.076394389
4.5508099
-0.15057709
4.8771151
-0.25300451
5.1629235
-0.3513617
5.2965118
-0.34446425
4.6710214
-0.10379249
1.4314282
-2.0599396
0.10137023
-0.0043404793
4.0089912
-0.026591188
4.3237904
-0.070166937
4.5943857
-0.13988963
4.9468378
-0.23910462
5.2621385
-0.33321124
5.3906185
-0.31875831
4.6565685
-0.080188159
1.192858
-2.2505508
0.11042305
-0.0029413024
4.0119325
-0.020974651
4.3418238
-0.062499205
4.6359102
-0.13188477
5.0162233
-0.23036759
5.3606214
-0.32265702
5.4829079
-0.29548304
4.6293945
-0.051932505
0.9493075
-2.4321863
0.12970301
-0.0019128113
4.0138453
-0.017700917
4.3576119
-0.056007393
4.6742167
-0.12139601
5.0816119
-0.21610666
5.455332
-0.3036334
5.5704346
-0.26930821
4.5950693
-0.033367859
0.71336715
-2.6004095
0.13485531
-0.0024186663
4.016264
-0.014811507
4.3700047
-0.04982978
4.709235
-0.11301996
5.1448021
-0.20635414
5.5486662
-0.29232614
5.6564066
-0.2452355
4.5479787
-0.0076977168
0.47582936
-2.7409506
0.13284343
-0.0015493491
4.0178133
-0.011899516
4.3803549
-0.043962916
4.7412984
-0.10291618
5.2037554
-0.19234444
5.6380944
-0.27351428
5.7375765
-0.21880686
4.4932712
0.011555244
0.24546725
-2.8771451
0.14774976
-0.002479897
-0.0096071033
-0.038787506
-0.095181849
-0.18204185
-0.25881687
-0.17746618
0.040053415
0.060552212
0.32901118
1.0203246
0.075262489
0.7512744
-2.5626242
0.73344612
-4.6414751
0.5665782
-4.8283986
0.39343952
-4.6798971
0.25399683
-4.5127707
0.14560787
-4.294089
0.058388745
-4.1301116
-3.9245203
0.40455458
0.58182579
0.033944189
0.81976818
-2.9778378
0.75110857
-4.5728155
0.57447991
-4.65177
0.4021292
-4.5075464
0.26178696
-4.3724285
0.15146268
-4.1837647
0.061868842
-4.0405178
-3.8626514
0.47372219
0.058866694
0.049236908
0.87978528
-3.3839009
0.76077779
-4.453808
0.57970819
-4.4707004
0.41244084
-4.340279
0.27250765
-4.2324953
0.16030153
-4.0715586
0.066086892
-3.9463031
-3.7965645
0.73035922
-0.6551256
-0.016366927
0.92229629
-3.575838
0.76736768
-4.2988794
0.58447642
-4.2878091
0.41955068
-4.1753533
0.28014472
-4.0930893
0.1658918
-3.9573057
0.069902276
-3.8503136
-3.7266623
0.87866741
-1.4863725
-0.047420557
0.9307916
-3.6279622
0.76483102
-4.1329188
0.58842102
-4.1113991
0.42896153
-4.0158938
0.29017597
-3.9543038
0.17482578
-3.8419555
0.074612367
-3.7501002
-3.6520499
0.93662903
-2.3007576
-0.12224388
0.93126085
-3.622594
0.76463867
-3.9662966
0.59165106
-3.9384115
0.43482684
-3.8590696
0.29698346
-3.8164604
0.17996677
-3.7249388
0.078358369
-3.6484918
-3.5736915
0.99715904
-2.9753188
-0.32259789
0.93009819
-3.5555332
0.75836727
-3.7945657
0.5918285
-3.7718727
0.4419554
-3.7091965
0.30639461
-3.6808996
0.18806538
-3.6066096
0.082686548
-3.543113
-3.491005
1.0282465
-3.1755297
-0.82803552
0.92054256
-3.4478293
0.75448809
-3.6285113
0.59403905
-3.6114237
0.44665904
-3.5618165
0.31210018
-3.5463407
0.19323145
-3.4877408
0.086540402
-3.4364219
-3.4044646
1.0363426
-3.1641477
-1.0477245
0.90587364
-3.3173603
0.74636826
-3.4690059
0.59092332
-3.4559787
0.45089267
-3.4217858
0.31960694
-3.415055
0.19969488
-3.3678288
0.090089785
-3.3268168
-3.3143748
0.037519208
3.7815249
-3.8190442
0.06417275
3.679389
-3.7060425
0.08968076
3.6955571
-3.7210651
0.10652672
3.6714679
-3.6883139
0.1147027
3.6179532
-3.6261292
0.11133637
3.5503149
-3.5469486
0.091999467
3.3664032
-3.3470663
0.066690208
3.0356358
-3.0103266
2.507396
-2.4867043
0.045998438
0.041939525
3.7395854
0.070576207
3.6507523
0.098371282
3.667762
0.11728698
3.6525522
0.12659912
3.6086411
0.12200817
3.5549059
0.097732123
3.3906793
0.064158598
3.0692094
2.5207028
0.050851801
0.047294799
3.6922906
0.081720419
3.6163267