/*--------------------------------*- C++ -*----------------------------------*\
  =========                 |
  \\      /  F ield         | OpenFOAM: The Open Source CFD Toolbox
   \\    /   O peration     | Website:  https://openfoam.org
    \\  /    A nd           | Version:  11
     \\/     M anipulation  |
\*---------------------------------------------------------------------------*/
FoamFile
{
    format      ascii;
    class       volVectorField;
    location    "1.5";
    object      U;
}
// * * * * * * * * * * * * * * * * * * * * * * * * * * * * * * * * * * * * * //

dimensions      [0 1 -1 0 0 0 0];

internalField   nonuniform List<vector> 
4455
(
(99.982031 0.027911436 0)
(99.882325 0.021895849 -1.0815335e-18)
(99.695655 0.1091635 3.7257665e-18)
(99.402717 0.048075992 2.6134017e-20)
(98.926066 0.20521783 3.5497989e-18)
(98.39863 0.11319821 -1.345099e-17)
(97.551482 0.40499038 5.9948067e-18)
(96.572373 0.18307841 0)
(94.99645 0.85660498 -3.7395487e-17)
(100.00095 0.077576438 -7.0267277e-18)
(99.890734 0.1149171 6.8648756e-18)
(99.692382 0.25590733 -8.4794617e-18)
(99.390392 0.2131264 1.4208195e-17)
(98.880946 0.37164785 -2.7404397e-17)
(98.34169 0.25133584 3.0112235e-17)
(97.387347 0.38779881 -2.9179288e-18)
(96.424824 0.12058642 4.2585496e-18)
(94.522607 -0.076472318 1.6292051e-16)
(100.01709 0.10382993 -7.3290679e-18)
(99.924843 0.22200224 9.2984651e-18)
(99.687221 0.38335771 8.301263e-18)
(99.399099 0.42700655 -8.2875159e-18)
(98.848113 0.56322783 3.6556375e-17)
(98.311154 0.54568092 -2.0798344e-17)
(97.333976 0.65940362 2.6573738e-18)
(96.26401 0.19375656 -6.0662431e-17)
(94.367424 0.49890024 -1.1548299e-16)
(100.01979 0.1306067 5.9088145e-20)
(99.950447 0.31025025 -1.071826e-18)
(99.699057 0.52811552 1.9636892e-17)
(99.406104 0.59757679 2.7115011e-18)
(98.875782 0.82418719 5.5981481e-21)
(98.264765 0.75530073 -3.9741067e-18)
(97.264377 1.1386206 4.4737533e-17)
(96.040618 0.45238329 1.2140344e-16)
(94.029626 1.2125954 9.6823889e-17)
(100.04168 0.17267362 1.4166012e-17)
(99.964221 0.36668007 -1.5904276e-17)
(99.726615 0.67378536 2.0251388e-17)
(99.413068 0.75122729 2.9414344e-20)
(98.910397 1.0793286 -2.500096e-17)
(98.260494 0.98617687 -7.7437992e-18)
(97.199595 1.3947984 -3.5271117e-17)
(95.888188 0.66534544 -5.7157431e-17)
(93.618939 1.5247826 -2.866845e-16)
(100.0472 0.19286578 0)
(99.994269 0.43284669 0)
(99.758387 0.79255284 -3.5357554e-17)
(99.440737 0.90904152 -4.0813788e-17)
(98.966364 1.3078596 0)
(98.293813 1.3034048 -5.5854008e-17)
(97.137939 1.8183456 -4.7685749e-18)
(95.63057 1.0184936 -3.4667975e-18)
(93.131869 2.0892108 3.5536588e-16)
(100.07803 0.21856465 0)
(99.991497 0.46322121 -9.5228276e-19)
(99.811244 0.91259997 1.0718838e-18)
(99.475865 1.0407857 3.9891355e-17)
(99.016862 1.4936177 -2.9737523e-18)
(98.33533 1.5033957 1.1889068e-16)
(97.173435 2.0929259 0)
(95.495882 1.2803133 0)
(92.648082 2.6597584 1.6521924e-16)
(100.09384 0.23222183 2.6402602e-17)
(100.01861 0.49754456 0)
(99.834019 0.98842702 0)
(99.554551 1.2087025 0)
(99.103867 1.7257311 0)
(98.38659 1.8241122 -5.933808e-17)
(97.126209 2.5159452 -6.4329252e-17)
(95.305397 1.6848081 9.5052562e-17)
(92.134708 3.3308105 2.7504262e-18)
(100.11647 0.23775874 -2.5998986e-17)
(100.03578 0.51600812 -9.1018334e-19)
(99.876758 1.0373622 -1.042042e-18)
(99.587399 1.2756097 2.3451592e-18)
(99.212249 1.8614557 9.134158e-17)
(98.495097 1.994552 1.0414033e-16)
(97.233377 2.8193589 2.0468887e-16)
(95.1481 2.038847 -9.3274399e-17)
(91.599656 4.0002759 -2.844911e-16)
(100.12373 0.23749126 0)
(100.13484 0.22787238 4.7715741e-17)
(100.13316 0.2133739 -4.7335478e-17)
(100.13036 0.19108121 4.5061106e-17)
(100.12575 0.16644337 -4.4048271e-17)
(100.11189 0.13678165 8.7518516e-17)
(100.09596 0.10526708 -8.496305e-17)
(100.07931 0.07196282 0)
(100.03691 0.029164167 0)
(100.06912 0.53658462 0)
(100.08492 0.53764685 8.3065963e-19)
(100.11504 0.53185307 0)
(100.12634 0.51144032 2.3536017e-18)
(100.1444 0.48167738 4.7748273e-17)
(100.16361 0.44449153 -1.4234144e-16)
(100.15943 0.3925909 9.206081e-17)
(100.18643 0.3449261 -1.3993594e-18)
(100.1461 0.23415476 8.822772e-17)
(99.926152 1.1089702 6.0948933e-17)
(99.983066 1.1491318 -1.1988248e-16)
(100.03675 1.1668098 1.140193e-16)
(100.10691 1.1642312 -3.7813281e-18)
(100.14225 1.1350669 -5.3489749e-17)
(100.2258 1.1046816 -1.6219241e-18)
(100.24402 1.02995 0)
(100.34059 0.98051648 3.0325291e-18)
(100.33858 0.81169794 -1.4674375e-18)
(99.675743 1.4104268 6.4028528e-17)
(99.759673 1.5132449 -1.2989474e-16)
(99.844353 1.5819991 1.2306581e-16)
(99.967233 1.6403093 -5.9530215e-17)
(100.03892 1.6449871 -3.7179458e-18)
(100.17924 1.6680709 1.7728407e-18)
(100.2419 1.6148604 0)
(100.40252 1.6011616 -1.6538436e-18)
(100.42225 1.4366291 9.9258925e-17)
(99.282933 2.0674642 -7.3366477e-17)
(99.463937 2.2764931 0)
(99.540571 2.4205707 -6.7069045e-17)
(99.750008 2.5758348 6.9146943e-17)
(99.840502 2.646743 -6.1887851e-17)
(100.06016 2.7564641 6.3943731e-17)
(100.16518 2.7565838 0)
(100.40218 2.8347579 0)
(100.48943 2.6913988 3.535029e-18)
(98.558138 2.2789115 -9.0836411e-17)
(98.734723 2.6071468 -8.6284988e-17)
(98.834115 2.8345494 8.2945761e-17)
(99.038816 3.1349737 7.8841275e-17)
(99.185204 3.2806656 -7.6009607e-17)
(99.415768 3.5536602 0)
(99.601699 3.6013593 1.3857623e-16)
(99.853474 3.8488058 -1.0692576e-18)
(100.01708 3.7441256 -2.5647432e-16)
(97.214754 3.1958168 -1.0839811e-16)
(97.412571 3.7944177 0)
(97.508161 4.0717674 0)
(97.785761 4.5971594 3.0013941e-18)
(97.989065 4.7894924 0)
(98.331798 5.3145934 0)
(98.625265 5.4371874 0)
(99.017606 5.9529577 0)
(99.310158 5.9417251 0)
(95.032896 2.5128815 4.4077893e-18)
(94.852085 3.4724311 0)
(94.952265 4.0872582 3.9617573e-18)
(94.932239 5.1263007 -7.2225085e-18)
(95.323853 5.6195918 -1.0798677e-16)
(95.511121 6.5334859 -1.0116221e-16)
(96.052601 6.8510357 1.9547483e-16)
(96.360289 7.6167509 1.863167e-16)
(96.96534 7.768097 -1.7631653e-16)
(90.856065 4.8100378 5.4137771e-16)
(90.204508 6.9011783 -3.3488595e-16)
(90.143144 8.1817284 3.1068312e-16)
(90.549413 10.296361 -2.9537653e-16)
(91.288667 11.27837 -4.1093265e-16)
(92.203679 12.94398 7.6304928e-16)
(93.133853 13.557318 -4.7983327e-16)
(94.163888 14.838233 -2.2169676e-16)
(95.09994 15.16973 2.0856329e-16)
(100.05482 0.045956367 -1.1586209e-19)
(100.08376 0.064669419 1.1879043e-16)
(100.12884 0.08982162 -1.4035638e-19)
(100.18835 0.11802087 -1.1956532e-16)
(100.26113 0.14755218 1.1662342e-19)
(100.34907 0.17793919 1.1980133e-16)
(100.45281 0.20965028 -1.2038465e-16)
(100.57419 0.24206477 -1.1681239e-19)
(100.72537 0.28454113 -6.0123192e-17)
(100.21056 0.26322972 -1.2663142e-16)
(100.25327 0.35627645 1.2719539e-16)
(100.36329 0.36583851 -1.2725263e-16)
(100.43781 0.489023 0)
(100.58907 0.48568667 1.2757208e-16)
(100.69665 0.63516536 -2.5301774e-19)
(100.88534 0.61542769 -1.9182619e-19)
(101.02836 0.78804864 -1.2759177e-16)
(101.26046 0.74781589 6.3706961e-17)
(100.47303 0.88526397 1.3489534e-16)
(100.51379 1.0591614 -1.3544347e-16)
(100.68179 1.1076892 -1.3580015e-16)
(100.73555 1.2927411 1.3610975e-16)
(100.92671 1.3390193 -1.3655647e-16)
(100.9998 1.5501276 1.3608779e-16)
(101.2282 1.5954087 -1.3658864e-16)
(101.32629 1.8432346 4.1275595e-19)
(101.59958 1.8815683 1.3631686e-16)
(100.60853 1.557122 -1.4514348e-16)
(100.63701 1.7983334 -5.6830949e-19)
(100.84134 1.8942487 5.733632e-19)
(100.8674 2.1361741 0)
(101.09013 2.230123 -4.0521721e-21)
(101.13766 2.5035462 -1.4561216e-16)
(101.4019 2.597054 1.4802084e-16)
(101.47913 2.9154457 5.7484022e-19)
(101.79546 2.9984425 5.7430528e-19)
(100.73158 2.8754515 -6.1430584e-19)
(100.7491 3.1944204 -1.58209e-16)
(100.98007 3.3447966 -1.1047836e-19)
(100.97257 3.6382368 1.5926821e-16)
(101.21718 3.7812098 1.5952894e-16)
(101.23677 4.1090775 -1.6032759e-16)
(101.52922 4.2501499 -6.1996139e-19)
(101.58278 4.6277682 -6.1981745e-19)
(101.93512 4.7558228 -6.1949804e-19)
(100.31642 3.9953921 1.7485954e-16)
(100.30737 4.3984723 0)
(100.58258 4.6058021 0)
(100.54609 4.9787177 1.7441421e-16)
(100.84175 5.1727546 -1.7674646e-16)
(100.84149 5.5834615 -1.7607238e-16)
(101.18974 5.7698233 3.5169395e-16)
(101.22905 6.226692 -1.0923035e-18)
(101.63617 6.3917685 -3.5131142e-16)
(99.681787 6.3843551 -7.8255807e-19)
(99.732301 6.8659555 0)
(99.996525 7.1603324 7.7991477e-19)
(100.01885 7.5500524 1.9681303e-16)
(100.31281 7.8088927 -1.980254e-16)
(100.39482 8.17982 1.9693505e-16)
(100.74457 8.4232118 -1.9736655e-16)
(100.88015 8.7718196 -7.6858104e-19)
(101.26388 8.9883936 1.9559809e-16)
(97.331317 8.3486259 -2.2316108e-16)
(97.812509 8.956068 2.2610043e-16)
(98.165006 9.3716746 -2.2358758e-16)
(98.676813 9.8753799 2.2245527e-16)
(99.06532 10.196268 -2.1786061e-16)
(99.614534 10.61118 1.8808313e-18)
(100.02574 10.8417 2.1892459e-16)
(100.57472 11.15703 1.678644e-18)
(100.95448 11.277844 1.0664687e-16)
(96.026592 16.001679 0)
(96.696505 16.567374 -2.4800393e-16)
(97.546021 17.087855 4.8640743e-18)
(98.226887 17.393549 5.7243683e-18)
(99.098809 17.596531 4.8085097e-16)
(99.805012 17.523899 -2.3890403e-16)
(100.7341 17.218931 -2.3261538e-16)
(101.49435 16.527097 2.3361503e-16)
(102.46695 15.439886 1.1514423e-16)
(103.01915 14.168393 -1.3434999e-16)
(103.23975 12.850745 0)
(103.51487 12.038637 1.3236759e-16)
(103.22245 11.184267 -1.3239519e-16)
(102.97192 10.648698 0)
(102.14441 9.8305611 0)
(101.61566 9.4281504 0)
(100.54262 8.7108697 -1.444433e-16)
(99.888428 8.501708 1.4444432e-16)
(101.40631 11.466149 -1.2148015e-16)
(101.6669 11.595256 0)
(102.00505 11.659071 0)
(102.1793 11.687679 0)
(102.34714 11.66987 0)
(102.37141 11.690423 0)
(102.33165 11.700876 0)
(102.24147 11.756814 1.1784453e-16)
(102.01233 11.817638 -2.3696782e-16)
(101.41213 9.2859284 -1.4771566e-18)
(101.76329 9.5649336 -2.1361313e-16)
(101.88603 9.8093444 0)
(102.21524 10.061346 -1.0478061e-16)
(102.2925 10.288056 1.047805e-16)
(102.57731 10.508761 0)
(102.58927 10.72203 0)
(102.81919 10.944885 0)
(102.74959 11.171197 0)
(101.66935 6.8513794 1.8847307e-16)
(102.09514 7.086246 0)
(102.13237 7.5333665 9.2374076e-17)
(102.5613 7.7598195 -1.8411941e-16)
(102.59777 8.2042556 9.1740327e-17)
(103.02767 8.4328706 0)
(103.05216 8.8827916 0)
(103.48447 9.1294337 0)
(103.48415 9.5942084 8.8637954e-17)
(101.99706 5.170748 0)
(102.38752 5.3259079 1.6569085e-16)
(102.46116 5.7641212 -2.4796376e-16)
(102.88185 5.9187289 8.2267924e-17)
(102.96582 6.3750317 8.1028802e-17)
(103.41311 6.5352558 -6.5207638e-19)
(103.50128 7.0120057 -1.6007916e-16)
(103.97577 7.186088 1.5871487e-16)
(104.06144 7.6886152 -7.9009121e-17)
(101.88989 3.3581997 0)
(102.25201 3.4570233 7.497065e-17)
(102.36982 3.8505215 -7.4972964e-17)
(102.77492 3.9435257 0)
(102.91741 4.3679659 -1.4643449e-16)
(103.36558 4.4573422 1.4643591e-16)
(103.53111 4.9151022 7.1854059e-17)
(104.02548 5.0045959 -1.4296792e-16)
(104.21135 5.4999944 7.1112319e-17)
(101.71608 2.1673041 0)
(102.03306 2.2132032 0)
(102.17406 2.5359576 0)
(102.53673 2.5773834 -6.7815526e-17)
(102.70509 2.9373743 1.3507624e-16)
(103.11571 2.9739009 -1.339268e-16)
(103.31364 3.373815 6.6665162e-17)
(103.7776 3.4057173 -6.5342667e-17)
(104.00701 3.8502899 1.299521e-16)
(101.43162 0.9469459 -1.2883717e-16)
(101.71176 0.90075976 4.2900902e-19)
(101.9183 1.137505 6.379672e-17)
(102.24308 1.0765458 -6.28291e-17)
(102.4881 1.3447411 6.2829073e-17)
(102.85915 1.2647827 0)
(103.14484 1.563845 6.1072002e-17)
(103.57002 1.4643343 -1.2146591e-16)
(103.90025 1.8013959 6.0393626e-17)
(100.81774 0.33945456 3.006921e-19)
(101.04985 0.34991504 6.0596676e-17)
(101.19691 0.47197216 5.9939519e-17)
(101.5026 0.48229526 -5.9939525e-17)
(101.67277 0.59892094 0)
(102.02415 0.60739029 0)
(102.23099 0.72422939 -5.8164062e-17)
(102.64235 0.73986339 1.1576964e-16)
(102.90986 0.86228447 -5.760556e-17)
(103.38557 0.8866543 0)
(103.71962 1.0161543 -5.558921e-17)
(104.26472 1.0508373 7.9606149e-19)
(104.67231 1.1859349 8.6441054e-19)
(105.29397 1.2309687 9.3724854e-19)
(105.78259 1.3726228 5.2991485e-17)
(106.49072 1.4303811 5.0874755e-17)
(107.0718 1.5793319 -5.0874757e-17)
(107.87849 1.6518403 0)
(104.38768 1.6826893 0)
(104.76619 2.0651759 0)
(105.32287 1.9275591 -5.7135234e-17)
(105.75265 2.3616551 9.6668886e-19)
(106.38583 2.2056155 1.0346246e-18)
(106.87077 2.6986811 5.5133302e-17)
(107.59025 2.5247107 5.2840005e-17)
(108.1359 3.0863178 -5.2839508e-17)
(108.95387 2.8944459 0)
(104.53062 3.8789013 -6.4610108e-17)
(104.79289 4.3741937 0)
(105.38269 4.4016514 0)
(105.67934 4.9548938 -6.1145186e-17)
(106.34271 4.9835616 1.2127376e-16)
(106.67646 5.6036501 -1.0843434e-18)
(107.42267 5.6355447 -1.158346e-18)
(107.79843 6.333496 -5.788473e-17)
(108.63903 6.3692289 0)
(104.75553 5.5949589 -6.95057e-17)
(104.9585 6.1341035 6.9504801e-17)
(105.5569 6.2410787 0)
(105.77436 6.8326092 0)
(106.43335 6.9584393 6.5749051e-17)
(106.66482 7.6142894 -6.5748018e-17)
(107.39398 7.7649513 6.3547651e-17)
(107.64232 8.5005431 -3.2373439e-17)
(108.45524 8.6799008 -3.1172394e-17)
(104.56517 7.8864663 -7.75661e-17)
(104.64193 8.4235895 7.7563701e-17)
(105.17935 8.6562608 0)
(105.24204 9.2415338 0)
(105.82119 9.5199976 0)
(105.86699 10.171949 0)
(106.50051 10.505517 0)
(106.53017 11.24616 0)
(107.2354 11.641228 0)
(103.91989 9.8773262 -8.8637916e-17)
(103.88166 10.366887 8.7470932e-17)
(104.32218 10.70759 -8.7464317e-17)
(104.23565 11.237886 8.6356446e-17)
(104.68708 11.650888 -8.6346574e-17)
(104.54611 12.247142 0)
(105.02601 12.742009 0)
(104.83071 13.434824 0)
(105.36624 14.019491 0)
(102.9243 11.441456 0)
(102.7744 11.686537 -1.0265376e-16)
(102.90802 12.043767 1.0262066e-16)
(102.65062 12.34534 0)
(102.7761 12.811944 1.0293852e-16)
(102.40249 13.20421 -1.029473e-16)
(102.55228 13.803879 0)
(102.06134 14.32165 5.1815951e-17)
(102.26503 15.061419 -1.037475e-16)
(101.8301 11.960215 1.1894773e-16)
(101.3924 12.146562 1.2088221e-16)
(101.1418 12.380211 -1.2090263e-16)
(100.53073 12.704299 1.2347465e-16)
(100.225 13.044164 -2.4845393e-16)
(99.454041 13.530616 2.5152762e-16)
(99.109538 13.995013 -2.5480496e-16)
(98.192283 14.673184 1.2824014e-16)
(97.829932 15.283871 0)
(98.717528 7.9836824 -1.5118497e-16)
(97.983298 7.9701953 1.511858e-16)
(96.736183 7.6287741 0)
(95.930599 7.7923722 0)
(94.605097 7.6176777 0)
(93.714581 7.9670912 0)
(92.293562 7.9769972 0)
(91.299945 8.5470471 -8.8659088e-17)
(89.768029 8.7814257 8.8657703e-17)
(88.658051 9.6294397 9.2797368e-17)
(96.78152 16.18986 0)
(101.6705 15.759707 5.1942743e-17)
(105.12343 14.840528 0)
(107.25403 12.493884 0)
(108.72755 9.5134191 0)
(109.06462 7.1575507 2.6948717e-17)
(109.5681 3.536595 2.4373434e-17)
(108.56637 1.8094544 2.3493899e-17)
(87.008162 10.154422 -9.2795359e-17)
(96.429736 16.970915 0)
(101.94294 16.619585 0)
(105.74567 15.519151 4.1024673e-17)
(108.05195 12.953191 0)
(109.6418 9.7221842 -2.9113261e-17)
(110.01322 7.1955505 -5.3133615e-17)
(110.49964 3.3258738 -4.7962121e-17)
(109.48598 1.899393 -4.6228215e-17)
(85.778228 11.376211 0)
(95.272147 18.149432 0)
(101.28405 17.581261 5.2102853e-17)
(105.46953 16.50078 -4.1025869e-17)
(108.06967 13.941079 0)
(109.94984 10.673167 2.9113042e-17)
(110.49941 8.0871594 2.6185142e-17)
(111.19274 4.0623214 2.3588281e-17)
(110.29663 2.0658124 2.273431e-17)
(84.012521 12.294996 9.9150358e-17)
(94.971561 19.125071 0)
(101.63172 18.551335 -1.0415825e-16)
(106.21264 17.271265 0)
(108.98341 14.462602 0)
(110.98606 10.908031 -2.7464856e-17)
(111.57077 8.1229853 -2.448189e-17)
(112.25972 3.8300805 0)
(111.34537 2.1756718 -2.1018024e-17)
(82.685553 14.039977 -9.9150334e-17)
(93.741372 20.629874 -6.9888603e-17)
(100.94539 19.80866 5.2053777e-17)
(105.92779 18.44758 0)
(109.01651 15.608255 0)
(111.34624 11.995248 2.746477e-17)
(112.13186 9.1306937 2.4481928e-17)
(113.01709 4.6536022 0)
(112.29532 2.3500863 2.101802e-17)
(80.8426 15.500596 0)
(93.553558 21.821801 6.9886989e-17)
(101.40331 20.891497 -5.168075e-17)
(106.81064 19.279842 0)
(110.06927 16.182256 0)
(112.5266 12.248436 -2.5527866e-17)
(113.34065 9.1561583 -2.2505699e-17)
(114.27603 4.4466068 0)
(113.48678 2.4783625 -1.900744e-17)
(79.525909 17.994321 0)
(92.30994 23.717254 0)
(100.74211 22.483739 5.168069e-17)
(106.59391 20.710802 -1.9014816e-17)
(110.14425 17.509004 -1.5141764e-17)
(112.95836 13.486801 3.7743764e-17)
(113.99529 10.290433 3.3203896e-17)
(115.08485 5.318209 0)
(114.58914 2.6562039 2.7949483e-17)
(77.796884 20.200284 0)
(92.33633 25.126542 -3.5399741e-17)
(101.36188 23.663686 0)
(107.61197 21.573646 1.9007712e-17)
(111.34769 18.106523 1.5134814e-17)
(114.30238 13.746178 -5.9562754e-19)
(115.36681 10.292471 -2.0797629e-17)
(116.56094 5.1699897 0)
(115.92481 2.7979258 -8.9420457e-18)
(76.807308 23.789193 -5.2980416e-17)
(91.175014 27.542752 3.5391212e-17)
(100.7918 25.732307 0)
(107.53187 23.372207 0)
(111.54916 19.755339 0)
(114.85625 15.22749 -2.2584483e-17)
(116.13122 11.572072 6.5305692e-19)
(117.42314 6.0642195 0)
(117.17312 2.9681102 0)
(118.85429 3.1313888 0)
(119.09431 5.973874 0)
(117.69478 11.514428 1.3482532e-19)
(116.30162 15.308121 1.1475795e-17)
(112.90792 20.130938 0)
(108.74935 24.064574 -2.4266353e-18)
(101.77103 26.785703 -6.7508262e-19)
(91.759117 29.032862 -2.9197822e-17)
(75.703637 26.828149 9.8232619e-17)
(120.4543 3.2506653 -3.1883743e-18)
(120.07538 6.7180108 -4.6624835e-19)
(118.62776 12.654883 4.7430948e-18)
(117.11235 16.745495 -8.6274149e-20)
(113.4959 21.767419 -5.4750658e-18)
(109.03645 25.910515 8.1438116e-18)
(101.74662 29.073537 -3.3229387e-18)
(91.432278 32.015284 3.7328312e-17)
(76.443853 31.626039 -4.9732796e-17)
(122.09629 3.3499717 6.0271895e-18)
(121.96963 6.615289 0)
(120.5073 12.636368 7.6345453e-18)
(118.75488 16.74922 -4.3580723e-18)
(115.18036 22.027332 5.4680737e-18)
(110.67927 26.470334 -1.5134455e-17)
(103.54125 29.952442 -1.4341113e-17)
(93.531443 33.214994 8.2897993e-18)
(79.019871 33.36413 1.572159e-18)
(123.85698 3.4481512 -2.8389881e-18)
(123.07144 7.3315827 -3.7318862e-19)
(121.57515 13.758732 -3.239922e-18)
(119.78519 18.327285 5.00456e-18)
(116.05452 23.836425 2.0512973e-18)
(111.31873 28.492143 7.9096552e-18)
(104.00451 32.379046 1.1305613e-17)
(93.894193 36.081389 4.5234962e-18)
(80.29713 37.38931 -5.1799149e-18)
(125.74731 3.550802 4.6853998e-19)
(125.24781 7.2486785 -5.262995e-19)
(123.73379 13.754512 -3.9928066e-19)
(121.64107 18.20188 1.2955109e-18)
(118.01297 23.940675 -2.0016063e-18)
(113.24424 28.877896 -2.5166032e-18)
(106.19198 33.062772 -3.0124143e-18)
(96.363213 37.063405 3.4018646e-18)
(82.417613 38.647188 -6.5060278e-18)
(127.75425 3.6561877 -4.7406778e-19)
(126.4773 7.9762245 5.3263915e-19)
(124.936 14.828652 -3.3761641e-19)
(122.89353 19.883491 -4.0609845e-20)
(119.11603 25.843543 -5.1152042e-19)
(114.18961 30.987404 1.7391789e-18)
(106.89559 35.522277 -2.8762169e-18)
(96.928706 39.881195 3.255859e-18)
(83.696937 42.201627 0)
(129.8625 3.7533735 -1.8675337e-19)
(128.9377 7.9263711 -1.9164675e-19)
(127.35607 14.82269 -1.7931572e-19)
(124.9354 19.614539 -3.9762987e-19)
(121.24568 25.79667 -4.8749206e-19)
(116.22857 31.222351 1.7976213e-18)
(109.20102 36.021907 -4.7347704e-18)
(99.432639 40.644484 7.1899367e-18)
(85.816094 43.094813 -4.7388234e-18)
(132.07367 3.8401184 2.4283484e-19)
(130.28807 8.6423884 2.1337207e-19)
(128.69467 15.826262 6.4623052e-19)
(126.40448 21.370943 1.0501279e-18)
(122.57181 27.754449 1.4537974e-18)
(117.45012 33.353205 -5.7162583e-19)
(110.16416 38.491615 -2.5528795e-18)
(100.27904 43.425895 -1.0212932e-18)
(87.358408 46.279155 -5.5133496e-18)
(134.38818 3.9072564 5.3491902e-19)
(133.00097 8.6027918 -2.1603247e-19)
(131.35849 15.801664 -7.604164e-19)
(128.60683 20.949757 -7.2739604e-19)
(124.83749 27.539819 1.827072e-18)
(119.60987 33.450273 1.9265483e-18)
(112.58927 38.777468 -1.1286649e-17)
(102.91227 43.954863 2.6944402e-18)
(89.563505 46.888527 1.0338866e-17)
(91.312013 49.816439 -9.5999597e-18)
(104.04083 46.694371 3.5228197e-18)
(113.84537 41.236705 1.5229184e-17)
(121.10222 35.511003 -1.6174818e-18)
(126.4128 29.52722 -3.7166414e-19)
(130.29217 22.758092 2.1931394e-20)
(132.85853 16.707069 2.1832687e-19)
(134.46281 9.2889473 5.0537057e-20)
(136.81064 3.9595056 -1.9911489e-18)
(93.52958 50.240908 3.5062862e-17)
(106.80926 47.00296 2.1942217e-18)
(116.40151 41.283196 -1.9154072e-17)
(123.44357 35.539656 -2.5149137e-19)
(128.80535 29.111856 -1.2277251e-18)
(132.63736 22.17349 -2.7590273e-19)
(135.73147 16.64321 2.908959e-18)
(137.40291 9.2519565 0)
(139.33463 3.9882979 1.3641808e-18)
(95.403675 52.989099 -4.4673922e-17)
(108.18775 49.70337 2.2470499e-17)
(117.95092 43.706958 9.3093531e-18)
(125.17573 37.451978 -1.2254199e-19)
(130.65275 31.096643 -7.3912617e-19)
(134.52007 23.999813 1.3100035e-19)
(137.43495 17.420852 1.33816e-18)
(138.97217 9.8988584 -4.8668331e-18)
(141.95754 4.0014558 -6.1097362e-18)
(97.600958 53.265808 -8.0134453e-18)
(111.05964 49.803672 1.2792737e-18)
(120.60923 43.500864 -1.3651901e-18)
(127.68079 37.390733 0)
(133.15843 30.450419 9.3585861e-19)
(137.00636 23.264823 0)
(140.4835 17.293552 -4.3399876e-18)
(142.08489 9.8529338 1.1713742e-17)
(144.66797 3.987582 -1.825597e-18)
(99.652254 55.879166 -2.9228958e-18)
(112.70144 52.473171 -1.4067875e-17)
(122.45142 45.85953 1.0517706e-18)
(129.63118 39.130042 0)
(135.27801 32.394305 5.725167e-18)
(139.03817 25.019599 -7.0610257e-18)
(142.36796 17.914935 -4.1479219e-19)
(143.81527 10.444505 -1.5774162e-17)
(147.46131 3.955229 8.1077532e-18)
(101.88656 55.986147 -2.9664072e-17)
(115.65744 52.343252 -7.998678e-18)
(125.17716 45.383468 -8.1860637e-19)
(132.27412 38.96205 9.6290991e-20)
(137.86429 31.504031 2.8996837e-18)
(141.71011 24.228566 1.6960419e-17)
(145.55721 17.700114 -5.4632151e-19)
(147.04795 10.37497 8.9123572e-18)
(150.32403 3.8919088 0)
(104.22307 58.487552 2.0468476e-17)
(117.60205 54.933392 1.1204131e-17)
(127.29734 47.624484 -8.346654e-19)
(134.41815 40.50638 4.3758718e-19)
(140.23587 33.367833 -7.3622748e-18)
(143.9072 25.811717 -1.0237011e-17)
(147.58357 18.143784 -7.8985058e-19)
(148.92183 10.899025 7.2374597e-19)
(153.2478 3.8077242 0)
(106.54424 58.408437 0)
(120.64814 54.597981 8.6025577e-20)
(130.12017 46.869241 -7.3330194e-20)
(137.17238 40.214647 2.0753243e-17)
(142.88718 32.225445 6.3058724e-19)
(146.70477 24.956105 -2.8162645e-17)
(150.86723 17.822784 3.0990328e-17)
(152.25295 10.792429 -3.0568596e-17)
(156.20772 3.6896067 -3.3771919e-17)
(109.20242 60.759886 2.8638315e-17)
(122.8966 56.989499 -5.4919293e-18)
(132.36836 48.907561 5.1619438e-19)
(139.48684 41.542974 -2.1916859e-17)
(145.44061 33.992008 1.0281579e-18)
(149.04351 26.341277 2.8651405e-17)
(152.98476 18.077037 -3.3421595e-17)
(154.24442 11.2378 3.2010049e-17)
(159.186 3.56113 -4.5022574e-18)
(162.38073 3.3952478 3.8392448e-17)
(157.67321 11.068591 -3.9507838e-17)
(156.34371 17.635855 0)
(152.00459 25.374827 2.1299527e-18)
(148.20727 32.55389 -4.0143754e-17)
(142.43852 41.092426 -3.3179261e-17)
(135.49415 47.896338 0)
(126.28894 56.442562 -9.3254009e-18)
(111.95282 60.531645 -2.7686302e-17)
(165.40216 3.1640277 0)
(159.80734 11.309225 4.089218e-17)
(158.54699 17.607632 0)
(154.60648 26.425433 2.5253975e-18)
(151.05553 34.077064 8.0875494e-17)
(145.16251 42.087543 3.6071559e-17)
(138.24397 49.614613 -3.6142736e-17)
(129.29933 58.70519 1.5021515e-17)
(115.77927 62.968305 2.3114639e-18)
(168.33723 2.8356332 0)
(163.33406 10.972221 0)
(161.91995 17.028524 5.4257855e-17)
(157.73141 25.261991 0)
(154.02914 32.399912 -4.6044231e-17)
(148.3517 41.403211 4.9447162e-17)
(141.68318 48.20858 3.2891222e-17)
(133.18197 57.701824 2.3726047e-18)
(119.42531 62.39304 -1.4432596e-17)
(171.14847 2.4348704 0)
(165.52876 11.038507 0)
(164.1094 16.814562 -5.5384156e-17)
(160.44424 26.021835 -5.6905372e-17)
(156.93356 33.649107 -6.116671e-17)
(151.21945 42.085632 -5.4550792e-17)
(144.52171 49.498402 0)
(136.42687 59.379217 -4.8850759e-17)
(123.93535 64.351439 9.9014052e-18)
(173.87927 1.9886055 -9.3414527e-19)
(169.05962 10.581894 1.027961e-18)
(167.42847 16.092216 0)
(163.59185 24.648753 -6.4377862e-18)
(159.9691 31.777056 1.3549555e-16)
(154.43769 41.204839 -4.3098226e-18)
(147.97496 47.789261 -6.3400939e-17)
(140.17383 57.950097 5.3382329e-17)
(128.05709 63.40825 -4.7926231e-17)
(176.48202 1.5111931 1.0295677e-18)
(171.233 10.525856 -1.1349864e-18)
(169.58219 15.692496 0)
(166.31731 25.115038 7.4155202e-17)
(162.89317 32.740469 -8.0498216e-17)
(157.35764 41.61572 4.9560924e-18)
(150.73652 48.766301 6.5576291e-17)
(143.30863 59.021368 0)
(133.30194 64.653588 4.7782843e-17)
(178.91767 1.0152118 -1.1269394e-18)
(174.6654 9.961365 -7.7178366e-17)
(172.81645 14.826433 2.3979565e-18)
(169.38808 23.53048 -8.2715259e-17)
(165.91569 30.678624 -9.3797145e-17)
(160.55406 40.580173 0)
(154.02875 46.919408 0)
(146.56931 57.153657 8.7106543e-17)
(138.1446 63.100303 0)
(181.34939 0.38704802 0)
(176.68969 9.7673892 8.0040934e-17)
(174.87755 14.26145 0)
(172.03047 23.727166 9.2576681e-17)
(168.80784 31.336917 8.4637012e-17)
(163.49793 40.756719 -1.0160878e-16)
(156.57515 47.833944 0)
(149.14173 57.627095 -9.6661705e-17)
(144.29508 63.272351 1.3378185e-16)
(182.67693 -0.028181892 0)
(179.88957 9.0725141 0)
(177.94452 13.280045 2.8933837e-18)
(174.92556 21.945221 2.8319497e-18)
(171.81572 29.010205 -6.781809e-18)
(166.64399 39.594485 1.0489036e-16)
(160.11338 45.885936 0)
(151.55134 55.213889 0)
(149.08714 61.073159 -1.3328308e-16)
(184.97659 -0.61589966 2.8254373e-18)
(181.59688 8.9301008 -1.8106737e-19)
(179.86141 12.5658 -1.0339612e-16)
(177.40738 21.96197 0)
(174.4092 29.57787 0)
(169.58757 39.620857 6.1975261e-18)
(161.83686 48.065123 1.0202635e-16)
(152.35098 56.168619 -3.2388343e-18)
(153.96004 61.213444 0)
(187.15003 -0.88744148 2.8704858e-18)
(184.43779 8.9244801 -1.6840308e-19)
(182.7295 12.839955 9.3526612e-17)
(179.96497 22.376204 0)
(176.923 30.064772 0)
(171.89889 41.63822 -6.3675564e-18)
(163.14012 49.420181 -3.1270504e-16)
(151.70519 58.023993 3.1878518e-18)
(147.51367 59.971956 -2.5722365e-16)
(188.68129 -1.1586075 0)
(185.83789 8.7395794 -1.9551771e-16)
(184.40118 12.015826 0)
(182.1431 22.299287 -6.3793182e-18)
(179.10418 30.941057 6.964793e-18)
(173.82109 42.143133 6.4501165e-18)
(164.77987 52.012299 4.1816047e-16)
(148.00535 59.271394 -3.1473675e-18)
(130.5092 58.70471 2.4341256e-16)
(190.11168 -1.1954735 -1.9131336e-16)
(188.36829 8.3938494 1.8627775e-16)
(187.03614 12.16352 -2.0820468e-16)
(184.56224 22.785243 -2.1698946e-16)
(181.31354 31.450922 2.3306579e-16)
(175.53876 44.777326 -2.3173037e-16)
(164.90468 53.481539 -2.1659675e-16)
(144.27749 59.345076 -1.6916845e-16)
(109.78123 69.952843 0)
(191.20528 -1.4946376 3.814667e-16)
(189.54682 8.01541 -1.976926e-16)
(188.42443 11.329245 2.0141142e-16)
(186.62551 22.505312 -1.0366659e-17)
(183.42021 32.524986 -2.2451921e-16)
(177.19701 45.25048 -5.209548e-18)
(164.63634 55.761689 0)
(137.63506 63.416649 1.6303808e-16)
(75.193899 76.103783 0)
(192.20901 -1.5474892 -3.7523642e-16)
(191.78843 7.330441 1.8876798e-16)
(190.83256 11.330774 -2.1661992e-16)
(189.16748 22.83822 2.1912402e-16)
(185.75927 32.719448 6.8537372e-18)
(179.13158 47.760026 2.169899e-16)
(162.24799 58.283635 -2.1115947e-16)
(125.67607 58.446537 -1.7782614e-16)
(18.156791 18.915224 1.7756766e-16)
(192.9299 -1.9324998 1.8844095e-16)
(192.76081 6.7783061 -6.1197002e-18)
(191.9459 10.464357 2.0704225e-16)
(191.30151 22.090077 -6.7778433e-18)
(187.94615 33.76762 7.3116988e-18)
(180.32808 47.981667 2.4222537e-16)
(157.79864 57.943488 4.1774395e-16)
(99.58325 50.68458 1.6695535e-16)
(-2.9524265 19.766603 -1.6836043e-16)
(193.45257 -1.954481 2.8725487e-18)
(194.77422 5.7568946 -3.0498856e-18)
(194.07369 10.281322 -2.0993735e-16)
(194.02029 22.106612 -2.2889426e-16)
(190.21966 33.639019 2.3955363e-16)
(181.44665 49.738463 -4.7690792e-16)
(150.9212 59.378075 -4.1474093e-16)
(76.546699 45.904929 -1.7118823e-16)
(-3.2700381 26.698631 1.6744064e-16)
(193.70598 -2.3539284 -1.78465e-16)
(195.49788 5.012952 3.0383417e-18)
(194.88077 9.3793124 -8.3072987e-18)
(196.17439 20.813057 2.2197543e-16)
(192.2165 34.593123 -2.2456859e-16)
(180.59663 50.524878 2.3339075e-16)
(139.22371 58.347808 1.9778284e-16)
(44.026127 24.743438 1.609261e-16)
(-10.125258 29.840194 -1.5947704e-16)
(-12.224628 29.176232 -2.6865951e-16)
(24.371304 15.381759 -1.8215284e-18)
(127.47307 56.586317 5.0384116e-18)
(180.02049 50.745707 -4.2121784e-18)
(193.9079 34.341798 0)
(198.74333 20.541995 3.9955005e-18)
(196.63052 9.000347 4.4089325e-16)
(197.26552 3.6955119 2.1070421e-16)
(193.60227 -2.6057189 3.5010418e-16)
(-13.778869 29.423752 2.6067122e-16)
(15.690624 13.519793 0)
(115.07769 54.807565 0)
(179.05447 50.772321 6.4905182e-16)
(195.77294 33.935976 0)
(200.54879 18.250063 -5.3780637e-16)
(197.13164 7.6411266 -6.8251974e-16)
(197.65807 2.6333895 -1.9981274e-16)
(193.27734 -2.8643451 1.7124128e-16)
(-14.68007 28.970985 2.1504272e-18)
(17.333072 23.028021 -1.7320471e-18)
(104.09259 50.204815 0)
(177.70843 50.116474 -6.3842244e-16)
(197.10696 33.53351 0)
(202.75782 17.742863 5.3253231e-16)
(198.54973 7.0700029 4.4228523e-16)
(199.05198 1.1537657 4.7357335e-18)
(192.72098 -3.0951849 -3.4147242e-16)
(-16.165979 29.935061 4.9308569e-16)
(23.203348 35.339483 -4.9320282e-16)
(94.986309 49.594087 3.7790347e-18)
(175.57881 50.329308 0)
(198.6727 32.714123 -6.2202825e-16)
(204.22036 15.241464 0)
(198.78088 5.662203 -3.503913e-18)
(199.04278 0.016759461 4.7080611e-18)
(191.92468 -3.2877919 -1.3662685e-18)
(-17.147654 30.490797 -4.7367576e-16)
(24.639471 41.915561 -1.8761761e-17)
(86.63939 45.910768 5.9493588e-16)
(173.20787 49.008683 -4.5701243e-18)
(199.68096 32.171264 -2.256439e-17)
(206.14791 14.488027 0)
(199.9096 4.9021477 -4.4814354e-16)
(199.94924 -1.507739 0)
(190.91312 -3.4455263 0)
(-18.17245 31.852525 2.0492033e-18)
(22.778736 44.886432 4.7211813e-16)
(77.497212 45.307603 -1.1666201e-15)
(170.02161 49.53462 6.9948565e-16)
(200.85086 30.943653 6.2150364e-16)
(207.2209 11.813194 5.7055157e-16)
(199.86297 3.4303871 4.3434559e-16)
(199.47992 -2.6411749 4.606295e-18)
(189.69343 -3.5741385 -3.0642597e-16)
(-18.475305 32.772578 2.0202262e-18)
(19.577165 46.243777 -4.8940674e-16)
(68.118566 39.348446 5.8478841e-16)
(166.45152 47.919603 -6.8572345e-16)
(201.42468 30.365799 4.9508127e-18)