/*--------------------------------*- C++ -*----------------------------------*\
  =========                 |
  \\      /  F ield         | OpenFOAM: The Open Source CFD Toolbox
   \\    /   O peration     | Website:  https://openfoam.org
    \\  /    A nd           | Version:  11
     \\/     M anipulation  |
\*---------------------------------------------------------------------------*/
FoamFile
{
    format      ascii;
    class       surfaceScalarField;
    location    "0.3592372";
    object      phi;
}
// * * * * * * * * * * * * * * * * * * * * * * * * * * * * * * * * * * * * * //

dimensions      [0 3 -1 0 0 0 0];

internalField   nonuniform List<scalar> 
1652
(
1.706212168242977
0.5337381654478366
-1.763034163104749e-13
1.17247400376836
0.5337381584212273
9.350298313393068e-13
0.638744585078186
0.5335571546622977
5.040412531798211e-13
0.5291695198661388
-8.919753824443433e-12
0.1057111339485395
1.706212168247671
1.067476330876201
1.172474005829481
1.067476302840189
0.6387502464021456
1.067105507458816
1.053469952343204
0.1085008303902535
1.706212168244342
1.601214496297514
1.172474013702354
1.601214386895502
0.6388068711486562
1.600473898927148
1.575038118236756
0.1089061384780047
1.706212168319533
2.13495266152512
1.172474043756427
2.134952228724723
0.6388942761907643
2.133493277224443
2.097351321278088
0.1052259067313271
2.651191214816906
1.723711780177983
3.167429763782184
1.723711779125781
3.683668090046664
1.72371185120748
1.723712858919938
4.199906971637241
2.651189460773514
1.207473399364351
3.167421594039375
1.207473287100883
3.68364704838774
1.207475968352098
1.207511808115266
4.199820705231506
2.649581362545138
0.6899954895925131
3.166040555618575
0.6888415048738695
3.682702429186386
0.6872903321841878
0.6887247571419961
4.19452573112122
2.650874531575575
0.1168378700200388
3.273932094562069
0.04172461073278466
3.912955194964815
0.01811961392313721
4.554446595116913
0.01129148278535858
4.164891486856385
0.03501639690447689
4.129861133592181
0.03500481646957188
4.09484535428998
0.03485880915146455
0.03478328164288003
4.059707998960072
4.164989933137003
0.0697140213142366
4.130355905720149
0.06893656096278927
4.096344160144606
0.06750052835064235
0.06567960766508496
4.062546349523124
4.174765262485688
0.08242248801394653
4.160204212860002
0.07410489763717837
4.152940730872006
0.06155646284356081
0.05298172987996996
4.147974907565056
4.603056373692541
0.006229205297784202
4.647547492643728
0.005264134772441087
4.680683950415402
0.006631575194975425
4.712916984434123
0.007741204589012174
4.670365434832208
0.1044175631878099
-0.06872497433150956
4.585724730852845
0.1015336315381102
-0.01838188561521212
4.503680313375835
0.0966691996722745
-0.008941769729983312
0.08785847091012911
4.431572601400422
-0.006796809828917033
4.22009645252249
0.01360744931369351
4.27516314511196
0.02651447654593264
4.314339941454869
0.0372691674528719
0.04540992775486219
4.33814260924324
4.068844787442092
0.001073231433403654
4.081319806137764
0.002963616509384148
4.098854822069588
0.005655624228688372
0.009950143078720886
4.118433452463538
4.059561396149095
4.059934642017936
4.061254174972015
4.064432386671764
4.069795859135855
-0.01554494705629117
4.077679554953908
-0.0216214874967543
4.087623592547224
-0.02801785723198824
-0.03210804626201236
4.096917249966683
4.138847572643185
-0.05369595542238348
4.158817442503259
-0.06003541012996644
4.176997507414573
-0.06321998854181471
-0.06156526059231987
4.190974794323945
4.347633833786404
-0.07864943481112502
4.345713668742429
-0.0682278411881736
4.333663745716354
-0.05402393751768453
-0.04809068604280131
4.319208248092955
4.365059635249702
-0.007518740686696085
4.316425412528349
-0.005960745245798954
4.273215925953024
-0.003535207416221736
4.244284294945655
-0.002871864326716406
0.04263141910840129
4.228674943376987
-0.01747986720596054
0.05775058959016283
4.308730548113834
0.03447600832411801
4.199832083797358
4.101809056353347
0.04041924152301701
4.249422826178818
-0.1456635879029685
0.04760741760999931
4.301615534236115
0.03368350483827387
4.206144197367348
4.102832972004322
0.07818257179522642
3.985003388225331
-0.140005149180373
0.04627171886261239
4.308885334762015
0.02810075344938723
4.211434399228911
4.098034332327029
0.1746614474212897
3.682272680973966
-0.04233657686152659
0.06565797594359912
4.316410962273948
0.02803779199614864
4.226445746028765
4.100477011148087
0.07033219107950461
3.979814721159427
0.123556197690083
4.132435553466257
0.08027887809213863
4.217518787479706
3.560890914061219
0.14735651846162
0.06627746923276878
3.876833172023178
0.08925319503352841
4.042792774127618
0.008554716925975203
4.094876238918964
3.434665513496889
0.1117999955505167
0.05279796848878548
3.784938248071954
0.01845221741628955
3.955720259012159
-0.07013775499005903
3.934667858060622
3.332935654692454
0.05847372733339351
0.02148948898742697
3.705442557674138
-0.08849376079897697
3.861474843814273
-0.1185520575532508
3.745428694571502
3.239256228212681
0.02716047375928787
0.1401538551544526
3.15519205960369
0.002272532578034947
0.1880863002815306
3.584086251602224
0.03402750571596203
3.734484316178836
3.642165421947619
0.148517927794847
3.077803118430128
-0.006619681924164289
0.2559950881397735
3.472521586829432
0.1028859721511379
3.584916130665473
3.592148785761855
0.140461846114238
2.9955207072483
0.002475240505071419
0.2945974925092911
3.346352045249785
0.190992475832317
3.450091611660823
3.557359325201158
0.1099858573461316
2.890871397236314
0.0156864047747044
0.2666313910689805
3.221602455991263
0.251098609356843
3.304256473787588
3.515472516157499
-0.21986052978652
3.464405369253168
-0.1874176378373121
3.230011811286712
-0.04683121825760994
3.107244498005599
2.789610876441504
0.04415746089231209
-0.1620750952958213
3.402433432482153
-0.1271062750940467
3.139808580581914
0.001551357960455579
3.004997742537168
2.707307286998197
0.06647366671082433
-0.1025098444876384
3.328925439543032
-0.05274298331671134
3.057281312610782
0.06928482167819378
2.911614908289107
2.641312274328407
0.1219614034391147
-0.03597116517619126
3.224304286927256
0.03387166352623405
2.967053685264555
0.155688979394404
2.819841794210143
2.569307866157065
0.2296404858053208
-0.3468342794114068
3.454813854961676
-0.5764961532337007
3.185793725651104
-0.7153241554766302
3.000044224882799
2.633113817281469
-0.7690707873147218
-0.3002086328190853
3.659651660528807
-0.5257819607924892
3.407277155623363
-0.6286982477763596
3.176610508700115
2.281262175913851
-0.2632236122715719
-0.2736584553850474
3.844645442600615
-0.482140920733212
3.621430393539636
-0.5140375216003605
3.331023722548428
1.803007412207315
-0.02966561424146703
-0.2402586918295206
4.011169221959658
-0.4394776715224752
3.827813937614986
-0.3630691165262304
3.438904125173582
1.417726951133341
-0.01228118567431215
0.1576806276403061
1.45926348525491
-0.01047809939675601
0.2075842481692212
3.529868543037197
0.1042119464094499
3.938194501072861
4.062977044443524
0.1656291720770891
1.439674803132046
-0.007978926308162037
0.1877442874374494
3.62567443046725
0.09472369410714243
4.050910037465953
4.108049949849531
0.1503822025148077
1.343317171358669
-0.003393878016472011
0.1686297728309943
3.72321095424345
0.08924763470625835
4.160213338599583
4.149925191107433
0.119911314436254
1.254281975574015
0.002202895715113753
0.1500455976762701
3.816528368178819
0.08903415492748706
4.257715911528722
4.196626393526225
-0.2359523975297293
1.57020201769964
-0.01567254261472285
-0.1845880547096556
3.985441132985034
-0.04698254767311583
4.197997105576187
4.097718024307729
-0.2649895073564048
1.927846774618147
0.005973816899921047
-0.1781056620762084
4.069002700583405
-0.03211452484682842
4.11330400284952
4.060050856064164
-0.2623645209273706
2.245154230112028
0.03358710255931556
-0.1344457879905637
4.10220650490474
-0.02063091890621638
4.067476277707768
4.056535991432617
-0.2321307388331608
0.08786577420375646
2.498256569196608
-0.1113843137207166
4.09952471387256
-0.0164878114164424
4.039832559346388
4.056691358940206
0.3370436085446439
-0.4386167894729394
-0.01287168968481652
5.616396236973742e-12
0.8928675349374121
-0.4130662820911608
-3.415046023746982e-13
1.633809376181072
-0.4646876374128914
7.500666754367558e-13
-0.5171011623049053
-1.257394188769467e-11
0.3341160487411321
-0.8918364116501387
-0.01277406572882917
0.9068202571707524
-0.8655168866202421
1.634735228722228
-0.9425088671335051
-1.035759067579338
0.330752482066091
-1.35136013662434
-0.01558021561527242
0.9266014556383204
-1.343380976500928
1.638842618547342
-1.451593466862647
-1.556743697936896
0.3240812839353732
-0.0160724776402405
-1.703816990372703
0.9567802399793168
-1.851429736762925
1.64752634340951
-1.983871157609956
-2.082285623619989
-0.2321307388335935
-2.245154230115911
0.08786577420378586
2.498256569191458
-0.1113843137167979
-4.102206504906635
4.099524713873944
-0.01648781141269828
-4.067476277705038
4.039832559345585
-4.056535991424228
4.056691358935939
-0.2623645209256423
-1.927846774621343
0.03358710256008166
-0.134445787993705
-4.069002700595418
-0.02063091890775204
-4.113304002854479
-4.060050856069203
-0.2649895073576694
-1.570202017705457
0.00597381690025732
-0.1781056620786126
-3.985441132990325
-0.03211452485188548
-4.19799710557735
-4.09771802430398
-0.2359523975293049
-1.254281975575889
-0.01567254261448995
-0.1845880547138573
-3.816528368191359
-0.04698254767793819
-4.257715911529271
-4.196626393519088
-0.1042119464046367
4.06297704446228
-4.011169221984887
-0.2075842481568946
3.938194501095073
-3.827813937645084
-0.1576806276340419
3.529868543014298
-3.438904125143833
1.459263485226674
-1.417726951111155
-0.01047809939698479
-0.09472369410137521
4.108049949852917
-0.1877442874229523
4.050910037479521
-0.1656291720721191
3.625674430454593
1.439674803121696
-0.007978926308282395
-0.08924763470082903
4.149925191101419
-0.1686297728133147
4.160213338609468
-0.1503822025098132
3.723210954241266
1.343317171357246
-0.003393878016204721
-0.08903415492048061
-0.1500455976602455
-0.1199113144311884
0.002202895714992846
0.3630691165300092
-1.803007412194163
-0.01228118567431247
0.4394776715374368
-3.331023722534706
0.2402586918447043
-3.621430393565791
-3.844645442619748
0.5140375216044689
-2.281262175901354
-0.02966561424070908
0.4821409207476872
-3.17661050869556
0.2736584553965717
-3.40727715564524
-3.659651660544164
0.628698247783634
-2.633113817278534
-0.2632236122703335
0.525781960807432
-3.00004422488063
0.3002086328292812
-3.185793725662359
-3.454813854967983
0.7153241554839481
-2.56930786615763
-0.7690707873166783
0.5764961532461332
-2.819841794211434
0.3468342794143031
-2.967053685271006
-3.224304286926348
-0.2198605297853514
3.464405369265478
-3.515472516172513
-0.1874176378307636
3.230011811302079
-3.304256473810381
-0.04683121825232861
3.107244497994907
-3.221602455972228
2.789610876432056
-2.890871397224625
0.044157460888536
-0.162075095288385
3.402433432488597
-0.1271062750859661
3.139808580590239
0.001551357967150779
3.004997742528136
2.7073072869903
0.0664736667107414
-0.1025098444851084
3.328925439546068
-0.05274298330909755
3.057281312617465
0.0692848216825
2.911614908284847
2.641312274325439
0.1219614034383244
-0.03597116517164678
0.0338716635356292
0.1556889793975013
0.2296404858057199
0.1099858573489595
-2.995520707236892
0.01568640477569883
0.2666313910739636
-3.346352045241636
0.2510986093601792
-3.450091611675327
-3.557359325212456
0.1404618461168807
-3.077803118425408
0.002475240504760001
0.294597492515725
-3.472521586826181
0.1909924758371876
-3.584916130672828
-3.592148785769175
0.1485179277979365
-3.155192059596376
-0.00661968192540352
0.2559950881453577
-3.584086251605795
0.1028859721506812
-3.734484316182316
-3.642165421949743
0.140153855156595
-3.239256228215236
0.002272532577691
0.1880863002893544
-3.745428694572293
0.03402750571987911
-3.861474843814884
-3.705442557671975
0.07033219108078725
3.97981472116041
-4.100477011146376
0.1235561976905928
4.132435553467152
-4.226445746026722
0.08027887809558154
4.217518787483439
-4.316410962276402
3.56089091406482
-3.682272680976565
0.1473565184601515
0.06627746923477151
3.87683317202465
0.08925319503454038
4.042792774129604
0.008554716928090844
4.094876238922748
3.434665513496705
0.111799995548531
0.05279796849021789
3.784938248073743
0.01845221742441039
3.955720259015695
-0.07013775499003494
3.934667858067257
3.332935654691783
0.05847372733272271
0.02148948898968872
-0.08849376079292415
-0.1185520575525764
0.0271604737600083
-4.098034332326564
-0.02803779199531875
-4.102832972005876
-0.02810075344849872
-4.101809056354759
-0.03368350483773142
-0.0344760083243898
-4.096917249967839
-4.211434399230324
-0.06565797594621342
-4.206144197366084
-0.0462717188631297
-4.199832083792259
-0.04760741760898923
-0.0577505895898569
-4.190974794319237
-4.308885334765479
-0.1746614474183998
-4.301615534239948
-0.07818257179394389
-4.308730548113619
-0.04041924152422366
-0.04263141910823948
-4.31920824809409
-3.98500338823371
-0.04233657686178688
-4.249422826180065
-0.1400051491810957
-4.228674943375897
-0.1456635879000346
-4.244284294946113
-0.01747986720583808
-0.03210804626058295
-4.087623592545701
-0.06156526059094364
-4.176997507409784
-0.04809068604141314
-4.333663745720856
-4.273215925953362
-0.002871864327612356
-0.02801785723308237
-4.077679554954546
-0.06321998853974609
-4.158817442498029
-0.05402393751580242
-4.345713668748442
-4.31642541252663
-0.003535207414209235
-0.02162148749495207
-4.069795859137388
-0.06003541013074881
-4.138847572636871
-0.06822784118710634
-4.347633833795074
-4.365059635249324
-0.005960745246182259
-0.01554494705336018
-4.064432386678024
-0.05369595542343841
-4.118433452456613
-0.0786494348109032
-4.338142609254819
-4.431572601401643
-0.007518740684891695
-0.001073231435196886
4.059561396149965
-4.059707998954248
-0.01360744931578167
4.068844787425132
-4.062546349503377
-0.1044175631913519
4.220096452539369
-4.14797490758302
4.670365434841467
-4.712916984446151
-0.0687249743314981
-0.002963616511088119
4.05993464201802
-0.02651447655103756
4.081319806124482
-0.1015336315414587
4.275163145125524
4.585724730860417
-0.01838188561634302
-0.005655624235074597
4.061254174973511
-0.0372691674623587
4.098854822057582
-0.09666919967637194
4.314339941467378
4.503680313380114
-0.008941769731829391
-0.009950143080713736
-0.04540992775864239
-0.08785847091296201
-0.006796809828694433
-0.05298172988502642
-4.680683950423346
0.007741204588586736
-0.06567960767871323
-4.152940730879101
-0.03478328164790989
-4.096344160136298
-4.094845354289173
-0.06155646284922933
-4.647547492648719
0.006631575194561923
-0.0675005283636117
-4.160204212859168
-0.03485880915467854
-4.130355905724126
-4.129861133600653
-0.07410489764441014
-4.603056373694915
0.005264134771363893
-0.06893656097459971
-4.174765262479538
-0.03500481647028886
-4.164989933155482
-4.164891486854041
-0.08242248801805691
-4.554446595099616
0.006229205299733309
-0.06971402132683913
-4.1945257311076
-0.0350163969079309
-4.199820705258271
-4.199906971643489
-0.6887247571401633
-3.912955194934723
0.01129148278562964
-1.207511808107421
-3.68270242917489
-1.723712858925355
-3.683647048405466
-3.683668090046574
-0.6872903321821324
-3.273932094528901
0.01811961392656702
-1.207475968344632
-3.16604055561432
-1.72371185120903
-3.167421594053869
-3.167429763785848
-0.6888415048734956
-2.650874531547851
0.04172461072872613
-1.207473287097179
-2.649581362544285
-1.723711779126115
-2.651189460776475
-2.651191214823011
-0.689995489592507
-2.097351321266313
0.1168378700133056
-1.207473399364565
-2.133493277229823
-1.723711780188847
-2.134952228729796
-2.134952661529126
1.706212168246033
0.5337381654428739
1.172474003772976
0.5337381584278784
0.6387445850814188
0.5335571546629927
0.5291695198550921
0.1057111339520952
1.706212168248594
1.067476330870286
1.172474005829727
1.067476302839524
0.6387502464027549
1.067105507466675
1.053469952332259
0.1085008303915469
1.706212168246498
1.601214496294726
1.172474013702238
1.601214386893246
0.6388068711479081
1.600473898929493
1.575038118237055
0.1089061384772265
1.706212168319974
1.172474043754035
0.6388942761878327
0.1052259067297965
0.1054762318661433
0.1054762318702846
0.1054653918286074
0.1079721223010235
0.1059225137804936
0.1078287803761741
0.1026793064763598
0.1077871456385733
0.1079721222984513
0.1054653918329478
0.1076782120595691
0.1076782120620303
0.1081688406787369
0.1066956978207922
0.09903950971719741
0.1111325205641597
0.1078287803773254
0.1059225137838422
0.1066956978212456
0.1081688406814372
0.1063680708269655
0.1063680708270579
0.09589779124063737
0.108924387723585
0.1026793064809629
0.1077871456404253
0.09903950971979107
0.1111325205658828
0.09589779124524037
0.1089243877230796
0.09567817128174576
0.09567817128671359
-0.03916483115869562
0.1340424837506817
-0.0625320344108401
0.1313125558632485
-0.08851461262865201
0.1359908518091926
0.1348760669294581
-0.005682163362599246
0.1388609376362183
-0.01617533300520696
0.1408669265945186
-0.02705987734463094
0.1458977441623826
0.148433607006093
-0.0009897349243523923
0.1391851946589189
-0.007344030669177992
0.1464985108541823
-0.01313439366059183
0.1509051645946045
0.1525076642491786
-0.001218718954884013
0.1398031415578814
-0.006135057709457437
0.1507758038455432
-0.009219358713288661
0.1533082231756469
0.1538215399401998
0.1533031184728662
0.00616957373022381
0.1533720852130573
0.004948540487026254
0.1526200940991311
0.007183192525567039
0.006669560849571377
0.1537744788707126
0.1535206727537125
0.00539147455231187
0.1538379616788062
0.004325676919819554
0.1539161453905097
0.006914480366038922
0.003199577584375057
0.157431623684767
0.1528814101300341
0.002725278414199062
0.1538629253309676
0.00303350706630684
0.1547047597184927
0.005885409458491531
-0.009752648945363707
0.1676840136858977
0.1419776287816063
0.1446515517661583
0.1502910747494618
0.1404652899120069
0.1402988941584644
-0.05510089212514799
0.1310927734429651
-0.00887038102948573
0.1296687669306004
-0.006961207824075055
-0.006209407966762948
0.1296550889510846
0.1446496171959055
-0.04222971229671671
0.1388102743630425
-0.00273983404238784
0.1356409855805299
-0.003209404218018491
-0.003925130320377779
0.1339572652275027
0.15119646115897
-0.02570026273377782
0.1456023027933248
0.003129660001628676
0.1416372710575713
0.00132678401411454
8.870981537911771e-05
0.1382175592165916
0.1147562589325507
0.1181759096829382
0.1201040479276964
0.1208093817379174
0.1299200871641172
-0.006882543616725356
0.1308441553376196
-0.00582421515239967
0.1320144030880847
-0.003767078781222705
-0.003038493869052278
0.1331207416985291
0.1327149570584596
-0.004747775185473702
0.1322448601783229
-0.004284423874904686
0.1322700899497154
-0.002830337795789284
-0.002528167996247471
0.1326951024993939
0.1355128453027991
-0.00114912709362161
0.1336078566791695
-0.001296573938993489
0.1325487222530963
-0.0007878332716974856
-0.00111550072545874
0.1321948568338843
0.1205604443736104
0.1203303013057896
0.1204691444806631
0.1203652564110168
0.1377885735706076
-0.02482871798635702
0.1348825667970525
-0.1505004470548163
0.1107595429274967
-0.1229657533690215
-0.0110420015478449
0.08051130459383153
0.1322027719163305
-0.0283163711802577
0.1023249365516013
-0.1270274213863602
0.05610811961690869
-0.08144724641805223
-0.002616571723547401
0.04679666547505137
0.1239352752542343
-0.02441164755426017
0.05391250881900035
-0.06299659131858765
0.002564350886089292
-0.03524046260560987
-0.006634793053267585
0.004849199360593331
0.09095620270199967
0.02205296416665802
-0.01732388241076083
-0.02687792437689318
0.1047429991358165
0.1254178322618735
0.1177022107999223
0.1030275508953663
0.1245918757039413
0.05756169605653316
0.02675349285271811
0.1298440056906284
0.08613650079254552
0.08814305863208172
0.112167654130866
0.08104225162629597
0.1233710869795323
0.0504037242639892
0.02496201937995191
0.1295953246882754
0.05318272690776081
0.04164874881427783
0.09764517838951194
0.04051986576996569
0.1175439026114052
0.033783950634521
0.02014572321782671
0.1261442012333433
0.01606347145466511
0.06047008892339822
0.0966963741062451
0.120020273644075
0.1350665213274426
0.003068083248844222
0.1400248643371982
-0.006417223534094685
0.1434898110998945
0.001381644686253458
0.01112160876726442
0.1477709678764103
0.1347762372798717
0.005054663625271516
0.1395686151392619
-0.00260297138748844
0.1424687973240301
0.001754767596410356
0.00679506562204879
0.1464998321692161
0.1319895280357467
0.00620519486801796
0.1376969421823994
0.0001345845015993108
0.1417125447313614
0.00146157493225918
0.003119767518528715
0.1452932529421419
0.133096882032938
0.1388412744555885
0.1429866647321165
0.1462795096226636
0.1586638467695801
0.03178754193404787
0.1726591597878355
0.05121755233514935
0.1922475719428071
0.1023173121996129
0.1805134621425954
0.2412399777130506
0.1566728732986522
0.01993621888046782
0.1704612092304417
0.03610931412080376
0.1914989018754284
0.08113530626527921
0.1229079868405992
0.2492073323265201
0.1538903230398593
0.009770584954654327
0.1672302641558624
0.02142001384721515
0.1942631684436309
0.05345213813944871
0.03428842444882724
0.2830991300665911
0.1546647512287761
0.1746625557087222
0.2273712762688542
0.2615308855856273
0.1220014329035332
-0.6494854628628619
0.01214932325733345
-0.1526509128098135
-0.002597110338410112
-0.01384692737991585
-0.009765688315689389
-0.003860722529206068
0.08463896436012475
-0.4845211053865115
0.001807036851073523
-0.06912178602729346
-0.004315323176383064
-0.006798979112373356
-0.006316585112449776
-0.006748273579806804
0.04503313656797777
-0.2463298450892473
-0.002596040144778643
-0.02080254188544784
-0.005881484395304241
-0.002576858860047269
-0.00332058142928448
-0.008045768595266409
0.01517956992918232
-0.004926149948049373
-0.006659497181005221
-0.009082456418119056
-0.005367079801805744
-0.007899553718812864
-0.006842744270050573
-0.005047382580953616
-0.008519320707319335
-0.0008105445720215723
0.003538106591866139
-0.009128795837222219
-0.008192569796284488
-0.005611306799752072
-0.009147303591137832
-0.002763172963431145
-0.009653887033912361
0.0007065870770160201
0.00316849743235316
-0.008476750403920756
-0.009688777397565403
-0.002882237179125965
-0.009469020219560883
-0.001545648741977258
-0.008702839216964138
0.0009290478222639259
0.002634956798139174
-0.007328883096962288
-0.01079235269097979
-0.01094988174860017
-0.009120767277451744
-0.005723279349221268
-0.008421304469629787
-0.01576929571412313
0.00194297093934255
-0.00284965754998677
0.02247355087184023
0.0146200990564009
0.07047375885042156
0.04243659705969276
-0.009509162676488903
-0.01396210310480202
-0.007053897611481449
-0.003681923000455403
0.008908800146771888
4.05862383409672e-05
0.04770551481688531
0.03388577353864984
-0.01176765637457208
-0.008575118005579814
-0.01145459815100588
-0.002555937793949303
-0.003607546177201292
-0.006446036506671388
0.0255734009141886
0.02032650077644315
-0.01309202638771317
-0.01388674473550049
-0.01901303942050028
0.008975644523850718
0.04129055163648955
-0.00635673109364767
0.01063476288204547
0.03999942204586472
-0.007445371091644164
0.01126595740954738
0.03677225548676745
-0.01237316130757529
0.01704044016551388
-0.01696908353492836
0.02817971304425206
0.02546622310395812
0.0326645079567156
-0.003783809051171191
0.03078330183508871
-0.004784074057911203
0.02748558323049329
-0.008732150744179046
-0.01083076014198529
0.02109976133959489
0.01849751745318676
-0.001709138575994966
0.01641335054554558
-0.002220618903334495
0.01257204141350142
-0.004436951269202415
-0.005015141916015167
0.006837797278607484
0.006533033310721775
0.004582722721215376
0.0002902140685836774
-0.004408721344993011
-0.006411077251470741
0.002584393449523176
-0.006056228729771407
0.0007783957957640079
-0.003634247681224348
-0.0008802476467076464
-0.001874211368449955
-6.216555048510486e-14
0.003495833858009334
0.006009679283544175
0.001027962185869723
0.003639467937509487
-4.02476130649046e-05
0.00092321438780937
-0.0009164631667289945
-2.774863672172501e-14
0.01669106965566089
0.0101801978500152
0.01132015918002904
0.008928083089835174
0.005680755782659912
0.006652503084708928
0.005072954084909171
1.680600103526331e-14
0.02173985491885716
0.01431329847981346
0.007707622435625304
5.654504642294e-14
-0.001874211368457227
0.003634247681121215
-0.0009164631667312288
4.024761304328994e-05
0.005072954084908817
-0.005680755782624856
-0.007707622435506642
0.0128716896847135
-0.0008802476467087116
0.006056228729693962
0.0009232143878051269
-0.0010279621859706
0.006652503084742325
-0.01132015918013142
-0.01431329847976814
0.01277406572894337
0.000778395795738171
0.00641107725132712
0.003639467937507947
-0.003495833857964072
0.00892808308995981
-0.01669106965568074
-0.0217398549188601
0.01558021561507418
0.002584393449595546
0.004408721345040952
0.006009679283542398
-0.006837797278685699
0.01018019785010738
-0.02109976133955785
-0.02817971304447231
0.01607247764004749
-0.03677225548668809
-0.01696908353471384
0.02546622310420311
-0.03999942204587546
-0.01237316130754287
0.01704044016547073
-0.04129055163650221
-0.007445371091613855
0.01126595740960971
-0.006356731093725233
-0.04243659705973055
0.01063476288202285
-0.0274855832305334
-0.01083076014200903
-0.03078330183502328
-0.008732150744232586
-0.03266450795677846
-0.004784074057949353
-0.003783809051234814
-0.03388577353872374
-0.01257204141357363
-0.005015141915973347
-0.01641335054551558
-0.004436951269115405
-0.01849751745334964
-0.002220618903394343
-0.001709138576023044
-0.02032650077652402
-0.0002902140685896171
-0.004582722721266218
-0.006533033310748934
-0.008975644523943373
0.01901303942036144
-0.02557340091425322
0.0138867447354842
0.006446036507011366
0.01309202638769845
0.002555937793891662
0.008575118005354924
0.005723279349239128
0.003607546177195567
-0.04770551481693815
0.01145459815092483
-4.058623857768062e-05
0.01176765637445576
0.003681923000361353
0.01396210310491351
0.007328883096976957
-0.008908800146902728
-0.07047375885045294
0.007053897611374281
-0.01462009905663682
0.009509162676387276
0.002849657550015136
0.01576929571380459
0.008476750403903418
-0.02247355087203318
-0.00194297093941842
0.008421304469441426
0.009128795837228892
0.008519320707323957
0.003538106591877407
0.006842744270124803
-0.0008105445719788253
0.005367079801861946
-0.005047382581090673
-0.00789955371886656
0.003860722529161298
0.009653887033903501
0.003168497432342411
0.009147303591176317
0.0007065870769872619
0.008192569796295818
-0.00276317296350163
-0.005611306799792744
0.006748273579813324
0.008702839216921991
0.002634956798151504
0.009469020219592898
0.0009290478223974094
0.009688777397572025
-0.001545648742054012
-0.002882237179168717
0.008045768595265984
0.009120767277513953
0.01094988174863405
0.0107923526910047
0.009082456418119712
0.002597110338383084
-0.009765688315615605
-0.012149323256814
-0.01384692737965473
-0.1220014329025719
-0.1526509128091301
-0.6494854628634567
-0.241239977712181
0.004315323176425456
-0.006316585112374103
-0.001807036850887803
-0.006798979112273732
-0.08463896435945505
-0.0691217860270507
-0.4845211053864675
-0.2492073323265477
0.005881484395333102
-0.00332058142927208
0.002596040144847133
-0.002576858860001059
-0.04503313656767985
-0.02080254188531003
-0.2463298450891863
-0.2830991300666159
0.006659497181011273
0.004926149948081265
-0.01517956992912407
-0.2615308855858338
-0.1922475719429054
0.1805134621436286
-0.1726591597875995
0.1023173122015107
-0.1586638467697343
0.05121755233740555
0.03178754193558875
-0.1477709678764413
-0.1914989018752114
0.1229079868391391
-0.1704612092305837
0.08113530626444593
-0.1566728732984484
0.03610931412242102
0.01993621887910946
-0.1464998321691796
-0.1942631684432894
0.03428842444916474
-0.1672302641560394
0.05345213814050448
-0.1538903230394989
0.02142001385065861
0.009770584955234085
-0.1452932529423118
-0.2273712762682191
-0.1746625557093644
-0.1546647512285729
-0.1462795096227064
-0.1434898110999578
0.01112160876721358
-0.1400248643370915
0.001381644686017203
-0.1350665213268686
-0.006417223533169203
0.003068083248562781
-0.1298440056905469
-0.1424687973241763
0.006795065620476159
-0.1395686151388118
0.001754767599667639
-0.1347762372795328
-0.002602971387491548
0.005054663624787459
-0.1295953246881251
-0.1417125447311274
0.003119767520622818
-0.1376969421821177
0.001461574931483578
-0.1319895280353413
0.000134584501545465
0.006205194868927566
-0.1261442012332931
-0.1429866647322159
-0.1388412744554609
-0.1330968820326525
-0.1200202736439122
-0.1245918757041424
0.02675349285262019
-0.1177022107999245
0.05756169605637373
-0.1047429991360139
0.1030275508947021
0.1254178322621441
-0.08051130459396222
-0.1233710869795726
0.02496201937919151
-0.1121676541308768
0.05040372426256456
-0.08613650079286629
0.08104225162430123
0.08814305863345095
-0.04679666547515626
-0.1175439026113313
0.02014572321796948
-0.09764517838984053
0.03378395063426587
-0.05318272690782985
0.0405198657718332
0.04164874881197356
-0.004849199361125878
-0.09669637410590372
-0.06047008892299419
-0.0160634714549529
0.02687792437743623
-0.1107595429279698
-0.01104200154786716
-0.1348825667975089
-0.1229657533696673
-0.1377885735708067
-0.1505004470537744
-0.02482871798600944
-0.1331207416988045
-0.05610811961726302
-0.002616571724433525
-0.1023249365522525
-0.08144724641846796
-0.1322027719165943
-0.1270274213859072
-0.0283163711799711
-0.1326951024995917
-0.002564350886301567
-0.006634793053059918
-0.05391250881960967
-0.03524046260564934
-0.1239352752545108
-0.06299659131851032
-0.02441164755410224
-0.1321948568340246
0.01732388241075437
-0.02205296416670975
-0.09095620270213139
-0.120365256410978
-0.132014403088159
-0.003038493868380759
-0.1308441553374227
-0.00376707878098842
-0.1299200871641845
-0.005824215152574919
-0.006882543617131143
-0.1296550889509273
-0.1322700899497785
-0.002528167995717145
-0.1322448601781801
-0.002830337795311694
-0.1327149570583613
-0.004284423875162563
-0.004747775185410724
-0.1339572652274828
-0.1325487222529776
-0.001115500725227286