/*--------------------------------*- C++ -*----------------------------------*\
  =========                 |
  \\      /  F ield         | OpenFOAM: The Open Source CFD Toolbox
   \\    /   O peration     | Website:  https://openfoam.org
    \\  /    A nd           | Version:  11
     \\/     M anipulation  |
\*---------------------------------------------------------------------------*/
FoamFile
{
    format      ascii;
    class       volScalarField;
    location    "0.3592372";
    object      rho;
}
// * * * * * * * * * * * * * * * * * * * * * * * * * * * * * * * * * * * * * //

dimensions      [0 0 0 0 0 0 0];

internalField   nonuniform List<scalar> 
880
(
0.2239950333699092
0.2239950336977215
0.2240219316847957
0.2277382649150816
0.2239950333702082
0.223995034333608
0.2240283854446357
0.2294907113598154
0.2239950333717012
0.2239950371321023
0.224056739273996
0.2315875692451565
0.2239950333941023
0.2239950499075351
0.2241222564583066
0.2347100328167518
0.223995033259515
0.2239950334139612
0.2239950459401247
0.2239952242250021
0.2239951096745679
0.2239953271785164
0.2239968608770909
0.223997747771033
0.2242817684590718
0.2244566885066698
0.2247513484931111
0.2250683474651705
0.2401925293347195
0.2455343801858198
0.2500085437496396
0.2520202510171874
0.2239955037656838
0.2239988445621608
0.2240094184265587
0.2240395957469444
0.2240201691981283
0.2241022669469927
0.2242088549723242
0.2244461034443029
0.2264583123657033
0.2276525130858537
0.2291735118006197
0.2311938119136751
0.2539940084549567
0.2568433416651605
0.2574509569861428
0.2560354623556255
0.2436280045212699
0.2366721046783894
0.2331385147607394
0.230824908045382
0.2347449417773474
0.2358607103955056
0.2365383913442318
0.2365730611243844
0.2252532959671336
0.2262087877544293
0.227217099434685
0.2279428819778913
0.2241532017516044
0.2243777882722993
0.2247180633584015
0.2251948775607385
0.2257495340718756
0.2263070256575852
0.2268586853217737
0.2272747260160563
0.2284637380912408
0.2287683662676175
0.2289177310131329
0.2289562660405898
0.2358869807750412
0.2349358343549414
0.2336846494664626
0.2323892245858972
0.2284543655163916
0.2270998382701139
0.2263600705077909
0.2255255727181731
0.2257913683241348
0.2314865408570473
0.2288735620541114
0.2275322689467706
0.2365888786666333
0.2310972115671619
0.228624016524985
0.2274951734972412
0.2954164248825357
0.2338488452675667
0.2283256913473351
0.2269978573014769
0.3573536691753084
0.248671449434983
0.2292793129287755
0.2268111829367164
0.2267524810480709
0.2306964860693074
0.2665980281807875
0.3845282564613858
0.2257541942787622
0.2332912429679657
0.2862194237449481
0.3841152505250177
0.2261775913943061
0.2392096447678362
0.3116801582452216
0.3875967598800645
0.2277763601399739
0.2496195473486998
0.3348902335779574
0.3832615890265212
0.3736729983016817
0.3470978497833454
0.2651515076302163
0.2312646908026287
0.3618909574998941
0.3484420235067911
0.2820889456399864
0.2373728398110991
0.349350507819608
0.3444409542470563
0.2966033156542178
0.2469826865667607
0.3360856827235897
0.3272444641398269
0.2987924460901422
0.2586683120571785
0.2688486016177853
0.2915295430039108
0.305628052435606
0.3202638510399257
0.2674713089025424
0.2769601760500783
0.2821378895705826
0.2973623060772942
0.2634551230750886
0.2629451548572614
0.2588574973436176
0.2680361073090481
0.258146962339016
0.2516079208993567
0.2376535222091179
0.2330812754402371
0.253730105934702
0.240283843517275
0.2167388733209537
0.1875799415210788
0.2465606144485991
0.2298995341442565
0.1990006461573178
0.1311076636110214
0.2410506594934993
0.2255981584461158
0.1852428811223574
0.08691817405614934
0.2363160402419867
0.2232416311713842
0.1728889477840191
0.0519850897779273
0.05321506024957139
0.1741782657206657
0.2213941448750348
0.2320722503485783
0.07253475137485418
0.1742440724231235
0.2201203477520896
0.2291994604149604
0.0739946180773234
0.1723929485190032
0.2183943220833448
0.2272666169947177
0.06823129774476415
0.1690863527445659
0.2169798982506879
0.2262496326144492
0.08121599529146056
0.1750669261829049
0.2166091310557799
0.2244899652266309
0.09692909450272806
0.1821350512496578
0.2169352928597676
0.2234647380771115
0.1160785505601959
0.1914403397340754
0.2176617762543393
0.2234194696379317
0.1390484616697542
0.1994236769207907
0.2188313261410998
0.2235311320162271
0.1554767132210601
0.1757858171375151
0.2098485387404902
0.2225128023465158
0.1533135494827755
0.1786600036661077
0.2102827924758724
0.222489794192943
0.1489455750009539
0.1829367726424725
0.2113251035573308
0.2224888087225189
0.1437273908119183
0.1876058703483917
0.2129159505261841
0.2226132017106778
0.1390484616698259
0.199423676920871
0.2188313261407624
0.2235311320154164
0.1160785505605375
0.1914403397332632
0.2176617762537178
0.2234194696362422
0.09692909450283815
0.1821350512494945
0.2169352928591397
0.2234647380763124
0.0812159952915464
0.1750669261820786
0.2166091310554867
0.2244899652263882
0.2320722503490152
0.2213941448753109
0.1741782657203677
0.05321506024876389
0.2291994604147056
0.2201203477520059
0.1742440724224339
0.07253475137409943
0.2272666169950759
0.2183943220840694
0.1723929485180781
0.07399461807724732
0.2262496326149774
0.2169798982513348
0.1690863527444983
0.06823129774455984
0.05198508977797527
0.1728889477840173
0.2232416311717355
0.2363160402423778
0.08691817405577168
0.1852428811223016
0.225598158446334
0.2410506594930927
0.1311076636106372
0.1990006461583281
0.2298995341446288
0.2465606144494288
0.1875799415214647
0.216738873320631
0.2402838435161585
0.2537301059355803
0.2688486016187261
0.2915295430051592
0.3056280524366048
0.3202638510393843
0.2674713089023907
0.2769601760498162
0.282137889571344
0.2973623060767432
0.2634551230745648
0.2629451548571426
0.2588574973438749
0.26803610730901
0.2581469623390094
0.2516079208988242
0.2376535222086079
0.2330812754406048
0.3360856827232452
0.327244464139164
0.2987924460908577
0.2586683120587113
0.3493505078188984
0.3444409542465147
0.2966033156545614
0.246982686566916
0.3618909574996665
0.3484420235057706
0.2820889456395095
0.2373728398120751
0.3736729983007975
0.3470978497837756
0.2651515076309526
0.2312646908025814
0.2267524810477023
0.2306964860690954
0.2665980281808965
0.3845282564602734
0.2257541942796313
0.2332912429681032
0.2862194237448343
0.3841152505238546
0.2261775913957075
0.2392096447694893
0.3116801582442675
0.3875967598793414
0.2277763601402895
0.2496195473491182
0.3348902335774591
0.3832615890261813
0.2268111829368617
0.2269978573011275
0.2274951734980823
0.227532268946877
0.2292793129279924
0.2283256913467646
0.2286240165258506
0.2288735620539195
0.2486714494339881
0.2338488452674995
0.2310972115665955
0.2314865408567561
0.3573536691736977
0.295416424881816
0.2365888786672537
0.2257913683242138
0.2272747260166414
0.2289562660410618
0.2323892245862003
0.225525572717739
0.2268586853209678
0.2289177310131436
0.2336846494660696
0.2263600705075081
0.2263070256576615
0.2287683662676078
0.2349358343554691
0.227099838269458
0.2257495340713147
0.2284637380903642
0.2358869807752091
0.2284543655165899
0.224153201751504
0.2252532959664344
0.2347449417774346
0.2436280045210365
0.2243777882722336
0.2262087877536525
0.2358607103957189
0.2366721046775793
0.2247180633592882
0.2272170994331568
0.2365383913442815
0.23313851475923
0.2251948775606014
0.2279428819777554
0.2365730611243202
0.2308249080447743
0.2560354623553406
0.2311938119141253
0.2244461034440933
0.2240395957471765
0.2574509569858921
0.2291735118008518
0.2242088549718898
0.2240094184265691
0.2568433416645359
0.2276525130854587
0.2241022669454312
0.2239988445624764
0.2539940084552254
0.2264583123652257
0.2240201691976221
0.2239955037655688
0.2520202510168208
0.2250683474655025
0.2239977477708554
0.2239952242259381
0.2500085437486821
0.2247513484930761
0.223996860876913
0.2239950459407107
0.245534380185053
0.2244566885065586
0.2239953271787031
0.2239950334137216
0.2401925293342184
0.2242817684586478
0.2239951096736233
0.2239950332612173
0.2239950333699093
0.2239950336979472
0.2240219316848744
0.2277382649149137
0.2239950333704065
0.2239950343328749
0.2240283854452968
0.2294907113590407
0.2239950333721685
0.2239950371315927
0.2240567392739208
0.231587569245838
0.2239950333946447
0.2239950499073844
0.2241222564584099
0.234710032817205
0.23098606773577
0.2340818694933515
0.2390622129748734
0.2488979691845985
0.2340818694939356
0.2381173663411663
0.2455747801083082
0.2600340970394592
0.2390622129751672
0.2455747801080158
0.2575888900128935
0.2748616959693869
0.2488979691853082
0.2600340970382407
0.2748616959705462
0.2928128306643278
0.3104167073131572
0.2953225773111514
0.2891128904335695
0.2745363523576435
0.3072131656351318
0.3028631349406508
0.3034058492483801
0.296369007792355
0.3073449456059253
0.3059055427996397
0.3051217870645394
0.3025787339841141
0.3028576204787818
0.3020909400972785
0.3018049711037777
0.3000916932906785
0.2950240680700713
0.2917401510682389
0.2853881460100963
0.2766609261088558
0.2958575005060723
0.2924022558352941
0.2858384211017126
0.2774974318913194
0.2966769493775446
0.2929358492286975
0.2859251392982049
0.2782979026900853
0.2970754308601556
0.2928005789769944
0.2862005554024029
0.2758410634596458
0.2263160377559056
0.2042670028211125
0.2017444029866525
0.2026248749150255
0.2115210354786657
0.1977466313508022
0.1990276907924627
0.200637023190876
0.1993451673801353
0.1972926972593146
0.2000144902678068
0.2014855139593371
0.1809417615997631
0.1925853596563939
0.197857708746405
0.1999101451516347
0.2023252281903463
0.2029379502229134
0.2046256268900156
0.2066684990309445
0.2009344816398862
0.2018167496891753
0.203763568333866
0.2063169301779556
0.2016265082199083
0.2022706162021761
0.2039851974092692
0.2060234130396469
0.2003333890111231
0.2011785480200693
0.203303493793821
0.2060924438167959
0.2180900368667548
0.281225260064795
0.3614449221647472
0.3822064785083152
0.222932977374721
0.2927337123895371
0.3544351788451449
0.3674467970472953
0.2263447981003475
0.2975611038908725
0.3517797285715119
0.364307768278245
0.2283720969119314
0.3061296939006165
0.352420352412037
0.3640318980594278
0.4398968383872355
0.4300650028268233
0.42155401437742
0.4060837550366521
0.4369340328950009
0.4303672280315323
0.4218065753872298
0.4064950822166546
0.4312652244870231
0.4288333561494367
0.4202847414060322
0.4055022994841774
0.4223954217930141
0.4303388558105707
0.4216463410344053
0.4068338119839449
0.3875008835122375
0.3713084319443553
0.3555406364504277
0.3469266163820098
0.3887677715392771
0.371971904231203
0.3555325923872484
0.3465954392191508
0.3881568018268734
0.3703904717882237
0.3547420905530604
0.3453439380198712
0.390668809509862
0.3717214469780319
0.3564604006813356
0.3464651905558547
0.3381631984427829
0.3240654696373227
0.3003142789028904
0.2623605748800475
0.3387634519048051
0.3267218096011886
0.3038970732406651
0.2701430920362133
0.338092259309277
0.3272110678672618
0.303534674207418
0.2700298399127932
0.339684018625034
0.3305058236969871
0.3044648516963908
0.3119512442681411
0.173139134051259
0.05034372516469382
0.008911859338759391
0.004212716201894301
0.1365655175944482
0.03448454972469885
0.01027393074112643
0.008104163824432919
0.1037545769832067
0.02499449533563127
0.01089990125319839
0.009786624884636292
0.07437612707207929
0.01516454357606947
0.01060706735315224
0.01059511525680247
0.007180790778972016
0.0143954309446572
0.02016564779987344
0.02856978779715091
0.01249877128212292
0.01872647436523437
0.02471759337002786
0.03400872774964751
0.01535740118484805
0.0218350052123273
0.02993090140759937
0.03977550271290411
0.01757979192389975
0.02469610011883789
0.03513794126761157
0.04478692305760874
0.03597859891315996
0.05195643748414269
0.07156265274701488
0.09542389675813194
0.03896828986044486
0.05280882869255187
0.07024347440471297
0.09111882402706259
0.04275483795257009
0.05287641545167538
0.06805791892311833
0.08778020526737754
0.04171616141981867
0.04958576273375764
0.05995637754404504
0.08264989070031614
0.09972255500584183
0.09878527592718639
0.09918742316112318
0.1010378553154008
0.09008928763596695
0.09155970033279036
0.09365982608427846
0.09517704666137168
0.08610357726510136
0.09010295852884501
0.09206417029419631
0.09461474449884709
0.08127605941615178
0.08658438073070386
0.08919852952699404
0.09399548404619337
0.09891487301123332
0.103239985744053
0.1060216238963426
0.106988704691482
0.09791344798495547
0.101186722123804
0.1034640708173997
0.1045901807214006
0.09812568516816067
0.1013573554426367
0.1046579877129938
0.1063073423373294
0.105123172777004
0.1089088377155268
0.1123103407202598
0.1130949254588395
0.1069887046914967
0.1045901807214155
0.1063073423373172
0.1130949254588302
0.1060216238963455
0.1034640708173682
0.1046579877129787
0.1123103407202781
0.1032399857440949
0.1011867221239092
0.1013573554428787
0.1089088377155565
0.09891487301153364
0.0979134479849912
0.09812568516836893
0.1051231727770326
0.1010378553157963
0.09918742316126561
0.09878527592732743
0.09972255500597552
0.09517704666142214
0.09365982608440022
0.09155970033280331
0.09008928763608905
0.09461474449909983
0.09206417029454783
0.09010295852889515
0.08610357726524823
0.0939954840463412
0.08919852952709158
0.08658438073088484
0.08127605941629802
0.08264989070053642
0.05995637754440959
0.04958576273403029
0.04171616142005998
0.08778020526757184
0.06805791892320827
0.05287641545194861
0.04275483795298263
0.09111882402724665
0.07024347440494773
0.0528088286928265
0.03896828986070721
0.09542389675827817
0.07156265274729251
0.05195643748429003
0.03597859891358876
0.02856978779732981
0.02016564779996568
0.01439543094459007
0.007180790778918643
0.0340087277498133
0.02471759337016762
0.01872647436522771
0.01249877128213825
0.03977550271308076
0.02993090140781329
0.02183500521230499
0.01535740118484404
0.04478692305777867
0.03513794126769665
0.02469610011889042
0.0175797919239117
0.004212716201810415
0.008911859338600159
0.05034372516424872
0.1731391340508135
0.008104163824432981
0.01027393074105839
0.03448454972445332
0.1365655175944755
0.009786624884637225
0.01089990125314968
0.02499449533562665
0.1037545769832942
0.01059511525677092
0.01060706735310187
0.01516454357603692
0.07437612707209287
0.262360574880019
0.3003142789029103
0.3240654696362978
0.3381631984431667
0.2701430920355536
0.3038970732395753
0.3267218096008878
0.3387634519036117
0.2700298399130707
0.3035346742071489
0.3272110678685851
0.3380922593090565
0.3119512442681492
0.3044648516953525
0.3305058236978849
0.3396840186245441
0.346926616381487
0.3555406364496933
0.3713084319441285
0.3875008835105476
0.3465954392187217
0.3555325923873942
0.3719719042294092
0.388767771537757
0.3453439380204406
0.3547420905519901
0.3703904717870056
0.3881568018260836
0.3464651905550339
0.3564604006810016
0.3717214469773644
0.3906688095086711
0.4060837550357238
0.4215540143772671
0.4300650028265343
0.4398968383878251
0.4064950822160234
0.4218065753867214
0.4303672280309949
0.4369340328954932
0.405502299484195
0.4202847414057598
0.4288333561497129
0.4312652244866452
0.4068338119839515
0.4216463410342821
0.430338855809359
0.42239542179416
0.3822064785083256
0.3614449221643269
0.2812252600649688
0.2180900368673395
0.3674467970471959
0.3544351788449231
0.2927337123896828
0.2229329773752952
0.3643077682781809
0.3517797285713752
0.297561103890951
0.2263447981009448
0.3640318980584541
0.3524203524119092
0.3061296939006986
0.2283720969125539
0.2066684990313002
0.2046256268892234
0.2029379502217503
0.2023252281892868
0.2063169301784105
0.2037635683337006
0.2018167496880746
0.2009344816394244
0.2060234130401681
0.2039851974090251
0.2022706162011428
0.2016265082194965
0.2060924438173085
0.2033034937933262
0.2011785480190072
0.2003333890102796
0.2026248749140843
0.2017444029859271
0.2042670028213182
0.2263160377561182
0.2006370231899594
0.1990276907916149
0.19774663135122
0.2115210354787862
0.2014855139584368
0.2000144902669722
0.1972926972598624
0.1993451673801901
0.1999101451507217
0.197857708745406
0.192585359656941
0.1809417615999166
0.2766609261088741
0.2853881460100605
0.2917401510686836
0.2950240680697618
0.2774974318914354
0.2858384211022686
0.2924022558351081
0.2958575005055173
0.2782979026901292
0.2859251392981727
0.2929358492284322
0.2966769493771324
0.2758410634596078
0.2862005554031249
0.292800578977667
0.2970754308598819
0.3000916932896859
0.3025787339818644
0.296369007791631
0.2745363523575534
0.3018049711018883
0.3051217870637725
0.3034058492464974
0.2891128904324151
0.3020909400960292
0.3059055427981694
0.3028631349389827
0.2953225773089788
0.3028576204775616
0.3073449456045956
0.3072131656323865
0.3104167073099751
0.1499150109910493
0.2006578419950922
0.2185669646848608
0.2235520782610139
0.1465633044537172
0.1988681701125177
0.217418540145676
0.2233523532712223
0.1435234979566851
0.1964071443863183
0.2163007707479991
0.2231149265745881
0.1411688593097486
0.192131593248535
0.2146288454808717
0.2228456950964205
0.2225128023463178
0.2098485387406286
0.175785817137354
0.1554767132214777
0.2224897941926943
0.2102827924757882
0.1786600036657666
0.1533135494827371
0.2224888087222912
0.2113251035574655
0.1829367726420613
0.1489455750012434
0.2226132017102767
0.2129159505259629
0.1876058703481147
0.1437273908122343
0.2228456950956005
0.223114926574429
0.2233523532702781
0.2235520782599993
0.2146288454802392
0.2163007707477642
0.217418540144496
0.2185669646836431
0.1921315932489435
0.1964071443858096
0.198868170112749
0.2006578419954855
0.1411688593098289
0.1435234979565355
0.1465633044537123
0.1499150109913883
)
;

boundaryField
{
    back
    {
        type            empty;
    }
    inlet
    {
        type            calculated;
        value           nonuniform List<scalar> 
16
(
0.2239950333699092
0.2239950333702082
0.2239950333717012
0.2239950333941023
0.223995033259515
0.2239950334139612
0.2239950459401247
0.2239952242250021
0.2239952242259381
0.2239950459407107
0.2239950334137216
0.2239950332612173
0.2239950333699093
0.2239950333704065
0.2239950333721685
0.2239950333946447
)
;
    }
    front
    {
        type            empty;
    }
    top
    {
        type            calculated;
        value           nonuniform List<scalar> 
40
(
0.2239955037656838
0.2239988445621608
0.2240094184265587
0.2240395957469445
0.2241532017516044
0.2243777882722993
0.2247180633584015
0.2251948775607385
0.2257495340718756
0.2263070256575852
0.2268586853217737
0.2272747260160563
0.2275322689467706
0.2274951734972412
0.2269978573014769
0.2268111829367164
0.2267524810480709
0.2257541942787622
0.2261775913943062
0.2277763601399739
0.2312646908026287
0.2373728398110991
0.2469826865667607
0.2586683120571785
0.2688486016177853
0.2674713089025424
0.2634551230750886
0.258146962339016
0.253730105934702
0.2465606144485991
0.2410506594934993
0.2363160402419867
0.2320722503485783
0.2291994604149604
0.2272666169947177
0.2262496326144492
0.2244899652266309
0.2234647380771115
0.2234194696379317
0.2235311320162271
)
;
    }
    outlet
    {
        type            calculated;
        value           uniform 0.2239950333699093;
    }
    bottom
    {
        type            calculated;
        value           nonuniform List<scalar> 
40
(
0.2235311320154164
0.2234194696362422
0.2234647380763124
0.2244899652263882
0.2320722503490152
0.2291994604147056
0.2272666169950759
0.2262496326149774
0.2363160402423778
0.2410506594930927
0.2465606144494288
0.2537301059355803
0.2688486016187261
0.2674713089023907
0.2634551230745648
0.2581469623390094
0.2586683120587113
0.246982686566916
0.2373728398120751
0.2312646908025814
0.2267524810477023
0.2257541942796313
0.2261775913957075
0.2277763601402895
0.2268111829368617
0.2269978573011275
0.2274951734980823
0.227532268946877
0.2272747260166413
0.2268586853209678
0.2263070256576615
0.2257495340713147
0.224153201751504
0.2243777882722336
0.2247180633592882
0.2251948775606014
0.2240395957471765
0.2240094184265691
0.2239988445624764
0.2239955037655688
)
;
    }
    wall
    {
        type            calculated;
        value           nonuniform List<scalar> 
104
(
0.3104167073131572
0.3072131656351318
0.3073449456059253
0.3028576204787818
0.2970754308601556
0.2928005789769944
0.2862005554024029
0.2758410634596458
0.1809417615997631
0.1925853596563939
0.197857708746405
0.1999101451516347
0.2003333890111231
0.2011785480200693
0.203303493793821
0.2060924438167959
0.2283720969119314
0.3061296939006165
0.352420352412037
0.3640318980594278
0.4223954217930141
0.4303388558105707
0.4216463410344053
0.4068338119839449
0.390668809509862
0.3717214469780319
0.3564604006813356
0.3464651905558547
0.339684018625034
0.3305058236969871
0.3044648516963908
0.3119512442681411
0.07437612707207929
0.01516454357606947
0.01060706735315224
0.01059511525680247
0.01757979192389975
0.02469610011883789
0.03513794126761157
0.04478692305760874
0.04171616141981867
0.04958576273375764
0.05995637754404504
0.08264989070031614
0.08127605941615178
0.08658438073070386
0.08919852952699404
0.09399548404619337
0.09891487301123331
0.103239985744053
0.1060216238963426
0.106988704691482
0.1069887046914968
0.1060216238963455
0.1032399857440949
0.09891487301153364
0.0939954840463412
0.08919852952709158
0.08658438073088484
0.08127605941629802
0.08264989070053642
0.05995637754440959
0.04958576273403029
0.04171616142005998
0.04478692305777867
0.03513794126769665
0.02469610011889042
0.0175797919239117
0.01059511525677092
0.01060706735310187
0.01516454357603692
0.07437612707209287
0.3119512442681492
0.3044648516953525
0.3305058236978849
0.3396840186245441
0.3464651905550339
0.3564604006810016
0.3717214469773644
0.3906688095086711
0.4068338119839515
0.4216463410342821
0.430338855809359
0.42239542179416
0.364031898058454
0.3524203524119092
0.3061296939006986
0.2283720969125538
0.2060924438173085
0.2033034937933262
0.2011785480190072
0.2003333890102795
0.1999101451507217
0.197857708745406
0.192585359656941
0.1809417615999166
0.2758410634596078
0.2862005554031249
0.292800578977667
0.2970754308598819
0.3028576204775616
0.3073449456045956
0.3072131656323865
0.3104167073099751
)
;
    }
}


// ************************************************************************* //
