/*--------------------------------*- C++ -*----------------------------------*\
  =========                 |
  \\      /  F ield         | OpenFOAM: The Open Source CFD Toolbox
   \\    /   O peration     | Website:  https://openfoam.org
    \\  /    A nd           | Version:  11
     \\/     M anipulation  |
\*---------------------------------------------------------------------------*/
FoamFile
{
    format      ascii;
    class       surfaceScalarField;
    location    "0.0375";
    object      phi;
}
// * * * * * * * * * * * * * * * * * * * * * * * * * * * * * * * * * * * * * //

dimensions      [0 3 -1 0 0 0 0];

internalField   nonuniform List<scalar> 
1652
(
2.843686947071611
0.8895636090847481
0
1.954123337988149
0.8895636090834618
2.220446049250313e-16
1.064559728903287
0.889563609084864
0
0.8895635903453076
2.017230826822924e-11
0.1749961320820987
2.843686947076741
1.779127218162428
1.954123337998014
1.779127218162189
1.064559728910183
1.779127218172694
1.779127053242927
0.1749963154902062
2.843686947090741
2.668690827246526
1.954123338008367
2.668690827244562
1.06455972891429
2.668690827266874
2.668679968742324
0.1749981167918812
2.843686947092868
3.558254436328659
1.954123338013008
3.558254436324421
1.064559728916604
3.558254436360259
3.558169147766284
0.1749318476029879
4.418652025448567
2.872852967045247
5.279049614570545
2.872852967043177
6.139447203693198
2.872852967042502
2.872852967040008
6.999844792817101
4.418652025437509
2.012455377932159
5.279049614550977
2.012455377929712
6.139447203664234
2.012455377929244
2.012455377926213
6.99984479277803
4.418652025488987
1.152057788817565
5.279049614988244
1.152057788756869
6.139431368399805
1.152057987798808
1.152056742724515
6.999928662421079
4.423262150019529
0.2759698561036988
5.310691711129284
0.1930941100150885
6.204026647440294
0.1053883184282549
7.0781630671907
0.07837572675360649
6.941512752775997
0.058332037938988
6.883180712825392
0.05833203724982094
6.824848672893547
0.05833203692871103
0.0583320387723385
6.766516633048157
6.941512790895449
0.1166638696110156
6.883180754833717
0.1166638439220978
6.824848713738665
0.1166638214488595
0.1166638923294379
6.766516749285807
6.941590666069922
0.1747006515740793
6.883263102426864
0.1746657032267677
6.824928695690218
0.1746472481169463
0.1746307049185007
6.766701149253689
7.029018936433356
0.0542073443718375
6.972332116623973
0.05151624036213026
6.911398761422908
0.05082354696214475
6.871294072781884
0.02236824549891075
6.876202365373599
0.0007288177999468237
-0.1790894168035082
6.818238697525292
0.0004960454731477992
-0.06701309063856598
6.776004821151184
0.0001659687854079217
-0.013459514306839
2.124101586664651e-05
6.766947256861939
-0.0009090244929938485
6.766712545300602
8.716169315192701e-07
6.766635918720219
6.334194256885084e-07
6.766542911111443
2.284189704049311e-07
2.982929092620878e-08
6.766517982835962
6.76651678250319
1.140131311583303e-08
6.766516729964979
8.650447025360108e-09
6.766516654152141
3.156053307584727e-09
3.854608854325647e-10
6.766516634045815
6.766516632772142
6.76651663280273
6.766516632981803
6.766516633042205
6.76651663304603
-1.326005971691302e-11
6.766516633047141
-1.053046538856961e-12
6.766516633048259
-1.116218228958132e-12
-1.084021761244003e-12
6.766516633049343
6.766516633052304
-1.004585969965888e-09
6.766516633047037
1.0635936575909e-12
6.766516633048167
9.360290320614695e-13
-1.468936083881545e-12
6.766516633049348
6.766516641128438
-5.988238615528552e-07
6.766516632359915
4.593449398626603e-09
6.766516632375509
2.580012370412277e-09
5.505668143612752e-10
6.766516633003937
6.766518502023415
8.17302479189097e-06
6.766516124669937
1.811493203163206e-06
6.766516401222358
3.666692107717751e-07
6.766516623455452
1.291062862174286e-08
-8.339995360984176e-13
6.7665166318926
-1.3579620761206e-10
-1.283417816466681e-13
6.766516633047823
1.665334536937735e-15
6.76651663304924
6.766516633049344
-8.963958741947664e-09
6.766516788686036
1.682542993819425e-10
-3.146178872981409e-10
6.766516633304344
-3.631539513548887e-13
6.766516633005926
6.766516633049337
4.703804121930499e-06
6.766469621906451
1.095515260618463e-06
1.164893903560227e-08
6.766517736767472
1.425423112877411e-10
6.766516634432397
6.766516633046693
-0.0002112500571298526
6.751296523648239
0.02331523489565207
-3.675241047051969e-07
6.766507562461792
-3.385620672702316e-10
6.766516627120772
6.76651663301972
0.1555520676159521
6.610964565426756
0.3111040829904215
6.610964592929457
0.4664752833141004
6.611038805158412
6.659654635161903
0.3657386047308119
0.1555520601999512
6.455412497917222
0.3111034193578952
6.455412572215656
0.4656325840538968
6.455545009223453
6.559381533361535
0.07235567740470572
0.1555520560943914
6.299860430346391
0.3111030745209642
6.2998605155526
0.4652605961537225
6.300001587301836
6.404225366085382
0.008551191574847739
0.1555520534065983
6.144308362796845
0.3111028651797094
6.144308459960885
0.4651004653049726
6.144456423479563
6.240223144991717
0.004020153216713895
-0.4649252740720962
6.075931433506991
0.004564842637715394
-0.3111028412170176
5.988912639086259
-0.1555521666209989
5.988756290844439
5.98875617862036
-0.4647110314843054
5.908689757299449
0.005086877372711296
-0.3111025054174347
5.833364263720775
-0.1555521619872731
5.833204120641983
5.833203994486147
-0.4644658038923504
5.743878647230354
0.005270635260630652
-0.3111020936918744
5.677829649711997
-0.1555521562037908
5.677651968653669
5.677651810427454
-0.4641095267748369
5.571469665704075
0.005967141903216788
-0.3111014259215953
5.522252233870627
-0.1555521458429341
5.522099766668796
5.522099626128314
0.1993010698607189
5.322798528606962
0.3986000351286804
5.322798617088733
0.5955942133111094
5.322904732808866
5.358076230990589
0.07778535762936567
0.1993010688152016
5.123497431184707
0.3985999144114529
5.12349751515511
0.5955951851395351
5.123588153313863
5.14462678578156
0.1189951752672673
0.1993010659143767
4.924196328179694
0.3985997490909124
4.924196403403449
0.595642777390671
4.924266842529057
4.933482758608498
0.193943671998834
0.1993010787947179
4.724895230964195
0.3986007892661619
4.72489527265035
0.5967104259307049
4.724931005062318
4.727719076898403
0.4658315483453616
-0.3354082387439579
5.060304453750689
-0.6704532601570684
5.060255380921179
-1.006637384809095
5.057457284835854
5.00303633839133
-1.40102739766818
-0.3354090517685828
5.395713684823939
-0.67072034221328
5.395692089270546
-0.9884276425832579
5.387653228352633
4.776358511092346
-0.6050659727211269
-0.3354090960506307
5.731122916385394
-0.6707011109368728
5.731100438441405
-0.9682973268772969
5.716616153067084
4.529157855675554
-0.09825337452492419
-0.3354091133136983
6.066532147532705
-0.6706852758395367
6.066520859684727
-0.956363427325729
6.057248402319279
4.823574726347936
-0.02895692232902401
0.5036300699493493
5.114212236995637
-0.01311577994964878
0.3499263639667916
6.232849869212116
0.1749960223525971
6.241518174651561
6.24152826889443
0.5066722393085167
5.380469919615464
-0.01374469767755184
0.3499383004793409
6.410310125065351
0.1749960455561345
6.416518248152342
6.416524391165387
0.5106162937029155
5.573056595780296
-0.01627395623240537
0.3499553176049406
6.58550931168483
0.1749960721809446
6.591514559897374
6.591520511148096
0.5071611479848243
5.823422305165715
0.0003341697612010835
0.3499468188204842
6.762191872098032
0.1749960643612067
6.766512589474116
6.766516631449026
-0.005159674494427002
6.578869497144606
0.1970172575801117
-1.512496437139355e-05
6.766282169256163
-2.099319629245144e-08
6.766516475933091
6.766516633014697
-0.0005411805225430388
6.756103573988107
0.07143168479833906
-9.619659313564455e-07
6.766512767187356
-8.992540045937858e-10
6.766516631911109
6.766516633068678
-9.731810953761411e-05
6.766288643649745
0.02617792256237472
-1.486892260427197e-07
6.766519466992468
-1.305417995922653e-10
6.766516636567778
6.766516633085533
-0.0002839669074248263
0.04524628277630932
6.767655992306432
-6.178620122199163e-07
6.766480691838556
-7.481519848084872e-10
6.766516518298266
6.766516633216387
1.104617053780925
-0.8605799145207178
-0.06965873975975898
-9.039879955707875e-12
1.983271879393423
-0.8748927100363408
-1.554312234475219e-11
2.858269929571176
-0.8749804310034399
1.174171870843566e-12
-0.8749805999203391
-1.545430450278218e-13
1.104624031924047
-1.721016785386903
-0.07000712180532703
1.983271900543746
-1.749784154973238
2.858269929471504
-1.749960847590481
-1.749961199485068
1.104630086980245
-2.580055050790103
-0.07080029033724539
1.983271874658668
-2.624669303631767
2.858269928296326
-2.624941245965207
-2.624941798216972
1.104656276873254
-0.07283564163684614
-3.438938466668469
1.983271964470157
-3.499568384748683
2.858269926159635
-3.499921653693025
-3.49992239729574
-0.0002839669077210338
-6.766288643650503
0.04524628277561665
6.767655992295163
-6.178620415298042e-07
-6.766519466992422
6.766480691836763
-7.481373298645622e-10
-6.766516636570528
6.76651651829856
-6.766516633083582
6.766516633219421
-9.731810964941356e-05
-6.756103573991177
0.02617792256203877
-1.486902885261543e-07
-6.766512767187829
-1.307325359078959e-10
-6.766516631915165
-6.766516633068498
-0.0005411805238453304
-6.578869497151548
0.07143168479931905
-9.619669620875015e-07
-6.766282169257874
-8.992262490181702e-10
-6.766516475932212
-6.766516633017444
-0.005159674494906952
-5.823422305159625
0.1970172575811341
-1.512496408917485e-05
-6.762191872096301
-2.099309837078067e-08
-6.766512589474029
-6.766516631449231
-0.1749960223431191
6.241528268930961
-6.066532147578227
-0.3499263639457097
6.241518174686606
-6.066520859731344
-0.5036300699402448
6.232849869179748
-6.05724840227145
5.114212236954866
-4.823574726306968
-0.01311577994948865
-0.1749960455443902
6.416524391190122
-0.3499383004578733
6.416518248174559
-0.5066722392985524
6.410310125042384
5.380469919584463
-0.01374469767751718
-0.1749960721688183
6.591520511160974
-0.3499553175822143
6.591514559908187
-0.5106162936923746
6.585509311673492
5.573056595766706
-0.01627395623199811
-0.1749960643491592
-0.349946818794663
-0.5071611479719177
0.000334169760975514
0.9563634273342511
-4.529157855639169
-0.02895692232937767
0.670685275865793
-5.716616153035985
0.3354091133271667
-5.731100438474856
-5.731122916417569
0.9682973268863084
-4.776358511070365
-0.09825337452367955
0.6707011109599128
-5.387653228334639
0.3354090960625494
-5.395692089292716
-5.395713684844522
0.9884276425955785
-5.003036338384344
-0.6050659727195277
0.6707203422357382
-5.05745728482809
0.3354090517786978
-5.060255380933
-5.060304453759616
1.006637384821069
-4.727719076898323
-1.401027397672439
0.6704532601770952
-4.724931005061801
0.3354082387527685
-4.724895272651552
-4.724895230964371
0.1993010698670693
5.322798528624268
-5.522099626152198
0.3986000351433654
5.322798617108712
-5.522099766697537
0.595594213318802
5.322904732790692
-5.522252233843073
5.358076230969913
-5.571469665677778
0.07778535763157812
0.1993010688213525
5.123497431195505
0.3985999144254177
5.123497515169565
0.5955951851470198
5.123588153299711
5.144626785766641
0.1189951752683547
0.1993010659201619
4.924196328185115
0.398599749103689
4.924196403411112
0.59564277739634
4.924266842521997
4.933482758601873
0.1939436719988895
0.1993010788001898
0.3986007892781805
0.5967104259357285
0.4658315483468372
-0.4641095267683263
-5.743878647209547
0.005967141907416207
-0.3111014259090482
-5.677829649690065
-0.1555521458372258
-5.677651968675578
-5.67765181044578
-0.464465803885326
-5.908689757286176
0.005270635261443113
-0.3111020936787657
-5.833364263700227
-0.1555521561979637
-5.833204120659202
-5.833203994498368
-0.4647110314784163
-6.075931433510959
0.005086877373666532
-0.3111025054040113
-5.988912639080676
-0.1555521619811557
-5.988756290851316
-5.988756178626355
-0.4649252740663604
-6.240223144984325
0.004564842637828859
-0.3111028412029495
-6.144456423489689
-0.1555521666146348
-6.144308459961985
-6.144308362796402
0.1555520676159986
6.610964565426684
-6.766516633019567
0.3111040829905772
6.610964592930359
-6.766516627120463
0.4664752833150906
6.611038805157952
-6.766507562462349
6.659654635162849
-6.751296523646404
0.3657386047285539
0.15555206020005
6.455412497916781
0.3111034193581764
6.455412572214553
0.4656325840541555
6.455545009224828
6.559381533360505
0.0723556774057289
0.1555520560942691
6.299860430346271
0.311103074520544
6.299860515553497
0.4652605961529108
6.300001587292822
6.404225366088182
0.008551191574706518
0.1555520534065041
0.311102865179624
0.4651004653041738
0.004020153218213474
-6.766516633046691
3.386607660971208e-10
-6.766516633049341
-1.425781714914365e-10
-6.766516633049343
2.886579864025407e-13
-1.665334536937735e-15
-6.766516633049345
-6.766516634430883
3.675242850054161e-07
-6.766516633007315
-1.164914875673162e-08
-6.766516633049243
3.161716444211038e-10
1.209032873816795e-13
-6.766516633049346
-6.7665177367694
0.0002112500567882925
-6.766516633302198
-4.703803278494068e-06
-6.766516633048056
8.963289388486118e-09
7.881473251813986e-13
-6.766516633003787
-6.766469621906672
0.0233152348954605
-6.766516788686318
1.095514403859355e-06
-6.76651663189241
1.677549210654661e-10
-6.766516623455184
-1.357136625301791e-10
-1.101452262730618e-12
-6.766516633048242
-1.478372979590858e-12
-6.766516633048182
5.503333344591965e-10
-6.766516632377472
-6.766516401222118
1.291092333044475e-08
-1.099675905891218e-12
-6.766516633047141
8.836265052991621e-13
-6.766516633047061
2.580377411742774e-09
-6.766516632361811
-6.766516124670042
3.666690702175401e-07
-1.095235013792717e-12
-6.76651663304603
1.069255795016488e-12
-6.766516633052104
4.593386282447653e-09
-6.766516641128687
-6.766518502023479
1.811493299530564e-06
-1.328803733713357e-11
-6.766516633042245
-1.004697991469072e-09
-6.766516634043622
-5.988240346921359e-07
-6.766517982835965
-6.766947256861275
8.17302469591219e-06
-1.140648453468174e-08
6.766516632756764
-6.766516633028668
-8.716270422093331e-07
6.766516782486149
-6.766516749263992
-0.0007288178054674632
6.766712545316048
-6.766701149274287
6.87620236538824
-6.871294072801667
-0.1790894168032097
-8.655026251247477e-09
6.766516632792046
-6.334285629350234e-07
6.766516729959314
-0.0004960454776530843
6.766635918731321
6.818238697535016
-0.06701309063967398
-3.161150230468479e-09
6.766516632976738
-2.284290397946975e-07
6.766516654151173
-0.0001659687904455587
6.766542911114679
6.77600482115693
-0.01345951430677883
-3.907866252816916e-10
-2.983967761771567e-08
-2.124102036188402e-05
-0.000909024494380406
-0.1746307049235169
-6.911398761434874
0.02236824550061361
-0.1166638923486349
-6.82492869569959
-0.05833203877635762
-6.824848713732139
-6.824848672878018
-0.174647248123974
-6.972332116628276
0.05082354696313002
-0.116663821468699
-6.883263102423546
-0.058332036933056
-6.883180754842929
-6.883180712814147
-0.174665703235377
-7.029018936439904
0.05151624036323965
-0.1166638439420439
-6.941590666043443
-0.05833203725401259
-6.94151279092615
-6.941512752768815
-0.1747006515867403
-7.078163067181538
0.05420734437067659
-0.1166638696320467
-6.999928662357133
-0.05833203794359632
-6.999844792821211
-6.999844792814318
-1.152056742718711
-6.204026647434342
0.07837572675455129
-2.012455377910965
-6.139431368406207
-2.87285296703993
-6.139447203692224
-6.139447203690341
-1.152057987794816
-5.310691711126794
0.1053883184290346
-2.01245537791648
-5.279049614981465
-2.872852967042259
-5.279049614566445
-5.279049614567443
-1.152057788756817
-4.423262150013469
0.1930941100154767
-2.012455377921992
-4.418652025487445
-2.872852967044603
-4.418652025443834
-4.418652025446892
-1.152057788817028
-3.558169147752426
0.2759698561039355
-2.012455377927508
-3.558254436363182
-2.872852967046921
-3.558254436324422
-3.55825443632866
2.843686947076677
0.8895636090796828
1.954123337995112
0.8895636090815646
1.064559728908975
0.8895636090861367
0.8895635905248194
0.174996132142587
2.843686947077599
1.7791272181565
1.954123337999196
1.779127218159969
1.064559728911147
1.779127218174185
1.779127053247927
0.1749963154915339
2.843686947089469
2.668690827241873
1.95412333800662
2.668690827242819
1.064559728912863
2.668690827267938
2.66867996873316
0.1749981167991729
2.843686947088214
1.954123338006611
1.064559728911392
0.1749318476013605
0.1749961517559378
0.1749961517939969
0.1749963215225542
0.1749965588348244
0.1749952102846978
0.1749976285104855
0.17476478274058
0.1750407485633726
0.1749965588368696
0.1749963215330603
0.174997179300717
0.1749971792990268
0.1750009151225927
0.1749851928820115
0.1747093186579305
0.1748479716531531
0.1749976285099918
0.1749952102876523
0.1749851928829764
0.1750009151231967
0.1749406096527122
0.1749406096512289
0.1724146768548401
0.1758455763711983
0.1747647827429687
0.1750407485643971
0.1747093186595849
0.1748479716543707
0.1724146768563591
0.1758455763699875
0.1708338746654764
0.1708338746664955
-0.09234361916491096
0.2576174472419698
-0.1708349757018015
0.2422775782086133
-0.2393108921494218
0.2330830049342301
0.2046439928939573
-0.01445096632574971
0.2830273481468265
-0.05465183103639781
0.2808124169887422
-0.1134311264361334
0.2837822285735873
0.2557645161209004
0.0101572685893736
0.2950121285730462
-0.004138937285171118
0.3014781069390033
-0.02829629098535835
0.3054524289427783
0.2839827536333431
0.01581919172987878
0.2971236335831859
0.009087805789893766
0.3059589222092949
-0.005569921972376157
0.3103211671012417
0.2925268327593608
0.2936525060537977
-0.001056941050598947
0.2942549965304938
-0.002123114766282241
0.2945979500693045
-0.002283033855707939
-0.03217899878410313
0.2981013571347645
0.3106617111219504
-0.01244499330022397
0.3108803260905023
-0.0129702376546792
0.3112916681583516
-0.01300774722201614
-0.05273472211371699
0.3261840128253816
0.3064461437844342
-0.01747934706026766
0.3067358578777057
-0.01740044962947757
0.3071400962442097
-0.01717991475024172
-0.07925130961248528
0.3267428630045864
0.297268748716805
0.2973552095784613
0.2976043583128719
0.249113904285895
0.2829165463704069
-0.1913357828851178
0.2513370921109023
-0.06065075115408036
0.2359389188612406
-0.01002065351107317
-0.0004356889049398904
0.2334192619412806
0.2888638670827953
-0.1463612254099907
0.252799617586571
-0.02159338200148192
0.2359700111025005
0.003059540015733553
0.0005361156497792896
0.2334238227764265
0.2665028315732265
-0.05593637741194613
0.2491299771086458
0.02171495243169219
0.2377549693621034
0.01324728404034481
0.002275100413867193
0.2335228400118154
0.1927281509632636
0.2140957491879189
0.2298925922516737
0.2330606326742826
0.2333280606246174
2.417043740765568e-05
0.2333276917255331
2.931475041878517e-06
0.2333281135998993
2.33419630457643e-07
3.31618510429621e-10
0.2333281588994905
0.2333286135423689
5.592960528011393e-05
0.2333281932716693
5.720806572628856e-06
0.2333281596319622
3.023993699335925e-07
2.914374519491503e-09
0.2333281586322272
0.2333309920524275
0.000135989616113108
0.2333283680184834
1.010073951085433e-05
0.2333281659446226
5.548392943421909e-07
7.018209013942567e-09
0.2333281597187926
0.2333101099471628
0.2333270330909664
0.2333281356432504
0.2333281596982375
0.2333281601642419
-1.184680131771643e-10
0.2333281602830046
6.282263598222926e-11
0.2333281558802343
4.689536993174315e-07
0.01121007928709944
0.2268990005207286
0.2333281597631612
-1.394475646065985e-10
0.233328160016257
-1.49641965485614e-11
0.233328210609284
1.140708895119857e-07
-0.03747759590162375
0.2300200790657241
0.2333281597337587
-3.633648937295675e-11
0.2333281598066625
-1.82086012934235e-11
0.2333281747184259
2.680338512250913e-08
-0.05480337260085394
0.2043121729702545
0.2333281597721428
0.2333281597750356
0.2333281616272415
0.1918336752986864
0.2799425434248413
0.211629730091245
0.3100936387876629
-0.007462400103481648
0.3170367399175882
-0.0642593081543047
-0.06865157318993687
0.3174369526351126
0.2818771950887211
0.1241724591458039
0.320079915991734
-0.007976587729894402
0.3312528211551054
-0.05420630249131808
-0.05781421280147592
0.331682801030464
0.255972027020989
0.07119517760189242
0.3145374183709365
0.002217830466629045
0.3294793179582534
-0.006307082240872619
-0.005005185325854589
0.3299970526519283
0.244931571236764
0.2708382548775981
0.283757791937042
0.2849400196291579
0.3174974220125033
-0.06839208901459826
0.3175746310447214
-0.06812983283541463
0.3178004470535251
-0.06812843660855461
-0.06717025912288643
0.3182971972704539
0.3316809537351412
-0.05777555757988162
0.3316525098250059
-0.05764127252176021
0.3316913792642006
-0.05766038900098691
-0.05741646219254182
0.3321441951233122
0.3299905085365148
-0.00505870767044414
0.3299441987610906
-0.004950445382708168
0.3299911018943877
-0.004901316603158734
-0.004385562712024282
0.3300941400766723
0.2849443372429891
0.2849227357487129
0.2849096370597191
0.2859063678584636
0.3299924011140764
-0.0457645880131492
0.3448395575405138
-0.02798028889341331
0.3704345068068807
0.03605439908227637
0.2733924070315055
0.4361421917542918
0.3367877038532217
-0.04451713594416384
0.3448329629934506
-0.02974172998471603
0.3747981082862152
0.02715893930390956
0.166720135441588
0.514237274950996
0.3341743369510476
0.0001619011940449111
0.3413342420810297
0.003750981059389868
0.3645802784541725
0.04648552084828828
0.05972016958916171
0.5223588517561052
0.2936010292082176
0.3093395566711492
0.3845761727786503
0.4596658273605747
0.2475133022270794
-1.248916807687245
0.05136985258796067
-0.3444729568734311
0.004700303137038479
-0.02585755865537033
0.00543956313115318
0.0001765213064715051
0.1689953133648005
-0.8935368446878477
0.01855255601448916
-0.1423232349925725
-0.0002783980409096967
0.01238888691678102
0.02506263206187825
0.0001695565176009321
0.09111252164144627
-0.4442493052697492
0.008398929040402049
-0.05221422892299578
-0.001138001059451168
0.01962184521721123
0.0231159775493899
0.000454168639261501
0.0447802966542061
-0.002511070311822243
-0.0003927344635061975
0.0007691597953419929
0.002084705381957937
0.002341312433253064
0.003635032005080105
0.001574435053522831
0.005300502080807928
-0.00289810183692616
-0.004389891046976412
0.02410527886249157
-0.000849451569897873
0.01877554309594451
-0.003348908422258341
0.01925028421414187
-0.008315878718654078
0.01566762395847866
0.001200827340630664
-0.003354829708451391
-0.001339368366673793
0.02047610625536405
-0.005345712206876005
0.02169185446826746
-0.01130122048391446
0.01883639147951488
0.007415814546341437
-0.01480401647176131
-0.000404464990702489
-0.003876285970736174
-0.01076570350682814
-0.01143720151156104
0.1672588624922023
0.0979961610444551
0.2210937290620613
0.07518437306021059
0.2321258111719312
0.04678969365551705
0.05633093544467782
0.2444772780991522
0.1134750377436096
0.01180261972329599
0.1970249772755427
0.0513183478904819
0.2356393190924584
0.06576989859404497
0.05476465617710635
0.2635004413059795
0.05969958870265749
-0.02950888475861693
0.1665835360423084
-0.006913064786331496
0.2351082786182502
0.05653138247776293
0.02231040798805017
0.2872491851045287
-0.005651935566989411
0.06019599385611359
0.1797592607684594
0.2472776120130181
0.2009268816324972
-0.3445785386338913
0.4221000939689936
0.146502279849572
-0.2703875111275142
0.3550078948936215
0.07315014802584371
-0.1788937486856184
0.2627937016185005
-0.09098613447564585
0.01178523268132808
0.1810074253485714
0.2304958283422522
-0.2604673051457694
0.1898720689841618
-0.1510881195478153
0.1137135851811171
-0.1070205843462438
-0.0514851726997388
0.02992688931177901
0.1726528701033524
-0.1560269550593464
0.1469501513203387
-0.05112155417282394
0.1378410550819979
-0.02533582832968737
-0.01808865000745831
0.07968141684189808
0.09769554013575198
0.05143214490548272
0.04263236392411691
0.03373820312263258
0.01471113902836993
0.005907651164033679
0.001168054859989021
0.002633728687521758
0.0001447448531384406
0.002112504029608465
0.002113423648626708
-3.048949981376836e-14
0.02073830102699635
0.01371150979064878
0.002845395071396105
0.008764026706755169
0.0009196812547368691
0.007717645323089524
0.007500229932728952
2.238487173400472e-14
0.006434595067655972
0.02921082930905887
0.002025203324656305
0.02690725975380752
0.0009546933708878963
0.02629521476445024
0.026007822307943
-5.492134524942571e-14
0.003012512096408501
0.001304615819880811
0.0006509120419074532
-6.335071356389221e-13
0.002113423648626079
-0.0001447448531991923
0.007500229932795312
-0.0009196812547093945
0.02600782230786234
-0.0009546933709105518
-0.0006509120418245751
0.06965873975948253
0.002112504029579131
-0.001168054859990166
0.007717645323184677
-0.002845395071479771
0.02629521476450122
-0.002025203324554851
-0.001304615819304106
0.07000712180527553
0.002633728687498281
-0.01471113902842593
0.008764026706760878
-0.02073830102704748
0.02690725975374492
-0.006434595067507848
-0.003012512096195616
0.07080029033754213
0.005907651164083318
-0.03373820312267919
0.01371150979061969
-0.07968141684182757
0.02921082930913245
-0.0299268893118259
-0.01178523268115821
0.07283564163682596
-0.07315014802567144
-0.0909861344757147
0.1810074253486078
-0.146502279849153
-0.1788937486851744
0.2627937016180995
-0.2009268816323345
-0.2703875111275455
0.3550078948937949
-0.3445785386339376
-0.2444772780992036
0.4221000939690799
-0.1137135851812704
-0.05148517269965029
-0.1898720689838641
-0.1070205843461935
-0.2304958283419222
-0.1510881195476907
-0.2604673051455747
-0.2635004413059574
-0.137841055081913
-0.01808865000745736
-0.1469501513203292
-0.0253358283296604
-0.1726528701030409
-0.05112155417282177
-0.1560269550591176
-0.2872491851043005
-0.04263236392414269
-0.05143214490546074
-0.09769554013573969
-0.2472776120126935
-0.179759260768096
-0.02231040798802841
-0.06019599385648433
-0.05653138247739195
0.005651935566976546
0.00691306478584533
0.02950888475841917
0.01143720151171052
-0.2351082786183035
-0.05476465617650145
-0.1665835360423683
-0.06576989859357124
-0.05969958870278418
-0.05131834789100237
-0.01180261972375471
0.01480401647181934
-0.2356393190925388
-0.05633093544390427
-0.1970249772757665
-0.04678969365536306
-0.1134750377438138
-0.07518437306103709
-0.09799616104514097
0.003354829708478377
-0.2321258111718978
-0.2210937290621828
-0.1672588624924398
-0.02410527886236824
-0.005300502080911988
-0.004389891047046516
-0.003635032005044732
-0.002898101836844545
-0.002084705381961302
0.001574435053436712
0.002341312433168957
-0.0001765213064622261
0.008315878718572544
0.001200827340528766
0.003348908422279381
0.01566762395832985
0.0008494515698931702
0.01925028421414074
0.01877554309601046
-0.0001695565176009078
0.01130122048390161
0.007415814546273103
0.005345712206924603
0.01883639147927034
0.00133936836668776
0.02169185446838487
0.02047610625544325
-0.0004541686392687773
0.01076570350692284
0.00387628597077417
0.0004044649906917736
-0.0007691597953540267
-0.004700303136995387
0.005439563130420107
-0.05136985258680081
-0.02585755865467123
-0.2475133022254772
-0.3444729568719527
-1.248916807689592
-0.4361421917544456
0.0002783980408399157
0.02506263206133131
-0.01855255601402264
0.01238888691722574
-0.1689953133635562
-0.1423232349917971
-0.8935368446884644
-0.5142372749511158
0.001138001059435081
0.02311597754912124
-0.008398929040165587
0.01962184521754619
-0.09111252164084348
-0.05221422892265663
-0.4442493052700614
-0.5223588517560391
0.0003927344635181792
0.002511070311976757
-0.04478029665393887
-0.4596658273605153
-0.3704345068071186
0.2733924070327541
-0.3448395575403722
0.03605439908287655
-0.3299924011137346
-0.0279802888930174
-0.04576458801125627
-0.3182971972698543
-0.374798108286475
0.166720135442143
-0.3448329629933794
0.02715893930453417
-0.3367877038535701
-0.02974172998370883
-0.04451713594089624
-0.3321441951234524
-0.3645802784542782
0.05972016958883997
-0.3413342420813246
0.04648552084858559
-0.3341743369513871
0.003750981060249625
0.0001619011950312332
-0.3300941400768012
-0.3845761727789446
-0.3093395566715987
-0.2936010292088354
-0.2859063678594162
-0.3178004470531425
-0.06717025911850505
-0.3175746310446992
-0.06812843660719781
-0.3174974220123686
-0.06812983283507446
-0.0683920890139148
-0.3174369526347952
-0.3316913792641051
-0.05741646218832075
-0.33165250982518
-0.05766038899895687
-0.3316809537352115
-0.05764127252082396
-0.05777555757876685
-0.3316828010305687
-0.3299911018946741
-0.004385562710275015
-0.3299441987612074
-0.004901316601776506
-0.3299905085367214
-0.004950445382257973
-0.005058707669973073
-0.3299970526521384
-0.2849096370606135
-0.2849227357490099
-0.2849443372432703
-0.2849400196294704
-0.3170367399176669
-0.06865157318920512
-0.3100936387875909
-0.06425930815390668
-0.2799425434253581
-0.007462400102266287
0.2116297300897282
-0.2268990005207102
-0.3312528211552279
-0.05781421280086785
-0.320079915991749
-0.05420630249057612
-0.2818771950889792
-0.007976587729498719
0.1241724591450689
-0.230020079065675
-0.3294793179583232
-0.005005185325867578
-0.3145374183710342
-0.006307082240107675
-0.2559720270210989
0.002217830467219462
0.07119517760134253
-0.2043121729701753
-0.2837577919372291
-0.2708382548776964
-0.2449315712367696
-0.1918336752984945
-0.2333281558801532
0.01121007928675927
-0.2333281602828899
4.6895325755969e-07
-0.2333281601641755
6.257822038335803e-11
-1.183760311995741e-10
-0.2333281588995069
-0.2333282106092108
-0.0374775959019662
-0.2333281600161619
1.140706926139323e-07
-0.2333281597631532
-1.50249257480084e-11
-1.393407056404783e-10
-0.2333281586321798
-0.2333281747183948
-0.05480337260102169
-0.2333281598066489
2.680331978588413e-08
-0.2333281597338885
-1.822658690642243e-11
-3.633993106433309e-11
-0.2333281597187602
-0.2333281616272303
-0.2333281597750373
-0.233328159772138
-0.2333281596982168
-0.2333281135998573
3.318225694215471e-10
-0.2333276917255292
2.33419619799502e-07
-0.2333280606246091
2.931475032330599e-06
2.417043780422734e-05
-0.2334192619412593
-0.2333281596318958
2.914437358114697e-09
-0.2333281932713911
3.023992828921074e-07
-0.233328613542631
5.720806596165584e-06
5.592960550243609e-05
-0.2334238227762021
-0.2333281659445271
7.018222114574257e-09
-0.2333283680181446
5.548391904253158e-07
-0.2333309920529479
1.010073965695968e-05