/*--------------------------------*- C++ -*----------------------------------*\
  =========                 |
  \\      /  F ield         | OpenFOAM: The Open Source CFD Toolbox
   \\    /   O peration     | Website:  https://openfoam.org
    \\  /    A nd           | Version:  11
     \\/     M anipulation  |
\*---------------------------------------------------------------------------*/
FoamFile
{
    format      ascii;
    class       surfaceScalarField;
    location    "0.3592359";
    object      phi;
}
// * * * * * * * * * * * * * * * * * * * * * * * * * * * * * * * * * * * * * //

dimensions      [0 3 -1 0 0 0 0];

internalField   nonuniform List<scalar> 
1652
(
1.706212168242977
0.5337381654478366
-1.763034163104749e-13
1.172474003768354
0.5337381584213896
9.350298313393068e-13
0.6387445851060053
0.5335571562510442
6.3860028376439e-13
0.5291695192988333
-8.919975869048358e-12
0.1057111321457015
1.706212168247671
1.067476330876202
1.17247400582946
1.067476302840728
0.6387502466767458
1.067105511616885
1.053469950689904
0.1085008255480973
1.706212168244341
1.60121449629751
1.17247401370228
1.601214386897208
0.6388068709636716
1.600473906212771
1.575038107202465
0.1089061407583236
1.706212168319533
2.134952661525115
1.172474043756183
2.134952228739317
0.6388942754230724
2.133493289624829
2.097351285098329
0.1052259216538374
2.651191214816996
1.723711780177984
3.167429763782333
1.723711779125775
3.683668090057335
1.723711851207305
1.723712858917983
4.199906971676498
2.651189460801569
1.207473399361017
3.167421594015193
1.207473287062863
3.683647048681339
1.207475968306371
1.207511807779533
4.199820706147305
2.649581375500236
0.6899954974054586
3.166040570263228
0.6888415138974051
3.682702443553777
0.687290348801159
0.6887247652342575
4.194525761432111
2.650874417435801
0.1168379296062853
3.273931923621293
0.0417246445718874
3.912954938682147
0.0181196682233265
4.554446248457195
0.01129149203473767
4.164891487012601
0.03501639669495948
4.129861134484277
0.03500481582240544
4.094845355808504
0.03485880940407149
0.03478328237053552
4.059708002616132
4.164989934514286
0.06971402239675611
4.130355905963471
0.06893656767712619
4.096344153719345
0.06750054488024809
0.0656796331177249
4.062546330319186
4.174765241373066
0.08242254465492338
4.160204129734991
0.07410498230327262
4.15294055918863
0.06155657085860322
0.05298187462458009
4.147974620392115
4.603055981157788
0.006229213699059377
4.647547124233142
0.005264145693579692
4.680683655550959
0.006631562895405452
4.712916764937045
0.007741205677042062
4.670365314434591
0.1044174605296778
-0.0687249645587969
4.585724726118633
0.1015335130369944
-0.01838187836054941
4.50368065849197
0.09666907845643447
-0.008941765585229883
0.08785841036150172
4.431572876173655
-0.00679681075090971
4.220096113876984
0.0136073842777632
4.275162817348291
0.02651435659430729
4.314339634208168
0.0372690652555473
0.04540982162058244
4.338142330400262
4.068844737570742
0.001073224796134364
4.081319694059855
0.002963600090009177
4.098854641884037
0.005655604598589714
0.009950111191348698
4.118433207147659
4.059561401799571
4.059934644898723
4.061254172282941
4.064432368922197
4.069795806401101
-0.01554489229429146
4.077679448864417
-0.02162142758476771
4.087623373938984
-0.02801776769971664
-0.0321078995239048
4.096916816301361
4.13884727507959
-0.05369583577166087
4.158817119235438
-0.06003524096208085
4.176997182706699
-0.06321982515097702
-0.06156507342348772
4.190974460799056
4.347633554872933
-0.07864934922248251
4.345713639571593
-0.06822780694081537
4.333663783769506
-0.05402388474246855
-0.04809056785168681
4.319208385639531
4.365060074958786
-0.007518755722593584
4.316425962089187
-0.005960756165256931
4.273216660552889
-0.003535273335900924
4.244285288684464
-0.002871887817596008
0.04263135505215826
4.228675740674744
-0.01747915904048963
0.05775038202634186
4.308730746810069
0.03447581499789221
4.199831788944477
4.101808349474973
0.04041900075372062
4.249425493115749
-0.145662156585093
0.04760715790839543
4.301615918101175
0.03368329443700302
4.206143937704143
4.10283211528609
0.07818120855503297
3.985009488743581
-0.140006282442712
0.04627123165360436
4.308885649197594
0.02810055018318225
4.211433851614797
4.098033469857057
0.1746599049097148
3.682278688503406
-0.04233684729418613
0.06565767954022861
4.316411408189606
0.0280375272866541
4.226444857556277
4.100476567464305
0.07033243094443076
3.979813410419545
0.1235570042548763
4.132434084950746
0.08027989805975067
4.217519646556607
3.56089592147335
0.1473567848893897
0.06627790260559141
3.876832477766925
0.08925455084552569
4.042791018549442
0.008555988851889129
4.094878304976662
3.434670189891933
0.1118000130631164
0.05279873380227584
3.784937749181283
0.01845451954871891
3.955718107996384
-0.07013665079148956
3.934671158363167
3.332939513137383
0.05847369077130793
0.02149087949546757
3.705441915315085
-0.08849089425472467
3.861472626457734
-0.1185518315550966
3.745431240994134
3.239258356379393
0.02716037302250662
0.1401543282804062
3.15519311282646
0.002273008435369261
0.1880842609075136
3.584088018754164
0.03402525447444327
3.734482994107217
3.642164369423275
0.1485182476768502
3.077803908177789
-0.006619709330589529
0.2559939076420805
3.472524370998877
0.1028831051808928
3.584916114887695
3.592147314593276
0.140462349806158
2.995520956556561
0.002474902371665588
0.294597126801219
3.346350476410734
0.1909892785496994
3.450090453780304
3.55735706677876
0.1099865761916181
2.890870434066828
0.01568642143012522
0.2666318095588585
3.221600120694096
0.2510955458492531
3.304259083021173
3.515469543445032
-0.2198607247339974
3.464402757273
-0.1874178032081142
3.230011799352023
-0.0468316098812247
3.107243692700077
2.789609372520347
0.04415747566032802
-0.1620751098937233
3.402430657128396
-0.1271064224398306
3.139807581399054
0.001551610462612318
3.004998025490639
2.707306163083609
0.06647361050185252
-0.1025100835714025
3.328922357199601
-0.05274351264553478
3.057280370814686
0.06928485558113989
2.911615911778596
2.641311560422189
0.121961632109527
-0.03597181339781408
3.224300963695624
0.03387146658541951
2.967052196262954
0.1556892540677096
2.819842755092826
2.569307925444325
0.2296406488100627
-0.3468347322108898
3.454810048692851
-0.5764961813302305
3.185792075216841
-0.7153241871353809
3.000045099550635
2.633114235442412
-0.769070717331752
-0.3002094684124373
3.65964756969727
-0.5257818960649512
3.407275317637699
-0.6286983624995452
3.176612331916502
2.281263346964575
-0.263223709035406
-0.2736590768826773
3.844641005548069
-0.482140969283046
3.621428224919303
-0.5140376934647906
3.331026841139942
1.803004824534869
-0.0296657847506078
-0.2402610029275512
4.011164842995042
-0.4394780116792346
3.827811728918557
-0.3630673839375559
3.438908201185177
1.417736758819671
-0.01228130891003869
0.1576827974922325
1.459284404236789
-0.01047800038533559
0.2075844874364437
3.529873023317862
0.104212113453354
3.938192532865135
4.062973011195894
0.1656296266471197
1.439679233765943
-0.007978823961132926
0.1877444685265676
3.625678712483556
0.09472391301378813
4.050908408116968
4.108045713052123
0.1503823018812933
1.343317884782325
-0.003393838682700039
0.1686299612234693
3.723215301989443
0.0892479702815735
4.160211896849586
4.149920904398481
0.1199112610382444
1.254280916032309
0.00220298744112446
0.1500458205229953
3.816532625487491
0.08903442698363495
4.257714283890296
4.196622445941916
-0.2359534091873733
1.570205256184366
-0.01567246017749845
-0.1845874392568781
3.985442375833449
-0.04698171573383592
4.197994746286141
4.097716322416462
-0.2649899834395337
1.92785402316008
0.005974258542902261
-0.1781046200704097
4.069002649530599
-0.03211396246623499
4.113301994426744
4.060050651154078
-0.2623649683567631
2.245162119985452
0.03358767466056965
-0.1344446633729687
4.102205858639293
-0.02063056738299296
4.067475029947046
4.05653594333301
-0.2321303874725663
0.08786626347849033
2.498261440838864
-0.1113832219895787
4.099523097737898
-0.01648752195010195
4.039832190100386
4.056691412503572
0.3370438605321167
-0.4386195638245427
-0.0128717515394104
5.614619880134342e-12
0.8928697693231992
-0.4130638423828676
-3.312905505481467e-13
1.633811246099172
-0.4646881580439088
7.500666754367558e-13
-0.5171013767800527
-1.27311494679816e-11
0.3341162201745176
-0.8918409887579084
-0.01277417219809776
0.9068222525835488
-0.8655132234489975
1.634736979419161
-0.9425092920481317
-1.035759497137857
0.3307524603637103
-1.351363533242154
-0.01558047288030434
0.9266034114867785
-1.343377071623278
1.638844077212979
-1.451593678482259
-1.556743998768377
0.3240819629813878
-0.01607259871933839
-1.703816939007565
0.9567819405745416
-1.851425473231123
1.647527477353158
-1.98387116187559
-2.082285905899692
-0.2321303874725708
-2.245162119987866
0.08786626347844491
2.498261440835419
-0.1113832219865885
-4.102205858642757
4.099523097737328
-0.01648752194615666
-4.067475029945447
4.039832190098746
-4.056535943330123
4.05669141249926
-0.2623649683556425
-1.927854023163539
0.03358767466106449
-0.134444663375016
-4.069002649540594
-0.02063056738506663
-4.113301994430281
-4.060050651158404
-0.2649899834408843
-1.570205256190235
0.0059742585431488
-0.1781046200738077
-3.985442375839727
-0.0321139624709943
-4.197994746287483
-4.09771632241641
-0.2359534091874954
-1.254280916034645
-0.01567246017729391
-0.1845874392613299
-3.816532625498978
-0.04698171573818244
-4.257714283890201
-4.19662244593437
-0.1042121134483763
4.062973011214202
-4.011164843019969
-0.2075844874245658
3.938192532887307
-3.827811728948951
-0.1576827974858341
3.52987302329486
-3.438908201155431
1.459284404208528
-1.417736758797472
-0.01047800038556344
-0.09472391300789934
4.108045713055939
-0.1877444685125228
4.05090840813228
-0.1656296266420687
3.625678712470996
1.439679233755695
-0.007978823961252542
-0.08924797027595666
4.149920904392259
-0.1686299612062833
4.160211896857688
-0.1503823018761456
3.723215301987042
1.343317884779978
-0.003393838682453094
-0.08903442697674885
-0.15004582050678
-0.1199112610332465
0.002202987441058978
0.3630673839413398
-1.803004824521683
-0.01228130891004024
0.4394780116944187
-3.331026841126132
0.2402610029427841
-3.621428224946169
-3.844641005567811
0.5140376934688868
-2.281263346952393
-0.02966578474985727
0.4821409692978434
-3.176612331911931
0.2736590768938533
-3.407275317659321
-3.659647569712055
0.6286983625068338
-2.633114235438367
-0.2632237090342431
0.5257818960798392
-3.000045099548525
0.3002094684226319
-3.185792075228863
-3.454810048698929
0.715324187142428
-2.569307925444465
-0.7690707173336523
0.5764961813422831
-2.819842755094185
0.3468347322146912
-2.967052196268896
-3.224300963695076
-0.219860724733811
3.464402757283714
-3.515469543460486
-0.1874178032011992
3.230011799367418
-3.304259083043936
-0.04683160987637414
3.107243692688788
-3.221600120676639
2.789609372510097
-2.890870434055158
0.04415747565843509
-0.1620751098864536
3.402430657135196
-0.127106422431659
3.139807581407589
0.001551610468471409
3.004998025481855
2.707306163076608
0.06647361050277167
-0.1025100835689957
3.328922357202079
-0.05274351263761989
3.057280370821223
0.06928485558528391
2.911615911773791
2.641311560418793
0.1219616321095607
-0.0359718133935879
0.03387146659469942
0.1556892540709805
0.2296406488103462
0.1099865761944406
-2.995520956545898
0.01568642143054344
0.2666318095650532
-3.346350476401385
0.2510955458519923
-3.450090453794776
-3.557357066790256
0.1404623498090148
-3.077803908173035
0.002474902371297993
0.2945971268084498
-3.472524370995496
0.1909892785541145
-3.584916114895154
-3.592147314600607
0.1485182476800392
-3.155193112819569
-0.006619709331867285
0.2559939076485672
-3.584088018757225
0.1028831051806609
-3.7344829941108
-3.642164369425417
0.1401543282822
-3.239258356379539
0.00227300843455347
0.1880842609157941
-3.745431240996514
0.03402525447817495
-3.86147262645852
-3.705441915312914
0.07033243094567421
3.979813410420246
-4.100476567462477
0.1235570042558513
4.132434084951814
-4.226444857554327
0.080279898061416
4.217519646560154
-4.316411408191867
3.56089592147839
-3.682278688505776
0.1473567848886382
0.06627790260758504
3.876832477768144
0.08925455084664952
4.042791018551518
0.008555988853669483
4.09487830497986
3.434670189890567
0.1118000130612589
0.05279873380403188
3.784937749183051
0.01845451955469113
3.955718108000516
-0.07013665079132225
3.934671158370876
3.332939513138729
0.05847369077135123
0.0214908794982136
-0.08849089425108225
-0.1185518315535642
0.0271603730229133
-4.098033469856521
-0.02803752728584219
-4.102832115287926
-0.02810055018218072
-4.101808349476451
-0.0336832944358757
-0.03447581499832253
-4.096916816302433
-4.211433851616014
-0.06565767954271584
-4.206143937702798
-0.04627123165434904
-4.199831788938889
-0.04760715790803938
-0.05775038202587146
-4.190974460794353
-4.308885649200489
-0.1746599049078862
-4.30161591810253
-0.07818120855352229
-4.308730746809355
-0.0404190007546737
-0.04263135505195809
-4.319208385640715
-3.985009488750461
-0.04233684729437959
-4.249425493116801
-0.140006282443495
-4.228675740673658
-0.145662156582851
-4.244285288685259
-0.01747915904034886
-0.0321078995222055
-4.087623373938017
-0.06156507342258472
-4.176997182701847
-0.0480905678505742
-4.333663783773583
-4.273216660553976
-0.002871887817504692
-0.02801776770079867
-4.077679448864593
-0.06321982514930646
-4.158817119230125
-0.05402388474061676
-4.345713639577833
-4.316425962087622
-0.003535273333957784
-0.02162142758331964
-4.069795806402633
-0.0600352409618814
-4.138847275073028
-0.06822780693990044
-4.347633554881554
-4.365060074957983
-0.005960756165129727
-0.01554489229131106
-4.064432368927807
-0.05369583577267639
-4.118433207140455
-0.0786493492220513
-4.33814233041046
-4.431572876174948
-0.007518755721683673
-0.001073224798004091
4.059561401799043
-4.059708002611639
-0.01360738427983293
4.068844737554206
-4.062546330298685
-0.1044174605334466
4.220096113892201
-4.147974620409073
4.670365314444046
-4.712916764948091
-0.0687249645583079
-0.002963600094159857
4.059934644898569
-0.02651435659934015
4.081319694046044
-0.1015335130403505
4.275162817362445
4.585724726125976
-0.01838187836123623
-0.00565560460140091
4.061254172285042
-0.03726906526335361
4.098854641872181
-0.09666907846063999
4.314339634220389
4.503680658496402
-0.0089417655867568
-0.009950111194447775
-0.04540982162518192
-0.08785841036423364
-0.006796810750631738
-0.05298187462938797
-4.680683655559371
0.007741205676771667
-0.06567963313037617
-4.152940559195863
-0.03478328237574713
-4.09634415371112
-4.094845355807964
-0.06155657086386784
-4.647547124237977
0.006631562895188015
-0.06750054489331675
-4.160204129733938
-0.03485880940725228
-4.130355905967519
-4.12986113449054
-0.07410498230998386
-4.603055981156146
0.005264145693240019
-0.06893656768894041
-4.174765241365407
-0.03500481582301118
-4.164989934532284
-4.164891487013789
-0.08242254465933757
-4.554446248442389
0.006229213700219893
-0.0697140224093416
-4.194525761416884
-0.03501639669847367
-4.199820706174602
-4.199906971681685
-0.6887247652323621
-3.912954938651515
0.01129149203568308
-1.207511807771798
-3.682702443542669
-1.723712858923401
-3.683647048697551
-3.683668090057668
-0.6872903487991208
-3.273931923588494
0.01811966822547684
-1.207475968298946
-3.166040570258986
-1.723711851208855
-3.167421594028574
-3.167429763785997
-0.6888415138970124
-2.650874417407654
0.04172464456902925
-1.207473287058983
-2.649581375499612
-1.72371177912611
-2.65118946080843
-2.651191214823101
-0.6899954974054486
-2.097351285086396
0.1168379295990625
-1.207473399360962
-2.133493289629718
-1.723711780188848
-2.134952228741593
-2.134952661529121
1.706212168246033
0.5337381654428741
1.17247400377297
0.533738158428041
0.6387445851092243
0.5335571562542276
0.5291695192850681
0.1057111321493083
1.706212168248594
1.067476330870286
1.172474005829706
1.067476302840063
0.6387502466772275
1.067105511621139
1.053469950681143
0.1085008255500499
1.706212168246498
1.601214496294723
1.172474013702165
1.601214386894953
0.6388068709629419
1.600473906215857
1.575038107201317
0.1089061407573984
1.706212168319974
1.172474043753791
0.6388942754201534
0.1052259216516228
0.1054762301283235
0.1054762301324653
0.1054653875266178
0.1079721195809196
0.1059225090386253
0.1078287814371709
0.1026793236995779
0.107787136864922
0.1079721195783722
0.1054653875309471
0.1076782092231258
0.1076782092255571
0.1081688373071347
0.1066956998385231
0.09903952697213855
0.1111325161469424
0.1078287814381943
0.1059225090420442
0.1066956998391256
0.1081688373097526
0.1063680736124031
0.1063680736126656
0.09589780573181736
0.1089243923576727
0.102679323703617
0.1077871368667328
0.09903952697522224
0.1111325161488825
0.09589780573617362
0.1089243923573137
0.09567818501431698
0.09567818501930436
-0.03916483642794161
0.1340425002418412
-0.06253205741788193
0.1313125755741965
-0.08851465967282907
0.1359908686023253
0.1348760678183143
-0.00568217726107012
0.1388609619045047
-0.01617534584603419
0.1408669414550079
-0.02705989391834218
0.145897762306247
0.1484336225743572
-0.0009897531712110275
0.1391852350333138
-0.007344059714222972
0.1464985303896613
-0.01313443502085304
0.150905186459196
0.1525076847564787
-0.001218714333910742
0.1398031775571171
-0.00613505761768729
0.150775823157828
-0.009219360844834157
0.1533082413907915
0.1538215616369309
0.153303140100719
0.006169577350193689
0.1533721124128528
0.004948545502874269
0.1526201167272522
0.007183185201885156
0.006669561127159329
0.1537745032384036
0.1535206889796593
0.005391475853427807
0.1538379805810459
0.004325676327172734
0.1539161643705632
0.006914473011055022
0.003199575916852715
0.1574316451514628
0.1528814243151744
0.002725278875918558
0.1538629450116442
0.003033498144643265
0.1547047833363532
0.005885399321715556
-0.009752646500127027
0.167684034161104
0.1419776590391925
0.1446515688637493
0.1502910800482295
0.1404652920214706
0.1402989245994836
-0.05510088721173254
0.1310928119630961
-0.008870376082620618
0.1296688102805934
-0.006961201108844461
-0.00620941078478951
0.1296551318956892
0.1446496375598435
-0.0422297060945438
0.1388103019386111
-0.002739829425445123
0.1356410280203659
-0.003209402815940648
-0.003925133845243428
0.1339573076969048
0.1511964774205483
-0.02570025324898328
0.145602321866038
0.003129668767250959
0.1416373067750586
0.001326778743260537
8.87032030314483e-05
0.1382176003374358
0.1147562732873072
0.1181759361353567
0.1201040799542095
0.1208094097153737
0.1299201260950023
-0.006882551899482225
0.1308442058516993
-0.005824230776991096
0.132014447898594
-0.003767128857414148
-0.00303851040363079
0.1331207972406298
0.1327149976343301
-0.004747781125100686
0.1322449010246898
-0.004284431526403898
0.1322701292312143
-0.002830374852085454
-0.002528202419255471
0.1326951469013593
0.1355128834434197
-0.001149129871210269
0.1336078950561334
-0.00129657487230303
0.1325487620508535
-0.0007878567317248786
-0.0011155178520387
0.1321948962953626
0.1205604690096663
0.1203303316804237
0.1204691668684666
0.1203652775202685
0.1377886028443895
-0.02482784270779984
0.1348829691575978
-0.1504992015791816
0.1107601364242629
-0.122967127707606
-0.01104226282044651
0.08051169507791797
0.132202953992674
-0.02831551292014858
0.1023257560532747
-0.1270266931298338
0.0561086205519313
-0.08144838930746473
-0.002616756269680387
0.04679697163996957
0.1239357038722184
-0.02441107301282722
0.05391359448156935
-0.0629965000357548
0.002564719968110252
-0.03524096321609099
-0.006634923040844842
0.004849426906845644
0.09095693042645561
0.02205370666677349
-0.01732370562124552
-0.02687790765367659
0.1047431384802265
0.1254181756257085
0.1177022403999856
0.1030276109567735
0.1245919700952434
0.05756188911261806
0.02675340045994634
0.1298441031867744
0.08613675587105012
0.08814334292871095
0.1121677522683523
0.08104245966407697
0.1233710974098156
0.05040399395914963
0.02496181679460374
0.1295954192849891
0.05318305570785516
0.04164887289398866
0.09764544790757575
0.04052012042277353
0.1175439470958876
0.033784053089846
0.0201454983434195
0.1261443225976281
0.01606361437572465
0.06047042813811127
0.09669650072368996
0.1200202627087615
0.135066703729214
0.003068399052967186
0.1400250150249852
-0.006417373644263979
0.1434898287563625
0.001381395133951191
0.01112153161417462
0.1477709478409365
0.1347763964754365
0.005054838467687728
0.1395687934271986
-0.002603512231401539
0.1424688674054581
0.001754626879098109
0.006794958159764719
0.1464998212160182
0.1319898000652484
0.006205273814164247
0.1376972503751575
0.0001345335689443283
0.1417126778849264
0.001461424535712186
0.003119697022980539
0.1452932717590657
0.1330968488331012
0.1388413646634898
0.1429867907596489
0.1462795706753005
0.1586638208769161
0.03178751117692535
0.1726591118789814
0.0512174804894906
0.1922475988770604
0.1023174379515714
0.1805136270823903
0.2412399948052191
0.1566728440166267
0.01993616764353223
0.1704611682586681
0.03610924097432155
0.1914989150745206
0.08113535712298298
0.1229081049079572
0.2492073853304075
0.153890309846421
0.009770548355771957
0.1672302439113052
0.02141994855796758
0.1942631561589168
0.05345214476454996
0.03428851867756699
0.2830991284793782
0.1546647496631461
0.1746624925757374
0.2273711984081377
0.2615308760481893
0.1220014645497777
-0.6494854353047912
0.01214931721666868
-0.1526510065780617
-0.00259717334190475
-0.01384704312467617
-0.009765787733800876
-0.003860805776161318
0.0846389872438295
-0.4845210752000059
0.001807022127382788
-0.06912185288365875
-0.004315348537792868
-0.006799064681681261
-0.00631665246655211
-0.006748326669733829
0.04503313741328629
-0.2463298220341055
-0.002596055620185253
-0.02080258564256792
-0.005881513049084857
-0.002576903896558826
-0.003320601939639536
-0.00804581972459879
0.01517958165298572
-0.004926162145638643
-0.006659534128475897
-0.009082505664397559
-0.005367101725755804
-0.007899584061730391
-0.006842755549069486
-0.005047273272867898
-0.008519353289105448
-0.0008104613195149164
0.003538179357215683
-0.009128785920080207
-0.008192620710832045
-0.005611318988201306
-0.009147315898492714
-0.00276309832582846
-0.009653912754998523
0.000706694537219478
0.003168532111864769
-0.008476720575270059
-0.00968883559711791
-0.002882227649635988
-0.009469066246384916
-0.001545604855448333
-0.008702839740613394
0.0009291110265488914
0.002634954666267349
-0.007328833696871925
-0.01079240213195751
-0.01094991473205673
-0.009120752764958145
-0.005723264450131235
-0.008421197251194794
-0.01576916705218637
0.001943268173580048
-0.002849314878919124
0.02247390018217182
0.01462061649489513
0.07047424605679128
0.04243687982388374
-0.009509012385084725
-0.01396199862444797
-0.007053628961604011
-0.003681676799196114
0.008909186608943846
4.091441524159412e-05
0.04770599326670029
0.03388608252946448
-0.01176752974383692
-0.008575059528017168
-0.01145440690853034
-0.002555794071957905
-0.003607207891343847
-0.006445972882099749
0.02557372245425112
0.02032696082304619
-0.01309194219855031
-0.01388655854207153
-0.01901288347815586
0.008976255843474952
0.04129078275687226
-0.006356881170959824
0.01063495574696185
0.03999962831175694
-0.007445508281332357
0.01126609931856386
0.03677251178714945
-0.01237329928838354
0.01704058217592762
-0.01696922954385592
0.02818004628383697
0.02546636595203997
0.03266477898475086
-0.00378395228589639
0.03078356541338925
-0.004784244296617265
0.02748587721212515
-0.008732318640129563
-0.01083088501138594
0.02110007638672393
0.01849782890988679
-0.001709259198549411
0.01641357626555508
-0.002220788647872621
0.01257222330749727
-0.004437099390848208
-0.005015208967760788
0.006837944177576459
0.006533443553274315
0.00458289277962777
0.0002902061653443297
-0.004408814721884029
-0.006411171354034226
0.002584414072341019
-0.006056295328714517
0.000778402274515793
-0.003634283431948514
-0.0008802615779575293
-0.00187424197658647
-6.228351168147128e-14
0.003495931125831922
0.006009759089005431
0.00102800229030775
0.003639540404132731
-4.023804256662183e-05
0.0009232616579836865
-0.0009164577331035005
-2.649963581902171e-14
0.01669137321065986
0.0101803002067434
0.01132038521566132
0.008928223436870747
0.005680844027880209
0.006652666929463293
0.005073042419937113
1.686845108039847e-14
0.02174017898935488
0.01431346681343762
0.007707612023176852
5.662831314978689e-14
-0.001874241976582893
0.003634283431822184
-0.0009164577331151266
4.023804249812801e-05
0.005073042419964563
-0.005680844027820632
-0.007707612023049704
0.01287175153935017
-0.0008802615779473812
0.006056295328696414
0.0009232616579796966
-0.001028002290386132
0.006652666929515522
-0.01132038521573309
-0.01431346681342982
0.01277417219819752
0.0007784022744758111
0.00641117135386577
0.003639540404131444
-0.003495931125781351
0.008928223436946266
-0.01669137321066696
-0.02174017898937001
0.01558047288029418
0.002584414072410734
0.004408814721944723
0.006009759089004554
-0.006837944177649082
0.01018030020677732
-0.02110007638673371
-0.02818004628400082
0.01607259871927534
-0.03677251178706824
-0.01696922954371809
0.0254663659521875
-0.03999962831177117
-0.01237329928840361
0.0170405821758732
-0.04129078275685451
-0.007445508281347823
0.01126609931861397
-0.006356881171039309
-0.04243687982391552
0.01063495574702666
-0.0274858772121522
-0.01083088501140983
-0.03078356541336895
-0.008732318640175922
-0.03266477898476838
-0.004784244296660169
-0.003783952285960464
-0.03388608252955734
-0.01257222330754132
-0.005015208967735968
-0.01641357626554995
-0.004437099390805374
-0.01849782890997716
-0.00222078864790113
-0.001709259198572045
-0.02032696082312631
-0.0002902061653831875
-0.004582892779667273
-0.006533443553342691
-0.008976255843577356
0.01901288347804568
-0.0255737224542998
0.01388655854204942
0.00644597288229537
0.01309194219853732
0.002555794071900132
0.008575059527858281
0.005723264450155542
0.003607207891286136
-0.04770599326675597
0.0114544069084631
-4.091441547478258e-05
0.01176752974374431
0.003681676799102168
0.0139619986245032
0.007328833696879268
-0.008909186609097362
-0.07047424605682388
0.007053628961505711
-0.01462061649513209
0.009509012384988958
0.00284931487890748
0.01576916705190881
0.00847672057525164
-0.02247390018232773
-0.001943268173677168
0.00842119725104047
0.009128785920072231
0.008519353289113893
0.003538179357223267
0.006842755549145473
-0.000810461319477037
0.005367101725809283
-0.005047273273004292
-0.007899584061779343
0.003860805776116952
0.009653912754993227
0.003168532111855756
0.009147315898530356
0.0007066945372172923
0.00819262071084358
-0.002763098325912924
-0.005611318988247644
0.006748326669739727
0.008702839740593531
0.002634954666280692
0.009469066246411733
0.0009291110266278491
0.009688835597125196
-0.001545604855498421
-0.002882227649668679
0.008045819724598049
0.009120752765007253
0.01094991473209676
0.01079240213198209
0.009082505664398383
0.002597173341877624
-0.009765787733715534
-0.01214931721616168
-0.01384704312442195
-0.1220014645488107
-0.1526510065773758
-0.6494854353054006
-0.2412399948048607
0.00431534853783543
-0.006316652466476239
-0.00180702212720098
-0.006799064681581175
-0.08463898724316946
-0.06912185288340582
-0.4845210751999708
-0.2492073853300414
0.005881513049113851
-0.003320601939629222
0.002596055620260087
-0.002576903896513085
-0.04503313741299516
-0.02080258564248874
-0.246329822034052
-0.283099128479157
0.006659534128481758
0.004926162145670238
-0.01517958165292063
-0.2615308760483496
-0.1922475988770901
0.1805136270831161
-0.1726591118789039
0.1023174379524814
-0.1586638208769583
0.05121748049082064
0.03178751117777112
-0.147770947840997
-0.1914989150744062
0.1229081049075666
-0.1704611682586742
0.08113535712315806
-0.1566728440164704
0.03610924097536305
0.01993616764278727
-0.1464998212160423
-0.1942631561586365
0.03428851867747595
-0.1672302439113074
0.05345214476488563
-0.1538903098462081
0.02141994855943818
0.009770548356331621
-0.1452932717591764
-0.2273711984077126
-0.1746624925760241
-0.1546647496629712
-0.1462795706753433
-0.143489828756372
0.01112153161420359
-0.1400250150248461
0.001381395133682406
-0.1350667037286841
-0.006417373643634372
0.003068399052798432
-0.1298441031866758
-0.1424688674055446
0.006794958158474862
-0.1395687934267693
0.001754626881589005
-0.1347763964751081
-0.002603512231018401
0.005054838467870471
-0.1295954192848822
-0.1417126778847475
0.00311969702425674
-0.1376972503748003
0.001461424535362132
-0.1319898000648284
0.0001345335689452165
0.006205273813838064
-0.1261443225976165
-0.1429867907596589
-0.1388413646633524
-0.1330968488329254
-0.1200202627085254
-0.1245919700953717
0.02675340045980512
-0.1177022404000177
0.05756188911236337
-0.104743138480372
0.1030276109561563
0.1254181756259553
-0.08051169507812227
-0.1233710974098732
0.02496181679456078
-0.1121677522683726
0.05040399395799078
-0.08613675587136838
0.0810424596624999
0.08814334292966508
-0.04679697164012045
-0.1175439470958285
0.02014549834344281
-0.09764544790773333
0.03378405308941856
-0.0531830557080229
0.04052012042359887
0.0416488728927642
-0.004849426907223203
-0.0966965007233257
-0.06047042813776968
-0.01606361437596143
0.02687790765404152
-0.1107601364247313
-0.01104226282047022
-0.134882969158053
-0.1229671277082532
-0.1377886028445866
-0.1504992015781253
-0.02482784270745619
-0.1331207972409046
-0.05610862055228424
-0.002616756270304832
-0.1023257560539267
-0.0814483893078799
-0.1322029539929368
-0.1270266931293807
-0.02831551291986203
-0.1326951469015603
-0.002564719968324622
-0.006634923040683693
-0.05391359448217838
-0.03524096321612913
-0.1239357038724952
-0.06299650003567564
-0.02441107301267026
-0.1321948962955022
0.01732370562120972
-0.02205370666687186
-0.09095693042658817
-0.1203652775202291
-0.1320144478986708
-0.003038510402959105
-0.1308442058515169
-0.003767128857103702
-0.129920126094993
-0.005824230777165901
-0.006882551899743988
-0.1296551318955307
-0.1322701292312622
-0.002528202418727338
-0.1322449010245419
-0.002830374851609502
-0.1327149976342326
-0.004284431526661636
-0.004747781125030576
-0.1339573076968838
-0.1325487620507386
-0.001115517851805664