/*--------------------------------*- C++ -*----------------------------------*\
  =========                 |
  \\      /  F ield         | OpenFOAM: The Open Source CFD Toolbox
   \\    /   O peration     | Website:  https://openfoam.org
    \\  /    A nd           | Version:  11
     \\/     M anipulation  |
\*---------------------------------------------------------------------------*/
FoamFile
{
    format      ascii;
    class       surfaceScalarField;
    location    "0.35923685";
    object      phi;
}
// * * * * * * * * * * * * * * * * * * * * * * * * * * * * * * * * * * * * * //

dimensions      [0 3 -1 0 0 0 0];

internalField   nonuniform List<scalar> 
1652
(
1.706212168242977
0.5337381654478366
-1.763034163104749e-13
1.172474003768358
0.533738158421271
9.352518759442319e-13
0.6387445850856743
0.5335571550900284
5.333511410299252e-13
0.5291695197134065
-8.919975869048358e-12
0.1057111334631617
1.706212168247671
1.067476330876201
1.172474005829476
1.067476302840334
0.6387502464760748
1.067105508578297
1.053469951898052
0.1085008290865873
1.706212168244342
1.601214496297513
1.172474013702334
1.601214386895962
0.6388068710988545
1.600473900888664
1.57503811526592
0.1089061390918383
1.706212168319533
2.134952661525119
1.172474043756361
2.134952228728653
0.6388942759840806
2.133493280563019
2.097351311537296
0.1052259107489274
2.65119121481693
1.723711780177983
3.167429763782224
1.723711779125779
3.683668090049536
1.723711851207433
1.723712858919412
4.19990697164781
2.651189460781073
1.207473399363457
3.167421594032856
1.207473287090643
3.683647048466779
1.207475968339784
1.207511808024877
4.199820705478068
2.649581366033058
0.6899954916960125
3.166040559561372
0.6888415073032845
3.682702433054549
0.6872903366579969
0.6887247593206994
4.194525739281831
2.650874500845851
0.1168378860625428
3.273932048539652
0.04172461984332554
3.912955125965862
0.01811962854204274
4.554446501785454
0.011291485275367
4.164891486898446
0.03501639684806857
4.129861133832367
0.03500481629533414
4.09484535469881
0.03485880921946993
0.03478328183878687
4.059707999944403
4.164989933507797
0.06971402160568807
4.130355905785671
0.06893656277049676
4.09634415841477
0.06750053280092122
0.0656796145177328
4.062546344352801
4.17476525680148
0.08242250326346784
4.160204190480216
0.0741049204318962
4.15294068464963
0.06155649192450741
0.0529817688495593
4.147974830249285
4.603056268010171
0.006229207559626915
4.647547393456189
0.005264137712611194
4.68068387102854
0.006631571883548903
4.712916925338842
0.007741204882085351
4.670365402417134
0.1044175355490863
-0.06872497170040273
4.585724729577549
0.101533599634013
-0.01838188366191038
4.503680406291749
0.09666916703721895
-0.008941768614112472
0.08785845460860692
4.431572675378539
-0.006796810077100007
4.220096361348144
0.01360743180400492
4.275163056867481
0.02651444425123056
4.314339858734972
0.03726913993821551
0.04540989918039295
4.338142534170395
4.068844774015211
0.00107322964644907
4.081319775962901
0.002963612088673462
4.098854773558104
0.005655618943688268
0.009950134494078888
4.118433386416989
4.05956139767039
4.059934642793518
4.06125417424798
4.064432381892824
4.0697958449382
-0.01554493231268561
4.077679526391905
-0.02162147136578618
4.087623533691388
-0.02801783312752049
-0.0321080067557995
4.096917133212056
4.138847492529348
-0.05369592320891875
4.158817355468392
-0.06003536458473169
4.176997419993853
-0.06321994455219787
-0.06156521020111688
4.19097470452907
4.347633758694319
-0.07864941176817608
4.345713660888122
-0.06822783196796062
4.333663755961161
-0.05402392330888278
-0.04809065422219894
4.319208285124306
4.365059753632965
-0.007518744735002691
4.316425560486481
-0.00596074818565337
4.273216123728117
-0.003535225163758066
4.244284562489519
-0.002871870650802744
0.04263140186351644
4.228675158033049
-0.01747967654296229
0.0577505337079558
4.308730601608777
0.03447595627511835
4.199832004414198
4.101808866039381
0.04041917670007261
4.249423544209325
-0.1456632025496759
0.04760734769002112
4.301615637584853
0.03368344819211
4.206144127458776
4.102832741346948
0.07818220476764831
3.985005030675157
-0.1400054542906295
0.04627158769042128
4.308885419417746
0.02810069872392607
4.211434251795281
4.098034100123386
0.1746610321281372
3.682274298380414
-0.04233664966759648
0.06565789614077971
4.316411082328964
0.02803772072903599
4.226445506828803
4.100476891691475
0.07033225565830703
3.979814368266083
0.1235564148426181
4.132435158099749
0.08027915269934316
4.217519018772454
3.560892262204667
0.1473565901913013
0.06627758591024491
3.876832985104591
0.08925356006149326
4.04279230147215
0.008555059367291395
4.094876795170742
3.434666772516909
0.1118000002645305
0.05279817453543345
3.784938113752553
0.01845283722329505
3.955719679894671
-0.07013745773087154
3.934668746610637
3.332936693499136
0.05847371750866959
0.0214898633563918
3.705442384728589
-0.08849298903820113
3.861474246836369
-0.1185519967135364
3.745429380148452
3.239256801177381
0.02716044663904893
0.1401539825277925
3.155192343156199
0.002272660677438476
0.1880857512236327
3.58408672737215
0.03402689961091543
3.734483960239646
3.642165138573312
0.1485180139047833
3.077803331053402
-0.006619689331827994
0.2559947703139485
3.472522336425953
0.1028852002735228
3.584916126418334
3.592148389676888
0.1404619817233469
2.995520774383648
0.002475149470039573
0.2945973940554558
3.346351622903854
0.1909916150273276
3.450091299913574
3.557358717168642
0.1099860508789661
2.89087113793641
0.01568640925956133
0.2666315037422026
3.221601827260725
0.2510977845635765
3.304257176295436
3.515471715814375
-0.2198605822806475
3.464404666025205
-0.1874176823595837
3.230011808085822
-0.04683132369568299
3.107244281183844
2.78961047154501
0.04415746487150285
-0.1620750992308172
3.402432685271262
-0.1271063147637741
3.139808311570616
0.001551425940800377
3.004997818710247
2.707306984404145
0.06647365157711105
-0.1025099088697615
3.328924609683922
-0.05274312582841978
3.057281059045187
0.0692848308052797
2.911615178455903
2.641312082118834
0.1219614650024148
-0.03597133970122235
3.224303392213133
0.03387161050224274
2.967053284376298
0.1556890533441372
2.819842052909821
2.5693078821152
0.2296405296896086
-0.3468344013214804
3.45481283019934
-0.5764961607986858
3.185793281300129
-0.7153241639997753
3.000044460369456
2.633113929859399
-0.7690707684736315
-0.3002088577915876
3.659650559154963
-0.5257819433670903
3.407276660776459
-0.6286982786629047
3.176610999559322
2.281262491210428
-0.2632236383243765
-0.2736586227173445
3.844644248012579
-0.4821409338054709
3.621429809671969
-0.5140375678741508
3.331024562155742
1.803006715514553
-0.02966566014716156
-0.2402593140946245
4.011168043017662
-0.4394777631049537
3.827813342954275
-0.3630686500250292
3.438905222557234
1.417729591245727
-0.01228121885336427
0.1576812118414006
1.459269117274482
-0.01047807273494538
0.2075843125886832
3.529869749279298
0.1042119913832396
3.938193971165795
4.062975958566775
0.165629294469804
1.439675996152768
-0.007978898753113731
0.1877443361925151
3.625675583321443
0.09472375304394465
4.050909598789818
4.10804880917535
0.1503822292712663
1.343317363464442
-0.003393867427277687
0.1686298235522687
3.723212124786159
0.0892477250537374
4.160212950433117
4.149924036993855
0.119911300060544
1.254281690319818
0.002202920410554234
0.1500456576737292
3.816529514378039
0.08903422817396184
4.257715473317755
4.196625330711051
-0.2359526699003065
1.57020288957175
-0.0156725204199047
-0.1845878890105088
3.985441467607906
-0.04698232368841504
4.197996470382603
4.097717566099605
-0.2649896355346304
1.927848726144704
0.005973935802943572
-0.1781053815367108
4.069002686845028
-0.03211437343571166
4.113303462117566
4.060050800893762
-0.2623646413907459
2.245156354308354
0.03358725658740322
-0.1344454852094521
4.102206330914137
-0.02063082426496887
4.067475941769822
4.0565359784813
-0.2321306442347489
0.08786590593138638
2.498257880777644
-0.1113840197930883
4.099524278762172
-0.01648773348295385
4.039832459931256
4.056691373360701
0.3370436763887273
-0.4386175364127332
-0.01287170633797835
5.616840326183592e-12
0.892868136499894
-0.4130656252429832
-3.339550858072471e-13
1.633809879622852
-0.4646877775818865
7.500666754367558e-13
-0.5171012200499399
-1.257705051216362e-11
0.3341160948976291
-0.8918376439450855
-0.01277409439473722
0.9068207943947731
-0.8655159003788535
1.634735700065617
-0.9425089815300716
-1.0357591832266
0.3307524762224128
-1.351361051139029
-0.01558028488049896
0.926601982211586
-1.343379925184228
1.638843011266449
-1.451593523834344
-1.556743778930207
0.3240814667534537
-0.01607251023909452
-1.703816976588628
0.9567806978314558
-1.851428588886019
1.647526648703033
-1.983871158755462
-2.082285699618421
-0.2321306442350838
-2.245156354311894
0.08786590593139117
2.498257880772856
-0.1113840197894125
-4.102206330916525
4.099524278763045
-0.01648773347915777
-4.067475941767391
4.039832459930283
-4.056535978474382
4.056691373356416
-0.2623646413892575
-1.927848726147993
0.03358725658808311
-0.1344454852122441
-4.069002686856467
-0.0206308242666573
-4.113303462122129
-4.060050800898573
-0.2649896355359639
-1.570202889577591
0.005973935803248981
-0.1781053815393329
-3.985441467613406
-0.03211437344069323
-4.197996470383772
-4.097717566096976
-0.2359526699000025
-1.254281690321845
-0.01567252041967535
-0.1845878890147331
-3.816529514390313
-0.04698232369315081
-4.257715473318223
-4.196625330703648
-0.1042119913783903
4.062975958585477
-4.011168043042788
-0.2075843125764665
3.938193971188021
-3.827813342984491
-0.1576812118351038
3.529869749256401
-3.438905222527536
1.459269117246238
-1.417729591223536
-0.01047807273517323
-0.09472375303815417
4.10804880917877
-0.1877443361781327
4.050909598803865
-0.1656292944648066
3.625675583308802
1.439675996142439
-0.007978898753235751
-0.08924772504825079
4.149924036987874
-0.1686298235347339
4.160212950442505
-0.1503822292662307
3.723212124783882
1.343317363462786
-0.003393867427015713
-0.08903422816698736
-0.1500456576576525
-0.1199113000554928
0.002202920410446639
0.3630686500288107
-1.8030067155014
-0.01228121885336398
0.4394777631199408
-3.331024562141986
0.2402593141097764
-3.621429809698156
-3.844644248032041
0.5140375678782528
-2.281262491198012
-0.0296656601464059
0.4821409338200203
-3.176610999554658
0.2736586227286915
-3.407276660798229
-3.659650559170185
0.6286982786701654
-2.63311392985618
-0.2632236383231581
0.5257819433820237
-3.000044460367226
0.3002088578017865
-3.185793281311609
-3.454812830205556
0.7153241640070243
-2.569307882115639
-0.7690707684755771
0.5764961608110087
-2.819842052911119
0.3468344013246273
-2.96705328438258
-3.224303392212347
-0.2198605822797265
3.464404666036797
-3.515471715829617
-0.1874176823529511
3.230011808101156
-3.30425717631822
-0.04683132369052256
3.107244281172954
-3.221601827242115
2.789610471535229
-2.890871137924753
0.04415746486826466
-0.1620750992233922
3.402432685277782
-0.1271063147556704
3.139808311579022
0.001551425947208807
3.00499781870133
2.707306984396554
0.06647365157739893
-0.1025099088672813
3.328924609686685
-0.05274312582069984
3.057281059051813
0.06928483080952125
2.911615178451461
2.641312082115727
0.1219614650019096
-0.03597133969673905
0.03387161051158682
0.1556890533472777
0.2296405296899661
0.1099860508817955
-2.995520774372559
0.0156864092603014
0.2666315037475566
-3.346351622894951
0.2510977845666932
-3.450091299928087
-3.557358717179909
0.1404619817260394
-3.077803331048587
0.00247514946975258
0.2945973940620941
-3.472522336422803
0.190991615032057
-3.584916126425677
-3.592148389684179
0.1485180139078959
-3.155192343149
-0.006619689333075995
0.255994770319788
-3.584086727375639
0.1028852002731284
-3.734483960243188
-3.64216513857544
0.1401539825298244
-3.239256801179258
0.002272660676942317
0.1880857512315727
-3.745429380149673
0.03402689961478844
-3.861474246837121
-3.705442384726429
0.07033225565958789
3.97981436826711
-4.100476891689758
0.1235564148432389
4.132435158100555
-4.22644550682675
0.08027915270232044
4.217519018776173
-4.31641108233141
3.560892262208551
-3.68227429838308
0.1473565901900267
0.06627758591224708
3.876832985106126
0.08925356006254787
4.042792301474235
0.008555059369275253
4.094876795174374
3.434666772516289
0.1118000002626013
0.05279817453700564
3.784938113754331
0.0184528372306888
3.955719679898649
-0.0701374577308318
3.934668746617564
3.332936693499111
0.05847371750817754
0.02148986335879099
-0.08849298903282432
-0.1185519967126067
0.02716044663964157
-4.09803410012291
-0.02803772072820976
-4.102832741348567
-0.02810069872300225
-4.101808866040821
-0.033683448191411
-0.03447595627542865
-4.096917133213204
-4.211434251796648
-0.0656578961433617
-4.206144127457488
-0.04627158769101675
-4.199832004408952
-0.04760734768918456
-0.05775053370761235
-4.190974704524322
-4.30888541942117
-0.1746610321256062
-4.301615637587991
-0.07818220476632609
-4.308730601608416
-0.04041917670121165
-0.04263140186334208
-4.319208285125455
-3.985005030683016
-0.04233664966783385
-4.249423544210522
-0.1400054542913652
-4.228675158031959
-0.1456632025469445
-4.244284562490146
-0.01747967654283902
-0.03210800675431758
-4.087623533690037
-0.06156521019982836
-4.176997419989052
-0.04809065422087777
-4.333663755965556
-4.273216123728602
-0.002871870651456804
-0.02801783312858264
-4.077679526392429
-0.0632199445502985
-4.158817355463139
-0.05402392330698952
-4.345713660894252
-4.316425560484641
-0.003535225161775207
-0.02162147136407533
-4.06979584493971
-0.06003536458525682
-4.138847492522967
-0.06822783196692661
-4.347633758702938
-4.365059753632496
-0.005960748185906417
-0.01554493230974929
-4.064432381899019
-0.05369592320997052
-4.118433386410015
-0.07864941176788132
-4.338142534182093
-4.4315726753798
-0.007518744733505028
-0.001073229648263063
4.05956139767089
-4.059707999938943
-0.01360743180608537
4.06884477399834
-4.06254634433287
-0.1044175355526878
4.220096361364654
-4.14797483026698
4.670365402426402
-4.712916925350558
-0.0687249717002619
-0.002963612091085754
4.059934642793541
-0.0265144442563181
4.08131977594949
-0.1015335996373626
4.275163056881115
4.585724729585096
-0.01838188366292107
-0.005655618949072738
4.061254174249683
-0.03726913994724973
4.098854773546145
-0.09666916704135103
4.314339858747548
4.503680406296114
-0.008941768615865098
-0.009950134496189755
-0.04540989918429889
-0.08785845461142522
-0.006796810076864807
-0.05298176885455835
-4.680683871036628
0.007741204881688446
-0.06567961453109677
-4.152940684656738
-0.03478328184386614
-4.096344158406454
-4.094845354698077
-0.06155649193007123
-4.647547393461173
0.006631571883174925
-0.06750053281391716
-4.160204190479359
-0.03485880922267626
-4.13035590578966
-4.129861133840254
-0.07410492043899031
-4.603056268011419
0.005264137711737393
-0.06893656278230781
-4.174765256794982
-0.03500481629602137
-4.164989933526169
-4.164891486897055
-0.08242250326766037
-4.554446501768814
0.006229207561366523
-0.06971402161828649
-4.194525739267779
-0.03501639685153868
-4.199820705504974
-4.199906971653771
-0.6887247593188395
-3.912955125935634
0.01129148527581469
-1.20751180801706
-3.682702433043141
-1.723712858924829
-3.683647048484107
-3.683668090049561
-0.687290336655949
-3.273932048506623
0.01811962854515203
-1.207475968332334
-3.166040559557112
-1.723711851208983
-3.167421594047067
-3.167429763785889
-0.6888415073029032
-2.650874500818044
0.04172461983959252
-1.207473287086898
-2.64958136603226
-1.723711779126114
-2.651189460785095
-2.651191214823036
-0.6899954916960037
-2.097351311525448
0.1168378860556803
-1.207473399363604
-2.133493280568257
-1.723711780188847
-2.134952228732975
-2.134952661529125
1.706212168246033
0.5337381654428739
1.172474003772974
0.5337381584279222
0.6387445850889045
0.5335571550913953
0.5291695197016297
0.1057111334667317
1.706212168248594
1.067476330870286
1.172474005829721
1.067476302839669
0.6387502464766502
1.067105508585178
1.05346995188772
0.1085008290880586
1.706212168246498
1.601214496294725
1.172474013702218
1.601214386893706
0.6388068710981107
1.60047390089121
1.575038115265863
0.108906139091031
1.706212168319974
1.17247404375397
0.6388942759811499
0.1052259107472106
0.105476231398284
0.1054762314024261
0.1054653906703644
0.1079721215686841
0.1059225125038813
0.1078287806618645
0.1026793111133712
0.1077871432764297
0.1079721215661203
0.1054653906746962
0.1076782112959152
0.1076782112983665
0.1081688397709988
0.1066956983640147
0.09903951436277861
0.1111325193749114
0.1078287806629825
0.1059225125072498
0.1066956983645017
0.1081688397736742
0.1063680715768889
0.1063680715770287
0.09589779514210543
0.1089243889712147
0.1026793111178318
0.1077871432782767
0.09903951436549878
0.1111325193766913
0.09589779514664303
0.10892438897075
0.0956781749789461
0.0956781749839192
-0.03916483257735692
0.1340424881905871
-0.06253204060507117
0.1313125611700379
-0.08851462529441445
0.1359908563304223
0.134876067168772
-0.005682167104429092
0.1388609441699812
-0.01617533646242714
0.140866930595431
-0.02705988180676727
0.1458977490472698
0.1484336111975569
-0.0009897398368204358
0.1391852055289351
-0.007344038488762583
0.1464985161137657
-0.01313440479575784
0.1509051704812137
0.1525076697703964
-0.001218717710859962
0.1398031512500308
-0.006135057684666489
0.1507758090450455
-0.009219359287200912
0.1533082280797343
0.1538215457816482
0.153303124295732
0.006169574704798453
0.1533720925360234
0.004948541837478948
0.1526201001913175
0.007183190553812058
0.006669560924358053
0.1537744854312427
0.1535206771222587
0.00539147490260361
0.1538379667678692
0.004325676760173203
0.1539161505005246
0.00691447838569309
0.003199577135457099
0.1574316294642612
0.1528814139491291
0.002725278538387665
0.1538629306296347
0.003033504664552988
0.1547047660770922
0.005885406729403631
-0.009752648287046417
0.1676840191984534
0.1419776369278747
0.1446515563693768
0.1502910761760597
0.1404652904799622
0.1402989023541056
-0.05510089080227307
0.1310927838136905
-0.008870379697536873
0.1296687786017813
-0.006961206016173643
-0.006209408725408205
0.1296551005131404
0.1446496226784731
-0.0422297106269178
0.138810281787153
-0.002739832799253411
0.1356409970065956
-0.003209403840559094
-0.003925131269369192
0.1339572766616366
0.1511964655370545
-0.02570026018006735
0.1456023079282143
0.00312966236164669
0.1416372806737499
0.001326782595039322
8.870803506313973e-05
0.1382175702876144
0.1147562627972655
0.1181759168047399
0.120104056550217
0.1208093892703739
0.129920097645474
-0.006882545846770394
0.1308441689375082
-0.005824219358986166
0.1320144151524072
-0.003767092263235849
-0.003038498321295408
0.1331207566520314
0.1327149679827365
-0.004747776784687602
0.1322448711753531
-0.004284425934993508
0.1322701005253646
-0.002830347772366654
-0.00252817726416954
0.1326951144538491
0.135512855571443
-0.00114912784151508
0.1336078670113571
-0.001296574190248007
0.1325487329678134
-0.000787839587791217
-0.001115505336632655
0.1321948674581652
0.1205604510064139
0.1203303094835203
0.1204691505080504
0.1203652620941017
0.1377885814523078
-0.02482848233260607
0.1348826751252105
-0.1505001117391189
0.1107597027156567
-0.1229661233846708
-0.01104207188736162
0.08051140972436684
0.1322028209372181
-0.02831614010850964
0.1023251571869065
-0.1270272253224023
0.05610825448357463
-0.08144755411814619
-0.00261662140671487
0.04679674790374165
0.1239353906527255
-0.02441149286925698
0.05391280111223926
-0.06299656674442861
0.002564450253159836
-0.03524059738450475
-0.006634828049021324
0.004849260622696333
0.09095639862856905
0.0220531640695176
-0.01732383481513239
-0.02687791987512297
0.1047430366503458
0.1254179247063513
0.1177022187714424
0.1030275670633346
0.1245919011183325
0.05756174805471115
0.0267534679820528
0.1298440319392846
0.08613656946602491
0.08814313517443084
0.1121676805533657
0.08104230763284237
0.1233710897890742
0.05040379687704499
0.02496196484345958
0.1295953501562243
0.0531828154296224
0.04164878222114543
0.0976452509515341
0.04051993432854062
0.1175439145892617
0.03378397822940182
0.02014566267960427
0.1261442339065897
0.01606350993298972
0.06047018025050327
0.0966964081969295
0.1200202706992805
0.1350665704336488
0.003068168260104143
0.1400249049054185
-0.006417263978835241
0.1434898158557023
0.001381577494459107
0.01112158799635421
0.1477709624831942
0.1347762801403813
0.005054710695112985
0.1395686631424126
-0.002603116992642929
0.1424688161924045
0.001754729706604841
0.006795036690818157
0.1464998292211071
0.1319896012753073
0.00620521611995295
0.1376970251585194
0.0001345707935558327
0.1417125805825607
0.001461534451815294
0.003119748540292733
0.1452932580087868
0.1330968730954935
0.1388412987411298
0.1429866986630392
0.1462795260603018
0.1586638397985666
0.03178753365603726
0.1726591468889475
0.05121753299296017
0.1922475791939879
0.1023173460550627
0.1805135065483633
0.2412399823144172
0.1566728654150479
0.01993620508764382
0.170461198199585
0.03610929442869537
0.1914989054287581
0.08113531995804385
0.1229080186270594
0.2492073465965128
0.1538903194876889
0.009770575101729184
0.1672302587055553
0.0214199962701358
0.1942631651365927
0.05345213992363723
0.03428844981788692
0.2830991296394983
0.1546647508075173
0.1746625387114824
0.2273712553066779
0.2615308830178948
0.1220014414237992
-0.6494854554440807
0.01214932163097567
-0.1526509380553983
-0.002597127301577019
-0.01384695854159026
-0.009765715082217373
-0.003860744942855851
0.08463897052121323
-0.4845210972598591
0.001807032887034469
-0.06912180402708887
-0.00431533000430648
-0.006799002150165546
-0.006316603246258263
-0.006748287873408493
0.04503313679565786
-0.2463298388822136
-0.002596044311106846
-0.02080255366610003
-0.005881492109664533
-0.002576870985176764
-0.003320586951234887
-0.008045782360742293
0.01517957308553914
-0.004926153231890292
-0.006659507128362372
-0.009082469676811398
-0.005367085703676678
-0.007899561888711741
-0.006842747306097185
-0.005047353151530027
-0.008519329479190632
-0.0008105221578394092
0.003538126182770072
-0.00912879316708139
-0.008192583504077448
-0.005611310081820442
-0.009147306904602328
-0.002763152868441889
-0.009653893958982512
0.0007066160092451292
0.003168506769375981
-0.008476742373118564
-0.009688793066811524
-0.002882234613503381
-0.009469032611475527
-0.001545636926315003
-0.008702839357934231
0.0009290648395473139
0.002634956224207001
-0.007328869796773753
-0.01079236600216119
-0.01094989062888314
-0.009120763370137654
-0.00572327533806445
-0.008421275603307547
-0.01576926107502857
0.001943050963785435
-0.002849565293207054
0.02247364491665669
0.01462023836657639
0.07047389002072643
0.04243667318795625
-0.009509122213824927
-0.01396207497625105
-0.007053825283087331
-0.003681856716581784
0.00890890419398005
4.067459274570417e-05
0.04770564362959014
0.03388585672834913
-0.01176762228206376
-0.008575102262083079
-0.01145454666324011
-0.002555899101100982
-0.003607455101149744
-0.006446019377819065
0.02557348748083764
0.02032662463652062
-0.01309200372183835
-0.01388669460727
-0.01901299743728102
0.008975809107491017
0.04129061386055061
-0.006356771498061506
0.01063481480595185
0.03999947757874706
-0.007445408026183327
0.0112659956145621
0.03677232449097328
-0.01237319845590178
0.01704047839853885
-0.01696912284544377
0.02817980276345916
0.02546626156289921
0.03266458092556452
-0.003783847614229376
0.03078337279803674
-0.00478411989088217
0.02748566237908828
-0.008732195946851491
-0.01083079376100773
0.02109984615885095
0.01849760130803635
-0.001709171050823757
0.01641341131636375
-0.002220664603090484
0.0125720903844447
-0.004436991148195363
-0.005015159969011501
0.006837836826893998
0.006533143759507393
0.004582768506941649
0.0002902119413727353
-0.004408746485841504
-0.006411102588189964
0.00258439900201431
-0.006056246661643727
0.0007783975402493558
-0.003634257307148725
-0.0008802513969043725
-0.001874219608520647
-6.212391712168142e-14
0.003495860043817536
0.006009700769978518
0.001027972982197776
0.003639487448104269
-4.024503692554027e-05
0.000923227114883244
-0.0009164617032038566
-2.698535839229521e-14
0.01669115138049724
0.01018022540816074
0.01132022003434956
0.008928120876416378
0.005680779540089102
0.006652547195644624
0.005072977867204245
1.693784001943754e-14
0.02173994216826721
0.01431334379629041
0.007707619632134441
5.656586310465173e-14
-0.001874219608525914
0.003634257307037578
-0.0009164617032075169
4.02450368955018e-05
0.005072977867208103
-0.005680779540053464
-0.007707619632013545
0.01287170633788687
-0.0008802513969003965
0.006056246661585989
0.0009232271148787198
-0.001027972982297523
0.006652547195684387
-0.01132022003444252
-0.01431334379625454
0.01277409439484756
0.0007783975402171107
0.006411102588038245
0.003639487448102781
-0.003495860043766154
0.008928120876528119
-0.01669115138051194
-0.0217399421682743
0.01558028488034894
0.00258439900208586
0.004408746485891818
0.006009700769977176
-0.006837836826971797
0.01018022540823818
-0.02109984615882719
-0.02817980276365843
0.01607251023893871
-0.03677232449089869
-0.01696912284525311
0.02546626156312647
-0.03999947757875288
-0.01237319845587938
0.01704047839850809
-0.04129061386055589
-0.007445408026164453
0.01126599561462384
-0.006356771498136571
-0.04243667318799315
0.01063481480594925
-0.02748566237912503
-0.01083079376103131
-0.03078337279798374
-0.008732195946903595
-0.03266458092561579
-0.004784119890921736
-0.003783847614293803
-0.03388585672843154
-0.01257209038451017
-0.005015159968974475
-0.01641341131633987
-0.004436991148118873
-0.01849760130818043
-0.002220664603142034
-0.001709171050849972
-0.02032662463660149
-0.0002902119413860926
-0.004582768506989764
-0.006533143759544544
-0.008975809107586517
0.01901299743714973
-0.02557348748089766
0.01388669460725231
0.00644601937812099
0.01309200372182407
0.002555899101043264
0.008575102261874655
0.005723275338084293
0.003607455101130599
-0.04770564362964394
0.01145454666316271
-4.067459298076614e-05
0.01176762228195327
0.00368185671648779
0.01396207497634806
0.007328869796786423
-0.008908904194115927
-0.07047389002075791
0.00705382528298228
-0.01462023836681298
0.009509122213724878
0.002849565293224582
0.01576926107472057
0.008476742373100856
-0.02247364491684049
-0.001943050963866901
0.008421275603128367
0.009128793167083328
0.008519329479196458
0.003538126182780543
0.006842747306172104
-0.0008105221577982685
0.005367085703732314
-0.005047353151667081
-0.007899561888764214
0.003860744942811177
0.009653893958974657
0.003168506769365337
0.009147306904640374
0.0007066160092248572
0.00819258350408881
-0.002763152868516108
-0.005611310081862775
0.006748287873414849
0.008702839357898555
0.002634956224220622
0.009469032611505994
0.0009290648396644494
0.009688793066818423
-0.001545636926384441
-0.002882234613543125
0.008045782360741769
0.009120763370196105
0.01094989062891868
0.010792366002186
0.009082469676812102
0.002597127301550017
-0.009765715082140927
-0.01214932163045969
-0.01384695854133129
-0.1220014414228382
-0.1526509380547167
-0.6494854554446708
-0.2412399823137009
0.004315330004348888
-0.006316603246182551
-0.001807032886850032
-0.006799002150065784
-0.08463897052054443
-0.06912180402684347
-0.4845210972598243
-0.2492073465964212
0.005881492109693395
-0.003320586951223081
0.002596044311177117
-0.002576870985130611
-0.04503313679536186
-0.02080255366597867
-0.2463298388821595
-0.2830991296394582
0.006659507128368425
0.004926153231922085
-0.015179573085479
-0.2615308830180936
-0.1922475791940667
0.180513506549305
-0.1726591468887607
0.1023173460566761
-0.1586638397986869
0.05121753299497223
0.03178753365739551
-0.1477709624832307
-0.1914989054285615
0.1229080186259007
-0.1704611981996868
0.08113531995750495
-0.1566728654148619
0.03610929443017608
0.01993620508641214
-0.1464998292210873
-0.194263165136275
0.03428844981808682
-0.1672302587056893
0.05345213992452613
-0.1538903194873691
0.02141999627303159
0.00977057510230761
-0.1452932580089327
-0.2273712553061097
-0.1746625387120425
-0.1546647508073196
-0.1462795260603435
-0.1434898158557466
0.01112158799633201
-0.1400249049053037
0.001381577494204644
-0.135066570433089
-0.006417263978012011
0.003068168259864223
-0.1298440319391975
-0.1424688161925321
0.006795036689300482
-0.1395686631419688
0.001754729709635305
-0.1347762801400476
-0.002603116992548449
0.005054710694862408
-0.1295953501560848
-0.1417125805823397
0.003119748542190992
-0.1376970251582164
0.001461534451234647
-0.1319896012748954
0.0001345707935012097
0.006205216120463986
-0.1261442339065581
-0.1429866986631141
-0.1388412987410041
-0.133096873095238
-0.1200202706990973
-0.1245919011185091
0.0267534679819611
-0.1177022187714494
0.05756174805453285
-0.104743036650534
0.1030275670626827
0.1254179247066067
-0.08051140972451844
-0.1233710897891141
0.02496196484289692
-0.1121676805533833
0.05040379687568231
-0.08613656946635556
0.0810423076309259
0.08814313517568462
-0.04679674790385711
-0.1175439145891878
0.02014566267973172
-0.0976452509518163
0.0337839782291065
-0.05318281542971723
0.04051993433010448
0.04164878221915103
-0.004849260623191021
-0.09669640819657976
-0.06047018025012069
-0.0160635099332618
0.02687791987562649
-0.110759702716128
-0.01104207188738221
-0.1348826751256675
-0.1229661233853164
-0.1377885814525051
-0.1505001117380726
-0.02482848233226381
-0.1331207566523079
-0.05610825448392825
-0.002616621407563302
-0.1023251571875583
-0.08144755411856158
-0.1322028209374813
-0.1270272253219493
-0.02831614010822264
-0.1326951144540475
-0.002564450253372846
-0.006634828048820429
-0.05391280111284796
-0.03524059738454316
-0.1239353906530029
-0.06299656674434995
-0.02441149286909977
-0.1321948674583043
0.01732383481512186
-0.0220531640695763
-0.09095639862869992
-0.1203652620940617
-0.1320144151524809
-0.003038498320622474
-0.1308441689373155
-0.003767092262976696
-0.1299200976455192
-0.005824219359161137
-0.006882545847137073
-0.1296551005129826
-0.132270100525425
-0.002528177263640574
-0.1322448711752093
-0.002830347771901331
-0.1327149679826379
-0.004284425935251662
-0.004747776784622876
-0.1339572766616162
-0.1325487329676912
-0.001115505336400563