/*--------------------------------*- C++ -*----------------------------------*\
  =========                 |
  \\      /  F ield         | OpenFOAM: The Open Source CFD Toolbox
   \\    /   O peration     | Website:  https://openfoam.org
    \\  /    A nd           | Version:  11
     \\/     M anipulation  |
\*---------------------------------------------------------------------------*/
FoamFile
{
    format      ascii;
    class       volScalarField;
    location    "0.1625";
    object      T;
}
// * * * * * * * * * * * * * * * * * * * * * * * * * * * * * * * * * * * * * //

dimensions      [0 0 0 1 0 0 0];

internalField   nonuniform List<scalar> 
880
(
500
500.0000000023188
500.0002737420446
500.135392759458
500.0000000000001
500.0000000096975
500.0007062534416
500.4128543508585
500
500.000000161617
500.0024653832468
501.1403214640658
500.0000000000001
499.9999998625546
500.0086098271616
502.5493741036535
500.0000000000628
500.000000000224
500.0000000363165
500.0000031883478
500.00000009605
500.0000006756279
500.0000440207508
500.0003949815468
500.0395315418014
500.0762624333925
500.2109945371382
500.0159831099864
506.8467532832498
512.0348850452926
516.1951803417046
518.1879786786167
500.0000373776432
500.0002374728697
500.0017171047261
500.0015708911878
500.0018670701342
500.0057472488494
500.0155859331909
500.0222306659168
500.5356644213242
500.9661006689214
501.5089585912919
502.0404949995161
520.3936636386794
523.0950727069406
525.3068989348665
526.2331853431766
520.2954497450085
517.3392002084111
516.1393358180726
514.7732747267681
503.9596005653346
505.0526747696765
505.842572281592
505.9292557565603
500.0810658388187
500.1773942041227
500.283051295848
500.3738367636307
500.0055762661538
500.0157396924728
500.0312386857098
500.0401272150743
500.0396536759841
500.0330239945114
500.0229816649638
500.0125384546022
500.4219806628773
500.3956382648577
500.3398768973812
500.2611050725331
505.7199770711148
505.0441603308302
504.2508892564923
503.4220617942953
513.5564476411034
512.1291081793182
510.3563146341381
508.6411039143316
507.1540669614606
502.6239960431891
500.1692765267074
500.0049930317426
505.4585752070807
501.7532143141304
500.0829667045468
500.0011902205636
507.2637053705584
500.8102339380609
500.019109460232
499.9999505991871
529.6022870122289
500.9706456698065
500.0077186578653
500.0002768215757
500.0007335165432
500.0203058026481
503.3231373844827
571.5123619603703
500.0030705284148
500.0680430974407
506.3385946136729
582.0249977157291
500.0089466285233
500.1583667003621
510.9672558279493
593.0850501711971
500.0234530749358
500.3812028586312
517.2480690319095
602.2978251030679
610.7686771670567
524.8369657298848
500.7155209518443
500.0478998149612
618.516759819631
533.8915922053887
501.3448752436235
500.0930287854609
625.2314856558353
543.9410743976448
502.1924066759369
500.1495039596768
627.6339260163477
554.43405827317
503.6526600353974
500.2538580115489
500.3858845974422
505.518812034712
563.319730595543
626.2254460335098
500.5602808696668
506.2843896954524
556.3713305640495
611.8761965353051
500.7472252885888
504.8177768957573
541.9315681419043
590.1523423219747
500.1862976445673
502.6802834800098
524.2353498791351
557.2039356371249
500.5089983140008
503.7200961815435
517.0765959369388
523.1328556202451
500.4302234435925
502.4402022397634
507.5328310451236
500.4437178572741
500.1398313891658
501.6522842298631
507.7138628013883
505.0983953422208
499.9951136423056
501.0227005389913
509.276731333694
535.871782386403
531.470022164692
506.2017499174862
499.9092700453133
499.9526437672587
523.831297468312
502.2276921886098
499.3591938644727
499.9332675302554
515.1100107612504
499.2146207145871
499.1265309548468
499.9520872318028
500.1242510192583
495.6450502343741
499.0556653472454
499.978792899497
484.6871889375464
494.4321711338893
499.4354208517901
499.991180668116
468.4093187526454
494.6571589917878
499.7475807111003
499.9973276424963
459.1593307095314
495.1791411305063
499.863104479501
499.9989437565664
460.8243229812618
497.2422010674452
499.9657769332853
499.9995975510645
500.141685227796
498.0416284729532
499.7135301389095
499.9944353331462
497.3255833857914
497.9027777056577
499.7611447221902
499.9954230847911
490.7975938189861
497.6808642736332
499.8131047850043
499.996335801992
482.889183691113
497.3811527570982
499.8379253275639
499.9970973521654
460.8243229812343
497.2422010675194
499.9657769338535
499.9995975508241
459.1593307097498
495.1791411304442
499.863104479384
499.9989437563213
468.4093187526595
494.6571589915519
499.7475807106163
499.9973276422498
484.6871889375116
494.4321711335016
499.4354208517697
499.9911806680552
499.9526437674627
499.9092700456362
506.2017499178343
531.470022164493
499.9332675302817
499.3591938645702
502.2276921888256
523.8312974680678
499.9520872317565
499.1265309548308
499.2146207141685
515.1100107608398
499.9787928995531
499.055665347574
495.6450502340383
500.1242510191253
535.8717823864951
509.2767313339046
501.0227005388352
499.9951136425273
505.0983953425122
507.7138628014772
501.6522842299543
500.1398313891045
500.4437178571139
507.5328310452846
502.4402022398537
500.4302234437471
523.1328556201546
517.0765959366282
503.7200961809647
500.5089983144746
500.3858845969598
505.5188120358858
563.3197305965115
626.2254460338131
500.5602808694988
506.284389695006
556.3713305645878
611.8761965355968
500.7472252874695
504.8177768957827
541.9315681416579
590.1523423219001
500.1862976451812
502.6802834791378
524.2353498790429
557.2039356370619
627.6339260165098
554.4340582735408
503.6526600349161
500.2538580125148
625.2314856563437
543.941074397333
502.1924066747647
500.1495039594128
618.5167598201311
533.8915922068255
501.3448752463685
500.0930287854705
610.7686771670917
524.8369657293434
500.715520950578
500.047899814903
500.0007335165921
500.0203058026437
503.3231373842166
571.5123619604165
500.0030705288916
500.0680430981467
506.3385946136403
582.0249977156732
500.0089466289925
500.1583667006041
510.9672558281976
593.0850501712024
500.0234530747289
500.3812028592229
517.2480690320626
602.2978251031398
500.0002768215498
499.999950599071
500.0011902206985
500.004993031827
500.0077186574215
500.0191094600189
500.0829667043192
500.1692765264973
500.9706456695841
500.8102339381861
501.7532143139342
502.6239960429763
529.6022870120554
507.263705370627
505.4585752071897
507.1540669614747
500.0125384547055
500.2611050726512
503.4220617944885
508.6411039145506
500.0229816649428
500.3398768976822
504.2508892567047
510.3563146343099
500.033023994557
500.39563826506
505.0441603306017
512.1291081787464
500.0396536758362
500.4219806627968
505.7199770712451
513.556447641221
500.0055762660452
500.0810658387022
503.9596005655527
520.2954497453018
500.0157396920935
500.1773942044085
505.0526747699798
517.3392002083293
500.0312386859223
500.2830512956592
505.8425722814866
516.1393358177589
500.0401272149566
500.3738367635548
505.9292557567707
514.7732747264421
526.2331853431234
502.0404949993992
500.0222306658864
500.0015708913577
525.306898934757
501.5089585914485
500.0155859329236
500.0017171047516
523.0950727071187
500.9661006690961
500.005747248186
500.0002374725634
520.3936636386429
500.535664420976
500.0018670698809
500.0000373780236
518.1879786785252
500.0159831101879
500.0003949815598
500.0000031886709
516.1951803416835
500.210994537216
500.0000440206919
500.0000000363312
512.0348850452594
500.0762624333686
500.000000675488
500.0000000001855
506.8467532832059
500.0395315416786
500.0000000958888
500.0000000000916
500.0000000000001
500.0000000023246
500.0002737420815
500.1353927592746
500
500.0000000095934
500.0007062534338
500.4128543508805
500
500.0000001613883
500.0024653831942
501.1403214641195
500
499.9999998625455
500.0086098270651
502.5493741034671
500.3634465629798
500.9815266750514
502.4659489745746
507.6302581029187
500.981526675042
501.9323444863392
505.384561305002
515.0438801903946
502.4659489744446
505.3845613048834
513.2883770071742
527.9022296198449
507.630258102974
515.0438801905741
527.9022296200965
546.2688741547366
566.4433114985011
551.1793043137351
542.4161926315802
528.798863633269
562.8878991353441
558.512800410932
556.8107784972839
549.6191145452934
563.8319240794131
562.1476126351096
560.7170935463627
557.4411079996422
563.0304646817546
562.0132904079244
561.6887650071551
559.7921493083051
559.0703476104289
558.7908165303357
558.049727522586
555.5019857261368
560.0399599341675
558.3542656571693
557.2234517807524
554.8831076196983
559.9426433695552
557.9741921099571
556.6525761173864
554.2309973342847
560.2426700390453
557.9102838690026
556.4972829544855
548.6939258807507
517.4669383718528
501.4968391119073
501.0144308389382
502.1375966982059
505.2996858811148
496.2974804539459
500.9688013765313
503.0619866324563
491.8930472137513
495.2193055739005
501.9212790084566
504.8295590546447
469.4292123201491
489.8468409635432
500.3549259378289
503.5792492970175
502.9301068585784
503.6031923502743
503.8222856043441
503.5864567953037
503.8803622341312
504.2833117964318
504.4835635678523
504.0603538948864
505.1365717703747
505.1547709070868
504.7770766479232
504.3622183195951
504.4269420048226
505.071250732508
505.1156923900825
504.6711738653839
503.2310175264151
503.5298570244682
533.4396894383113
593.920042542556
503.2354217594205
503.617637792409
546.0110360892456
603.0351516484756
503.4651344252601
504.1858193255389
556.5689280302983
608.3531136087099
503.665666402534
504.7687965069296
565.5096418915135
614.8264170508521
655.4300756336003
650.8749210717352
650.2306110475475
649.2650462422622
662.7642533369207
655.8439325000345
652.0434674514946
649.3823390994918
666.3684640526143
660.5707936638171
654.0538741010843
650.0180562901677
667.7916987716881
663.790657559714
656.150012965274
650.6678926617034
650.3074575047677
649.66582258943
650.3458819671114
654.930913798634
649.5730949353583
648.1426715627575
647.8968737239638
651.4760574262324
648.7628410326852
646.4671012564467
645.0352836966417
647.1723059961487
648.6929521330444
646.0724333292145
644.0174718920991
645.6363554352783
652.6126235440314
637.0904475787239
615.8499118767421
588.3901240750067
652.1249317127262
638.0315014498084
616.7983771579234
616.5180471484741
650.1739390313491
639.3847565085039
625.6113527375956
645.4102346102025
648.8351145416062
642.729001082901
640.4211264858762
632.168586704141
547.9765549253262
467.3080117589439
351.8679035893666
365.8187156755051
536.2617946972606
429.699097444652
311.01112773811
307.0086771586557
488.7222752208424
363.6209430823821
289.3426614842505
284.9662443731653
391.4685422446083
300.7625787771691
288.0576971384848
278.2125166527145
393.7279783063972
418.2577140779227
435.7072932075586
432.2261032379397
339.3203816900137
376.5754537692528
406.3955937745049
418.4324992767764
309.8700578827147
347.103038341088
383.6962494455009
414.7100792888997
302.471911962824
340.6581854038487
382.0607182910418
419.4699620665352
466.3703847532235
439.7828900988523
418.8460315045683
411.9545119882844
466.6095205785768
450.0671017758427
426.8308561255295
424.8153008948833
455.6323970510044
456.9843818663425
442.0071084946983
443.3580275559721
441.5117051091788
460.3194409131868
455.0681748649818
467.2659334905395
386.1217877775549
389.4198363057776
403.463305951123
413.9652190909201
398.0130937566212
395.3890804358668
388.6233779662509
379.718499824865
405.0268135749785
405.2449661418413
397.9520962161803
377.3739047021977
386.9899771908339
401.2104879858672
388.6759995410306
364.7832260296695
350.1827668170837
347.878503409275
348.6504135626749
348.905014930549
356.5046360021283
349.7373940582284
350.5926595817614
352.1963737411452
370.8513420694683
368.8664997198671
369.0031049327275
369.151274612454
404.50255254268
398.2788018914151
395.2770529582926
393.6717307590196
348.9050149305371
352.1963737411683
369.1512746124434
393.6717307590374
348.6504135626373
350.5926595817226
369.0031049327317
395.2770529583998
347.8785034092245
349.737394058181
368.8664997198622
398.2788018915921
350.1827668170213
356.5046360020661
370.8513420694401
404.502552542764
413.9652190909782
403.4633059513664
389.4198363061562
386.1217877777178
379.7184998248453
388.6233779662425
395.3890804358016
398.0130937565793
377.3739047021035
397.9520962160697
405.2449661417746
405.0268135749502
364.7832260295946
388.6759995409543
401.2104879857786
386.989977190761
467.2659334905217
455.0681748650812
460.3194409133588
441.5117051096242
443.3580275559518
442.007108494822
456.9843818665193
455.6323970514148
424.8153008947909
426.8308561256994
450.0671017760462
466.6095205788011
411.9545119882004
418.8460315047616
439.782890099017
466.3703847533347
432.2261032384032
435.7072932080163
418.2577140783021
393.7279783065246
418.4324992773638
406.395593775168
376.5754537696922
339.3203816899889
414.710079289484
383.6962494461986
347.1030383415269
309.8700578826557
419.469962067129
382.0607182918004
340.6581854043489
302.4719119628147
365.8187156757499
351.8679035887802
467.3080117587116
547.9765549253148
307.0086771587641
311.0111277378355
429.6990974445278
536.2617946969922
284.966244373191
289.3426614841077
363.6209430825705
488.7222752209669
278.2125166527471
288.0576971383509
300.7625787772733
391.4685422448478
588.3901240748677
615.8499118768154
637.0904475788299
652.6126235441476
616.5180471483848
616.7983771580213
638.0315014499128
652.124931712844
645.4102346101351
625.6113527376464
639.3847565086091
650.1739390314606
632.1685867041876
640.4211264859573
642.729001083037
648.8351145417367
654.930913798793
650.3458819675402
649.6658225894953
650.3074575052023
651.4760574264627
647.8968737243611
648.1426715628538
649.5730949357016
647.1723059963668
645.0352836969952
646.4671012566736
648.7628410329498
645.6363554355113
644.0174718924359
646.0724333294622
648.69295213326
649.2650462422038
650.2306110474973
650.8749210716378
655.4300756336105
649.3823390992837
652.0434674514199
655.8439324999034
662.7642533367455
650.018056289802
654.0538741010239
660.5707936635862
666.3684640522679
650.6678926613417
656.1500129652501
663.7906575593818
667.7916987712523
593.9200425424245
533.4396894381282
503.5298570246837
503.2310175265761
603.0351516482592
546.0110360889332
503.617637792594
503.2354217595785
608.3531136085611
556.5689280299679
504.185819325701
503.4651344253891
614.8264170505563
565.5096418911116
504.768796507036
503.6656664026276
503.5864567955855
503.8222856043519
503.6031923498553
502.9301068587502
504.0603538951618
504.4835635677748
504.2833117959835
503.8803622343787
504.3622183198977
504.7770766479062
505.154770906674
505.1365717706838
504.6711738657359
505.1156923900718
505.0712507319871
504.4269420050737
502.1375966978317
501.0144308385809
501.4968391119995
517.4669383721716
503.0619866319081
500.9688013763453
496.2974804540687
505.2996858813808
504.8295590539818
501.9212790082515
495.2193055740914
491.8930472138598
503.5792492963816
500.3549259375317
489.8468409638276
469.4292123202369
555.5019857262224
558.0497275225677
558.7908165306587
559.0703476105141
554.8831076196902
557.2234517806925
558.3542656575039
560.0399599342171
554.2309973341609
556.6525761172801
557.9741921102678
559.942643369634
548.6939258805222
556.4972829544133
557.9102838693215
560.2426700391424
559.7921493079449
557.4411079995701
549.6191145454148
528.7988636334431
561.6887650068503
560.7170935462543
556.8107784973458
542.4161926316342
562.0132904077253
562.147612634863
558.5128004108858
551.1793043136987
563.0304646815982
563.831924079176
562.8878991352018
566.4433114983757
458.5723335578603
496.7240673687445
499.9006768583263
499.9991726755729
458.6671663739376
496.1195822223399
499.8754333664932
499.9987981568285
467.3549476475384
496.397577355377
499.868851037576
499.9985215915773
475.7699516602851
496.8896696606948
499.8561152463203
499.9979421467941
499.9944353333497
499.713530138552
498.0416284729182
500.1416852279999
499.9954230847007
499.7611447219791
497.9027777056029
497.3255833860635
499.9963358022032
499.8131047849938
497.680864273491
490.7975938192459
499.9970973522072
499.8379253277266
497.3811527570022
482.8891836911001
499.9979421466179
499.9985215915023
499.9987981569756
499.9991726755565
499.8561152462299
499.8688510374262
499.8754333662242
499.9006768582119
496.8896696607384
496.3975773552565
496.1195822224593
496.7240673689772
475.7699516600575
467.354947647182
458.6671663737494
458.5723335577007
)
;

boundaryField
{
    back
    {
        type            empty;
    }
    inlet
    {
        type            zeroGradient;
    }
    front
    {
        type            empty;
    }
    top
    {
        type            zeroGradient;
    }
    outlet
    {
        type            fixedValue;
        value           uniform 500;
    }
    bottom
    {
        type            zeroGradient;
    }
    wall
    {
        type            zeroGradient;
    }
}


// ************************************************************************* //
