/*--------------------------------*- C++ -*----------------------------------*\
  =========                 |
  \\      /  F ield         | OpenFOAM: The Open Source CFD Toolbox
   \\    /   O peration     | Website:  https://openfoam.org
    \\  /    A nd           | Version:  11
     \\/     M anipulation  |
\*---------------------------------------------------------------------------*/
FoamFile
{
    format      ascii;
    class       surfaceScalarField;
    location    "1.375";
    object      phi;
}
// * * * * * * * * * * * * * * * * * * * * * * * * * * * * * * * * * * * * * //

dimensions      [0 3 -1 0 0 0 0];

internalField   nonuniform List<scalar> 
8667
(
15.883
1.8940134
0.00076400841
13.984745
1.896556
0.001699779
12.067195
1.9151485
0.0024015337
10.165834
1.8975439
0.0038168474
8.2422332
1.9189546
0.0046459866
6.3531757
1.8827793
0.0062782536
4.4417144
1.9041274
0.0073338793
2.601202
1.830772
0.009740403
1.7924785
0.011628092
0.79709546
15.885189
3.7866023
13.981085
3.8006606
12.069768
3.826465
10.154734
3.8125781
8.2453839
3.8283048
6.337265
3.7908982
4.4416381
3.7997543
2.6010321
3.671378
3.6181765
0.77533408
15.886812
5.6775686
13.979564
5.7079079
12.070596
5.7354338
10.152476
5.7306979
8.2375065
5.7432741
6.3315757
5.6968289
4.431038
5.700292
2.5913447
5.5110713
5.4530586
0.75646255
15.88558
7.5697669
13.982057
7.6114309
12.066602
7.6508888
10.153844
7.6434552
8.2284687
7.6686498
6.3224556
7.602842
4.4145826
7.608165
2.571764
7.3538898
7.2903747
0.73444789
15.885251
9.4622917
13.984625
9.5120569
12.067097
9.5684172
10.154136
9.5564161
8.2294942
9.5932916
6.3148831
9.5174531
4.4046928
9.5183554
2.5571324
9.2014502
9.1272638
0.7202434
15.885555
11.354515
13.988161
11.409451
12.07345
11.483128
10.156485
11.473381
8.2296061
11.520171
6.305934
11.441125
4.3880874
11.436202
2.5340225
11.055515
10.958179
0.70310698
15.885606
13.246687
13.990347
13.30471
12.079103
13.394372
10.159419
13.393064
8.2308077
13.448782
6.3041081
13.367825
4.3790896
13.36122
2.5141728
12.920432
12.794574
0.67777819
15.887294
15.13717
13.991953
15.200052
12.085079
15.301246
10.165767
15.312376
8.2316457
15.382904
6.2973085
15.302162
4.3629208
15.295608
2.489199
14.794154
14.625778
0.65799492
15.889328
17.025621
13.995756
17.093624
12.089069
17.207933
10.172066
17.229379
8.2371593
17.31781
6.2993595
17.239962
4.3546268
17.240341
2.4636406
16.68514
16.46935
0.62006862
18.850373
15.953026
20.672065
15.956085
22.490807
15.959043
24.308251
15.960336
26.12255
15.963461
27.933793
15.966537
29.743608
15.967965
31.548009
15.973379
15.970311
33.355478
18.925327
14.121322
20.754961
14.126452
22.581807
14.132197
24.404319
14.137824
26.225685
14.142095
28.041254
14.150968
29.85167
14.157549
31.657381
14.167667
14.167416
33.460277
19.056917
12.272338
20.902606
12.280763
22.745582
12.289221
24.581981
12.301424
26.415281
12.308794
28.243246
12.323004
30.073534
12.327261
31.902126
12.339075
12.341772
33.727769
19.094635
10.407083
20.956893
10.418505
22.82158
10.424533
24.683566
10.439439
26.545644
10.446717
28.404917
10.463731
30.26176
10.470418
32.114898
10.485936
10.494755
33.961916
19.207654
8.517239
21.100598
8.5255607
22.996739
8.5283926
24.895981
8.5401966
26.795217
8.5474808
28.698065
8.560883
30.598155
8.5703283
32.50047
8.5836205
8.5961599
34.399065
19.138647
6.6185534
21.048875
6.6153332
22.965225
6.6120422
24.893711
6.6117104
26.825387
6.6158049
28.766478
6.6197918
30.704721
6.6320859
32.648208
6.6401329
6.6577078
34.586661
19.149062
4.7098324
21.081816
4.6825789
23.024657
4.669201
24.998988
4.6373801
26.985883
4.6289101
28.998594
4.6070803
31.014639
4.6160404
33.051249
4.6035229
4.6200176
35.08894
18.565416
2.829556
20.510998
2.736997
22.497147
2.6830517
24.531268
2.603259
26.582104
2.5780743
28.659883
2.5293016
30.744211
2.5317125
32.841907
2.5058271
2.5206017
34.941323
18.370336
0.92857021
20.45904
0.6482929
22.718269
0.42382272
25.030464
0.29106436
27.3782
0.23033771
29.707171
0.20033079
32.070355
0.16852812
34.409532
0.16665063
36.773618
0.15651545
33.247751
0.10772678
33.145506
0.1022453
33.044674
0.10083198
32.951407
0.093266601
32.859088
0.092319235
32.775879
0.083209026
32.69285
0.083028675
32.620276
0.072574068
0.072922899
32.547353
33.374612
0.19339241
33.296106
0.18075094
33.218681
0.17825684
33.148628
0.1633192
33.079523
0.16142418
33.018969
0.14376396
32.960104
0.1418933
32.911149
0.12152921
0.12188689
32.862185
33.657978
0.26318418
33.594389
0.2443399
33.534149
0.23849655
33.477839
0.21962895
33.425056
0.21420781
33.375891
0.19292805
33.329997
0.18778737
33.288421
0.16310536
0.15939498
33.250913
33.907621
0.31747907
33.85709
0.29487091
33.809808
0.28577851
33.765662
0.2637751
33.724799
0.25507101
33.687239
0.23048739
33.652916
0.22211027
33.622205
0.19381658
0.1866998
33.5949
34.35141
0.36513361
34.3085
0.33778097
34.268258
0.32602095
34.230852
0.30118071
34.195542
0.29038186
34.162965
0.26306434
34.132175
0.2528998
34.103722
0.22226964
0.21369339
34.076728
34.555971
0.39582337
34.527946
0.36580626
34.505631
0.34833517
34.485207
0.32160486
34.467568
0.30802149
34.448708
0.2819236
34.431743
0.26986513
34.410382
0.2436304
0.23364905
34.390427
35.077436
0.40732675
35.065557
0.3776857
35.054264
0.35962814
35.039973
0.33589583
35.02592
0.32207442
35.005833
0.3020106
34.983998
0.29170012
34.952143
0.27548571
0.26922009
34.916572
35.025889
0.32276014
35.107521
0.2960536
35.193113
0.27403611
35.271779
0.25723051
35.34544
0.24841288
35.403373
0.24407809
35.444208
0.25086442
35.45447
0.26522376
0.29537447
35.428316
36.955052
0.14132668
37.103781
0.14732434
37.207827
0.16998946
37.275399
0.18965881
37.287707
0.2361054
37.240421
0.29136415
37.132089
0.35919638
36.945446
0.4518668
36.727088
0.51373245
36.566377
0.6889718
-0.52826124
36.271293
0.65377148
-0.3586877
35.890989
0.62890264
-0.24859802
35.503085
0.60300606
-0.21510225
35.095041
0.5865181
-0.17847423
34.697469
0.56433616
-0.1667642
34.280284
0.55430269
-0.13711761
33.882276
0.53799727
-0.13998887
0.53476097
33.466337
-0.11882231
35.497464
0.6198238
35.520482
0.63075317
35.513022
0.63636307
35.473679
0.64234877
35.413472
0.64672484
35.324091
0.65371789
35.218876
0.65951761
35.091121
0.66575219
0.67327425
34.952608
34.990765
0.54563046
35.058581
0.56293742
35.108901
0.58604302
35.149154
0.60209511
35.171459
0.62442008
35.185738
0.63943881
35.183848
0.66140737
35.172578
0.67702239
0.69986512
35.145987
34.488459
0.44759832
34.589236
0.46216017
34.680243
0.49503607
34.773184
0.50915378
34.855313
0.54229138
34.939246
0.5555056
35.011748
0.58890512
35.084894
0.60387712
0.6390553
35.145703
34.176187
0.34813945
34.279483
0.35886415
34.38087
0.39364954
34.485855
0.40416833
34.5877
0.44044655
34.692217
0.45098822
34.791659
0.48946316
34.89494
0.50059658
0.5416815
34.992314
33.697346
0.24569342
33.804391
0.25181931
33.914707
0.28333365
34.029849
0.28902633
34.146748
0.32354741
34.268873
0.32886377
34.391734
0.36660179
34.520615
0.37171541
0.41306957
34.649227
33.344099
0.15250769
33.443167
0.15275151
33.546343
0.1801574
33.655852
0.17951697
33.7691
0.21029958
33.889454
0.20850978
34.013316
0.24274007
34.145262
0.23976941
0.27801876
34.280313
32.949692
0.065000053
33.039472
0.062971826
33.138381
0.081248144
33.239423
0.078475589
33.351641
0.098081162
33.465922
0.094229353
33.593243
0.11541911
33.722119
0.11089298
0.13440958
33.865728
32.612353
32.675325
32.756573
32.835049
32.93313
33.027359
33.142779
33.253672
33.388081
33.517428
-0.12934672
33.672925
-0.15549687
33.822895
-0.14997008
34.00206
-0.17916569
34.175288
-0.17322764
34.381077
-0.20578904
34.580661
-0.19958419
34.816783
-0.23612208
-0.22970456
35.046488
34.010332
-0.27395102
34.171698
-0.31686247
34.33355
-0.31182164
34.514446
-0.36006176
34.695399
-0.35418113
34.89812
-0.40851011
35.100448
-0.40191161
35.327666
-0.46334011
-0.45605743
35.554019
34.424645
-0.4182837
34.571582
-0.46379897
34.72927
-0.46950948
34.88911
-0.51990243
35.061459
-0.52653005
35.235679
-0.58273003
35.424397
-0.59062936
35.614868
-0.65381125
-0.6631816
35.821992
34.784972
-0.55402869
34.919493
-0.59831951
35.062568
-0.61258443
35.203641
-0.6609758
35.35499
-0.6778785
35.503875
-0.73161551
35.665037
-0.75179139
35.823651
-0.81242517
-0.83632408
35.996794
35.094625
-0.65633998
35.19005
-0.69374405
35.291994
-0.71452899
35.386286
-0.75526752
35.488932
-0.78052422
35.583546
-0.82622942
35.688382
-0.85662747
35.785168
-0.90921205
-0.94523291
35.894077
35.207684
-0.71832066
35.256635
-0.74269521
35.308111
-0.76600429
35.346547
-0.79370344
35.389184
-0.82316205
35.419064
-0.85610899
35.455204
-0.89276748
35.479139
-0.93314693
-0.97749
35.511396
35.112434
-0.68476683
35.066969
-0.69723103
35.015302
-0.71433726
34.954331
-0.73273245
34.887473
-0.75630416
34.813689
-0.78232498
34.734512
-0.81358965
34.650436
-0.84907109
-0.88883894
34.561785
34.792908
-0.5250675
34.625675
-0.52999781
34.438547
-0.52720868
34.246116
-0.54030164
34.034294
-0.54448208
33.818476
-0.56650768
33.583464
-0.57857737
33.345585
-0.61119208
-0.63275531
33.089501
33.074924
-0.1336542
32.662209
-0.11728332
32.275115
-0.14011424
31.860485
-0.12567154
31.472141
-0.15613871
31.047579
-0.14194572
30.651061
-0.18205855
30.206725
-0.16685688
29.793668
-0.21969774
0.67833296
29.320682
-0.20534701
0.93642586
32.831408
1.0282523
34.469958
1.0066807
35.532967
0.90558746
35.995171
0.73470213
36.167679
0.52576086
36.030933
0.27091334
35.808866
35.317401
0.71160718
28.885423
-0.27634872
0.98480294
32.558213
1.0797522
34.375009
1.0485323
35.564187
0.93339025
36.110313
0.74548684
36.355582
0.51767202
36.258748
0.26448599
36.062052
35.581887
0.77356727
28.376737
-0.26488117
1.048213
32.283567
1.1447136
34.278508
1.1208464
35.588055
1.0130795
36.21808
0.82676501
36.541897
0.59693395
36.488579
0.31110276
36.347883
35.89299
0.82152264
27.918683
-0.36346799
1.1055704
31.999519
1.2030543
34.181025
1.1683082
35.622801
1.0446239
36.341764
0.83858385
36.747937
0.58771306
36.73945
0.30459097
36.631005
36.197581
0.90445726
27.376997
-0.36277151
1.1871931
31.716783
1.2846671
34.08355
1.2534562
35.654012
1.1365028
36.458717
0.93095876
36.953481
0.67736111
36.993048
0.35680136
36.951565
36.554382
0.96984493
26.917641
-0.51048899
1.2541748
31.432453
1.3490853
33.98864
1.3049511
35.698146
1.1711316
36.592537
0.9430709
37.181542
0.66757555
37.268543
0.35119176
37.267949
36.905574
1.0715953
26.379861
-0.53381518
1.3571143
31.146934
1.4506061
33.895148
1.4061146
35.742637
1.2768301
36.721821
1.0476726
37.410699
0.76666642
37.549549
0.40713778
37.627478
37.312712
1.1595832
25.990914
-0.77063622
1.4337377
30.87278
1.5191691
33.809717
1.4598328
35.801974
1.312543
36.869111
1.0591402
37.664102
0.75829724
37.850392
0.40510014
37.980675
37.717812
1.31146
25.468383
-0.78892948
1.5666015
30.617638
1.6488695
33.727449
1.5865995
35.864244
1.4414355
37.014275
1.1816947
37.923843
0.8664675
38.16562
0.4621802
38.384962
38.179992
-0.077866031
38.257858
-0.068153914
38.37525
-0.03675657
38.134222
0.058459395
37.828627
0.18873131
36.884003
0.37546809
35.677507
0.58080895
33.522108
0.76938119
30.429066
25.62484
0.6129245
-0.11970969
38.377568
-0.15777258
38.413313
-0.14216511
38.118615
-0.057822414
37.744284
0.064408754
36.761772
0.24076654
35.501149
0.41710051
33.345774
0.56443097
30.281736
25.673747
0.51552447
-0.112218
38.489786
-0.13598178
38.437077
-0.12342558
38.106059
-0.046568357
37.667427
0.060913441
36.65429
0.22656144
35.335501
0.39900761
33.173328
0.54758192
30.133161
25.689871
0.53145728
-0.15172999
38.641516
-0.22157389
38.50692
-0.23380639
38.118291
-0.1741962
37.607817
-0.068886917
36.548981
0.090270405
35.176344
0.25003919
33.013559
0.38952747
29.993673
25.697712
0.38168659
-0.14519896
38.786715
-0.19921555
38.560937
-0.20756374
38.126639
-0.14790658
37.548159
-0.055870243
36.456945
0.094957361
35.025516
0.25376102
32.854755
0.38842551
29.859008
25.703064
0.3830737
-0.18597286
38.972688
-0.28115201
38.656116
-0.31933197
38.164819
-0.27971738
37.508545
-0.18627587
36.363503
-0.040532809
34.879773
0.11032987
32.703893
0.24294357
29.726395
25.66883
0.27717713
-0.18225657
39.154944
-0.25803174
38.731891
-0.28449443
38.191282
-0.23895252
37.463003
-0.1599589
36.28451
-0.022106327
34.74192
0.12792232
32.553864
0.25763438
29.596683
25.609209
0.31725597
-0.22303136
39.377976
-0.3310524
38.839912
-0.39546477
38.255694
-0.37266334
37.440201
-0.29030349
36.20215
-0.15620753
34.607825
-0.0086678583
32.406324
0.13570337
29.452311
25.503743
0.241169
-0.21608484
39.594061
-0.30523244
38.92906
-0.35137436
38.301836
-0.31670028
37.405527
-0.2499419
36.135391
-0.1231884
34.481071
0.025455707
32.25768
0.16721739
29.31055
25.382083
0.28887802
-0.060797909
25.223077
0.21980378
0.10045613
29.149296
0.24863489
32.109501
0.37519155
34.354514
0.449818
36.060765
0.46188236
37.393463
0.3732876
38.390431
0.25185232
39.050495
39.845913
-0.10412135
25.056475
0.27072274
0.050507001
28.994667
0.20232032
31.957688
0.32261682
34.234218
0.3745142
36.008867
0.40887454
37.359103
0.34498679
38.454319
0.24203135
39.153451
40.087944
-0.009978428
24.858844
0.20761017
0.16733008
28.817359
0.31615945
31.808859
0.43835004
34.112027
0.50318955
35.944028
0.51126278
37.351029
0.40374533
38.561836
0.27313456
39.284061
40.361079
-0.061961601
24.661029
0.25977609
0.10146686
28.65393
0.25591336
31.654412
0.37215343
33.995787
0.41436918
35.901812
0.44632964
37.319069
0.37087483
38.637291
0.25991269
39.395024
40.620992
0.023629383
24.435113
0.20228671
0.20900077
28.468559
0.35677267
31.50664
0.47655384
33.876006
0.53491822
35.843448
0.53551935
37.318468
0.41816743
38.754643
0.28514695
39.528044
40.906138
-0.041620027
24.221523
0.25520999
0.1268913
28.300047
0.28216655
31.351365
0.39666749
33.761505
0.4328339
35.807281
0.46212802
37.289174
0.37915308
38.837618
0.26739048
39.639807
41.173529
0.032286076
23.987259
0.20197741
0.22204041
28.110293
0.36831791
31.205087
0.49000458
33.639818
0.54060454
35.756682
0.53403666
37.295742
0.41356298
38.958091
0.28550907
39.767861
41.459038
-0.04496261
23.779346
0.25287633
0.12385481
27.941476
0.2783342
31.050608
0.39392381
33.524229
0.42448809
35.726117
0.45096406
37.269266
0.36725998
39.041796
0.26218744
39.872933
41.721225
0.0090412031
23.570263
0.20004194
0.20241603
27.748101
0.34815399
30.90487
0.47029144
33.402091
0.51813042
35.678278
0.50393594
37.28346
0.38823889
39.157493
0.27296014
39.988212
41.994186
-0.096395283
42.090581
-0.085132671
39.976949
-0.050331462
39.122691
0.021841656
37.211287
0.093008592
35.607111
0.20244148
33.292659
0.31970571
30.787606
0.37645196
27.691355
23.528582
0.41813247
-0.086347366
42.176928
-0.079404383
39.970006
-0.068035523
39.111323
-0.040613387
37.183865
0.051238548
35.515259
0.16837246
33.175525
0.26751894
30.688459
0.3492203
27.609653
23.514798
0.36300476
-0.031363447
42.208292
-0.0063966658
39.94504
0.056375671
39.04855
0.13576703
37.104474
0.20822045
35.442806
0.32609019
33.057655
0.46190967
30.55264
0.51748803
27.554075
23.578792
0.45349409
0.0010623241
42.207229
0.019949875
39.926152
0.062778533
39.005722
0.09782984
37.069422
0.19284468
35.347791
0.32174226
32.928757
0.44885205
30.42553
0.54029493
27.462632
23.703033
0.41605337
0.057262896
42.149967
0.11795522
39.86546
0.20043228
38.923244
0.29412846
36.975726
0.36895557
35.272964
0.49798343
32.799729
0.66471386
30.2588
0.74824901
27.379097
23.97038
0.48090192
0.092706079
42.05726
0.15918574
39.79898
0.2298671
38.852563
0.28318136
36.922412
0.38217601
35.173969
0.51442537
32.66748
0.67774448
30.09548
0.85557457
27.201267
24.378627
0.44732791
0.16049341
41.896767
0.2662807
39.693193
0.38591899
38.732925
0.49635282
36.811978
0.57621688
35.094105
0.69918093
32.544516
0.89572383
29.898938
1.1187374
26.978253
24.905271
0.59209361
0.21073127
41.686036
0.32119906
39.582725
0.43552106
38.618603
0.51113145
36.736368
0.61088637
34.99435
0.72524379
32.430159
0.88725137
29.73693
1.2728174
26.592687
25.467704
0.71038424
0.27763384
41.408402
0.4387923
39.421566
0.60561698
38.451778
0.74377235
36.598212
0.8231682
34.914955
0.92408777
32.329239
1.0970062
29.564011
1.5567299
26.132964
25.557586
1.466848
-1.7466932
43.155095
-3.4364339
41.111307
-5.0918576
40.107202
-6.5570543
38.063409
-7.7924399
36.15034
-8.7322416
33.269041
-9.1907193
30.022489
-9.2742399
26.216484
25.393202
-9.1098556
-1.74814
44.903235
-3.4814981
42.844665
-5.1737922
41.799496
-6.6578382
39.547455
-7.9410359
37.433538
-8.8498396
34.177845
-9.273223
30.445873
-9.0811996
26.024461
23.401241
-7.0892389
-1.7307145
46.63395
-3.4592984
44.573249
-5.1788851
43.519083
-6.7365917
41.105161
-8.0458897
38.742836
-8.9539031
35.085858
-9.2740339
30.766003
-8.472484
25.222911
17.143366
-2.2146092
-1.7197166
48.353666
-3.4832896
46.336822
-5.2494636
45.285257
-6.8332573
42.688955
-8.1967559
40.106334
-9.0815402
35.970642
-9.1753786
30.859842
-7.9682837
24.015816
9.5103836
-0.33530157
-1.6864833
50.040149
-3.4514684
48.101807
-5.2369535
47.070742
-6.9119638
44.363965
-8.2940484
41.488419
-9.217679
36.894273
-9.0483813
30.690544
-6.9279
21.895335
2.5935615
-0.011077645
-1.6531912
51.693341
-3.4552384
49.903854
-5.270329
48.885832
-7.001016
46.094652
-8.4353403
42.922743
-9.3225264
37.781459
-8.6455851
30.013603
-4.4353648
17.685114
-2.4285459
0.58674227
-1.6001685
53.293509
-3.4208393
51.724525
-5.2224803
50.687474
-7.0919176
47.96409
-8.5123856
44.343211
-9.2558907
38.524964
-7.7805971
28.538309
-3.0565115
12.961029
-6.0355551
0.5504981
-1.5260066
54.819516
-3.4283121
53.626831
-5.2462359
52.505397
-7.1748362
49.89269
-8.6213223
45.789697
-9.2048861
39.108528
-6.9625958
26.296019
-2.3964349
8.3948678
-8.8909851
0.4589948
-1.460944
56.28046
-3.3803648
55.546252
-5.1796705
54.304703
-7.2326814
51.945701
-8.6857188
47.242735
-8.9243057
39.347115
-5.5528125
22.924526
-1.2182585
4.0603138
-10.743907
0.63466415
0.41365384
-11.543161
0.38559928
2.8091445
1.6648231
5.4717412
20.261929
5.5308829
39.287973
4.6030276
48.17059
3.1883282
53.3604
1.9955844
55.497447
0.72933339
56.812503
57.009793
0.28554953
-12.254213
0.42550343
2.5154574
-0.5650846
5.2817876
17.495599
5.5168176
39.052943
4.5414738
49.145934
3.0571966
54.844678
1.8983488
56.656295
0.65973784
58.051114
57.669531
0.37476184
-13.076921
0.44794517
2.5188286
-2.7091515
5.0661289
14.948298
5.4808661
38.638206
4.5367577
50.090043
3.0259794
56.355456
1.821533
57.860741
0.57421548
59.298431
58.243747
0.52587411
-14.080929
0.47813466
2.6335109
-4.8167882
4.9391086
12.642701
5.4476491
38.129665
4.4498406
51.087851
2.8845004
57.920796
1.7148046
59.030437
0.50594245
60.507293
58.749689
0.56762833
-15.132324
0.48376593
2.58483
-6.83399
4.7368021
10.490729
5.3844642
37.482003
4.4244559
52.047859
2.8366216
59.50863
1.6238364
60.243222
0.42288726
61.708242
59.172576
0.55464649
-16.176093
0.48912305
2.4786205
-8.7579638
4.599964
8.3693853
5.3411153
36.740852
4.3108911
53.078084
2.6853656
61.134156
1.5105231
61.418065
0.35863975
62.860126
59.531216
0.51850518
-17.130388
0.43578882
2.2727443
-10.512203
4.3211483
6.3209811
5.2614779
35.800522
4.2649118
54.07465
2.6231635
62.775904
1.4073568
62.633871
0.27926091
63.988222
59.810477
0.4611235
-18.131681
0.54016997
2.0875135
-12.138593
4.1589501
4.2495446
5.1890061
34.770466
4.0974624
55.166193
2.4532018
64.420165
1.2836148
63.803458
0.22528763
65.046549
60.035765
0.43721879
-18.695804
0.1269038
1.9122785
-13.613653
3.9029012
2.2589218
5.0672817
33.606086
4.0620106
56.171464
2.4118985
66.070277
1.186281
65.029076
0.16300289
66.069827
60.198767
3.3818853
-21.641273
-0.43641581
4.9329165
-15.164684
5.891402
1.3004364
4.7809207
34.716567
1.9073865
59.044999
-0.30609887
68.283762
-1.2290419
65.952019
-1.548918
66.389703
58.649849
3.5824583
-25.248883
0.025150677
4.9321336
-16.514359
5.478706
0.7538639
3.9162119
36.279061
1.0804086
61.880802
-1.1584113
70.522582
-2.004571
66.798178
-2.0074134
66.392545
56.642436
3.7088488
-27.75869
-1.199041
5.3339308
-18.139441
5.6604043
0.42739045
2.8638847
39.075581
-0.34659966
65.091286
-2.2386518
72.414634
-2.5442133
67.10374
-2.1187983
65.96713
54.523638
3.7967172
-28.869066
-2.6863416
5.4111653
-19.753889
5.14222
0.69633569
1.8820055
42.335795
-1.1835786
68.15687
-2.8893504
74.120406
-3.0782205
67.29261
-2.3574157
65.246326
52.166222
3.7848642
-29.050977
-3.6029535
5.5622924
-21.531317
4.9118513
1.3467768
0.64815931
46.599487
-2.6374314
71.442461
-3.7260258
75.209001
-3.391209
66.957793
-2.2155819
64.070699
49.95064
3.6986542
-28.819056
-3.9305747
5.2357103
-23.068373
3.8698409
2.7126462
-0.30709157
50.77642
-3.2598374
74.395207
-4.0099455
75.959109
-3.665805
66.613653
-2.2784345
62.683328
47.672206
3.4807393
-28.333925
-3.9658704
4.9941995
-24.581834
3.2286004
4.4782454
-1.7981001
55.80312
-4.5205112
77.117618
-4.5532336
75.991831
-3.7848938
65.845313
-1.9574224
60.855857
45.714783
3.3373771
-28.364216
-3.3070868
4.563517
-25.807974
2.166805
6.8749574
-2.5492241
60.519149
-4.8045843
79.372978
-4.594957
75.782204
-3.8705765
65.120933
-1.9003013
58.885582
43.814482
3.2014335
-2.1570036
-29.408646
4.2962338
-26.902774
1.0740318
10.097159
-4.5238886
66.11707
-6.1342263
80.983316
-5.082307
74.730285
-3.9389628
63.977588
-1.4358818
56.382501
42.3786
-3.7711028
2.1344937
0.63020905
1.0064001
-8.015294
3.0674457
1.1767455
-12.541773
4.1737347
0.35274445
-15.425736
5.058987
-2.1750237
-14.167694
1.5923389
-2.8503814
-11.462649
-4.4446314
1.7395867
-9.2240769
-3.5714158
1.3328436
-2.0331228
-6.6014269
-0.58952718
-6.4185943
-0.36746493
-3.7321239
5.2068303
0.6597874
-7.8288564
7.1641782
-12.13955
8.4844287
-14.386203
7.3056397
-12.04642
-0.74744403
-8.37391
-8.1171416
-6.0821963
-5.8631296
0.23699646
-12.92062
-12.99448
-3.6680359
8.1808893
0.693977
-7.5312953
11.027438
-11.514077
12.46721
-13.114485
8.9060483
-10.474693
-3.3872361
-5.9666137
-12.625221
-1.4343676
-10.395376
3.7179624
-18.07295
-17.357633
-3.5641084
11.009068
0.73592983
-7.0964257
14.559755
-10.670348
16.041132
-11.425282
9.6609824
-8.2676346
-6.5448832
-3.8794077
-17.013448
1.2098402
-15.484623
6.4173772
-23.280487
-21.680455
-3.4378563
13.661595
0.78532919
-6.6565472
17.778446
-9.8987912
19.283376
-9.7755341
9.5377254
-5.5699297
-10.750488
-1.064742
-21.518636
4.5808499
-21.130215
9.5048823
-28.204519
-25.058889
-3.2637807
16.119807
0.80556915
-6.1922794
20.706944
-9.036701
22.127798
-8.1286643
8.6296887
-3.1135076
-15.765644
1.733008
-26.365151
7.3172368
-26.714444
11.749908
-32.63719
-28.280734
-3.1440588
18.437726
0.82613961
-5.7738079
23.336694
-8.0048306
24.35882
-6.094813
6.7196711
-0.29216778
-21.56829
4.5694893
-31.226808
10.178226
-32.323181
14.294033
-36.752997
-30.965131
-2.9300167
20.511133
0.85661004
-5.2356857
25.642362
-7.09349
26.216625
-4.3150342
3.9412153
2.230551
-28.113875
7.2985677
-36.294825
12.590695
-37.615308
16.03105
-40.193352
-33.391622
-2.7944798
0.92541481
22.380198
-4.8502611
27.698144
-6.0958106
27.462174
-2.2885492
0.13395387
4.7761651
-35.178589
9.7887369
-41.307397
14.727449
-42.55402
17.936819
-43.402721
-35.580931
3.3803184
29.763748
-2.3162322
-30.827834
4.3108286
26.55475
-27.485261
0.74232855
-8.7783268
12.346827
-4.8001064
-62.461164
68.003599
-5.9986311
-79.176984
80.375509
-4.9835273
-75.165966
74.150862
-3.9072592
-64.871032
63.794764
-1.4210463
-58.725088
56.238875
-43.7593
42.338254
3.5466121
29.686179
-3.4690438
4.6485117
25.452851
1.9206177
-6.0504328
-2.8416553
-57.698891
-4.8036611
-77.214978
-4.511982
-75.457645
-3.8227004
-65.560314
-1.8765436
-60.671244
-45.635844
3.6851641
30.070749
-4.0697342
5.1003584
24.037656
2.9942687
-3.944343
-2.1128073
-52.591815
-4.59289
-74.734896
-4.5044251
-75.54611
-3.745122
-66.319617
-1.9345213
-62.481845
-47.570365
3.900852
30.188168
-4.018271
5.3938643
22.544644
3.7384824
-2.2889611
-0.60305344
-48.250279
-3.3777842
-71.960165
-3.9737458
-74.950148
-3.6218938
-66.671469
-2.2502368
-63.853502
-49.820602
3.9795054
29.863024
-3.6543615
5.7263565
20.797793
4.7833365
-1.3459411
0.38097382
-43.847917
-2.8033617
-68.775829
-3.7445323
-74.008978
-3.3706006
-67.0454
-2.1919108
-65.032192
-52.012512
3.9841666
28.556752
-2.6778937
5.5861048
19.195855
5.055493
-0.8153293
1.639847
-40.432271
-1.3723453
-65.763637
-2.9424662
-72.438857
-3.0691544
-66.918712
-2.3362684
-65.765078
-54.348781
3.8839919
25.833171
-1.1604117
5.5615703
17.518276
5.6721412
-0.92590007
2.6458313
-37.405961
-0.555388
-62.562417
-2.3296231
-70.664622
-2.5660827
-66.682253
-2.1090033
-66.222157
-56.457784
3.7439455
22.054714
0.034511313
5.1646682
16.097554
5.5251528
-1.2863846
3.7440168
-35.624825
0.89134266
-59.709743
-1.2729545
-68.500324
-2.0414633
-65.913744
-2.0055712
-66.258049
-58.463355
3.5184872
18.962109
-0.42588171
5.1593141
14.456727
5.9828158
-2.1098862
4.6613577
-34.303367
1.7336766
-56.782062
-0.43061859
-66.336029
-1.2870594
-65.057303
-1.5607177
-65.984391
-60.024073
-0.71351024
56.937854
-56.224344
-1.9704251
56.861299
-55.604384
-3.1607714
55.60576
-54.415414
-4.5879997
53.605938
-52.178709
-5.5450998
48.498053
-47.540953
-5.5055383
39.540886
-39.580447
-2.8131553
19.935291
-22.627674
-0.39771244
1.1764126
-3.5918556
-11.611314
10.820603
0.39299933
-0.64363542
57.58149
-1.8713709
58.089034
-3.0268069
56.761196
-4.5204559
55.099587
-5.5262564
49.503853
-5.3049548
39.319584
-2.5559146
17.186251
-0.30650881
-1.0729932
-12.344909
0.42708591
-0.55902059
58.140511
-1.7929534
59.322967
-2.991872
57.960115
-4.5121779
56.619892
-5.4888698
50.480545
-5.1118338
38.942548
-2.616016
14.690433
-0.42410072
-3.2649084
-13.217568
0.44855815
-0.49104302
58.631554
-1.6851185
60.517043
-2.8482037
59.1232
-4.4195942
58.191283
-5.4503047
51.511256
-4.985442
38.477686
-2.7198544
12.424846
-0.57132129
-5.4134415
-14.258101
0.46921121
-0.40930953
59.040863
-1.5934559
61.701189
-2.7970593
60.326803
-4.3902943
59.784518
-5.3860907
52.507052
-4.7945558
37.886151
-2.6622603
10.29255
-0.59675678
-7.4789449
-15.328124
0.47326614
-0.3456661
59.386529
-1.4796959
62.835219
-2.6442106
61.491318
-4.2713596
61.411667
-5.3360093
53.571702
-4.6552381
37.20538
-2.5507779
8.1880903
-0.58349638
-9.4462266
-16.387771
0.47615148
-0.26797113
59.6545
-1.3766689
63.943917
-2.57925
62.693899
-4.2209479
63.053365
-5.2545105
54.605265
-4.3918325
36.342701
-2.3542261
6.150484
-0.54352202
-11.256931
-17.349455
0.41816176
-0.2149819
59.869482
-1.2530172
64.981952
-2.4082806
63.849163
-4.0473166
64.692401
-5.1759657
55.733914
-4.2264164
35.393152
-2.1672438
4.0913116
-0.48996799
-12.934207
-18.369823
0.53039918
-0.15459087
-1.1570298
-2.3651703
-4.0087985
-5.056947
-3.9671619
-1.9857365
-0.46321636
0.12906999
1.1731711
9.0009734
0.6464582
5.5326702
-7.9513547
8.9679646
-26.062969
8.716011
-39.328494
7.2290806
-46.054022
5.1587949
-50.108424
3.3585198
-52.615139
1.4445552
-53.690419
-54.779789
2.3423528
6.1750115
0.48360904
6.943328
-12.55233
9.2612897
-28.38093
8.654115
-38.721319
7.1754312
-44.575339
5.2277578
-48.16075
3.4091045
-50.796486
1.5103776
-51.791692
-53.269411
3.0205648
2.5728826
0.5815642
7.7876769
-17.319442
9.308202
-29.901455
8.5415755
-37.954693
7.0960276
-43.129791
5.2083927
-46.273115
3.4063658
-48.994459
1.5852358
-49.970562
-51.684176
4.3772818
-2.4365518
0.63215246
8.6602187
-21.602379
9.3758431
-30.61708
8.4662918
-37.045141
7.0071915
-41.67069
5.257465
-44.523389
3.4405491
-47.177543
1.6408792
-48.170892
-50.043296
6.888311
-9.3297712
0.0049085548
9.0749173
-23.788985
9.2675097
-30.809672
8.3214932
-36.099125
6.9183787
-40.267576
5.2293152
-42.834325
3.4396258
-45.387853
1.6752077
-46.406474
-48.368089
7.9552132
-16.959789
-0.32519554
9.2024021
-25.036174
9.1253278
-30.732598
8.2254541
-35.199251
6.8432974
-38.885419
5.244483
-41.235511
3.4730227
-43.616393
1.7104851
-44.643937
-46.657604
8.4573563
-23.226718
-2.1904273
9.2991842
-25.878002
8.994804
-30.428218
8.0719253
-34.276372
6.7460406
-37.559535
5.1768464
-39.666316
3.4521309
-41.891678
1.722464
-42.91427
-44.93514
9.0744712
-25.241846
-7.0593428
9.2980795
-26.10161
8.8844645
-30.014603
7.9679123
-33.35982
6.6710078
-36.26263
5.1741273
-38.169436
3.4757385
-40.193289
1.7419438
-41.180475
-43.193196
9.2700057
-25.427033
-9.0848191
9.2138911
-26.045496
8.7678187
-29.56853
7.8173416
-32.409343
6.5686219
-35.01391
5.0937345
-36.694548
3.4334459
-38.533
1.7414578
-39.488487
-41.451738
-0.097184689
42.156796
-42.059612
-0.088046028
40.041031
-40.050169
-0.05719875
39.18483
-39.215677
0.010017265
37.265619
-37.332835
0.078629088
35.641919
-35.710531
0.18631114
33.297468
-33.40515
0.30652537
30.757003
-30.877218
0.36798611
27.651346
-27.712806
23.507153
-23.551905
0.41273791
-0.087007287
42.243804
-0.082581849
40.036605
-0.074530572
39.176779
-0.051312462
37.242401
0.034187898
35.556419
0.14805398
33.183602
0.24959666
30.655461
0.3417331
27.559209
23.482155
0.36673163
-0.030568388
42.274372
-0.007399217
40.013436
0.051820336
39.117559
0.12538406
37.168837
0.19272366
35.489079
0.30652677
33.069798
0.44386567
30.518122
0.5052411
27.497834
23.541037
0.44635952
0.001911768
42.27246
0.018862186
39.996486
0.059144125
39.077277
0.088276971
37.139704
0.17541933
35.401937
0.29812683
32.947091
0.42545198
30.390797
0.528087
27.395199
23.649407
0.41971668
0.059732308
42.212728
0.11962952
39.936588
0.19885023
38.998057
0.28657392
37.051981
0.35451625
35.333994
0.47564787
32.825959
0.64085804
30.225586
0.73016543
27.305891
23.906118
0.47345439
0.095871381
42.116857
0.16161169
39.870848
0.23002564
38.929643
0.27768237
37.004324
0.36700805
35.244669
0.48868149
32.704286
0.64830271
30.065965
0.83576522
27.118429
24.293862
0.44802109
0.16508137
41.951775
0.27160018
39.764329
0.38887822
38.812365
0.49374319
36.899459
0.56490158
35.17351
0.67593882
32.593249
0.86579487
29.876109
1.0912455
26.892978
24.803235
0.58187233
0.21583283
41.735942
0.32760036
39.652562
0.44094633
38.699019
0.51187382
36.828532
0.60084994
35.084534
0.700118
32.493981
0.85235559
29.723872
1.2432719
26.502062
25.351495
0.69501207
0.2842044
0.44827907
0.61429755
0.74828065
0.81890472
0.90354219
1.0588835
1.5154497
1.4399119
0.013638704
-23.768006
0.20246176
0.2134966
-27.912664
0.36361839
-31.027339
0.48533907
-33.52687
0.52930527
-35.754497
0.51176304
-37.315293
0.39317301
-39.097087
0.27505664
-39.932053
-41.784555
-0.04005067
-23.977578
0.24962335
0.13224413
-28.084959
0.29052134
-31.185617