/*--------------------------------*- C++ -*----------------------------------*\
  =========                 |
  \\      /  F ield         | OpenFOAM: The Open Source CFD Toolbox
   \\    /   O peration     | Website:  https://openfoam.org
    \\  /    A nd           | Version:  11
     \\/     M anipulation  |
\*---------------------------------------------------------------------------*/
FoamFile
{
    format      ascii;
    class       volScalarField;
    location    "0.24";
    object      p;
}
// * * * * * * * * * * * * * * * * * * * * * * * * * * * * * * * * * * * * * //

dimensions      [0 2 -2 0 0 0 0];

internalField   nonuniform List<scalar> 
880
(
79.99999999999999
80.00000003138268
80.0015627076767
80.62720439386995
80.00000000000001
80.00000001629964
80.00294287863069
81.08841024909695
80.00000000002647
80.00000005189901
80.00723489156026
81.82668177137266
80.00000000051199
80.00000017214022
80.01920136370077
83.01479166551727
79.99999999126756
79.99999999091442
79.99999974203686
80.00003232278405
80.00000118347421
80.00001615215156
80.00033992660769
80.0002437507255
80.05167679861013
80.09495327672464
80.18316901889834
80.15279887439358
85.58066759169951
88.2967030708179
90.50999688194199
91.49125596408464
80.00008818004019
80.0005324571956
80.00115071896887
80.00511340646194
80.00464011470245
80.01346003491436
80.02988438719316
80.05349126382534
80.60611266140417
81.02230835877204
81.45330630996988
82.02334020048441
92.7153184925038
94.42582094163274
95.26926224796271
95.41355772858992
90.08588831597403
87.49499361267983
86.56394011008121
85.73383359584707
83.57884915416305
84.16436730571711
84.59967630255461
84.73871573770759
80.19822273983986
80.36655898703511
80.55504353150772
80.73770456691703
80.01871943556441
80.05030317746208
80.10052968824729
80.16524870955955
80.2216448997103
80.25196755985125
80.25357965322017
80.22534478904902
80.88028955270437
80.988369818113
81.0856128850169
81.10035010822355
84.67953586064576
84.47880884720416
84.29071784136518
84.00036308951758
85.16434043786094
84.75801619112332
84.454158444765
84.13357112762684
84.34990868742445
83.77325731433503
81.01535179590199
80.18030811894988
84.95016378592864
83.40969960846252
80.89404775581276
80.1338363288822
91.29886499223502
83.26010287538902
80.66767491233536
80.07367899001368
119.5501594981666
84.76093612475603
80.53612440815697
80.0302969713334
80.01030123956727
80.4243197367918
88.28045407707158
151.8369159980643
80.01734920862218
80.42489414647106
91.85772993901728
155.5385907287274
80.04998903271685
80.75797974730271
97.80584232799153
161.6480530835201
80.13271116046037
81.54391236604972
104.9492213673672
163.8026105767988
164.7184371876536
113.9387313288838
83.05642233625211
80.30080813316987
163.9945897154596
123.3583568977638
85.63375234289626
80.63387984018141
161.4388361773752
131.9456558200629
89.31757890276158
81.18874819613133
156.5611716449273
135.3062098399167
93.95464274016012
82.09087355878067
83.39654487226009
97.6826885791592
132.8808902364835
145.6110117542355
84.11301149877144
95.71472663319389
119.9396241533409
131.4584867788441
84.04895974068619
91.93405579784358
107.8295248604861
115.1543046129009
83.05788151955262
87.87318501085383
96.53617474452383
96.5014677765343
83.0892990937942
86.21326613235826
87.14700384644478
73.98076864933954
82.25163557210955
83.25880761209049
80.04159250483788
48.17841893521201
81.35381367679483
81.81062020054898
77.02550777080241
34.40425178850575
80.72525893914744
81.10580869110412
74.66673249129298
32.79194973001269
37.34869132808907
72.90545957815293
80.28915644425639
80.22157728945794
37.3940220684663
71.79683111090583
79.8823130919484
79.98598493556386
37.91305495972441
71.42025324583052
79.38884088282595
79.95761573220312
36.04639037225693
69.90022719811061
78.84066436998621
79.91432217465471
41.05418844132582
70.41059854350527
78.5956260722196
79.91620477890325
45.51785377474859
71.53523939056201
78.90199957141768
79.95660409182219
48.95072041415631
72.53866072758983
79.21392795238589
79.97968681695812
53.29820866177184
74.18714820978519
79.61606463501518
79.99158486553213
46.42403359642839
72.79021837673545
79.21902173081489
79.96573537566151
48.37651056278651
72.38664690195088
79.17349100681055
79.96745876798119
50.88994468771145
71.94385001963249
79.10481002073583
79.96859260082245
52.75663556989928
71.55937620901969
79.0529360997745
79.96949769440168
53.29820866172715
74.18714820975558
79.61606463506138
79.99158486535238
48.95072041413116
72.53866072752938
79.21392795231095
79.97968681680089
45.51785377468375
71.53523939049197
78.9019995713068
79.9566040916875
41.05418844130357
70.41059854339126
78.59562607219061
79.91620477887112
80.22157728951672
80.28915644425719
72.90545957807832
37.34869132789702
79.98598493555575
79.88231309194444
71.79683111081785
37.39402206832133
79.95761573227098
79.38884088286851
71.42025324560488
37.91305495960654
79.91432217471271
78.84066437013639
69.90022719797665
36.04639037223122
32.79194972982187
74.66673249121989
81.10580869102742
80.72525893915984
34.40425178835089
77.02550777076364
81.81062020053369
81.3538136767001
48.17841893509001
80.04159250484692
83.25880761213543
82.25163557201319
73.9807686493764
87.14700384640788
86.21326613220231
83.08929909376032
83.39654487222316
97.68268857983034
132.8808902370338
145.6110117543017
84.11301149870891
95.71472663308271
119.9396241535222
131.458486778938
84.04895974061584
91.93405579803172
107.8295248605158
115.1543046129385
83.05788151962312
87.8731850106952
96.53617474454104
96.50146777659788
156.5611716449053
135.3062098402183
93.95464274050987
82.09087355911862
161.438836177386
131.945655820245
89.31757890301263
81.18874819612523
163.9945897154767
123.3583568977458
85.63375234251333
80.63387984033629
164.718437187745
113.9387313290599
83.05642233665259
80.30080813315938
80.01030123958758
80.42431973674468
88.280454077003
151.8369159978634
80.01734920881565
80.42489414673943
91.85772993914044
155.5385907287298
80.04998903300329
80.7579797473071
97.80584232781244
161.6480530833913
80.13271116055319
81.54391236601424
104.9492213674384
163.8026105766706
80.03029697132014
80.07367898998271
80.13383632900326
80.18030811894832
80.53612440793682
80.66767491225353
80.89404775580508
81.01535179588966
84.76093612465985
83.26010287539533
83.4096996083484
83.77325731425039
119.5501594980353
91.29886499223163
84.95016378593581
84.3499086874219
80.22534478914406
81.10035010841301
84.0003630896321
84.13357112769543
80.25357965327932
81.08561288516132
84.29071784147804
84.45415844474594
80.25196755999292
80.988369817837
84.47880884728228
84.75801619094509
80.22164489979158
80.8802895519553
84.67953586085481
85.16434043779839
80.0187194352601
80.19822274006063
83.57884915412312
90.08588831601493
80.05030317746608
80.36655898713678
84.16436730591242
87.49499361257151
80.10052968859895
80.55504353089366
84.5996763026704
86.56394010984917
80.16524870986274
80.73770456608192
84.73871573794617
85.73383359563958
95.41355772857823
82.02334020065466
80.05349126502745
80.00511340779519
95.26926224794053
81.45330630948263
80.02988438621504
80.00115071722557
94.4258209417478
81.02230835897362
80.0134600349501
80.00053245581148
92.71531849252753
80.6061126614793
80.00464011497458
80.00008818054256
91.49125596407833
80.1527988745092
80.0002437507401
80.00003232306285
90.50999688193619
80.1831690188951
80.00033992658435
79.99999974207529
88.29670307080606
80.09495327668252
80.0000161520788
79.9999999908873
85.58066759166641
80.05167679855167
80.00000118344003
79.99999999141224
80.00000000000006
80.00000003142804
80.0015627077025
80.62720439321036
79.99999999999993
80.00000001620243
80.00294287861809
81.08841024906641
80.00000000007272
80.00000005184806
80.00723489153536
81.82668177132993
80.00000000053907
80.00000017204536
80.01920136365811
83.01479166545762
81.27518951880769
82.16700673945557
83.75509964616495
87.86197119467921
82.16700673952137
83.341909680058
86.39413329289799
93.00409835935201
83.75509964620204
86.39413329284312
91.97591712849955
100.9339073121937
87.86197119465383
93.0040983593486
100.9339073123188
111.6253195554882
123.1367945752748
113.634731244497
109.2979724989249
100.9742566243181
120.8518471174034
118.1302951593755
118.0909907618943
113.6928025125985
121.2263574602993
120.3246182245201
119.911006618623
118.1730459336273
119.5163574184116
119.1697787255926
119.0515023456564
117.9489390768633
116.0927779892546
115.4195384988552
113.3431310598651
109.9917741070758
116.7653836697866
115.4545120185478
113.3940049465699
110.3391382288864
116.9499184417868
115.6339576990985
113.5550002457978
110.683527542679
117.2489436031193
115.682608617992
113.5987625902659
108.3802624232437
84.14342344246138
73.97470574644957
73.69593031192423
74.68388643233463
76.93042009496781
71.17378973608133
72.98955889109997
74.24157010747413
70.78914663943897
71.10175423941219
73.55728461512838
74.78751870364064
61.47708715220518
68.81625776225114
72.64124925275637
73.97307273907863
75.48116911188988
76.42788838360805
77.39805308151254
78.46934791743101
75.09039726950613
76.15039084788449
77.23168788144203
78.3739231530929
75.46069891037017
76.40531098164158
77.04159370011358
78.34785821609512
74.81046822745301
75.95655470112119
77.09878145815878
78.40922042696874
79.56563735291239
86.18287207890509
121.7628757484254
162.9867721793154
79.72907839544159
89.07976491271508
129.2471759049942
157.7129308195763
79.74729708450525
90.77887984236027
133.6159037241745
153.1194810915296
79.71599539166782
92.12832268802671
138.2581589533396
154.1981398560786
209.8106201877635
197.8890465285669
193.6397548755438
191.6454707710794
210.884522642528
200.453988388075
195.2507984374799
192.5164843476038
210.7022485750076
202.3788494455789
196.3782816956798
192.3750199354921
207.0310822104335
204.3053699595724
197.9689858552818
193.0206893538131
192.3416551600268
186.0385702399209
175.7654467176097
166.2945950298113
192.7008047185099
187.5065702415707
176.6156038762911
166.8716945101982
192.9915240691211
188.4181848039987
178.3313159995614
168.6224030140754
193.2734812610238
189.3828698120917
178.8055731526566
169.1588807203237
152.2347748278499
139.242795057718
124.5259173475504
107.6233590927287
152.9495735993321
140.2316117875831
124.7877744441036
115.1301437428798
153.5759950308893
142.3226914030249
127.0284902103274
119.0043410912641
159.1068441892853
146.7321829992014
130.8650975607188
132.522874960398
64.27218515754373
15.03520700047887
3.584497909521343
3.396203222766697
49.66027228898032
9.764191220003891
3.540698164487513
3.545194358791516
34.62400457044461
6.224344597434319
3.669774315283646
4.08563745803296
19.37317371091886
3.374151824420453
3.675580307076257
4.190866150653015
6.06371929046804
9.132822622976301
12.33179562672439
16.28783273549817
6.235074596637027
9.669066437223602
13.11367113595878
17.40749388487193
6.576387233386247
9.892610263475675
13.51130672896994
18.61530996627275
6.881876628571552
10.50797179493261
15.04684179783054
20.14625680569437
24.59806823979981
29.85575127045472
32.34750442759772
34.97658306385847
23.68233753591677
29.26445881083826
32.7713666824229
36.06584114393005
22.68833839271173
28.27938456954169
32.05102775176029
36.68433532181723
20.89512422704058
26.44336809475265
30.36789201925707
38.59849175849844
32.68879880130664
31.85349797236094
32.94628157730556
32.37198617926802
27.39599534500742
26.24222883114768
29.35206640205006
29.69455584214835
23.45467222356557
22.22075397958404
25.74654324132996
26.24349737772412
17.76260146926125
19.50605459319952
22.84986182211316
24.20038477525808
25.41507529582841
26.33972186713357
26.94637212491523
27.24389331358428
26.8252286838963
27.39463169337073
27.85026971713363
28.17848725875067
29.53962876259543
29.19720452902136
29.13385210344937
29.14529028703828
30.99754398188871
29.1769780074761
28.27401522933854
27.93667987844178
27.2438933135821
28.1784872587464
29.1452902870363
27.93667987844476
26.94637212490832
27.85026971712412
29.13385210344255
28.27401522933908
26.33972186712796
27.39463169336189
29.19720452900616
29.17697800746111
25.41507529582755
26.82522868388845
29.53962876256924
30.99754398186497
32.37198617924997
32.9462815772912
31.85349797234151
32.68879880127259
29.69455584212106
29.35206640202958
26.24222883114099
27.39599534498552
26.24349737771801
25.7465432413291
22.22075397959349
23.45467222354424
24.2003847752602
22.8498618221185
19.50605459320982
17.76260146924286
38.59849175847029
30.36789201921053
26.4433680947127
20.89512422703643
36.68433532177638
32.05102775171865
28.27938456949504
22.68833839269872
36.06584114389174
32.7713666823803
29.2644588107882
23.68233753590342
34.97658306382043
32.34750442755508
29.85575127039929
24.59806823977927
16.28783273555753
12.33179562676283
9.132822622994688
6.063719290467683
17.40749388492611
13.11367113600698
9.669066437264412
6.235074596654149
18.61530996631259
13.51130672902235
9.892610263520599
6.576387233402006
20.14625680571508
15.04684179788392
10.50797179498972
6.881876628594047
3.396203222753968
3.584497909483866
15.0352070003794
64.2721851575336
3.545194358790226
3.540698164475991
9.764191219978361
49.66027228899912
4.08563745803179
3.669774315272862
6.224344597434824
34.62400457045281
4.190866150657843
3.675580307072571
3.374151824420228
19.37317371093249
107.6233590928068
124.5259173476134
139.2427950577494
152.2347748277573
115.1301437429792
124.7877744441578
140.2316117875921
152.9495735990964
119.0043410913688
127.0284902103583
142.3226914029412
153.5759950306369
132.5228749604855
130.8650975606942
146.7321829990559
159.1068441892501
166.2945950296471
175.7654467174094
186.0385702396989
192.3416551599556
166.8716945099803
176.6156038761097
187.5065702413632
192.7008047184351
168.6224030138352
178.3313159993685
188.4181848037655
192.9915240690073
169.1588807200838
178.8055731524809
189.3828698119043
193.2734812608809
191.6454707708665
193.6397548755878
197.8890465283526
209.8106201874961
192.5164843473745
195.2507984375513
200.4539883878182
210.8845226422904
192.3750199352838
196.3782816957594
202.3788494452958
210.7022485747924
193.0206893536131
197.968985855338
204.3053699592759
207.031082210248
162.9867721791838
121.7628757483621
86.18287207891744
79.56563735295445
157.71293081946
129.2471759049311
89.07976491271046
79.72907839548901
153.1194810914184
133.6159037241029
90.77887984234415
79.74729708454716
154.1981398559746
138.2581589532676
92.12832268800764
79.71599539170961
78.46934791752656
77.39805308148225
76.4278883834431
75.48116911182707
78.37392315318992
77.23168788139276
76.15039084771645
75.09039726943622
78.34785821619614
77.04159370006568
76.40531098147197
75.46069891030163
78.40922042707003
77.09878145810805
75.95655470093689
74.81046822738065
74.6838864321364
73.69593031173012
73.97470574641288
84.14342344255112
74.24157010724296
72.98955889089908
71.17378973605599
76.93042009504815
74.78751870340272
73.55728461492691
71.10175423941251
70.78914663953196
73.97307273882576
72.64124925254249
68.81625776223326
61.47708715222601
109.9917741070371
113.3431310602498
115.4195384989671
116.0927779891921
110.3391382289731
113.3940049468655
115.4545120186252
116.7653836697125
110.6835275427964
113.5550002461103
115.6339576991388
116.9499184417075
108.380262423487
113.5987625905568
115.6826086180562
117.2489436030433
117.9489390767622
118.1730459335751
113.6928025126048
100.9742566243913
119.0515023455861
119.9110066185879
118.0909907618578
109.2979724989204
119.1697787255255
120.3246182244648
118.1302951593345
113.6347312444145
119.516357418355
121.2263574602333
120.8518471173425
123.1367945751565
56.03785679227413
74.14966835859795
79.4804752681717
79.98801613255132
53.9614126472985
73.14249865311798
79.27726527108858
79.97981967738608
54.27315579770824
72.41072816282362
79.13290782572049
79.97364792313179
54.07882506893571
71.74702359794492
79.05747896784989
79.97090275021843
79.96573537563381
79.21902173087351
72.79021837670459
46.42403359645479
79.96745876798208
79.17349100682131
72.38664690193488
48.3765105627996
79.96859260088461
79.10481002066788
71.94385001960892
50.88994468766888
79.96949769442315
79.0529360997165
71.55937620898398
52.7566355698875
79.97090275015198
79.97364792308954
79.97981967738343
79.98801613246565
79.05747896775293
79.13290782565439
79.2772652710017
79.4804752681863
71.74702359795781
72.41072816283814
73.1424986531627
74.14966835861956
54.07882506893411
54.27315579768129
53.96141264726025
56.03785679222268
)
;

boundaryField
{
    back
    {
        type            empty;
    }
    inlet
    {
        type            zeroGradient;
    }
    front
    {
        type            empty;
    }
    top
    {
        type            zeroGradient;
    }
    outlet
    {
        type            fixedValue;
        value           uniform 80;
    }
    bottom
    {
        type            zeroGradient;
    }
    wall
    {
        type            zeroGradient;
    }
}


// ************************************************************************* //
