/*--------------------------------*- C++ -*----------------------------------*\
  =========                 |
  \\      /  F ield         | OpenFOAM: The Open Source CFD Toolbox
   \\    /   O peration     | Website:  https://openfoam.org
    \\  /    A nd           | Version:  11
     \\/     M anipulation  |
\*---------------------------------------------------------------------------*/
FoamFile
{
    format      ascii;
    class       surfaceScalarField;
    location    "0.14";
    object      phi;
}
// * * * * * * * * * * * * * * * * * * * * * * * * * * * * * * * * * * * * * //

dimensions      [0 3 -1 0 0 0 0];

internalField   nonuniform List<scalar> 
1652
(
2.843686947071611
0.8895636090847481
0
1.954123337988149
0.8895636090834615
-2.220446049250313e-16
1.064559728916175
0.8895636089382457
-2.606803661819868e-13
0.8895545117818748
1.928301962550449e-11
0.1749976062346452
2.843686947076741
1.779127218162428
1.954123337998014
1.779127218162188
1.064559728998139
1.779127217209285
1.779049524497037
0.175019803860372
2.843686947090741
2.668690827246526
1.954123338008367
2.668690827244562
1.064559729756911
2.66869081934542
2.668215942896486
0.1751086592760267
2.843686947092868
3.558254436328659
1.954123338013008
3.558254436324421
1.064559744283013
3.558254293973467
3.55665604750849
0.1752670657964228
4.418652025448567
2.872852967045247
5.279049614570418
2.872852967043177
6.139447203695066
2.872852967042482
2.872852967041163
6.999844792674797
4.418652025437514
2.012455377932159
5.27904961455099
2.012455377929711
6.139447203662748
2.012455377929195
2.012455377926354
6.99984479277645
4.418652212674993
1.152058894827372
5.279050846298385
1.152054205699753
6.138954968896646
1.152083252221381
1.152445077957011
6.998432661834131
4.438671104865823
0.2488722993260303
5.426779422404965
0.1092968005423648
6.462652288697121
0.04640003750934418
7.510123918451116
0.03133929353211118
6.94151274539932
0.05833191433521145
6.883176013837617
0.05833175678669789
6.824846748654907
0.05831965987324039
0.05832190747090393
6.766514860994064
6.941520492334481
0.1166450980990403
6.883232833656722
0.1165951969522563
6.824982108821444
0.1164866908640063
0.1164537508969427
6.766740627890718
6.946152173378012
0.1661888886208051
6.896907366510771
0.1615507581710894
6.849766031653497
0.1577083881104415
0.1525138395359877
6.801364162292163
7.587555898458131
0.02044089339925309
7.654966064500129
0.01432387096288362
7.710093929632888
0.01418440864665649
7.773763587675974
0.002081160528710546
7.83587929002837
0.04957169302071163
-0.1782375232258112
7.723545424502954
0.1063686593737841
-0.05575410882599174
7.611781584124887
0.08895558050390467
-0.01281702450783428
0.07082174377322714
7.51632740361475
-0.008964252427369479
6.827469900157365
0.0006111995558015781
6.887161684184742
0.002359332992010188
6.915368456247637
0.004472756382803089
0.004947523077908356
6.918071951475256
6.766990110363699
2.958198489788622e-05
6.767886228822237
9.613721824808241e-05
6.769337915347005
0.0002321074172667581
0.0003180821894289698
6.770092689160257
6.766516406288582
6.766520264931677
6.766515632645795
6.766503752227073
6.766488977043729
-0.0003048833482555136
6.766482874438928
-0.0002571406563850465
6.766491935408449
-0.0001626385752167003
-6.58297337214897e-05
6.766507372523866
6.770073223763269
-0.004498241887141652
6.769470446026197
-0.003637541614579298
6.768272992550415
-0.002465464759606739
-0.001230795819313291
6.767076429566032
6.904236182317973
-0.05270459987315096
6.878547963827327
-0.03808270622197707
6.844426614275575
-0.02713370154327377
-0.01881965399208085
6.806849615154873
7.404622562552254
-0.006350595314103535
7.282868741525321
-0.003304091748201732
7.159393644334465
-0.002691352204811148
7.038117842266156
-0.003105286189028555
0.01122484143044356
6.925224210859044
-0.0008845327531408764
0.0003290002928560964
6.777996158117574
1.297939272359994e-05
6.766581431508258
6.766515557272634
0.003422322583970461
6.83106488874421
-0.001691284257451076
3.961675401209508e-05
6.767877841783383
1.217461182090318e-06
6.766518536622518
6.76651654069298
0.0003073733280579138
6.79275982915162
-0.001528279476184558
1.187172063099595e-06
6.766870464626403
-2.198868739311521e-07
6.766516559550928
6.766516721845055
0.002139851175399499
6.874806611457646
-0.1529408969773075
1.142470544279739e-05
6.767451960400884
-3.311502151381873e-07
6.766513784209038
6.766512899740055
0.1555532294876175
6.610961000190041
0.3110749899670632
6.610986118515572
0.4552405721464087
6.618229680068006
6.963615335293537
0.1251130055833309
0.1555468586515323
6.455409747046271
0.3108848531855465
6.455487484537473
0.431400417715073
6.474574869896351
6.904273899527063
0.146492255717337
0.1555217505810279
6.299869142799365
0.3104474924380935
6.300163202524203
0.3990927716699347
6.335239342529183
6.788392440925837
0.09971237509005237
0.1554642305693849
6.144325590854016
0.3096289941579691
6.144825015658899
0.3605613025239394
6.198701815392652
6.592286203870292
0.0725906420565442
-0.3072376942250898
6.387651018206933
0.02891849793984458
-0.308151592870838
6.067625958440025
-0.1553635298793808
5.989949054267666
5.988801539251764
-0.2541277343457495
6.200676804766725
0.009303849215186122
-0.3059520070594823
5.943383611018378
-0.1551706181546635
5.835020374299122
5.833272702881875
-0.1965740263995607
5.997988305652052
-0.002333956487212463
-0.3031134779570658
5.80451226422146
-0.1550378559682802
5.680055785351117
5.67775194123418
-0.1271454318615209
5.728957905878673
0.001904347311147414
-0.2991981128770861
5.666926104192171
-0.1546542452674011
5.525639341501685
5.522283785418094
0.1981862360833412
5.323010294180563
0.381785540490788
5.326447807527934
0.160095650944537
5.461578995591144
5.418576587582086
0.03023258385258565
0.197410587902578
5.123906902138198
0.3732367734789169
5.128489363983072
0.1160187769859066
5.252046720542623
5.094074939586394
0.07154245053152231
0.1967251872000095
4.92335960972393
0.3701417914602378
4.928700815400803
0.2179048835260554
5.031499595533101
4.914069470004817
0.1857371458008775
0.1978343095085587
4.726187842273458
0.380577903808225
4.730348728726279
0.3645057446940233
4.799652041890744
4.774480444955974
0.3708025404040527
-0.340330890773229
5.061789420205591
-0.729074689241585
5.076661950213995
-1.280928617024524
5.180456337501695
4.87815256078604
-1.433229855991033
-0.3420202356915427
5.396877776807965
-0.7299568107237191
5.423671428460476
-1.051361038549398
5.46420735814401
4.343378778607328
-0.4479764153597803
-0.3386946733527709
5.731821945951341
-0.680528281573763
5.745268010313217
-0.9419805047646932
5.738805988409704
3.706551183402935
-0.05650201958964565
-0.3343851186387023
6.066733365987607
-0.6648382677936383
6.067762211468989
-0.795755262369734
5.929647391596931
3.332259042669847
-0.03777507723698584
0.3424361158333078
3.236589478139303
-0.01460184408400077
0.3389493318025784
6.002688643193512
0.1747982145478031
6.235766924089735
6.24162130251086
0.308576607655977
3.125156430802688
-0.007222946532854102
0.3358562858038301
6.06443880964245
0.1747650457241767
6.407543527226196
6.416477755387442
0.30845827044741
3.009002738647742
-0.0006169883775948778
0.336035851348194
6.166658519801709
0.174828382030511
6.581660941033647
6.591475328189307
0.2903314320174336
2.864181319268669
0.0113385267847622
0.3349714254246198
6.278566734721828
0.1748321918916864
6.756449652671336
6.76647886009666
-0.1822308660624995
3.252951684769597
0.07711811335532047
-0.01359539053904757
6.445933929546547
-0.0001394543305275331
6.762994983295881
6.766506332404
-0.1229890286961869
3.773543018746373
0.1028923063893506
-0.005470821803719161
6.604927428989742
-3.999797518283721e-05
6.765508469732001
6.766514344624815
-0.08431670825401161
4.420915495272533
0.1124300185160649
-0.002299565751767707
6.709770598577943
-1.375369393930015e-05
6.766426373340352
6.766516379091319
-0.05703057232658981
0.1135452573393048
5.037260045339456
-0.000986357422695594
6.719682174985547
-5.307087130201893e-06
6.765965213661764
6.766516436292754
1.01397279594809
-0.9491268365068328
-0.01128905385384349
-6.80611123016206e-12
1.97576876138416
-0.8683463514536154
6.005862474012247e-12
2.858124934612686
-0.8746015833727547
4.297984190770876e-11
-0.8749761687534288
-3.652012026122975e-11
1.020986202726341
-1.79286763658303
-0.01413920458295436
1.976212680636643
-1.734698588698884
2.858125820075542
-1.749160320867277
-1.749952081143729
1.015701126288367
-2.557832413901168
-0.02506255726809004
1.976363757247248
-2.606931734942194
2.85812751883441
-2.623952731338505
-2.624928703178698
1.018501272873163
-0.04336933372096
-3.270875044564184
1.977294133356901
-3.48401878867763
2.858143796164189
-3.499301216546912
-3.499913953603359
-0.05703057232629427
-4.420915495285483
0.1135452573382656
5.037260045348358
-0.0009863574343527137
-6.709770598592605
6.719682174985739
-5.307137386001415e-06
-6.766426373360382
6.765965213690647
-6.766516379139991
6.76651643639031
-0.08431670825996107
-3.773543018769564
0.1124300185183661
-0.002299565762315048
-6.604927429013824
-1.375367212719247e-05
-6.765508469758405
-6.766514344580612
-0.1229890287161094
-3.252951684765002
0.1028923063878201
-0.005470821829347106
-6.445933929531606
-3.999797985820841e-05
-6.762994983304451
-6.766506332417142
-0.182230866055175
-2.864181319255166
0.07711811335259754
-0.0135953905242403
-6.278566734709687
-0.0001394543260708758
-6.756449652656406
-6.76647886009556
-0.1747982145481052
6.241621302544729
-6.066733366041402
-0.3389493317932766
6.235766924136562
-6.067762211499247
-0.3424361158264193
6.002688643146358
-5.929647391538697
3.236589478101052
-3.332259042626779
-0.01460184408402139
-0.174765045699516
6.416477755408975
-0.3358562857835805
6.407543527275397
-0.3085766076518608
6.064438809623081
3.125156430774986
-0.007222946532162947
-0.1748283820225979
6.591475328200175
-0.3360358513275276
6.581660941045201
-0.3084582704410123
6.166658519774515
3.009002738633891
-0.0006169883769513093
-0.1748321918796303
-0.3349714253999047
-0.2903314320075732
0.01133852678319089
0.7957552623718758
-3.706551183363142
-0.03777507723728969
0.6648382678254077
-5.738805988380348
0.3343851186645895
-5.745268010359182
-5.731821945981794
0.9419805047703707
-4.343378778579213
-0.05650201958787424
0.6805282815945134
-5.464207358125854
0.3386946733593769
-5.423671428517007
-5.396877776831159
1.051361038560671
-4.878152560776861
-0.4479764153575441
0.7299568107470445
-5.18045633749902
0.3420202356960981
-5.076661950255533
-5.0617894201789
1.280928617038912
-4.774480444956292
-1.433229855994391
0.7290746892616659
-4.799652041894428
0.3403308907687547
-4.730348728720966
-4.726187842253342
0.1981862360940279
5.323010294203193
-5.522283785471259
0.3817855405236154
5.326447807520199
-5.52563934157279
0.1600956509507944
5.461578995550578
-5.666926104047608
5.41857658755995
-5.728957905813589
0.03023258385570515
0.1974105878967557
5.123906902163522
0.3732367734739048
5.128489363953258
0.1160187770005341
5.252046720499068
5.094074939576442
0.07154245053340724
0.1967251872062038
4.923359609975445
0.3701417914780604
4.928700815388442
0.217904883532269
5.031499595514277
4.914069470003765
0.1857371458017517
0.1978343095213434
0.3805779038295279
0.3645057446969666
0.3708025404037824
-0.1271454318149005
-5.997988305647292
0.001904347317915889
-0.2991981128376684
-5.804512264193793
-0.1546542452441065
-5.680055785311986
-5.677751941252589
-0.1965740264185329
-6.200676804796689
-0.002333956489082967
-0.3031134779584176
-5.943383611167826
-0.1550378559701812
-5.835020374490655
-5.833272702897455
-0.2541277343588588
-6.387651018198453
0.009303849219192251
-0.3059520070293242
-6.067625958408418
-0.1551706181347331
-5.989949054321567
-5.988801539263235
-0.3072376941833192
-6.592286203838536
0.02891849794709034
-0.3081515928624407
-6.198701815315941
-0.1553635298739194
-6.144825015655133
-6.144325590866011
0.155553229493561
6.610961000235077
-6.766512899785711
0.3110749899698451
6.610986118552263
-6.766513784191754
0.4552405721548348
6.618229680078653
-6.767451960408005
6.963615335298248
-6.87480661145872
0.1251130055784161
0.1555468586540735
6.455409747040624
0.3108848531887147
6.455487484547429
0.4314004177063294
6.47457486990147
6.90427389956844
0.146492255730911
0.155521750586591
6.299869142795636
0.3104474924479679
6.300163202518844
0.3990927716769906
6.335239342562448
6.788392440927371
0.09971237509437214
0.1554642305600967
0.309628994137944
0.3605613025217576
0.07259064205471444
-6.766516721852244
3.311541383332894e-07
-6.766516540694901
2.198871152936377e-07
-6.766515557268943
-1.217461194080727e-06
-1.297938836752888e-05
-6.766507372519829
-6.766516559567886
-1.142470621706693e-05
-6.766518536641482
-1.187172351646559e-06
-6.766581431516041
-3.961675111752161e-05
-0.0003290002901029654
-6.76707642957391
-6.766870464631354
-0.002139851175729013
-6.767877841783532
-0.0003073733260643974
-6.777996158106471
-0.003422322584859583
-0.01122484143309338
-6.806849615133846
-6.792759829143365
-0.1529408969728716
-6.831064888726423
-0.001528279475949468
-6.925224210856422
-0.001691284259357884
-7.038117842266106
-0.0008845327453968488
-6.582973948721094e-05
-6.766491935407375
-0.001230795826477005
-6.768272992543263
-0.0188196539898875
-6.844426614294357
-7.159393644346616
-0.003105286187255363
-0.0001626385755618687
-6.766482874433645
-0.002465464761226999
-6.769470446028484
-0.02713370152827971
-6.878547963830947
-7.282868741530925
-0.002691352201418473
-0.0002571406562540401
-6.766488977054268
-0.00363754161602714
-6.770073223762803
-0.03808270622573684
-6.90423618233057
-7.404622562558819
-0.003304091749102511
-0.0003048833518133343
-6.766503752223197
-0.004498241897354815
-6.77009268917684
-0.05270459986551557
-6.91807195149148
-7.516327403622479
-0.006350595312971941
-2.958199833280606e-05
6.766516406281415
-6.766514860987143
-0.0006111995728620423
6.766990110346501
-6.766740627869809
-0.04957169304237313
6.827469900062157
-6.801364162262502
7.835879290056486
-7.773763587727736
-0.1782375232262836
-9.613722248436041e-05
6.76652026493243
-0.002359332995063079
6.767886228824665
-0.1063686593857375
6.887161684142064
7.723545424522153
-0.05575410883095694
-0.000232107417440508
6.766515632643534
-0.00447275638308875
6.76933791535771
-0.08895558051507041
6.915368456254732
7.611781584139111
-0.0128170245096042
-0.0003180821954449353
-0.004947523087683536
-0.07082174377786887
-0.008964252429640496
-0.1525138395454981
-7.710093929679745
0.002081160534760707
-0.1164537509115673
-6.849766031776339
-0.05832190747024102
-6.824982108816805
-6.824846748653415
-0.1577083881368948
-7.654966064534998
0.01418440864530313
-0.1164866908795075
-6.896907366762046
-0.05831965988399623
-6.883232833644687
-6.883176013560043
-0.1615507582073921
-7.587555898440264
0.01432387097302584
-0.1165951969740309
-6.946152173568683
-0.0583317567757915
-6.941520492350982
-6.94151274539103
-0.1661888886120423
-7.510123918379565
0.02044089339709299
-0.1166450981218806
-6.998432661820981
-0.0583319143409643
-6.999844792819566
-6.999844792671376
-1.152445077885766
-6.462652288668428
0.03133929354352349
-2.012455377911112
-6.13895496872689
-2.872852967041128
-6.139447203690698
-6.139447203692145
-1.152083252243984
-5.426779422387151
0.04640003753223298
-2.012455377916429
-5.279050846287686
-2.872852967042238
-5.279049614566459
-5.279049614567315
-1.152054205699826
-4.438671104860467
0.109296800557922
-2.012455377921992
-4.418652212667761
-2.872852967044603
-4.418652025443837
-4.418652025446892
-1.15205889482487
-3.556656047388399
0.2488722992247945
-2.012455377927508
-3.558254293977194
-2.872852967046921
-3.558254436324423
-3.558254436328661
2.843686947076677
0.8895636090796828
1.954123337995112
0.889563609081564
1.064559728921994
0.8895636089396592
0.8895545117345718
0.1749976062087419
2.843686947077599
1.7791272181565
1.954123337999196
1.779127218159969
1.064559728999236
1.779127217212358
1.779049524518264
0.1750198036945745
2.843686947089469
2.668690827241873
1.95412333800662
2.668690827242819
1.064559729754938
2.66869081935551
2.668215942853059
0.1751086592233285
2.843686947088214
1.954123338006611
1.064559744275964
0.175267065949507
0.1749965762305752
0.1749965761497546
0.1749909666350158
0.1750183091564972
0.1749981388165926
0.1750911893027784
0.1752769443061838
0.1749111792856114
0.1750183093949539
0.1749909664888725
0.1750128935061543
0.1750128932597498
0.175002510793194
0.1750624398568854
0.1745169760136174
0.17557145182169
0.1750911893394238
0.1749981387824422
0.1750624397879762
0.1750025104344672
0.1750058008502868
0.1750058014784957
0.1719102126618074
0.1770507221652199
0.1752769442709553
0.1749111792114145
0.1745169759334451
0.1755714516602959
0.171910212676855
0.1770507226498269
0.1715361890622068
0.171536189276603
-0.07293537638595649
0.243120337519673
-0.1352688373574932
0.2376004996001723
-0.2014737046412888
0.2399036260373467
0.220686640697623
-0.01339451522979329
0.2552420048836506
-0.03278065148938802
0.2557653282571409
-0.06137930529776403
0.2665945962776262
0.2662535226417668
-0.006286774471721768
0.2600187016404822
-0.01911960764391296
0.2666999627644711
-0.03080920009896104
0.2763475022133641
0.2796763748958384
-0.006624264211329667
0.2642470002266393
-0.01703572048013779
0.2755670764787582
-0.02429895642562641
0.2825844412337735
0.2851646733614032
0.2877316582300153
0.01683210628280524
0.2894324815334767
0.01196829903825825
0.2918127950686925
0.01171912834351441
0.001740988496696627
0.293023240456106
0.2873307000423827
0.01092992994088271
0.2901417162846439
0.008908488786993518
0.293888826250138
0.008479192160587901
-0.004170492642470547
0.3015148699635753
0.2835425479932618
0.00216093468536227
0.289143237796833
0.003100814235487692
0.294020084701217
0.004064555744963783
-0.02967689542090485
0.321167655830048
0.2659556489361996
0.2688724853703612
0.2732055096983271
0.2469034738867977
0.2714568698264201
-0.1553373730402985
0.2453713501448598
-0.02704215121916831
0.2398000271112616
-0.003886497305684466
-0.007261805470670235
0.2421081887670704
0.2652270043905324
-0.1177573133296743
0.2470944074438843
-0.006836526790999886
0.2452609344015861
0.001047858844721361
-0.004988499070823216
0.2470736266889039
0.2712458833788128
-0.06634059391480362
0.2560455222754192
0.009285209018238927
0.2526231861225243
0.007856945001447846
0.0009402426488623328
0.2511590727948021
0.18138176543791
0.1913545217650546
0.2022274894785736
0.2076356960829905
0.2439424969993623
-0.005375913027989232
0.2440750300077863
-0.002050235157928182
0.2429221543334891
-0.0009234230161616064
-0.001689526285806764
0.2415034660620875
0.2470845469333214
-0.002404895555012276
0.2456329932806978
0.0009953710981307484
0.2436703488077155
0.001909589029321535
0.0008578586004195921
0.2424993325393713
0.2491004007810902
0.002681126202985384
0.246885196401726
0.004955606013402281
0.2450346288457904
0.005039334653069882
0.00371702992375339
0.2440425277535889
0.2135547113249393
0.2201575247634211
0.2260207010200799
0.2314219034873023
0.2407934928831288
-0.0003512742068242924
0.238396075150077
-0.0007667917431019022
0.2360655511037901
-0.001626868758568267
-0.170632360115214
0.2449895083894016
0.2417382635594774
0.0003843596638489766
0.2391159353573917
0.0005795138925290266
0.2371985420585957
-0.00290857206294709
-0.1580079448603893
0.214584494872389
0.2429502737374812
0.001877749224943825
0.2403887607234718
0.001983552313931325
0.236971156249477
-0.003394147437142669
-0.1033792380774016
0.1725699162254692
0.2344486661746856
0.2345576596158819
0.2266748838351842
0.1125629862954999
0.2671158987821319
0.09298410680745428
0.2705706568507764
0.1354427481347594
0.2749015715814469
0.0891241618754165
0.06022788231724008
0.2783139505108653
0.2431180570101492
0.05748001075608433
0.2659416009635807
0.1077471886791178
0.275246031383232
0.07613710394738782
0.04787775013294437
0.2808349583118503
0.198338800678984
0.02482507873941942
0.2400320175241742
0.05956399383585131
0.2674529998461636
0.04563657533949483
0.03039668521157346
0.2796724744561247
0.1326268794674149
0.1872007819025589
0.2289509166690232
0.2548335093292488
0.2770746846511676
0.02320156587309008
0.27951649645794
0.005637651706508318
0.2843035109325758
-0.003639706117539276
0.0001349954324014746
0.2931682648438981
0.2801985786639302
0.01878934545543076
0.2818038506711257
0.004411930888728599
0.2853387433330264
-0.002767856978059369
-0.0009396794130245301
0.2943942221599639
0.2805500106791098
0.01324610636612267
0.2832000078624385
0.003306480357371355
0.2871643686883786
-0.001290551563800424
-0.0003106881765795322
0.2955046705706342
0.262538835796336
0.2674227203162963
0.2716459297970627
0.2802979880818111
0.3072988155442987
0.02356559496350252
0.3251605262142966
0.05720525523118858
0.3597827780508657
0.156413940441011
0.3046782426466287
0.4274613483309743
0.3104419429071351
0.01517510803866684
0.3278617232395095
0.04376196210284122
0.3592195745369476
0.1296533026134929
0.2017214976838977
0.4628242548410831
0.3108161845562475
0.009441713411059149
0.3290964801631198
0.03058768493074193
0.3686992286168754
0.09174296645802849
0.04855919698831734
0.5247532784589999
0.2998471033099146
0.3366808986257251
0.4306285863264141
0.4815064977101732
0.2185471466665372
-1.218114868929775
0.0226454235567316
-0.249208754377119
0.00321151894272345
-0.03149477639195841
-0.02717971854855956
-0.0001319408616617564
0.1531230567226923
-0.9054630395004785
0.01179359976382506
-0.106244719030248
0.002007957528143885
-0.01567143875546614
-0.01531704600220749
-0.002953433112961461
0.07680899683477178
-0.4553510641848521
0.004131437733927827
-0.03192495538194298
-0.002157723329289893
-0.004280171928191676
-0.007175792207741845
-0.00306249266657393
0.02751225028722475
-0.002207635648711462
-0.001686725693105534
-0.002162112988987323
0.0015050007668097
-0.01245480041703542
0.001272420438182254
-0.004490623756958717
-0.0004716285813981848
0.002086718386654779
0.006715316192852844
0.003987412336778715
-0.00257567700144672
-0.009088611426542492
-0.003273168863651255
-0.002506763254292166
-0.003719507884896707
0.001420477806474321
0.005054630441757031
-0.004181723708214548
-0.003649502147223328
-0.004602121547614954
-0.004563438669001786
-0.0008376515361334935
-0.005501120994525923
0.000936892368234285
0.003824891782214478
-0.007832440938036329
-0.003256785205871988
-0.006426400755384214
-0.007767597524534476
-0.007919098274588983
0.04578836264319576
0.03786397530811633
0.08677953646767149
0.07133375159777126
0.1264650635037234
0.08820388903070132
0.1015894091080262
0.1598332172188434
0.02155154830745903
0.01320177775542165
0.06170765997177798
0.03887925655576374
0.1033571412709747
0.06003844781266014
0.078392946038011
0.1459546777994869
0.004391922536913943
0.001296601769055827
0.03722427678587388
0.01215843822320131
0.07899775101420298
0.03041013839565473
0.04983993304124257
0.1251791705583717
-0.008173676701529197
0.007395821555766784
0.04713163704671378
0.1092942818068415
0.1273403309351585
-0.1451159228850095
0.1895419809306377
0.1008238699209309
-0.09649394455930811
0.1382884494137199
0.07486185115179687
-0.07847944057570243
0.09558535634846427
-0.06597921814980126
0.04339182454396619
0.09196170698199042
0.1110605433342724
-0.1020050789819462
0.08355048483102731
-0.06611231338738414
0.0515341971276933
-0.05657999809700781
-0.03289006653484494
0.01827926616299778
0.09189704339018179
-0.06200851335503807
0.04912590025318522
-0.03462398100039081
0.01391486841742385
-0.02495017822139085
-0.01026323998077689
-0.007797817035866312
0.04670263451107848
0.00491323120023017
-0.01484112900598263
-0.02109829317719236
-0.01762682849400411
0.001708305925330802
-0.01134212914182205
-0.002268200316083076
-0.005642700405736445
-0.005100004504857763
-0.007072162698419593
-5.950795411990839e-14
-0.0101500283587539
0.008123829394317508
-0.007403756793367449
-0.0009896067008798182
-0.003077382857850346
-0.00704466209337099
-0.008905364168800044
2.090688733247248e-14
0.0065122140907585
0.0223745939944469
0.002171191094949114
0.007446335139688886
0.001156712921997864
-0.0006452325050837066
-0.003144303194113157
1.504490976245165e-13
0.02728580584434352
0.0160703855920184
0.007432444780163687
4.301212164214974e-13
-0.00707216269845627
0.005642700405657123
-0.008905364168800214
0.003077382857877304
-0.003144303194143074
-0.001156712921705376
-0.007432444779088804
0.01128905385352113
-0.005100004504891958
0.01134212914182986
-0.007044662093385707
0.007403756793381903
-0.0006452325050822529
-0.002171191094592823
-0.01607038559126577
0.01413920458326165
-0.002268200316112972
0.01762682849402766
-0.0009896067009085244
0.01015002835882171
0.007446335139647191
-0.006512214090383852
-0.02728580584370557
0.02506255726811046
0.001708305925298033
0.02109829317725651
0.008123829394259284
0.007797817035977015
0.02237459399433172
-0.0182792661626201
-0.04339182454343628
0.04336933372085834
-0.07486185115137516
-0.06597921814963857
0.09196170698197377
-0.1008238699204373
-0.07847944057562051
0.09558535634838704
-0.1273403309346444
-0.09649394455922145
0.1382884494135406
-0.1451159228847233
-0.1598332172185058
0.1895419809303636
-0.05153419712746446
-0.03289006653475972
-0.08355048483079588
-0.05657999809697108
-0.1110605433339688
-0.06611231338730526
-0.1020050789817661
-0.1459546777991668
-0.01391486841731526
-0.01026323998073356
-0.04912590025297029
-0.02495017822135542
-0.09189704338997598
-0.0346239810003808
-0.06200851335491726
-0.1251791705580905
0.01484112900608331
-0.004913231200091517
-0.04670263451086398
-0.1092942818065272
-0.04713163704639742
-0.04983993304112283
-0.007395821555416696
-0.03041013839555508
0.008173676701370539
-0.01215843822252961
-0.001296601768983802
0.007919098274375497
-0.07899775101401554
-0.07839294603773064
-0.03722427678499828
-0.06003844781313718
-0.004391922536576283
-0.03887925655435912
-0.01320177775474643
0.007832440937831624
-0.1033571412710105
-0.1015894091073229
-0.06170765997080567
-0.08820388903237535
-0.02155154830656686
-0.07133375159606584
-0.03786397530629511
0.004181723708012969
-0.126465063503561
-0.08677953646689636
-0.0457883626420925
-0.00398741233642164
0.0004716285809966136
0.006715316192127695
-0.001272420438052726
0.0020867183868453
-0.001505000766536327
-0.004490623756443164
-0.01245480041695963
0.0001319408617508951
0.003719507884541036
0.005054630441384989
0.003273168863729603
0.00142047780642611
0.00257567700173904
-0.002506763253859852
-0.009088611426445882
0.002953433113202711
0.005501120994295804
0.003824891782104371
0.004563438668956829
0.0009368923681717239
0.00364950214757628
-0.0008376515359317938
-0.004602121547575756
0.003062492666883902
0.007767597524279799
0.006426400755269866
0.003256785206144096
0.002162112989235512
-0.003211518943261178
-0.02717971854880288
-0.02264542355582112
-0.03149477639126241
-0.2185471466646785
-0.2492087543755346
-1.218114868931498
-0.4274613483299505
-0.002007957528147552
-0.01531704600232937
-0.01179359976343628
-0.01567143875517821
-0.1531230567214433
-0.1062447190294395
-0.905463039501697
-0.4628242548400573
0.002157723329297155
-0.007175792207732304
-0.004131437733731749
-0.004280171928084556
-0.07680899683402657
-0.03192495538169049
-0.4553510641855474
-0.5247532784590635
0.001686725693280274
0.002207635648704952
-0.02751225028700413
-0.4815064977105121
-0.3597827780511759
0.3046782426466196
-0.3251605262140837
0.1564139404374684
-0.3072988155442498
0.05720525523271158
0.02356559496646238
-0.2931682648443435
-0.359219574536092
0.2017214976826673
-0.3278617232392761
0.1296533026121257
-0.3104419429073864
0.043761962104642
0.01517510804187916
-0.2943942221608967
-0.3686992286176547
0.04855919698698141
-0.3290964801635479
0.09174296645606916
-0.3108161845566091
0.03058768493264974
0.009441713413117059
-0.2955046705716637
-0.4306285863277136
-0.3366808986290547
-0.2998471033125962
-0.2802979880843653
-0.284303510934598
0.0001349954388460972
-0.2795164964597481
-0.003639706119598629
-0.2770746846514718
0.005637651708670699
0.02320156588052558
-0.2783139505085456
-0.2853387433348038
-0.0009396794079947757
-0.2818038506734971
-0.002767856979574379
-0.2801985786654125
0.004411930890807159
0.01878934546183175
-0.2808349583103031
-0.2871643686904645
-0.0003106881734119549
-0.2832000078649978
-0.001290551564967379
-0.2805500106804764
0.003306480358902242
0.01324610637185375
-0.2796724744548835
-0.2716459297993579
-0.2674227203206425
-0.2625388357986124
-0.2548335093227416
-0.2749015715803677
0.06022788231726095
-0.2705706568526837
0.08912416188015759
-0.2671158987834795
0.1354427481498233
0.09298410680131419
-0.2449895083912297
-0.2752460313816691
0.04787775013376172
-0.2659416009646106
0.07613710395171325
-0.2431180570057433
0.1077471886887401
0.0574800107533604
-0.2145844948738135
-0.2674529998441085
0.03039668521113414
-0.2400320175233272
0.04563657534122945
-0.1983388006752275
0.05956399384091837
0.02482507873584283
-0.1725699162233458
-0.2289509166645115
-0.1872007819008174
-0.1326268794631523
-0.1125629862956569
-0.2360655511035913
-0.1706323601122587
-0.238396075149315
-0.001626868759957212
-0.2407934928851923
-0.0007667917434483473
-0.0003512742022924731
-0.2415034660634866
-0.2371985420586057
-0.1580079448579638
-0.2391159353569089
-0.002908572065247306
-0.2417382635607294
0.0005795138930946853
0.0003843596664400706
-0.2424993325409102
-0.2369711562494382
-0.1033792380721195
-0.2403887607231786
-0.003394147438747219
-0.2429502737379952
0.001983552314770654
0.001877749225971448
-0.2440425277545891
-0.2266748838337049
-0.2345576596192165
-0.2344486661766712
-0.2314219034888482
-0.2429221543341388
-0.001689526284741116
-0.2440750300082534
-0.0009234230135767851
-0.2439424969998723
-0.00205023515875058
-0.005375913027379109
-0.2421081887665939
-0.2436703488082267
0.0008578586012574774
-0.2456329932811099
0.001909589031413972
-0.2470845469334234
0.0009953710971501994
-0.002404895554599218
-0.2470736266888701
-0.2450346288459749
0.00371702992440448
-0.2468851964017985
0.005039334654556138
-0.2491004007810987
0.004955606012665092
0.002681126203118611
-0.2511590727944364