/*--------------------------------*- C++ -*----------------------------------*\
  =========                 |
  \\      /  F ield         | OpenFOAM: The Open Source CFD Toolbox
   \\    /   O peration     | Website:  https://openfoam.org
    \\  /    A nd           | Version:  11
     \\/     M anipulation  |
\*---------------------------------------------------------------------------*/
FoamFile
{
    format      ascii;
    class       surfaceScalarField;
    location    "0.28";
    object      phi;
}
// * * * * * * * * * * * * * * * * * * * * * * * * * * * * * * * * * * * * * //

dimensions      [0 3 -1 0 0 0 0];

internalField   nonuniform List<scalar> 
1652
(
1.706212168242966
0.5337381654506761
7.105427357601002e-15
1.172474003246003
0.5337381641966779
1.409317107459174e-12
0.6387443987875736
0.5336727843756071
-6.754596881819452e-13
0.529435734591275
-7.361400378158578e-11
0.1055402378199954
1.706212168246051
1.067476330896658
1.172474002825961
1.067476327960418
0.6387547984976684
1.067308281747881
1.053714588135965
0.1080344730431416
1.70621216825379
1.601214496353181
1.172474004342232
1.601214483110215
0.6387800751394612
1.600838227526113
1.574658328964811
0.1090344706926036
1.706212168264313
2.134952661766293
1.172474016787023
2.134952588729223
0.6388218814451089
2.134141112642718
2.095612844052193
0.1059868146711428
2.651191215912707
1.72371177995915
3.167429770809233
1.723711779455304
3.683668235219006
1.723711775182709
1.723712283883482
4.199904379239245
2.651190606089969
1.207473459815401
3.167429274596951
1.207472649814361
3.683658467577554
1.207473786292484
1.207492952179358
4.199854163742979
2.650292107217513
0.6904054900056917
3.166849470025097
0.6893825990391054
3.683634440558378
0.6882466875950792
0.6890562130891417
4.197161028588929
2.64482661098843
0.1201675755710178
3.263364407423157
0.04446641798895307
3.897850589256514
0.02077440320982382
4.535729726268144
0.01237368175071385
4.164901724489254
0.03500149321120116
4.129902154968992
0.03498084342962604
4.094892471495783
0.03495225130609447
0.03483562435239995
4.059846372860966
4.164992316448417
0.06976791218387673
4.130201131024283
0.06932642623829827
4.095855781092149
0.06846751673378598
0.06728174296907596
4.06157977592562
4.173516906958328
0.08643922329646375
4.15471284024445
0.07927185689313038
4.141938407151655
0.06871813991601827
0.06160010583860581
4.130362064591234
4.585414685611343
0.00674056332836287
4.628399502857139
0.006787099666585306
4.665229816707763
0.006488520665893116
4.702003373531698
0.007880408885565182
4.666802142771188
0.09803296355465074
-0.06842097022921773
4.59217957706706
0.09350720375168164
-0.01795324492034223
4.519248350493092
0.0881238491521617
-0.008374266271651193
0.08123691242427267
4.458434864640466
-0.008215244572043645
4.199165531637623
0.009746427444851047
4.254117543906469
0.01892108171765844
4.293996833012101
0.02936157181898691
0.03790950745215577
4.319754431456849
4.065823581925805
0.0006819175071045569
4.074634607364074
0.002047521030712929
4.087565132920854
0.00443191359992634
0.007854661452182166
4.103419342329909
4.059806044501485
4.060072321174216
4.060888184454623
4.062615094841412
4.065395693252817
-0.01163897706054839
4.067703168278303
-0.01493852299532727
4.068461474052139
-0.01717590557846038
-0.01801512596223986
4.068451348539433
4.120155192784658
-0.04366262792149866
4.135504937585085
-0.0466267675162802
4.148237112368419
-0.04690864936813277
-0.04405959744303195
4.159350507660958
4.332635088397947
-0.07265700442650896
4.334122184832961
-0.0626842144170579
4.331918918249569
-0.05271410459562237
-0.0453491969713497
4.32536541553685
4.405279804075911
-0.006833927198179796
4.360611182663183
-0.005433191961698974
4.341474510887188
-0.004664337867654772
4.322397488104082
-0.002855974265012051
0.03238366733154341
4.310303355502985
-0.001558531556766801
0.04082965994387139
4.314594244075665
0.01829442367387135
4.164447287315591
4.066983504771024
0.02849647323997651
4.331899407291927
-0.04778764956116566
0.03393931504416686
4.307535417830675
0.01672999803148667
4.159285883578741
4.064631013938242
0.03379534091766534
4.348429486605932
-0.1625998441485216
0.02341969138978001
4.302394693333606
0.01301490465279265
4.149093744484214
4.062051833423676
0.09164027131475855
4.110299986357047
-0.08734322487203283
0.02768096126356467
4.306867815938095
0.00952941796065343
4.139964967734566
4.056694588538007
0.08743381315174609
3.963003900487421
0.1629511089242145
4.029894785854493
0.1397099268855505
4.205764857484562
3.943103983080184
0.1536024581882762
0.08792652806315071
3.870472646020429
0.1525820591278672
3.921588122863492
0.07861305548551889
4.098208693769238
3.77584565017735
0.108611417362113
0.08484010262309688
3.779686270236808
0.1250752076234235
3.820647029324525
-0.0004853197505836349
3.972787821789808
3.606334527940707
0.05258552907766978
0.07709742566916267
3.690824052528219
0.0789317303011729
3.72934412598225
-0.07594149777019199
3.826547364084746
3.382314251401723
0.05110233458057589
0.1367541982796012
3.167711681448279
0.0164932542789944
-0.001173914564785994
3.647685736573265
-0.06029918574759696
3.645869755906005
3.60596964168628
0.1764273793555089
2.974207972612898
0.0003548595019379208
0.09605934108054459
3.463472988084164
-0.02972608907755947
3.559074529328753
3.527368412338636
0.1892802910844972
2.820658768033439
0.0008187176552096886
0.1807138824012844
3.340750589292733
0.01596073428749578
3.452383992755973
3.457702771600792
0.1576582740825146
2.715042115200506
-0.0173059992520449
0.252346665923263
3.201795857153969
0.07471483445111937
3.361478921127119
3.395835933296128
-0.1138671399297873
3.315921084685989
-0.1878188693764425
3.231398163717805
-0.08078502166567503
3.139445642256211
2.665332481849914
0.009810787223299311
-0.08594193830575347
3.225067384726822
-0.1189261704953315
3.125250862734072
-0.006381865051696134
3.070623154429989
2.649571840575289
0.05472787408334245
-0.05874554791038189
3.130267418607242
-0.04420333617384942
3.020433122149164
0.07668697384666967
2.993741257625524
2.641114830789403
0.1285780526271764
-0.01683280464463854
3.006107324883898
0.03731589062042107
2.90417093742075
0.1846468650107788
2.905034729255853
2.616133749983884
0.2486406222018527
-0.3175982681312379
3.205203329005025
-0.5788092833081859
3.137312221494141
-0.7293028441829839
3.135009205300297
2.698612537281542
-0.7623416264358466
-0.2867183057275847
3.392797774814694
-0.515121658463948
3.36302895458982
-0.6458207456468872
3.355235518427908
2.348905285227444
-0.255761485548294
-0.2611957026386194
3.57321853105032
-0.4618229269698165
3.571382611836757
-0.5350995647281256
3.538131580889719
1.949192439304662
-0.03594665165221657
-0.237495345424111
3.749757725903905
-0.433552356507429
3.772827743442231
-0.4453668814230284
3.678513999843278
1.743912923810715
-0.02082772511723526
0.2033447260229803
1.618663064564133
-0.009293659202608669
0.2055646629859791
3.756067656466146
0.1142646545758048
3.867016858175294
3.824420474955597
0.178580419178326
1.478472708245568
-0.006346443928320965
0.1890952632870511
3.810917222519539
0.09849008474201049
3.972739851720593
3.898099009353299
0.14980472690243
1.400863322968579
-0.003752052188623116
0.1722254179212272
3.870816386012778
0.08870625894707318
4.076717355814946
3.975936503543505
0.1123434949890352
1.387612389639507
-0.0005934510109563418
0.1548312293236069
3.936341857707809
0.09877694207841281
4.150128300097894
4.070664403955032
-0.2760551217850019
1.889078741374795
-0.01140334987063267
-0.1323146451401023
4.006711255783721
-0.01450152322028253
4.071617079898387
4.060202855164643
-0.2798725238558947
2.361450342126851
0.03656879287713491
-0.1037088419549673
4.01711640597571
-0.01028852427874671
4.04113542929913
4.058627385418156
-0.2383672551505958
2.700042031777262
0.08364245033784203
-0.06733930038325597
3.952239574845064
-0.005958643031167332
4.035972485349674
4.058630596444729
-0.184633138492555
0.1397962546345308
2.859172781643077
-0.05054037465538463
3.903893493836569
-0.003668721781801443
4.0383563887784
4.059228444430232
0.3506414763079007
-0.3375539115055335
-0.02120105537859757
1.655342529716108e-12
1.062498105202773
-0.3616368641995451
2.012612299040484e-12
1.70186268755955
-0.5027108572461545
8.192113654104105e-12
-0.5240658899512778
-3.276046101063912e-12
0.357555367600027
-0.6583593884098076
-0.02138968269340392
1.06082560123088
-0.7591448670457996
1.700698108056227
-1.006235511092054
-1.048055524181023
0.3694341765565136
-0.9418913943621448
-0.02033797084278831
1.057263130061465
-1.200584738614352
1.699277610571241
-1.516857146315612
-1.57208804680424
0.3898695315348343
-0.01851577036805735
-1.198243464476736
1.061154371638825
-1.717946680820457
1.698303770311935
-2.030236272652358
-2.09628960050487
-0.1846331384918984
-2.700042031774204
0.1397962546342771
2.859172781639463
-0.05054037465280692
-3.952239574849532
3.903893493839715
-0.003668721777421835
-4.035972485346539
4.038356388765807
-4.058630596445369
4.059228444424452
-0.2383672551503144
-2.361450342125672
0.08364245033798207
-0.0673393003851902
-4.017116405983691
-0.005958643035480771
-4.041135429305255
-4.05862738542167
-0.2798725238567283
-1.889078741376016
0.03656879287725456
-0.1037088419598003
-4.006711255788963
-0.0102885242822619
-4.071617079903876
-4.060202855166618
-0.2760551217842805
-1.387612389640089
-0.01140334987025968
-0.1323146451432653
-3.936341857710123
-0.01450152322434617
-4.150128300095206
-4.070664403961587
-0.1142646545693124
3.824420474969415
-3.749757725916203
-0.2055646629727778
3.867016858192856
-3.772827743467857
-0.2033447260176647
3.756067656441687
-3.678513999811629
1.618663064548752
-1.743912923789914
-0.009293659202746994
-0.09849008473482718
3.898099009364497
-0.1890952632729661
3.972739851731403
-0.1785804191728192
3.810917222505512
1.478472708236698
-0.006346443928367505
-0.08870625894100742
3.975936503552835
-0.1722254179059647
4.076717355815384
-0.149804726896921
3.870816386005592
1.400863322964754
-0.003752052188441792
-0.09877694207072013
-0.1548312293079442
-0.1123434949841424
-0.0005934510107910643
0.4453668814263844
-1.949192439290331
-0.02082772511721611
0.4335523565213486
-3.538131580870672
0.237495345430441
-3.571382611857561
-3.573218531052913
0.5350995647326197
-2.348905285217966
-0.03594665165164253
0.4618229269840733
-3.355235518418148
0.2611957026474374
-3.363028954605385
-3.392797774813786
0.6458207456550225
-2.698612537281334
-0.2557614855474649
0.5151216584788185
-3.135009205298414
0.2867183057356858
-3.137312221505296
-3.205203329003152
0.7293028441914127
-2.616133749989944
-0.762341626438737
0.5788092833214846
-2.905034729263183
0.3175982681332653
-2.904170937426305
-3.006107324881444
-0.1138671399332571
3.315921084695078
-3.395835933309606
-0.1878188693703874
3.231398163747284
-3.361478921148067
-0.08078502166240742
3.139445642245648
-3.201795857127241
2.6653324818399
-2.715042115188595
0.009810787223840434
-0.08594193830514207
3.225067384731572
-0.1189261704849094
3.125250862755316
-0.006381865046641511
3.070623154431873
2.649571840573309
0.05472787408355695
-0.05874554790676734
3.130267418613143
-0.04420333616249583
3.020433122159178
0.07668697385255319
2.993741257630726
2.641114830792642
0.128578052627511
-0.01683280463364201
0.03731589062981089
0.1846468650155859
0.2486406222029808
0.1576582740848598
-2.820658768025724
-0.01730599925054332
0.2523466659311195
-3.340750589275453
0.07471483445177562
-3.452383992768425
-3.45770277161165
0.1892802910877319
-2.974207972606037
0.0008187176551934794
0.1807138824105984
-3.463472988074439
0.01596073429134925
-3.559074529339991
-3.527368412346834
0.1764273793586482
-3.167711681441349
0.0003548595015956391
0.09605934109238534
-3.647685736574468
-0.02972608907417595
-3.645869755919735
-3.605969641689731
0.1367541982803264
-3.382314251396368
0.01649325427795023
-0.001173914558232347
-3.826547364081303
-0.06029918574273174
-3.729344125980294
-3.690824052528655
0.08743381315272991
3.963003900489002
-4.056694588539299
0.1629511089253524
4.029894785853858
-4.139964967735433
0.139709926883941
4.205764857486466
-4.306867815939615
3.943103983076101
-4.110299986359113
0.1536024581867294
0.08792652806525386
3.870472646021379
0.1525820591307829
3.921588122869215
0.07861305548626107
4.098208693777424
3.775845650180942
0.1086114173621342
0.08484010262339903
3.779686270240088
0.1250752076234175
3.820647029317779
-0.0004853197517546981
3.972787821788647
3.606334527944067
0.05258552907954961
0.07709742567145927
0.07893173029945766
-0.0759414977707723
0.05110233458077751
-4.062051833424795
-0.009529417958583419
-4.064631013938747
-0.01301490465308064
-4.066983504770216
-0.01672999803009723
-0.01829442367447209
-4.068451348538736
-4.149093744483054
-0.02768096126436564
-4.159285883579488
-0.02341969139109101
-4.164447287315827
-0.03393931504367009
-0.04082965994444043
-4.159350507664156
-4.302394693335345
-0.09164027131519376
-4.307535417831913
-0.03379534091741265
-4.314594244077312
-0.02849647323905047
-0.03238366733158288
-4.325365415541582
-4.348429486607619
-0.08734322487250884
-4.331899407291249
-0.1625998441478745
-4.310303355502174
-0.04778764956077297
-4.322397488103624
-0.001558531556558135
-0.01801512596182853
-4.068461474051563
-0.0440595974429176
-4.148237112368306
-0.04534919697014933
-4.331918918254022
-4.341474510886268
-0.002855974264975358
-0.01717590557949444
-4.067703168277574
-0.04690864936721761
-4.135504937582637
-0.05271410459453968
-4.334122184835691
-4.360611182660693
-0.004664337867625684
-0.01493852299428677
-4.065395693253068
-0.04662676751540973
-4.120155192778608
-0.06268421441670996
-4.332635088401206
-4.405279804073162
-0.00543319196267289
-0.01163897706039452
-4.062615094842114
-0.04366262792228676
-4.103419342320632
-0.0726570044262102
-4.319754431462215
-4.458434864638977
-0.006833927197974959
-0.0006819175085874818
4.05980604449842
-4.059846372853242
-0.009746427450407213
4.065823581906297
-4.061579775907809
-0.0980329635589991
4.199165531652955
-4.130362064608421
4.666802142779988
-4.70200337354383
-0.06842097022916052
-0.002047521034199806
4.060072321171819
-0.01892108171969548
4.074634607346363
-0.09350720375490285
4.254117543921779
4.592179577071865
-0.01795324492054504
-0.004431913599628579
4.060888184453368
-0.02936157182564086
4.087565132905895
-0.08812384915728899
4.293996833022395
4.519248350494573
-0.008374266272780179
-0.007854661453924106
-0.03790950745795485
-0.08123691242766201
-0.008215244572103347
-0.06160010584255687
-4.66522981671734
0.00788040888512076
-0.06728174298385509
-4.141938407159897
-0.03483562435744525
-4.095855781086609
-4.094892471491092
-0.06871813992177306
-4.628399502862814
0.006488520665569653
-0.0684675167461678
-4.15471284024302
-0.03495225131137558
-4.130201131031072
-4.129902154968657
-0.07927185689943606
-4.585414685610234
0.006787099666859864
-0.06932642624931767
-4.173516906947989
-0.03498084343018681
-4.164992316467515
-4.164901724490599
-0.08643922330154791
-4.5357297262642
0.006740563328894389
-0.06976791219616851
-4.197161028571415
-0.0350014932142203
-4.199854163772988
-4.199904379239692
-0.6890562130879647
-3.897850589254416
0.01237368175086828
-1.207492952171245
-3.683634440545399
-1.723712283888156
-3.683658467593735
-3.683668235217091
-0.6882466875930137
-3.263364407423484
0.02077440321036783
-1.207473786285024
-3.166849470017925
-1.723711775183694
-3.167429274599407
-3.167429770809313
-0.6893825990383223
-2.644826610990697
0.04446641798843398
-1.207472649807481
-2.650292107215575
-1.723711779456252
-2.651190606062601
-2.651191215917526
-0.6904054900056822
-2.095612844054811
0.1201675755673509
-1.207473459815757
-2.134141112644033
-1.723711779964184
-2.134952588727033
-2.134952661766341
1.706212168246006
0.5337381654472579
1.172474003251655
0.5337381641882075
0.6387443987901285
0.5336727843787241
0.5294357345613743
0.1055402377941789
1.70621216824658
1.067476330890868
1.172474002826068
1.067476327957721
0.6387547984976892
1.067308281750882
1.053714588140924
0.1080344730087268
1.706212168254189
1.601214496349667
1.172474004340942
1.60121448310869
0.6387800751382564
1.600838227528655
1.57465832897248
0.1090344706859198
1.706212168262841
1.172474016783136
0.6388218814417044
0.1059868146673267
0.1053001727356825
0.1053001727244528
0.1050178096834823
0.107742055897681
0.1054945840815136
0.1078670636060492
0.1035806749468454
0.1071370938227126
0.1077420559176172
0.1050178096868402
0.1074103121096061
0.1074103121058942
0.1077337510400586
0.1068076895040033
0.09984266177162243
0.1107134640662599
0.1078670636156977
0.1054945840814376
0.1068076895109459
0.1077337510409451
0.1064428033071221
0.1064428033056659
0.09661879281950499
0.109008185931916
0.1035806749518605
0.1071370938215988
0.09984266177618706
0.1107134640676262
0.09661879282314967
0.1090081859311176
0.09636414620734864
0.09636414620968704
-0.03942439319738766
0.1347982500837376
-0.06377494670440331
0.1321935423607595
-0.09113613348621141
0.1367600151559381
0.1347430096640995
-0.006544089377948703
0.1402155252675718
-0.017077049298519
0.1415241117726163
-0.02843037588761183
0.1468710562746779
0.1494068905869834
-0.002181902095902855
0.1413275412785061
-0.009148788773076233
0.1473491483304282
-0.01536975218286835
0.1519175730118016
0.1535094311690254
-0.001822750319464772
0.1421641762132809
-0.006852704270459364
0.1513793639124019
-0.01004189600221106
0.154105761710347
0.1547589709526038
0.1547768525401412
0.006088522417957987
0.1551618548005227
0.005912636468160981
0.1544603813781756
0.006979991119901385
0.006780255170399263
0.1556853668625631
0.1546076785281023
0.005006527113352754
0.1551896715640663
0.004762148898259821
0.1553026867822431
0.006677926247326216
0.003094764661674687
0.1591283587261585
0.153211153439748
0.002507275788452223
0.1548702422273876
0.002501367576885238
0.1562204077502542
0.005178545359180442
-0.009850718430708061
0.1693009059746063
0.144001359610765
0.1459556301309109
0.150994875926709
0.1411978948970339
0.1427414281257609
-0.055159344522757
0.1338770407082933
-0.008596942971229954
0.1327059433839466
-0.006404128146338173
-0.007470002107838963
0.1329387061061576
0.1465371040070862
-0.04224591951341705
0.1411200105743759
-0.002604257991316444
0.1385060381284186
-0.002942238090361149
-0.004935378343959018
0.1370274961527862
0.1528815021337978
-0.02549482710239545
0.147458196991123
0.00338777477754923
0.1440755782179856
0.001272783818824258
-0.0007108328618150583
0.1409087105229318
0.1160316104573317
0.1200084314509102
0.1221217820432129
0.122454456857849
0.1337722181634935
-0.006609235119866608
0.1348233746884382
-0.005319958749205378
0.1361151665886055
-0.004316041565993689
-0.003099553916919545
0.1379772207927624
0.1362290296323253
-0.004687344370338159
0.1360135398088769
-0.003947416345611854
0.1359959147312062
-0.002638189220137838
-0.002780680758625198
0.1371470078518624
0.1385530513866625
-0.001204437678489129
0.1369599374338974
-0.001152750214486103
0.1360521992412991
-0.0006930119096656417
-0.001475736132707239
0.1360091584850116
0.1223552743012044
0.1224014405914564
0.1229965546727161
0.1226926380280229
0.1395945157128121
-0.001796694630699203
0.1453132380171356
-0.05783907150396228
0.1398418242403491
-0.1627496964060746
-0.05914221365831768
0.1089942204394256
0.1387895762882176
-0.002392878605359666
0.1355832937797447
-0.06012464288515379
0.09708143851342881
-0.1283593854626752
-0.03701613100528717
0.07368968465956097
0.1372174427865582
-0.002797430957559216
0.1137301249612513
-0.04187645421281033
0.04089838779973243
-0.05803586489118845
-0.02585978391818405
0.0267127863592104
0.1203930916822422
0.07225057772799831
0.01241069374277862
-0.0148288514702728
0.1241058577061843
0.1376823655743614
0.1277143633808301
0.1027748217421914
0.132059865676831
0.04546703466774149
0.04274666921343739
0.1394505886410271
0.1111417457998464
0.09934685053977443
0.1257671454580051
0.08599494903529803
0.1318169637445855
0.03765237763032614
0.0334883896664212
0.1402038931883723
0.08006864632585711
0.04514162134946609
0.1146547818716609
0.04938920857008755
0.1261411834501024
0.02380855570364648
0.0213899660940523
0.137198141235702
0.02947667203690046
0.07673351805781331
0.09877633611836709
0.1191887920569316
0.1393303585872111
0.0180539310863449
0.1397351046652083
0.001792449819500885
0.1414916646355364
0.001276594433433642
-0.01562561360669179
0.1422300983418423
0.1416698790563459
0.01823329684509911
0.1422430832189063
0.003435744314147282
0.142689045145095
-0.0007566838428718636
-0.01182247004598724
0.1426507734017405
0.1424309963020091
0.01481240417447316
0.1433625134416639
0.005004631553219951
0.1431122049567368
-0.002442296117441844
-0.0071857086633621
0.1429341472362094
0.1359975152701901
0.1432576679505303
0.1465088125991607
0.1464669607074914
0.1501767748100338
0.003897007861393464
0.166134595104082
0.03944935031094143
0.1899619749446139
0.1039841515605106
0.1940290266567601
0.2454912618357376
0.1488809437039749
0.000376804369256134
0.1631686882543661
0.02542904292239223
0.1876490211557072
0.07791441840333302
0.132659425161117
0.2495677740539284
0.147885865045905
-0.001128318997427713
0.1588142072568174
0.01542216802487678
0.1862045032975245
0.04937265760917103
0.04061658305469773
0.2780634072665562
0.150556029755566
0.1669621549046832
0.2145110962770279
0.2539500784927108
0.1208895623851715
-0.6383713572123819
0.01175701900985122
-0.1478386922776129
-0.002973511040023006
-0.02047810868844265
-0.0159466496515097
-0.005901629863801963
0.08256677432851153
-0.4715342363099067
0.001853320003075623
-0.0677816054741167
-0.005888803831535931
-0.01170118144408542
-0.01044960067747722
-0.009657574798363223
0.04438697146865582
-0.2379694536500258
-0.002417920712061017
-0.021507211137693
-0.008302146692532052
-0.004691800679696623
-0.004975848504591112
-0.0117555188092944
0.0158041613117066
-0.005870777558661267
-0.009383691818310809
-0.01250650709789342
-0.006441003345326303
-0.007526258316755897
-0.007330888766397707
-0.004201693038576891
-0.008697164614615473
-0.0006209163759173797
0.001286885179673188
-0.009016227839929648
-0.01067530835351993
-0.005214736767406691
-0.01071908709645615
-0.002631814486966325
-0.01005089110501402
0.0007153337021258005
0.001481834778682058
-0.008293148897818202
-0.01273278471167621
-0.00282992004751292
-0.01218413296917695
-0.001551463721367455
-0.009700206329193006
0.0003148785291266082
0.001737248102231873
-0.007483140986406147
-0.01395186294690753
-0.01382917978292831
-0.01110995776647518
-0.006414474464674247
7.249676502070479e-05
-0.01548207407284093
0.02460811654538423
0.01781752825797066
0.05394177646907762
0.059378373756687
0.1186947510422406
0.07715201361111962
-0.00684344672206744
-0.01228156780121185
0.01131793248827218
0.004620417837914059
0.04280141981218508
0.03214372095494179
0.08969322925918119
0.07404957198398901
-0.007713301969859546
-0.007576281981954661
0.001197214116905536
0.0003236853153597563
0.02727089607090228
0.0101401576914944
0.05166700984356766
0.06640198995906593
-0.0101348169765336
-0.004851947466397187
0.009537531847836796
0.06308222676852358
0.06728344849896919
-0.03628198392387389
0.04445331234409636
0.05721184689547219
-0.03295441134995242
0.04099244421264629
0.04866175143149901
-0.03240456144063346
0.04068293223504797
-0.02806688098262421
0.03956408735881093
0.03728862437520891
0.06561738815127444
-0.02965118931328168
0.05890405839345779
-0.02861722623497306
0.05238880879787691
-0.02645013213212546
-0.01961535115607557
0.0434408998950736
0.05601692342732369
-0.02132954404441562
0.04498662225791271
-0.02037613111254747
0.03262286764409901
-0.01526146694934673
-0.007166964778637274
0.01907532819883821
0.0408128727037929
0.01931127960440274
0.003212724893482906
-0.004946478512443585
-0.0070946101556945
0.001106817908329422
-0.006390956384816036
-0.001778270223715964
-0.003760625680577674
-0.00364056003308838
-0.004618417899030343
3.912842272413286e-14
0.01131281653802059
0.007918841714244299
0.005581918032111062
0.002989353770753819
0.00186954306767298
-0.0007915072988696863
-0.00345229589669099
7.66053886991358e-14
0.03653832986202801
0.01392388051324401
0.02603133584073858
0.01243806247041565
0.01356621383038732
0.01064334601531608
0.009238300104435139
1.263086857328233e-13
0.03438472857100404
0.02523866798902223
0.01309719679683831
1.383754222317179e-13
-0.00461841789903485
0.003760625680656118
-0.003452295896696118
-0.001869543067532127
0.009238300104441228
-0.01356621383015806
-0.01309719679657062
0.02120105537860709
-0.003640560033100232
0.006390956384897374
-0.0007915072988688779
-0.005581918031973332
0.01064334601535818
-0.02603133584055051
-0.02523866798879344
0.02138968269349101
-0.001778270223723202
0.007094610155779862
0.002989353770753191
-0.01131281653787569
0.01243806247047603
-0.03653832986189755
-0.03438472857088413
0.02033797084295419
0.0011068179083304
0.0049464785125235
0.007918841714235861
-0.0190753281987027
0.01392388051325757
-0.04344089989497749
-0.03956408735878154
0.01851577036816145
-0.04866175143145225
-0.02806688098256543
0.03728862437515138
-0.05721184689538208
-0.03240456144055205
0.04068293223492821
-0.06728344849883902
-0.03295441134989997
0.04099244421253647
-0.0362819839237945
-0.07715201361095229
0.04445331234396419
-0.05238880879777456
-0.01961535115606334
-0.0589040583933339
-0.02645013213209692
-0.06561738815115351
-0.02861722623494565
-0.0296511893132393
-0.07404957198385863
-0.03262286764401041
-0.007166964778619285
-0.04498662225784568
-0.01526146694934374
-0.05601692342724528
-0.02037613111254381
-0.02132954404439784
-0.06640198995897836
-0.003212724893407688
-0.01931127960435924
-0.04081287270376865
-0.06308222676850195
-0.009537531847942281
-0.05166700984349341
0.004851947466344715
-0.01014015769157132
0.01013481697647016
-0.0003236853154001129
0.007576281981874683
0.006414474464655446
-0.02727089607093047
-0.08969322925904592
-0.001197214116955496
-0.03214372095510251
0.007713301969793005
-0.00462041783800636
0.01228156780104591
0.007483140986375644
-0.04280141981217376
-0.1186947510420299
-0.01131793248831921
-0.05937837375685542
0.00684344672198367
-0.01781752825809228
0.01548207407256304
0.00829314889780073
-0.05394177646899487
-0.02460811654539303
-7.249676512644312e-05
0.009016227839901235
0.008697164614610928
0.001286885179830249
0.007330888766448772
-0.0006209163757912202
0.006441003345401233
-0.004201693038619392
-0.007526258316842024
0.005901629863838276
0.01005089110502811
0.001481834778796431
0.01071908709650068
0.0007153337022477724
0.01067530835357644
-0.002631814486985049
-0.005214736767469925
0.009657574798411794
0.009700206329202881
0.001737248102284275
0.01218413296920803
0.0003148785292166334
0.01273278471172205
-0.001551463721382276
-0.002829920047548302
0.01175551880932879
0.01110995776647412
0.01382917978297394
0.01395186294695959
0.01250650709793053
0.002973511040101171
-0.01594664965153373
-0.01175701900933849
-0.02047810868830099
-0.1208895623843259
-0.1478386922771238
-0.638371357213789
-0.2454912618364008
0.005888803831595048
-0.01044960067750085
-0.001853320002882154
-0.01170118144406349
-0.08256677432791883
-0.06778160547401428
-0.4715342363103999
-0.2495677740542408
0.00830214669257699
-0.004975848504600613
0.002417920712160156
-0.00469180067971447
-0.04438697146842387
-0.02150721113770364
-0.2379694536501894
-0.2780634072666542
0.009383691818357116
0.005870777558710214
-0.0158041613116614
-0.2539500784927806
-0.1899619749448388
0.1940290266573765
-0.1661345951040841
0.1039841515604961
-0.1501767748103079
0.03944935031119001
0.003897007862148416
-0.1422300983425562
-0.1876490211557636
0.1326594251614979
-0.1631686882543473
0.07791441840319541
-0.1488809437040801
0.02542904292257941
0.0003768043696802392
-0.1426507734019944
-0.1862045032974164
0.0406165830548747
-0.1588142072566798
0.04937265760895743
-0.1478858650459138
0.01542216802507101
-0.001128318996884814
-0.1429341472362368
-0.2145110962767558
-0.166962154904454
-0.150556029755512
-0.1464669607074919
-0.1414916646357044
-0.01562561360552206
-0.1397351046651173
0.001276594434826972
-0.1393303585871546
0.001792449819233433
0.01805393108521158
-0.1394505886410455
-0.1426890451448021
-0.01182247004458015
-0.1422430832187609
-0.000756683839831962
-0.1416698790563498
0.003435744314103206
0.01823329684397923
-0.1402038931884304
-0.1431122049565579
-0.007185708662728052
-0.1433625134416649
-0.002442296116504705
-0.1424309963021436
0.005004631553244598
0.01481240417353058
-0.1371981412358959
-0.1465088125994216
-0.1432576679503621
-0.1359975152697417
-0.1191887920572823
-0.1320598656768532
0.04274666921363401
-0.1277143633805404
0.04546703466912205
-0.1241058577059005
0.1027748217422054
0.1376823655733331
-0.1089942204397519
-0.131816963744628
0.03348838966657608
-0.12576714545776
0.03765237763136342
-0.1111417457995851
0.08599494903523242
0.09934685053909109
-0.07368968465974744
-0.1261411834502695
0.02138996609440058
-0.1146547818714663
0.02380855570416118
-0.08006864632574091
0.04938920856997919
0.04514162134929522
-0.0267127863595476
-0.09877633611844606
-0.07673351805744161
-0.02947667203684229
0.014828851470056
-0.139841824240588
-0.05914221365889138
-0.1453132380171629
-0.1627496964055549
-0.1395945157128708
-0.05783907150347167
-0.001796694630512241
-0.1379772207928524
-0.0970814385139651
-0.03701613100546808
-0.1355832937798379
-0.1283593854625204
-0.1387895762882896
-0.06012464288463248
-0.002392878605255611
-0.13714700785188
-0.04089838780019436
-0.02585978391824673
-0.1137301249615667
-0.05803586489110618
-0.1372174427865867
-0.04187645421256547
-0.002797430957577507
-0.1360091584849689
-0.01241069374300359
-0.07225057772803281
-0.1203930916820936
-0.1226926380279811
-0.1361151665885736
-0.003099553916966341
-0.1348233746882981
-0.004316041565864598
-0.133772218163472
-0.005319958749467196
-0.006609235119693108
-0.1329387061060694
-0.1359959147310139
-0.0027806807587335
-0.1360135398087199
-0.002638189219430737
-0.136229029632219
-0.00394741634574533
-0.004687344370212565
-0.1370274961526441
-0.1360521992412772
-0.001475736132753175
-0.1369599374337669