/*--------------------------------*- C++ -*----------------------------------*\
  =========                 |
  \\      /  F ield         | OpenFOAM: The Open Source CFD Toolbox
   \\    /   O peration     | Website:  https://openfoam.org
    \\  /    A nd           | Version:  11
     \\/     M anipulation  |
\*---------------------------------------------------------------------------*/
FoamFile
{
    format      ascii;
    class       volScalarField;
    location    "0.105";
    object      p;
}
// * * * * * * * * * * * * * * * * * * * * * * * * * * * * * * * * * * * * * //

dimensions      [0 2 -2 0 0 0 0];

internalField   nonuniform List<scalar> 
880
(
80
80
80
80.00020963128965
80
80
79.99999999995053
80.00099290041729
80
79.99999999999999
80.00000000268267
80.00522307956756
80
80
80.0000000811755
80.00952544829943
80
80.00000000000001
79.99999999999994
80.00000000010324
79.99999999999999
80
79.99999999999983
80
79.99999928690507
80.00000319134276
80.02416927662357
79.95412738328562
80.84698027573323
83.34760362255076
85.40153864636423
86.30974361745764
80.00000422903167
80.00001541596876
80.00001873872704
80.00001080932176
80.00008817660434
80.00023629375735
80.00056069153865
80.00037934927938
80.05245395701452
80.10687815900474
80.17373861221189
80.17208767700077
87.33056463939697
88.63007454355569
89.98003295994441
91.48113412138795
90.6652813682981
88.28526716588684
86.41151007242857
85.12156620001289
80.29813457054297
80.56256193759128
80.71978228596909
80.62940736749104
80.00112080352136
80.0029157268979
80.00576196142872
80.00605207715384
80.00004619622324
80.00010484012884
80.00018183757379
80.00017314485781
80.00010521230941
80.00003042168657
80.00000310228592
80.00000007253482
80.00464021239155
80.00216475012964
80.00046898781756
80.00004010774904
80.48219784203924
80.27393151012416
80.08842569945249
80.01443568110315
83.84605094008643
82.62778570420991
81.48876687223559
80.56556302016786
80.10493359561312
80.00091103738804
80.00000117445308
80.00000000165643
80.00861216684218
80.00008022126764
80.00000007969788
79.99999999743787
79.99765004138753
79.99975326199778
80.00000044682824
80.00000036874506
81.7611571198523
80.00653413674439
79.99972663856022
79.99997901543827
79.99996986199434
79.99987327538133
80.05632155505663
95.31810697675806
79.99999312772277
80.00044603732825
80.29153787384415
108.3305289778496
80.00006133212131
80.00148319374289
80.57056018796906
115.1997140612575
80.00016257709203
80.00419265178598
81.0271675515705
121.7829776916814
127.6505749172615
81.39428887224967
80.00550034373239
80.00022506472767
134.6191247377814
81.97018365714885
80.00977747318024
80.00037751086957
139.2024449766956
82.2826312196284
80.01087953577215
80.0004099519458
144.5298084611383
82.93129789455762
80.01821615983359
80.00073903929419
80.00079386487175
80.02037663956121
83.60940311380921
150.2261777888692
80.0011850003323
80.030262963071
84.58982053209404
152.37038743128
80.0020838465402
80.0416767947443
84.88407649362316
144.6117838839125
79.9997669017903
80.01564592378958
82.84792767829569
122.864634409857
80.00403150097335
80.10322845523871
83.31732783629812
96.57938208263089
80.00421956102821
80.11552209792322
81.19453752362749
70.46747814999652
79.99945126189222
80.02980523276065
79.75593997163688
57.67970756755966
79.99886096861604
79.93817645817307
77.78265180315032
50.80619896749315
48.81675914764821
76.9842243662563
79.92077912486496
79.99953294355028
46.34465337943947
76.63804425630887
79.9272412948763
79.99968435106753
44.72092763540616
76.82564153545781
79.95722240664637
79.99987220685503
42.19954921445579
76.61433818038832
79.9573287949414
79.99987167444547
49.22353805607104
78.25778415000291
79.98594193628722
79.99995700352609
57.65835801907979
79.33295677506419
79.99646199401215
79.99999061675504
64.11100482726741
79.71956062116368
79.99884404402253
79.99999739094692
69.85239587465591
79.89831797173095
79.99964470071275
79.99999862312706
71.63637042800367
79.5434033688291
79.99254661383971
79.99995220742983
72.11261473267669
79.55663722234767
79.99261612644476
79.99995238083008
72.79824172148142
79.56709835600384
79.99257487933195
79.99995228819476
73.96556663000979
79.61818636562592
79.99264981386288
79.99995385405097
69.85239587449945
79.89831797132996
79.9996447001959
79.99999862377207
64.11100482685579
79.71956062071956
79.99884404263726
79.99999739099357
57.65835801882164
79.33295677541385
79.99646199396302
79.99999061690757
49.22353805628258
78.25778415101388
79.98594193630366
79.99995700317025
79.99953294381139
79.92077912602569
76.9842243668112
48.81675914753603
79.99968435153528
79.92724129538689
76.63804425674383
46.34465337968435
79.99987220608058
79.9572224076168
76.82564153518135
44.72092763554753
79.99987167468218
79.95732879515104
76.61433818158621
42.19954921416086
50.8061989667758
77.78265180226599
79.93817645718862
79.99886096881315
57.67970756662
79.75593997085829
80.02980523177075
79.99945125963194
70.46747814985766
81.19453752277066
80.11552209809157
80.00421956106716
96.57938208283325
83.31732783607625
80.1032284547172
80.00403150260814
80.0007938643497
80.02037664106885
83.60940311482922
150.2261777901822
80.00118500049386
80.0302629633068
84.58982053219218
152.3703874312886
80.00208384726375
80.04167679472027
84.88407649281247
144.6117838838304
79.99976690361065
80.01564592390909
82.84792767771658
122.8646344097083
144.5298084629952
82.93129789299167
80.01821616114668
80.00073903929004
139.2024449781085
82.28263122188937
80.01087953556863
80.00040995229062
134.6191247374301
81.9701836590724
80.00977747560144
80.00037751045303
127.6505749185588
81.39428887014299
80.00550034356911
80.00022506440135
79.99996986292041
79.99987327619091
80.05632155536624
95.31810697553672
79.99999312712647
80.00044603630249
80.29153787361027
108.3305289782616
80.00006133152786
80.00148319376784
80.57056018880141
115.1997140612345
80.00016257643001
80.00419265160278
81.02716755105754
121.7829776922396
79.99997901513188
80.00000036914862
79.99999999752258
80.00000000159243
79.99972663760438
80.00000044684586
80.00000008065615
80.00000117390411
80.0065341370228
79.99975326229134
80.0000802206503
80.00091103708591
81.76115712013093
79.99765004172082
80.0086121665453
80.10493359567418
80.00000007167077
80.00004010785308
80.01443568164642
80.56556302049808
80.0000031021206
80.00046898748423
80.08842570105196
81.48876687238882
80.00003042225096
80.00216475019063
80.27393150929277
82.6277857041611
80.00010521261024
80.0046402122573
80.48219784278027
83.84605093975154
80.00004619510705
80.00112080254438
80.29813457000989
90.66528136810393
80.0001048391472
80.00291572698723
80.56256193765148
88.28526716511811
80.00018183717873
80.0057619625611
80.71978228605606
86.41151007207894
80.0001731444938
80.00605207791047
80.62940736760315
85.1215661994511
91.48113412185619
80.17208767791411
80.00037934865672
80.00001080876707
89.98003296019832
80.17373861331569
80.00056069141094
80.00001873872269
88.63007454458244
80.10687815936116
80.00023629391346
80.00001541592059
87.33056463914951
80.05245395658824
80.0000881762342
80.00000422934801
86.30974361765686
79.95412738415155
80
80.00000000026118
85.40153864610404
80.02416927382681
80
79.99999999999999
83.34760362290194
80.00000319112628
80
79.99999999999999
80.84698027537314
79.99999928653249
80
79.99999999999989
80
79.99999999999997
80
80.00020963020822
80.00000000000003
80.00000000000001
79.99999999992316
80.00099289255215
80
80
80.0000000027465
80.00522307753458
80
80
80.00000008066777
80.00952544764594
80.00036694450357
80.00151897119821
80.00874577470063
80.19786914629081
80.00151899459287
80.00175909075698
80.006143818509
80.77496228321787
80.00874577068797
80.00614380331835
80.29467692136987
85.06688314909188
80.19786913419682
80.77496227918677
85.06688320764252
102.7016323622574
132.8537958597298
111.7482669568046
100.3502012058259
89.3038882680286
127.7831862350214
123.2205960770194
120.7194256734314
111.5716621988155
124.8479159996577
123.5859961196433
123.4168577506381
119.2251310948515
125.5485143398864
124.2362696263663
123.8530753329768
121.2166254674325
123.1560065001836
123.9292992929094
125.0949546675979
127.8041786189197
124.5103755332427
125.2794549634075
126.2938766562647
129.4009169570465
124.8701731050633
125.3375979093056
126.3277814911577
128.7895699754923
125.2256254081108
125.2153162705375
126.2029374748398
126.9963842491098
107.3250720600588
87.10002961195369
81.78026196985786
81.47437023936429
97.66227973981856
79.61350510778806
79.51719472048691
81.13920095694225
88.03646108414993
76.1813606408832
80.31178923572547
82.23430887699492
69.19267438046749
70.89853954548124
79.04460290358215
81.65009735392503
81.65975052152751
82.04417954345854
82.06323060102463
81.25149300904842
81.62534889210914
82.16747279311858
81.9872523006959
81.16997357199509
82.42738927228304
82.59261556471583
82.23406991168093
81.32406275167502
81.89067954764208
82.040402119709
81.94083888602835
80.96733811610538
80.40357809565801
80.06105887136805
79.99722209157534
103.4053658589109
80.42923844017128
80.08236439558075
79.99541931569942
116.0537616989848
80.528502110568
80.11006654008914
80.00698687300523
122.3525028057279
80.27275180740313
80.02816294743639
80.00861700359056
125.2055289402862
193.9068047048561
206.7318203131427
207.5845517475261
208.521678905632
216.7568923787111
217.1795555785638
212.7021610421548
211.2446495895526
214.9393866521048
211.2465659040309
212.9131720678824
211.7074999644888
227.4238804734531
218.3292415949841
213.8297240548014
211.9680371866936
209.8313650298455
216.0323682283166
219.5596742023605
222.6005704142551
211.2278098783882
216.5098720464671
219.5580553566014
222.300669850269
211.1241858292628
215.7326632956196
219.1908402235498
222.1031693665496
210.883263750287
215.2026096751097
218.467851240045
221.6135170168781
221.7653492662407
214.9505268823672
198.3548391988788
165.1702201132694
221.0423440202185
214.7075804208401
198.0301511897156
174.7449638667718
221.3627732885205
215.3381376360406
199.6140499126134
185.9613924521488
221.1320490277008
216.4122323986754
201.9090728827605
206.545870656464
100.7064169584487
20.94979457157873
6.449968409000595
7.986835426722687
77.53719880282532
12.26468289863832
7.141070746123951
8.074837806162506
52.13716100535735
6.997326246862886
6.2234392576222
8.496902862461019
29.07535632845898
3.557278977047183
7.156366970101512
8.739563352381998
9.798871705925826
10.6557084895911
10.79586408923734
9.32606843656642
9.527545291614928
9.801305481880167
9.279578016292856
7.939543688370684
9.757792370671536
9.594223692979533
8.805488227608695
8.396670510999588
9.678900417165895
9.01631831998362
8.265931817905741
9.640291299008327
21.2822226953695
31.14537810184061
38.46144622304042
49.34063297288969
20.95108281745733
30.15024167178172
35.69970543346081
47.43742444630895
18.8206303407076
29.47442705365271
36.72251499867131
45.78303199662399
14.45870371264086
24.14247263885684
32.73481135497265
44.48153003719811
34.85110911068909
22.41589619618157
10.14628698889671
7.404049574108624
31.6928884434084
17.81111108042131
7.756649070936504
8.079704587275453
24.56880470705334
10.98180675713681
4.080751355211654
9.215840510059113
16.59782960270876
5.07341361733931
2.408608074845132
10.965990550949
16.88786879437323
16.90994575348477
18.25041183967398
18.93323610662841
15.57067750499111
15.75625247740976
16.22589715003615
16.30834475931334
15.69673992387014
18.1705150449425
18.2617510459794
18.09706031590449
19.91748683113803
31.94148367138623
31.68319065004624
29.75222646428645
18.93323610663069
16.30834475930693
18.09706031590237
29.75222646426646
18.25041183967963
16.2258971500184
18.2617510459828
31.68319064998923
16.90994575348752
15.75625247740734
18.1705150449456
31.94148367131084
16.88786879437834
15.57067750501596
15.69673992390738
19.91748683102419
7.404049574052469
10.14628698883089
22.41589619603345
34.85110911043165
8.079704587259929
7.756649070899528
17.81111108041074
31.6928884432454
9.215840510084254
4.080751355192699
10.98180675707004
24.5688047070152
10.96599055095261
2.408608074848368
5.073413617332023
16.59782960266655
44.48153003709716
32.73481135489019
24.14247263866072
14.45870371242867
45.78303199655837
36.72251499864857
29.47442705350722
18.82063034044671
47.43742444623533
35.69970543343517
30.15024167168876
20.95108281721458
49.34063297278124
38.46144622294074
31.14537810168094
21.28222269518439
9.326068436446297
10.79586408932671
10.65570848962385
9.798871705862306
7.939543688322904
9.279578016362571
9.801305481909051
9.52754529157631
8.396670510969008
8.805488227683522
9.594223693024995
9.757792370617736
9.640291298956257
8.265931817957343
9.016318320026427
9.678900417091063
7.986835426598843
6.449968408859238
20.94979457137372
100.7064169583563
8.074837806062067
7.141070745995879
12.26468289852771
77.53719880237423
8.496902862337835
6.223439257493779
6.997326246826767
52.13716100514032
8.739563352203957
7.156366969909927
3.557278976979626
29.07535632835528
165.1702201130437
198.3548391989736
214.9505268826281
221.7653492672754
174.7449638666289
198.0301511899482
214.707580421309
221.0423440215081
185.9613924520401
199.6140499128158
215.3381376367362
221.3627732897382
206.5458706562855
201.9090728830936
216.4122323993532
221.1320490289678
222.6005704158986
219.5596742026283
216.0323682272903
209.8313650313078
222.3006698516143
219.5580553564441
216.5098720455786
211.227809879867
222.1031693675359
219.1908402232576
215.7326632950209
211.1241858310344
221.6135170178442
218.4678512396895
215.2026096744272
210.8832637525584
208.5216789084474
207.5845517453476
206.7318203139519
193.9068047036495
211.2446495934456
212.7021610392889
217.1795555796417
216.7568923774352
211.70749996835
212.9131720641953
211.246565904493
214.9393866500756
211.9680371888998
213.8297240511057
218.3292415957926
227.4238804702649
103.4053658577404
79.99722208956183
80.0610588729095
80.4035780954451
116.0537616968662
79.99541931283197
80.0823643976674
80.42923843970038
122.352502802714
80.0069868709009
80.11006654257655
80.52850210976624
125.2055289364147
80.00861700137813
80.02816295144557
80.27275180563598
81.25149300918359
82.06323060077061
82.04417954318379
81.65975052152794
81.16997357201805
81.98725230051488
82.16747279298782
81.62534889200334
81.32406275176514
82.23406991150107
82.59261556471094
82.42738927201451
80.96733811649338
81.94083888563108
82.04040211996541
81.89067954731274
81.47437023873948
81.78026196960157
87.10002961154834
107.3250720602207
81.13920095622609
79.51719472029923
79.61350510742425
97.66227973995888
82.23430887634557
80.31178923561338
76.18136064058513
88.03646108420193
81.65009735324701
79.04460290359958
70.89853954511494
69.19267438020617
127.8041786186243
125.0949546665039
123.9292992933428
123.1560065017921
129.4009169562007
126.2938766554264
125.2794549643632
124.5103755348075
128.7895699745206
126.3277814904248
125.337597910153
124.8701731063514
126.9963842485921
126.2029374745506
125.2153162716989
125.2256254086233
121.2166254673931
119.225131094786
111.571662197584
89.30388826865448
123.8530753326886
123.4168577498519
120.7194256735397
100.3502011940157
124.2362696262507
123.5859961200759
123.2205960769629
111.7482669382813
125.5485143392197
124.8479159999898
127.7831862338376
132.8537958623403
73.49984482901236
79.8676533752223
79.99898118355324
79.99999596689696
72.78400869847782
79.82539299290292
79.99826590291779
79.99999120604831
73.19833067542234
79.77884338206708
79.99710711897929
79.99998299323498
73.5114386868583
79.69639129495081
79.99433568914466
79.99996608659544
79.99995220791918
79.99254661400931
79.54340336821868
71.63637042734737
79.99995238122261
79.99261612709549
79.55663722142992
72.11261473272104
79.9999522875727
79.99257487987573
79.56709835568388
72.79824172083553
79.99995385224686
79.99264981460463
79.61818636425912
73.96556662962648
79.99996608598597
79.9999829925881
79.99999120387216
79.99999596473094
79.99433568944715
79.9971071189553
79.99826590265039
79.99898118280518
79.69639129468533
79.77884338125378
79.82539299357079
79.86765337490522
73.51143868669674
73.19833067457319
72.78400869811118
73.49984482926266
)
;

boundaryField
{
    back
    {
        type            empty;
    }
    inlet
    {
        type            zeroGradient;
    }
    front
    {
        type            empty;
    }
    top
    {
        type            zeroGradient;
    }
    outlet
    {
        type            fixedValue;
        value           uniform 80;
    }
    bottom
    {
        type            zeroGradient;
    }
    wall
    {
        type            zeroGradient;
    }
}


// ************************************************************************* //
