/*--------------------------------*- C++ -*----------------------------------*\
  =========                 |
  \\      /  F ield         | OpenFOAM: The Open Source CFD Toolbox
   \\    /   O peration     | Website:  https://openfoam.org
    \\  /    A nd           | Version:  11
     \\/     M anipulation  |
\*---------------------------------------------------------------------------*/
FoamFile
{
    format      ascii;
    class       surfaceScalarField;
    location    "1.9";
    object      phi;
}
// * * * * * * * * * * * * * * * * * * * * * * * * * * * * * * * * * * * * * //

dimensions      [0 3 -1 0 0 0 0];

internalField   nonuniform List<scalar> 
10792
(
0.07157267
-0.041837707
-0.072168136
0.042433172
0.070920072
-0.039675385
0.040327984
0.070182845
-0.03742076
0.038157987
0.069340745
-0.035071478
0.035913578
0.068532565
-0.032675784
0.033483964
0.067592371
-0.030304604
0.031244798
0.066739344
-0.0276814
0.028534427
0.065799693
-0.025332212
0.026271863
0.064949777
-0.022521775
0.023371691
0.064071907
-0.020166864
0.021044735
0.063262157
-0.017213144
0.018022894
0.062487931
-0.014795965
0.015570191
0.06175157
-0.011776535
0.012512896
0.061084995
-0.0092043035
0.0098708796
0.060433751
-0.0062761006
0.0069273449
0.059959941
-0.0034805475
0.0039543572
0.059629139
-0.00084252189
0.0011733241
0.059340479
0.002352212
-0.0020635515
0.0049594333
0.059008026
-0.0046269797
0.075900871
-0.041243164
-0.076495413
0.075201279
-0.038975793
0.074414649
-0.03663413
0.07358393
-0.034240759
0.072759189
-0.031851043
0.071833042
-0.029378457
0.07100107
-0.026849427
0.070061479
-0.024392621
0.069237523
-0.021697819
0.068339933
-0.019269274
0.067543502
-0.016416713
0.066722945
-0.013975408
0.06600792
-0.011061509
0.065352864
-0.0085492477
0.06476226
-0.0056854962
0.064319734
-0.0030380219
0.063773743
-0.00029653019
0.063569491
0.0025564641
0.0052731274
0.063255797
0.080500725
-0.040622139
-0.08112175
0.079804337
-0.038279406
0.079052747
-0.035882539
0.078290467
-0.033478479
0.077476665
-0.031037241
0.076609989
-0.028511782
0.075770872
-0.02601031
0.074849677
-0.023471426
0.073988368
-0.020836509
0.073065041
-0.018345948
0.072237379
-0.01558905
0.071397126
-0.013135154
0.070666007
-0.01033039
0.069976989
-0.0078602296
0.069381457
-0.0050899637
0.068867412
-0.002523977
0.068368941
0.00020194092
0.068069317
0.0028560887
0.0055382689
0.067804176
0.085160002
-0.040027702
-0.085754438
0.084485981
-0.037605385
0.08377892
-0.035175477
0.083021229
-0.032720788
0.082190352
-0.030206364
0.081332964
-0.027654394
0.080448597
-0.025125943
0.079527878
-0.022550707
0.078648838
-0.019957469
0.077749611
-0.017446721
0.07693856
-0.014777999
0.076142136
-0.01233873
0.075432291
-0.0096205455
0.074759726
-0.0071876643
0.074173145
-0.0045033822
0.073644665
-0.0019954964
0.073224548
0.00062205729
0.07286202
0.0032186173
0.0057815249
0.072618764
0.090541881
-0.03940418
-0.091165404
0.089877642
-0.036941145
0.089169724
-0.034467559
0.088362083
-0.031913147
0.087530002
-0.029374283
0.086643845
-0.026768237
0.085774218
-0.024256315
0.084877083
-0.021653572
0.084036895
-0.01911728
0.083163457
-0.016573282
0.082374603
-0.013989145
0.081561806
-0.011525933
0.080851215
-0.0089099534
0.080151555
-0.0064880041
0.079544886
-0.0038967132
0.07900129
-0.0014519005
0.078548695
0.0010746526
0.078215117
0.0035521957
0.0060503427
0.077946299
0.095868547
-0.038663922
-0.096608805
0.095196414
-0.036269012
0.094389365
-0.03366051
0.09361864
-0.031142422
0.092778713
-0.028534356
0.091946451
-0.025935975
0.091101991
-0.023411855
0.090232128
-0.020783709
0.089416763
-0.018301914
0.088537009
-0.015693528
0.08775658
-0.013208716
0.086915745
-0.010685098
0.086211017
-0.008205225
0.085495043
-0.00577203
0.084904811
-0.0033064807
0.084378246
-0.00092533566
0.083920597
0.001532302
0.083550458
0.0039223348
0.0063119178
0.083288884
0.10200162
-0.037895942
-0.1027696
0.10134384
-0.035611231
0.10054601
-0.032862679
0.099852465
-0.030448879
0.098996759
-0.027678649
0.098251146
-0.025190361
0.097358649
-0.022519359
0.096532999
-0.019958059
0.095656222
-0.017425137
0.094792924
-0.014830231
0.093980912
-0.012396703
0.093144577
-0.0098487634
0.092443389
-0.0075040365
0.091715374
-0.0050440151
0.091151827
-0.0027429332
0.090572467
-0.00034597557
0.090155527
0.0019492421
0.089753812
0.0043240504
0.0065694928
0.089496237
0.10813093
-0.03719579
-0.10883109
0.10741846
-0.034898754
0.106655
-0.032099217
0.10588781
-0.029681692
0.10505425
-0.026845095
0.1042959
-0.024432011
0.10337539
-0.021598844
0.10258424
-0.019166904
0.10163046
-0.016471359
0.10083593
-0.014035699
0.099958499
-0.011519276
0.099193946
-0.00908421
0.098447543
-0.0067576335
0.097770641
-0.0043671127
0.097178388
-0.0021506803
0.096643543
0.00018887026
0.09621834
0.0023744452
0.09586938
0.0046730103
0.0068170829
0.095621791
0.1152477
-0.036416247
-0.11602724
0.1144743
-0.034125356
0.11363638
-0.031261292
0.11283607
-0.028881381
0.11201282
-0.026021845
0.11117377
-0.023592963
0.11031505
-0.020740125
0.10953875
-0.018390605
0.10867852
-0.015611125
0.10794045
-0.013297624
0.10707658
-0.010655411
0.10638545
-0.0083930836
0.1055847
-0.0059568798
0.10496557
-0.0037479806
0.10431088
-0.00149599
0.10381381
0.00068594277
0.10334916
0.0028390914
0.10301969
0.0050024848
0.0070772697
0.1027595
0.12227612
-0.035604452
-0.12308792
0.12147564
-0.033324877
0.12063288
-0.030418526
0.11985676
-0.028105267
0.11899128
-0.02515636
0.11818194
-0.02278362
0.11731667
-0.019874856
0.11645599
-0.017529925
0.11557986
-0.014735001
0.11479328
-0.012511038
0.11396813
-0.0098302683
0.11327439
-0.0076993365
0.11251256
-0.0051950525
0.11192181
-0.0031572268
0.1112713
-0.00084547979
0.11081014
0.0011471019
0.11034291
0.0033063177
0.11005156
0.0052938399
0.0073133729
0.10981545
0.13031094
-0.034767527
-0.13114786
0.12945604
-0.03246998
0.12864829
-0.029610778
0.12781168
-0.027268658
0.1269891
-0.024333772
0.12617932
-0.021973846
0.12536277
-0.019058307
0.12456446
-0.016731607
0.12373915
-0.013909693
0.12291122
-0.011683114
0.12207995
-0.0089989971
0.12134065
-0.0069600331
0.12061582
-0.0044702172
0.12000716
-0.0025485669
0.11942208
-0.00026040661
0.11895015
0.0016190298
0.11848778
0.0037686935
0.11819099
0.0055906283
0.0075891731
0.11791519
0.13857575
-0.033874219
-0.13946906
0.13765286
-0.031547085
0.13675854
-0.028716464
0.13585845
-0.026368569
0.13500007
-0.023475386
0.13411907
-0.021092847
0.1332834
-0.018222639
0.1324514
-0.01589961
0.13165366
-0.013111944
0.13086053
-0.010889986
0.13008792
-0.0082263841
0.12933832
-0.0062104396
0.12862073
-0.0037526277
0.12799694
-0.0019247709
0.12740001
0.00033652435
0.12695444
0.0020645946
0.12653478
0.004188353
0.12627297
0.0058524455
0.0078307012
0.12603144
0.1476095
-0.03288508
-0.14859864
0.14667529
-0.030612875
0.14575582
-0.027796991
0.14487382
-0.025486569
0.14401907
-0.022620638
0.14319205
-0.020265824
0.14237679
-0.01740738
0.14156702
-0.015089839
0.1407935
-0.012338422
0.14002487
-0.01012136
0.13932752
-0.0075290272
0.13859856
-0.0054814857
0.13796855
-0.0031226141
0.13733395
-0.0012901728
0.13678863
0.00088184262
0.13628752
0.0025657093
0.13591586
0.0045600165
0.13560915
0.006159147
0.0080373023
0.13540255
0.15737675
-0.031807818
-0.15845401
0.15630985
-0.029545977
0.15530752
-0.026794658
0.15433039
-0.024509443
0.15342467
-0.021714915
0.15254951
-0.019390663
0.15172907
-0.016586942
0.15088098
-0.014241751
0.15008627
-0.011543715
0.14927146
-0.0093065481
0.14856371
-0.0068212742
0.14783305
-0.0047508296
0.14725154
-0.0025410958
0.14661522
-0.00065385479
0.14615442
0.0013426447
0.14565665
0.0030634753
0.14539338
0.0048232903
0.14507577
0.0064767552
0.0080897025
0.14502337
0.16770602
-0.030678142
-0.16883569
0.16659414
-0.028434097
0.16557473
-0.025775249
0.16455983
-0.023494541
0.16362827
-0.020783356
0.16276029
-0.018522686
0.16198289
-0.01580954
0.16122547
-0.013484335
0.16050849
-0.010826731
0.15976264
-0.0085606944
0.15909572
-0.0061543594
0.15842065
-0.0040757545
0.15781852
-0.0019389657
0.15726234
-9.7678828e-05
0.15677419
0.0018308008
0.15632661
0.0035110519
0.15600831
0.0051415918
0.15574398
0.0067410847
0.0081648822
0.1556688
0.17904117
-0.029467065
-0.18025224
0.17781331
-0.027206239
0.17674121
-0.02470315
0.17562314
-0.022376466
0.17460585
-0.019766071
0.17359555
-0.017512384
0.17270569
-0.014919683
0.17185729
-0.012635934
0.17109503
-0.010064466
0.17036261
-0.0078282734
0.16970298
-0.005494738
0.16908781
-0.0034605792
0.16853239
-0.0013835418
0.16802228
0.00041242331
0.1676095
0.0022435867
0.16726218
0.0038583658
0.16699137
0.005412409
0.16684752
0.006884931
0.0082489629
0.16676344
0.19085365
-0.0281121
-0.19220861
0.18948633
-0.025838925
0.18839089
-0.023607709
0.18727773
-0.0212633
0.18638458
-0.018872924
0.18544634
-0.016574144
0.18464601
-0.014119352
0.18382975
-0.011819673
0.18311058
-0.0093452938
0.18242867
-0.0071463676
0.18179981
-0.0048658778
0.18121979
-0.0028805609
0.18067426
-0.00083801212
0.18016614
0.00092054411
0.17974555
0.0026641767
0.17940419
0.0041997253
0.17915851
0.0056580964
0.17902885
0.0070145849
0.0082850609
0.17899276
0.20441773
-0.026575568
-0.20595426
0.20286215
-0.024283339
0.20148458
-0.022230139
0.20010243
-0.019881155
0.19900947
-0.017779959
0.19789181
-0.015456485
0.1970165
-0.013244042
0.19611564
-0.01091882
0.19542971
-0.0086593571
0.19475462
-0.0064712798
0.19421712
-0.0043283736
0.19370114
-0.0023645858
0.19327063
-0.00040749861
0.19287835
0.0013128265
0.19256979
0.002972736
0.19232958
0.0044399349
0.19217345
0.0058142199
0.19212725
0.0070607911
0.0082483163
0.19216399
0.21817445
-0.024815217
-0.2199348
0.21665474
-0.022763632
0.21532135
-0.020896754
0.21400057
-0.018560368
0.21288458
-0.016663972
0.21173483
-0.014306738
0.21083033
-0.012339535
0.20987938
-0.0099678783
0.20917716
-0.0079571358
0.20846046
-0.0057545756
0.20796141
-0.0038293271
0.20742561
-0.0018287787
0.20706572
-4.7613498e-05
0.20667792
0.0017006237
0.20644667
0.0032039887
0.20626009
0.0046265169
0.20621225
0.0058620581
0.20624078
0.0070322608
0.0081211879
0.20636791
0.23375768
-0.022514826
-0.23605808
0.23176127
-0.020767215
0.23002863
-0.019164117
0.22852164
-0.017053376
0.22718994
-0.015332274
0.22594122
-0.013058018
0.22488069
-0.011279001
0.22390215
-0.0089893437
0.223213
-0.0072679785
0.22252368
-0.0050652601
0.22207188
-0.0033775261
0.22164446
-0.0014013628
0.22139746
0.00019939022
0.22114062
0.0019574642
0.22106768
0.003276929
0.2209951
0.0046990931
0.22115081
0.0057063534
0.2213333
0.0068497734
0.0077586382
0.22169585
0.25075381
-0.020195589
-0.25307304
0.24863309
-0.018646495
0.24673636
-0.017267393
0.24514474
-0.015461756
0.24374458
-0.013932108
0.2424922
-0.011805643
0.24133405
-0.01012085
0.24032876
-0.0079840557
0.23946507
-0.0064042872
0.23876371
-0.004363898
0.23823439
-0.0028482087
0.23781229
-0.00097926035
0.23750933
0.00050235247
0.23729917
0.0021676242
0.23725642
0.0033196744
0.23724873
0.0047067895
0.23743712
0.0055179635
0.23763428
0.0066526056
0.0073307938
0.23806213
0.26838168
-0.017598765
-0.2709785
0.26594403
-0.016208848
0.26374473
-0.015068089
0.26177792
-0.013494946
0.26006745
-0.012221643
0.25869732
-0.010435509
0.2575096
-0.0089331311
0.25653458
-0.0070090376
0.25563018
-0.0054998787
0.2550369
-0.0037706218
0.25461626
-0.0024275705
0.25431261
-0.00067561403
0.2541446
0.00067036533
0.25413735
0.0021748797
0.2542652
0.0031918222
0.25453172
0.0044402739
0.25490726
0.0051424154
0.25544054
0.0061193252
0.0066597845
0.25611155
0.28824698
-0.014814632
-0.29103111
0.28562357
-0.013585435
0.28317962
-0.012624138
0.28106694
-0.011382271
0.27915658
-0.010311278
0.27758443
-0.0088633637
0.27621176
-0.007560459
0.27514934
-0.0059466217
0.27422661
-0.0045771474
0.27355812
-0.0031021341
0.27300934
-0.0018787879
0.27272635
-0.00039262347
0.27261877
0.00077794897
0.27268171
0.0021119346
0.27292854
0.0029449953
0.27332083
0.0040479869
0.27371313
0.0047501167
0.27427587
0.0055565813
0.0059467322
0.27498892
0.30902086
-0.011736248
-0.31209924
0.30615791
-0.010722488
0.30344692
-0.0099131501
0.30098796
-0.0089233137
0.29880322
-0.0081265318
0.29697497
-0.0070351207
0.29544404
-0.0060295283
0.29422728
-0.0047298588
0.29333152
-0.0036813889
0.29271121
-0.0024818243
0.29231289
-0.0014804597
0.29203748
-0.00011722142
0.29203533
0.00078010622
0.29233719
0.0018100731
0.29282799
0.002454189
0.29356016
0.0033158201
0.2942935
0.00401678
0.29523571
0.0046143724
0.004875305
0.29630713
0.33208737
-0.0082935162
-0.3355301
0.3289184
-0.0075535212
0.32601369
-0.0070084369
0.32328422
-0.0061938445
0.32078688
-0.0056291907
0.31864903
-0.0048972684
0.31681122
-0.0041917186
0.31537776
-0.0032964007
0.31423964
-0.0025432674
0.31348834
-0.001730529
0.31304216
-0.0010342751
0.31307284
-0.00014790587
0.31329851
0.00055443516
0.31375545
0.0013531371
0.31433806
0.001871583
0.31513681
0.0025170626
0.31608357
0.0030700196
0.31724025
0.0034576974
0.0036771459
0.31843841
0.35669335
-0.0043935864
-0.36059328
0.35314637
-0.0040065428
0.34986173
-0.0037237899
0.34694992
-0.0032820359
0.34428113
-0.0029604039
0.34191574
-0.0025318791
0.33989713
-0.0021731067
0.33834212
-0.0017413961
0.33707805
-0.0012791879
0.33623167
-0.00088414898
0.33567292
-0.00047552913
0.33553825
-1.3230614e-05
0.33587795
0.00021472759
0.33659506
0.00063602726
0.33765214
0.00081450284
0.33885082
0.0013183888
0.34036684
0.0015539934
0.3420349
0.0017896375
0.0019893073
0.34372274
0.38424348
-0.38863706
0.38023693
0.37651314
0.37323111
0.3702707
0.36773882
0.36556572
0.36382432
0.36254513
0.36166099
0.36118546
0.36117223
0.36138695
0.36202298
0.36283748
0.36415587
0.36570987
0.3674995
0.36948881
0.058655826
0.0083912958
-0.0080390956
0.058523442
0.010894718
-0.010762335
0.058529382
0.01406838
-0.01407432
0.058846739
0.016537093
-0.016854449
0.059222238
0.019637167
-0.020012667
0.059966238
0.022292718
-0.023036718
0.060611742
0.025257319
-0.025902823
0.061666059
0.02806387
-0.029118188
0.062658528
0.03064656
-0.031639028
0.063909296
0.033544146
-0.034794915
0.065250041
0.035924848
-0.037265592
0.066552453
0.038653026
-0.039955438
0.068312026
0.040961897
-0.042721469
0.070004246
0.043254089
-0.044946309
0.071992841
0.045581688
-0.047570284
0.074270635
0.047302401
-0.049580195
0.076268377
0.049456848
-0.05145459
0.078673659
0.050931714
-0.053336996
0.052087309
0.081102593
-0.054516243
0.062949487
0.0086976057
0.06282458
0.011019625
0.062961202
0.013931759
0.063249647
0.016248648
0.063722543
0.019164271
0.064436061
0.0215792
0.06516039
0.02453299
0.066242755
0.026981505
0.067125608
0.029763707
0.068466062
0.032203692
0.069606278
0.034784632
0.070948157
0.037311148
0.072273493
0.039636561
0.073621
0.041906582
0.075192125
0.044010563
0.076621599
0.045872928
0.07799088
0.048087566
0.079439477
0.049483117
0.051203985
0.080322801
0.067457093
0.0090446883
0.067282546
0.011194173
0.067411638
0.013802667
0.06765184
0.016008446
0.068192626
0.018623484
0.068767588
0.021004238
0.069644512
0.023656066
0.070553033
0.026072984
0.071551244
0.028765496
0.072659102
0.031095835
0.073751182
0.033692552
0.074979276
0.036083054
0.075987835
0.038628002
0.077061806
0.040832611
0.078011768
0.0430606
0.078805223
0.045079473
0.079584627
0.047308163
0.079691285
0.049376459
0.051451954
0.079443316
0.072260626
0.0094028272
0.072098529
0.01135627
0.072175213
0.013725983
0.072481148
0.015702511
0.072943971
0.018160661
0.073550771
0.020397438
0.074365602
0.022841235
0.075199317
0.025239269
0.076230685
0.027734128
0.07712446
0.03020206
0.078157899
0.032659113
0.078979851
0.035261102
0.079850069
0.037757784
0.080348661
0.04033402
0.080662035
0.042747225
0.080609324
0.045132184
0.080173392
0.047744094
0.078971872
0.05057798
0.053038661
0.077385165
0.077574768
0.0097743592
0.077377718
0.011553319
0.077447494
0.013656208
0.077708067
0.015441937
0.078111574
0.017757155
0.078711794
0.019797218
0.079364245
0.022188784
0.080108027
0.024495487
0.080902213
0.026939942
0.08160148
0.029502794
0.082300973
0.031959621
0.082797834
0.034764242
0.083211606
0.037344012
0.08326686
0.040278765
0.082746431
0.043267655
0.081897994
0.045980621
0.080281073
0.049361015
0.078345581
0.052513472
0.056229592
0.075154649
0.082898337
0.010164906
0.082711786
0.01173987
0.082799468
0.013568526
0.08302505
0.015216355
0.083459484
0.017322721
0.084002772
0.01925393
0.084625047
0.021566509
0.085285352
0.023835181
0.085907801
0.026317492
0.086381446
0.02902915
0.086791996
0.031549071
0.086807391
0.034748847
0.086694508
0.037456895
0.086045726
0.040927547
0.084841774
0.044471607
0.083243943
0.047578452
0.080644226
0.051960731
0.077901406
0.055256292
0.060540259
0.073590739
0.089015982
0.010645162
0.08883498
0.011920873
0.088862302
0.013541204
0.089040526
0.01503813
0.089365341
0.016997907
0.089808503
0.018810767
0.090225225
0.021149787
0.090714784
0.023345621
0.090970821
0.026061456
0.091258639
0.028741333
0.091120163
0.031687547
0.090875333
0.034993677
0.090088518
0.038243711
0.088974717
0.042041347
0.08729745
0.046148873
0.084833365
0.050042537
0.081832237
0.054961859
0.078207729
0.058880799
0.06476814
0.073979848
0.095176278
0.011090674
0.094974341
0.012122811
0.095028269
0.013487276
0.095205613
0.014860786
0.095557752
0.016645768
0.095966623
0.018401896
0.096323667
0.020792743
0.096690763
0.022978525
0.096768749
0.02598347
0.096776014
0.028734069
0.096149677
0.032313884
0.095514563
0.035628791
0.094009994
0.03974828
0.092494936
0.043556405
0.090160882
0.048482927
0.087440754
0.052762665
0.084278871
0.058123742
0.08042061
0.062739061
0.06860288
0.076585869
0.10230148
0.011548695
0.10200202
0.012422268
0.10198854
0.013500757
0.10201089
0.014838436
0.10223548
0.01642118
0.10238186
0.018255517
0.10264964
0.020524963
0.10262002
0.023008142
0.10263648
0.025967011
0.10216674
0.029203807
0.10159452
0.032886106
0.10037976
0.036843552
0.098846601
0.041281438
0.09664948
0.045753526
0.094255614
0.050876793
0.091257638
0.055760642
0.088276172
0.061105207
0.084487879
0.066527354
0.072215567
0.080875192
0.10940996
0.011954195
0.10919318
0.012639043
0.10915606
0.013537883
0.10923164
0.014762855
0.10946988
0.016182938
0.10956596
0.018159432
0.10969329
0.020397638
0.10945103
0.023250398
0.10925387
0.026164169
0.1084614
0.029996286
0.10762038
0.033727126
0.10595024
0.038513691
0.10437091
0.042860771
0.10184397
0.048280456
0.09983922
0.052881547
0.096705652
0.058894209
0.094409067
0.063401792
0.090869709
0.070066712
0.074537583
0.088547693
0.11750675
0.012362637
0.1172145
0.012931287
0.117088
0.013664386
0.11712213
0.014728725
0.11717805
0.016127017
0.11714132
0.018196163
0.11707696
0.020462
0.11676284
0.023564517
0.1162669
0.026660108
0.11531788
0.030945305
0.11417381
0.034871196
0.11255409
0.040133413
0.11100836
0.044406497
0.10888329
0.050405529
0.10726946
0.054495374
0.10501812
0.061145551
0.10397645
0.064443458
0.1023933
0.071649862
0.073077497
0.10385339
0.12569127
0.012702806
0.12539347
0.013229088
0.12537669
0.013681169
0.12541412
0.01469129
0.12542384
0.016117304
0.12540415
0.018215852
0.12528374
0.02058241
0.12486061
0.023987648
0.12415615
0.02736457
0.12310834
0.031993109
0.12197436
0.036005181
0.12059877
0.041508997
0.11944927
0.045555997
0.11814627
0.051708531
0.1176712
0.054970443
0.11757503
0.061241719
0.11897467
0.063043826
0.12165279
0.06897174
0.066213321
0.12851696
0.13496576
0.013139597
0.13464528
0.013549575
0.13456569
0.013760754
0.13448247
0.01477451
0.13440695
0.016192823
0.13432625
0.018296553
0.1340738
0.020834863
0.13356257
0.024498879
0.13287099
0.028056149
0.13200814
0.032855961
0.13127035
0.03674297
0.13046812
0.04231123
0.13018321
0.045840908
0.13036013
0.051531603
0.13177918
0.053551401
0.1346812
0.058339692
0.13959063
0.058134402
0.14774848
0.060813889
0.054149967
0.15981183
0.1445226
0.013640365
0.14452242
0.013549751
0.14431832
0.013964857
0.14425206
0.01484077
0.14419773
0.016247151
0.14411806
0.01837623
0.14369054
0.02126238
0.14331589
0.024873525
0.14274466
0.028627385
0.14248089
0.033119724
0.14227999
0.036943873
0.14247561
0.042115614
0.14346324
0.04485327
0.14579531
0.049199536
0.14960003
0.049746676
0.15610304
0.051836683
0.16495701
0.049280435
0.17750661
0.048264292
0.039632046
0.19202453
0.15524011
0.014069056
0.15527343
0.013516433
0.15496586
0.014272426
0.15502508
0.014781549
0.1549712
0.016301029
0.15476465
0.018582783
0.15439193
0.0216351
0.15432311
0.024942337
0.15397742
0.028973079
0.15453328
0.032563865
0.15479382
0.036683337
0.15667307
0.040236358
0.15907606
0.042450286
0.16411203
0.044163566
0.17054229
0.043316413
0.18038463
0.041994338
0.19151584
0.038149225
0.20516616
0.034613979
0.026701677
0.21809653
0.16661836
0.014214138
0.16646119
0.013673601
0.16635861
0.014375008
0.16653231
0.014607848
0.16648033
0.016353011
0.16638799
0.018675121
0.16639789
0.0216252
0.16663353
0.024706699
0.16680338
0.028803229
0.16799184
0.03137541
0.16939106
0.035284118
0.17320292
0.036424494
0.17762906
0.038024145
0.1854803
0.036312326
0.1939089
0.034887812
0.2053592
0.03054404
0.21642814
0.027080286
0.22859158
0.022450534
0.01731503
0.23797823
0.17894556
0.014261333
0.17879325
0.013825913
0.17896006
0.014208199
0.1790183
0.014549604
0.17905141
0.016319897
0.17931024
0.018416294
0.17965177
0.021283673
0.18027232
0.024086145
0.181212
0.027863554
0.18314509
0.029442318
0.18619848
0.032230724
0.19126187
0.031361103
0.19781843
0.031467592
0.20669873
0.027432027
0.21581831
0.025768226
0.22665409
0.019708258
0.23544804
0.018286338
0.24446169
0.013436886
0.012436455
0.24934026
0.19217249
0.014252838
0.19220033
0.013798071
0.19255671
0.013851822
0.19267448
0.014431836
0.19305658
0.015937794
0.1936005
0.017872374
0.19424577
0.020638404
0.19543977
0.022892137
0.1974395
0.025863831
0.20057907
0.026302741
0.20540554
0.027404255
0.21191728
0.024849365
0.2197877
0.023597171
0.22861982
0.018599911
0.23735834
0.017029699
0.24575032
0.011316281
0.25194293
0.01209373
0.25718883
0.0081909815
0.011867758
0.25775753
0.20649313
0.014127622
0.2066548
0.013636403
0.20701671
0.013489907
0.2073837
0.014064847
0.2080805
0.015240993
0.20875965
0.017193227
0.2098775
0.019520552
0.2116003
0.021169329
0.21465595
0.022808183
0.21881042
0.022148272
0.22453788
0.021676792
0.23132161
0.01806564
0.23866433
0.016254453
0.24617246
0.011091779
0.25288916
0.010313002
0.25777259
0.0064328519
0.26089029
0.0089760248
0.26170686
0.0073744094
0.014333997
0.25924062
0.22200231
0.013821161
0.22255435
0.013084355
0.22319441
0.012849853
0.22391866
0.01334059
0.22471022
0.014449436
0.22584904
0.01605441
0.22783949
0.017530098
0.23064158
0.018367239
0.23484163
0.018608138
0.23986366
0.017126234
0.24626421
0.015276241
0.252871
0.011458854
0.2596883
0.009437155
0.26532357
0.0054565028
0.2696466
0.0059899737
0.27145569
0.0046237652
0.27159952
0.0088321947
0.2692845
0.0096894243
0.017833497
0.265785
0.23851154
0.013371748
0.23916622
0.01242968
0.23998566
0.01203041
0.24094467
0.012381575
0.24195297
0.013441137
0.24357845
0.014428932
0.24594984
0.015158708
0.24913609
0.015180993
0.25353136
0.014212858
0.25870478
0.011952814
0.26455434
0.0094266821
0.26973397
0.0062792228
0.27468297
0.0044881628
0.27756076
0.0025787089
0.2789615
0.0045892323
0.27832708
0.005258184
0.27675654
0.010402737
0.27374164
0.012704325
0.020479637
0.2710955
0.2571745
0.012308801
0.25834144
0.011262742
0.25944279
0.010929056
0.26075826
0.011066106
0.26248936
0.011710035
0.26485137
0.01206692
0.26786717
0.012142908
0.271866
0.011182166
0.2767062
0.0093726581
0.28166687
0.0069921389
0.28658782
0.0045057368
0.29054308
0.0023239576
0.29328959
0.0017416537
0.29415161
0.0017166931
0.29412891
0.0046119321
0.29239768
0.0069894119
0.29046565
0.012334764
0.28807555
0.01509443
0.021573115
0.28698207
0.27630593
0.010991797
0.27758784
0.0099808313
0.27867587
0.0098410194
0.28033286
0.0094091173
0.28217864
0.0098642535
0.28458047
0.0096650958
0.28777285
0.0089505188
0.29163399
0.0073210323
0.29553097
0.005475675
0.29940625
0.0031168576
0.3026218
0.0012901928
0.3047033
0.00024244948
0.30567864
0.00076631174
0.30490248
0.002492857
0.30369531
0.0058191036
0.30197929
0.0087054347
0.3013516
0.012962451
0.30143786
0.015008164
0.019469444
0.30354153
0.29839494
0.008903989
0.30033384
0.0080419283
0.30217581
0.0079990488
0.30432375
0.0072611762
0.3068257
0.0073623096
0.31025135
0.0062394387
0.3140257
0.0051761739
0.31755263
0.0037940986
0.32056103
0.0024672731
0.32297861
0.00069927777
0.32463188
-0.00036307665
0.3254367
-0.00056237021
0.32561925
0.00058375963
0.32496751
0.0031445988
0.32445089
0.0063357225
0.32398793
0.0091683986
0.32486212
0.01208826
0.32647394
0.01339634
0.016438993
0.32950439
0.32064017
0.0067022232
0.32277077
0.0059113274
0.32455855
0.0062112698
0.32641725
0.0054024802
0.32906353
0.004716029
0.33212142
0.003181543
0.33468976
0.0026078322
0.33688673
0.0015971361
0.33835077
0.0010032285
0.33960058
-0.00055052753
0.34050924
-0.001271739
0.3404778
-0.00053093464
0.33964897
0.0014125895
0.33922957
0.0035639948
0.33960457
0.0059607228
0.34089141
0.0078815605
0.34385879
0.0091208802
0.3479366
0.009318529
0.010967495
0.3534081
0.34708003
0.0033449343
0.34985295
0.003138403
0.35268078
0.0033834461
0.35593129
0.0021519643
0.35946834
0.0011789839
0.36230596
0.0003439131
0.3646626
0.00025119786
0.36608945
0.00017027918
0.36684343
0.000249257
0.36691848
-0.00062557881
0.36617504
-0.00052829797
0.36541566
0.00022844397
0.36527301
0.0015552341
0.36593028
0.002906729
0.36773394
0.0041570549
0.37094379
0.0046717126
0.3754068
0.0046578748
0.38077397
0.0039513541
0.00587013
0.38587134
0.37283375
0.37597215
0.37935559
0.38150756
0.38268654
0.38303045
0.38328165
0.38345193
0.38370119
0.38307561
0.38254731
0.38277576
0.38433099
0.38723772
0.39139477
0.39606648
0.40072436
0.40467571
0.41054584
0.077929087
0.058631273
-0.055457767
0.075481636
0.058837824
-0.056390373
0.072687742
0.059008076
-0.056214182
0.069985451
0.058822206
-0.056119915
0.067651408
0.057679584
-0.055345541
0.064284333
0.056483475
-0.053116401
0.06186946
0.05356564
-0.051150767
0.058768359
0.049506659
-0.046405558
0.052166121
0.046215392
-0.039613154
0.049043775
0.036829496
-0.033707151
0.047443176
0.021848237
-0.020247638
0.03883866
0.015513203
-0.0069086868
0.017168293
0.022906677
-0.0012363098
-0.012303351
0.039533234
-0.010061591
-0.038103805
0.054644388
-0.028843934
-0.058073733
0.065878147
-0.045908219
-0.073532063
0.073612372
-0.058154042
-0.085672215
0.078878058
-0.066737906
0.081595434
-0.09514621
-0.072121439
0.076801108
0.062152966
0.07277474
0.062864191
0.068598226
0.06318459
0.065183998
0.062236434
0.060594661
0.062268921
0.056148362
0.060929773
0.051975021
0.057738982
0.045406131
0.056075549
0.041062814
0.050558709
0.041550723
0.036341588
0.034878601
0.028520358
0.014585279
0.035806525
-0.01478199
0.052273945
-0.041125426
0.065876669
-0.061761599
0.075280561
-0.078031365
0.082147913
-0.090161
0.085742006
-0.099558757
0.088275814
0.088457555
-0.10642088
0.074566229
0.067030054
0.069281435
0.068148984
0.064232831
0.068233194
0.05839251
0.068076755
0.052532196
0.068129235
0.047071091
0.066390878
0.039703707
0.065106366
0.033650176
0.062129079
0.032627318
0.051581567
0.027700203
0.041268702
0.0096814831
0.046539079
-0.016057409
0.061545417
-0.040772972
0.076989508
-0.061201911
0.086305607
-0.077629737
0.091708387
-0.09085916
0.095377336
-0.10136947
0.096252321
-0.1097095
0.096615839
0.094763894
-0.11601584
0.0710143
0.073400919
0.065222955
0.073940329
0.058456313
0.074999836
0.051042517
0.075490551
0.044685483
0.074486269
0.036461257
0.074615104
0.027149137
0.074418486
0.022953303
0.066324914
0.018476935
0.056057935
0.0023784865
0.057367151
-0.021894796
0.070812361
-0.04623021
0.085880831
-0.065935859
0.096695158
-0.080930115
0.10129986
-0.093622569
0.10440084
-0.10390382
0.10565859
-0.11273555
0.10508405
-0.1199554
0.10383568
0.10081763
-0.12600913
0.068094629
0.080460939
0.060951996
0.081082962
0.053156451
0.082795382
0.045325862
0.083321139
0.03650414
0.083307991
0.026521979
0.084597264
0.018738159
0.082202306
0.013637804
0.071425268
-0.00060057284
0.070296312
-0.023994639
0.080761217
-0.047078955
0.093896677
-0.06728798
0.10608986
-0.083098765
0.11250594
-0.095780367
0.11398147
-0.10743642
0.11605689
-0.1170857
0.11530787
-0.12573493
0.11373328
-0.13321409
0.11131485
0.1074957
-0.13989216
0.066217978
0.0878337
0.057747043
0.089553896
0.049843981
0.090698445
0.041206396
0.091958724
0.030812111
0.093702276
0.021672205
0.09373717
0.016524944
0.087349567
0.0071694902
0.080780721
-0.012414362
0.089880164
-0.036502596
0.10484945
-0.05751342
0.1149075
-0.073787853
0.12236429
-0.087037873
0.12575596
-0.099560223
0.12650381
-0.111678
0.12817467
-0.12288361
0.12651348
-0.13352986
0.12437953
-0.14341997
0.12120496
0.11671539
-0.15263966
0.065948315
0.095865233
0.057456374
0.098045836
0.048714093
0.099440726
0.039703031
0.10096979
0.030644141
0.10276117
0.023865701
0.10051561
0.018373822
0.092841446
0.0037563707
0.095398173
-0.016808968
0.1104455
-0.038904453
0.12694494
-0.057831952
0.133835
-0.073985921
0.13851826
-0.08969604
0.14146608
-0.10518803
0.14199581
-0.12009366
0.1430803
-0.13477154
0.14119135
-0.14920387
0.13881186
-0.16332201
0.1353231
0.12951154
-0.17611816
0.067242418
0.10520868
0.058147679
0.10714058
0.048342497
0.10924591
0.038938674
0.11037361
0.031258958
0.11044088
0.026539113
0.10523545
0.016160507
0.10322005
-0.0048237721
0.11638245
-0.027695698
0.13331743
-0.047686974
0.14693621
-0.066300442
0.15244847
-0.085248647
0.15746646
-0.10470361
0.16092105
-0.12452169
0.16181388
-0.14503999
0.1635986
-0.16547799
0.16162936
-0.18513405
0.15846793
-0.20388818
0.15407722
0.14532057
-0.21969722
0.070091973
0.1159919
0.058968535
0.11826401
0.047366959
0.12084748
0.035034878
0.12270569
0.026132915
0.11934285
0.019519601
0.11184877
0.0034273389
0.11931231
-0.019591105
0.13940089
-0.042561139
0.15628746
-0.061729389
0.16610446
-0.08175219
0.17247127
-0.10272181
0.17843609
-0.1246054
0.18280463
-0.14777668
0.18498517
-0.17081309
0.18663501
-0.19241217
0.18322843
-0.21244521
0.17850097
-0.22975063
0.17138264
0.15909158
-0.24352164
0.077049199
0.1274904
0.064015028
0.13129818
0.05005637
0.13480614
0.033440925
0.13932113
0.017328637
0.13545513
0.0018887496
0.12728865
-0.015344897
0.13654596
-0.032416526
0.15647252
-0.050427722
0.17429866