/*--------------------------------*- C++ -*----------------------------------*\
  =========                 |
  \\      /  F ield         | OpenFOAM: The Open Source CFD Toolbox
   \\    /   O peration     | Website:  https://openfoam.org
    \\  /    A nd           | Version:  11
     \\/     M anipulation  |
\*---------------------------------------------------------------------------*/
FoamFile
{
    format      ascii;
    class       surfaceScalarField;
    location    "0.0335";
    object      phi;
}
// * * * * * * * * * * * * * * * * * * * * * * * * * * * * * * * * * * * * * //

dimensions      [0 3 -1 0 0 0 0];

internalField   nonuniform List<scalar> 
1652
(
2.843686947071611
0.8895636090847481
0
1.954123337988149
0.8895636090834618
2.220446049250313e-16
1.064559728903287
0.8895636090848646
0
0.8895636004347522
1.447992836745016e-10
0.1749961273291694
2.843686947076741
1.779127218162428
1.954123337998014
1.779127218162189
1.064559728910183
1.779127218172694
1.779127118336456
0.174996232426771
2.843686947090741
2.668690827246526
1.954123338008367
2.668690827244562
1.06455972891429
2.66869082726677
2.668683448135695
0.1749980298244154
2.843686947092868
3.558254436328659
1.954123338013008
3.558254436324421
1.064559728916617
3.558254436363174
3.55825451413482
0.1749517757333887
4.418652025448567
2.872852967045247
5.279049614570545
2.872852967043177
6.139447203693198
2.872852967042502
2.872852967040008
6.999844792817924
4.418652025437509
2.012455377932159
5.279049614550977
2.012455377929712
6.139447203664236
2.012455377929244
2.012455377926213
6.99984479277803
4.41865202548242
1.152057788815466
5.27904961470135
1.152057788798795
6.139441519947415
1.152057849962241
1.152057414736209
6.9998814464157
4.421921332458907
0.2786736058383958
5.300143032560104
0.2100470677516067
6.179602472720571
0.1423252164011417
7.045929021198309
0.126458982618765
6.94151275284586
0.05833203919940766
6.883180712902428
0.05833203896542072
6.824848672965138
0.05833203885856419
0.0583320395789696
6.766516633055945
6.941512766720342
0.1166639895775181
6.883180728020805
0.116663977957241
6.824848687667002
0.1166639689175513
0.1166640043903531
6.766516679059274
6.941546912232055
0.174838456142843
6.883216591977215
0.1748197289825391
6.824883514989813
0.1748103890534444
0.1748077870412067
6.766604018866463
6.993258323762253
0.09377572209064872
6.935735861412581
0.09062377481221368
6.875872584983476
0.08978692174725367
6.830909543853237
0.06559493014997708
6.833532021380008
0.0003992312417658295
-0.1444038043037973
6.793435979857143
0.0002464962693474182
-0.0492850800894068
6.770094159219964
6.736392665057656e-05
-0.007754920790024877
6.199082884295049e-06
6.766614162353946
-0.00032756887101687
6.766608149019673
4.001303959277891e-07
6.766564935070894
2.681475037569214e-07
6.766524548779572
8.019892883126545e-08
7.66582730626908e-09
6.766516895216665
6.766516692542579
4.52215287438662e-09
6.766516667008564
3.195440800851657e-09
6.766516638619075
9.759182351132267e-10
8.578759924660062e-11
6.766516633217136
6.766516632954324
6.766516632974619
6.766516633034206
6.766516633044723
6.766516633046038
-3.084310584711147e-12
6.766516633047141
-1.066591259757388e-12
6.766516633048259
-1.11699538507537e-12
-1.084132783546465e-12
6.766516633049343
6.766516633046719
-2.391713493921088e-10
6.766516633047077
4.630740235711528e-13
6.766516633048236
-8.861800182558e-13
-2.037925384001937e-12
6.766516633049349
6.766516633638263
-1.489056699610636e-07
6.766516632511257
3.167728634956291e-09
6.766516632879249
1.265204996325764e-09
1.420000783625142e-10
6.766516633045375
6.766516403585721
6.358812911277933e-06
6.766516156668207
1.394969563639492e-06
6.766516562364091
1.48194134519386e-07
6.766516631841019
1.871650223694843e-09
6.280531650304511e-13
6.76651663294555
-1.028240270706249e-10
-1.332267629550188e-15
6.766516633049335
6.661338147750939e-16
6.766516633049298
6.766516633049342
-5.459726670764553e-09
6.76651677823643
3.249289171058933e-10
-1.545378269796061e-10
6.766516633589962
-1.31117339208231e-13
6.766516633031848
6.76651663304934
3.403773801646803e-06
6.766459113138561
4.869670289786576e-07
5.652369794439949e-09
6.766517272139859
5.807088143683359e-11
6.766516633628313
6.766516633047744
-0.0001551883485353955
6.754448263110829
0.03088062157166926
-2.066408845147194e-07
6.766513470581887
-1.547445505067913e-10
6.766516631061852
6.766516633038871
0.1555520676199312
6.610964565426852
0.3111041149018659
6.610964575926646
0.4665729069759664
6.610996234973075
6.644790503570005
0.4430682411727453
0.1555520654907209
6.455412497826028
0.3111038710831254
6.455412518368508
0.4661451287567758
6.455461637319616
6.51877978487914
0.1563498809336992
0.1555520645219577
6.299860430214532
0.311103765023879
6.299860453598618
0.4659938352144245
6.299912343961871
6.361214264512927
0.1104452841999728
0.155552063820026
6.144308362607346
0.3111036949872844
6.144308389267319
0.4659242507896193
6.144362949066205
6.201151765136784
0.1099546495777066
-0.4658448214599908
6.040877679169681
0.1113382279835052
-0.311103840697515
5.988813844512827
-0.1555521795680297
5.988756209042406
5.98875617834846
-0.4657483974003811
5.879361248896011
0.1124329583806588
-0.3111037274348693
5.833263675865007
-0.1555521783539687
5.833204028811671
5.833203994097842
-0.4656370157957329
5.718992948306138
0.1133894621272016
-0.3111035872335449
5.677717640220384
-0.1555521768170885
5.677651852852387
5.677651809864272
-0.4654785136343236
5.554182682284512
0.1139437308665223
-0.3111033661120528
5.52215664989625
-0.1555521741622865
5.5220996638338
5.522099625570201
0.1993010908885408
5.322798528005988
0.3986015193040442
5.322798549954385
0.5969209308524965
5.322835972324373
5.346473129493766
0.2335002486410307
0.1993010909653004
5.12349743045754
0.3986015172617253
5.123497449824531
0.5969694515248312
5.123527123351592
5.139139415977639
0.2887389096695562
0.1993010906054421
4.924196327959459
0.3986014943924005
4.924196349097185
0.5970188664974525
4.924219966880909
4.93331480835025
0.3576962399435882
0.1993010936497649
4.7248952306832
0.398601825519574
4.724895243323293
0.5974711026961208
4.724906190751282
4.728044955212606
0.5777856036850776
-0.335409114853303
5.060304462733891
-0.6707139977859753
5.06029518453548
-1.002658563956554
5.057377266472544
4.99338951836205
-1.36645551828385
-0.335409152312917
5.395713692351483
-0.6707550891139442
5.395703671219948
-0.9896164552396169
5.389580884426603
4.800544383963078
-0.6248155737892132
-0.3354091635492317
5.731122922747937
-0.6707490592548114
5.731111560151449
-0.9764946058588979
5.721463860541524
4.72244319402798
-0.1123211214009509
-0.3354091771811553
6.066532152408938
-0.6707470764718183
6.066526325232699
-0.9710478333358483
6.061113558283551
5.079273428951287
-0.04846782611515428
0.5100061864999056
5.327607381387679
-0.02277729196909515
0.3499536324778337
6.236286500275954
0.1749960705105896
6.241523251497832
6.241528272503833
0.5119167212191186
5.574053046057628
-0.02319384199439378
0.3499606668499973
6.412695561854712
0.1749960826935657
6.41652121634111
6.416524393134075
0.5145514178283013
5.755524384032525
-0.02499972718868092
0.3499699504706578
6.587759428933682
0.1749960953408016
6.591517417782935
6.59152051303819
0.5118170633349914
6.018610725290855
-0.006335902296356971
0.3499648520105155
6.763933450678262
0.1749960912655347
6.766514612314824
6.766516632713143
-0.003213903437311871
6.65940067515361
0.1805930327290217
-7.898940378225916e-06
6.766415910390668
-9.304823356259817e-09
6.766516576493101
6.766516633063026
-0.0002548844317924459
6.762925833706901
0.04813870735939801
-3.714046012959216e-07
6.766515638446691
-2.658930853272068e-10
6.766516633071173
6.766516633074305
-4.078898424075827e-05
6.767096726445136
0.01333635897703467
-5.542809433656259e-08
6.766518265824199
-3.628830569368802e-11
6.766516635047926
6.766516633071944
-0.000171657431073613
0.03439149812786324
6.766134127111736
-3.125026313277601e-07
6.766492817653594
-3.178299845529864e-10
6.766516582561608
6.76651663334793
1.105924069505605
-0.8652856542025078
-0.09230813371281205
-6.262546037305583e-12
1.983280638878364
-0.8749353890341682
-8.624212455288216e-13
2.858269951185169
-0.8749805490923368
8.535394613318203e-13
-0.8749806000331146
-2.193800696659309e-13
1.10592897537327
-1.730517178822767
-0.09267701657876723
1.983280646881944
-1.749869795598947
2.858269951088972
-1.749961086827828
-1.749961199759061
1.105935441651969
-2.595198680428158
-0.0933504398897634
1.983280613914391
-2.624800460064744
2.858269950048638
-2.624941603709538
-2.624941798668953
1.105961160627371
-0.09434576255328887
-3.460742367271725
1.983280609941062
-3.499741480793369
2.858269947924601
-3.499922129615236
-3.49992239777576
-0.0001716574312918828
-6.767096726445497
0.03439149812719539
6.766134127102767
-3.1250260046356e-07
-6.766518265824236
6.76649281765193
-3.179487784166213e-10
-6.766516635050278
6.766516582561839
-6.766516633070978
6.766516633350491
-4.078898438952816e-05
-6.762925833708609
0.01333635897677377
-5.542899472743557e-08
-6.766515638447093
-3.647038226972654e-11
-6.766516633074882
-6.766516633077678
-0.0002548844327395772
-6.659400675159143
0.04813870736011883
-3.714052374537147e-07
-6.766415910391738
-2.658671061084306e-10
-6.766516576491985
-6.766516633065851
-0.003213903437750854
-6.018610725286322
0.1805930327300992
-7.898940170170121e-06
-6.763933450676936
-9.304780279606462e-09
-6.766514612314933
-6.766516632713381
-0.1749960705008802
6.24152827253987
-6.066532152453934
-0.3499536324570597
6.241523251532797
-6.066526325278648
-0.5100061864907011
6.236286500242793
-6.061113558236636
5.327607381345634
-5.079273428913382
-0.02277729196898057
-0.174996082682104
6.416524393158887
-0.3499606668284514
6.416521216363614
-0.5119167212090996
6.41269556183124
5.574053046029028
-0.02319384199438358
-0.1749960953286681
6.591520513051191
-0.3499699504478592
6.591517417794077
-0.5145514178177151
6.587759428921997
5.75552438402033
-0.02499972718833549
-0.1749960912534089
-0.349964851984772
-0.5118170633219342
-0.006335902296544474
0.9710478333446216
-4.722443193989458
-0.04846782611533888
0.6707470764975764
-5.721463860510817
0.3354091771946152
-5.731111560182168
-5.731122922780178
0.976494605868122
-4.800544383941644
-0.1123211213997583
0.670749059277971
-5.38958088440849
0.3354091635609763
-5.395703671243052
-5.395713692372128
0.9896164552520489
-4.993389518355199
-0.6248155737876575
0.6707550891363501
-5.057377266464811
0.3354091523231458
-5.06029518454656
-5.060304462742889
1.002658563968703
-4.728044955212365
-1.366455518287944
0.6707139978056745
-4.724906190750762
0.3354091148627021
-4.724895243324244
-4.724895230683328
0.1993010908949531
5.322798528023179
-5.522099625593961
0.3986015193187995
5.322798549974906
-5.522099663862653
0.5969209308601845
5.322835972306002
-5.522156649868825
5.346473129473452
-5.554182682258402
0.2335002486435558
0.1993010909714638
5.123497430468256
0.398601517275703
5.123497449838963
0.5969694515322526
5.123527123338063
5.13913941596312
0.2887389096709881
0.1993010906111661
4.924196327964801
0.3986014944050856
4.924196349104802
0.5970188665030582
4.924219966873806
4.933314808343851
0.3576962399433288
0.1993010936551681
0.3986018255314469
0.5974711027011116
0.5777856036861759
-0.4654785136278145
-5.718992948285462
0.1139437308703033
-0.3111033660995856
-5.677717640198667
-0.155552174156662
-5.677651852874368
-5.677651809882573
-0.4656370157888489
-5.879361248882352
0.1133894621277859
-0.3111035872204593
-5.833263675846162
-0.1555521768112863
-5.833204028828295
-5.833203994109977
-0.4657483973944935
-6.040877679170914
0.1124329583815601
-0.3111037274215344
-5.988813844506264
-0.1555521783479081
-5.988756209049971
-5.988756178354503
-0.4658448214540521
-6.201151765132875
0.1113382279840941
-0.3111038406834504
-6.144362949073855
-0.1555521795616913
-6.144308389267869
-6.144308362606962
0.1555520676199851
6.610964565426773
-6.766516633038795
0.3111041149020812
6.610964575927222
-6.766516631061827
0.4665729069768391
6.610996234972791
-6.766513470582229
6.644790503570895
-6.754448263108465
0.4430682411708872
0.1555520654908136
6.455412497825876
0.3111038710833857
6.455412518367598
0.4661451287571092
6.455461637319873
6.518779784878079
0.1563498809349845
0.1555520645218548
6.299860430214395
0.3111037650234904
6.299860453599371
0.4659938352135931
6.29991234395586
6.361214264514076
0.110445284199354
0.1555520638199539
0.3111036949872015
0.4659242507890042
0.1099546495790641
-6.766516633047777
1.548351447056007e-10
-6.766516633049346
-5.809874803475168e-11
-6.766516633049343
8.393286066166183e-14
-6.661338147750939e-16
-6.766516633049345
-6.766516633626863
2.066410007550701e-07
-6.76651663303279
-5.652509571518749e-09
-6.7665166330493
1.557907136628955e-10
-3.108624468950438e-15
-6.766516633049347
-6.766517272141374
0.0001551883482744931
-6.766516633588563
-3.403773050580927e-06
-6.766516633049334
5.459166896315537e-09
-6.407652186624091e-13
-6.766516633045363
-6.766459113138653
0.03088062157151406
-6.766516778236673
4.869665800044665e-07
-6.766516632945475
3.245541058127799e-10
-6.766516631840903
-1.027796736607911e-10
-1.101452262730618e-12
-6.766516633048242
-2.041922186890588e-12
-6.766516633048253
1.418805628539133e-10
-6.766516632880593
-6.766516562363828
1.871861721181034e-09
-1.100564084310918e-12
-6.766516633047141
-9.260370248398431e-13
-6.766516633047101
1.265420046525634e-09
-6.766516632511561
-6.766516156668276
1.481939617686834e-07
-1.100008972798605e-12
-6.766516633046038
4.639622019908529e-13
-6.766516633046617
3.167674289539235e-09
-6.766516633638585
-6.766516403585771
1.394969664392232e-06
-3.102851309222387e-12
-6.766516633044726
-2.392441800225242e-10
-6.766516633214909
-1.489056057346616e-07
-6.766516895216927
-6.766614162353414
6.358812857709673e-06
-4.527278885113617e-09
6.766516632938921
-6.766516633036407
-4.001404928510865e-07
6.766516692525975
-6.766516679037875
-0.0003992312471925996
6.766608149034936
-6.766604018886773
6.83353202139492
-6.830909543873527
-0.1444038043033765
-3.200124498725643e-09
6.76651663296419
-2.681568335161089e-07
6.766516667002477
-0.0002464962739727183
6.766564935081606
6.793435979866959
-0.04928508009034899
-9.810434686841063e-10
6.766516633029233
-8.020900799099451e-08
6.76651663861682
-6.736393169298749e-05
6.766524548783097
6.770094159225248
-0.007754920789982633
-9.100176168175267e-11
-7.676062452333099e-09
-6.199087583425023e-06
-0.0003275688721759429
-0.1748077870467127
-6.875872584994345
0.06559493015154783
-0.1166640044096532
-6.824883514998668
-0.05833203958306621
-6.824848687660655
-6.824848672949552
-0.1748103890605266
-6.935735861416702
0.08978692174797304
-0.1166639689373872
-6.883216591973455
-0.05833203886288463
-6.883180728030146
-6.88318071289113
-0.1748197289908088
-6.993258323767068
0.09062377481304712
-0.1166639779772936
-6.941546912208436
-0.05833203896967787
-6.941512766750082
-6.941512752838816
-0.1748384561541386
-7.045929021189583
0.09377572208971907
-0.1166639895984334
-6.99988144636142
-0.05833203920397068
-6.999844792821213
-6.999844792815143
-1.152057414730645
-6.179602472714377
0.1264589826195972
-2.012455377910965
-6.139441519944272
-2.872852967039931
-6.139447203692224
-6.139447203690341
-1.152057849958333
-5.300143032558084
0.1423252164019235
-2.01245537791648
-5.279049614694302
-2.872852967042259
-5.279049614566445
-5.279049614567443
-1.15205778879877
-4.421921332455069
0.2100470677519924
-2.012455377921992
-4.418652025480841
-2.872852967044603
-4.418652025443834
-4.418652025446892
-1.152057788815434
-3.558254514123679
0.2786736058385647
-2.012455377927508
-3.558254436363163
-2.872852967046921
-3.558254436324422
-3.55825443632866
2.843686947076677
0.8895636090796828
1.954123337995112
0.8895636090815651
1.064559728908975
0.8895636090861367
0.8895636001943887
0.1749961273794563
2.843686947077599
1.7791272181565
1.954123337999196
1.779127218159969
1.064559728911147
1.779127218174184
1.779127118361085
0.1749962324257116
2.843686947089469
2.668690827241873
1.95412333800662
2.668690827242819
1.064559728912863
2.668690827267939
2.668683448134016
0.1749980298253102
2.843686947088214
1.954123338006611
1.064559728911391
0.1749517757316046
0.1749961476373722
0.1749961476526991
0.1749965688677726
0.1749961481801195
0.1749952792694323
0.1749989937652008
0.174835155855251
0.175024986847342
0.1749961481810476
0.1749965688716283
0.1749994651946827
0.1749994651952194
0.1750034716681374
0.1749793832846265
0.174824658055156
0.1748588336200196
0.1749989937660857
0.1749952792707409
0.1749793832855578
0.175003471669316
0.1749434221779049
0.1749434221770315
0.1726189960452264
0.1756236205981546
0.1748351558571369
0.1750249868480899
0.1748246580566296
0.1748588336212627
0.1726189960467251
0.1756236205975161
0.1706141191086148
0.1706141191097821
-0.09545400731631737
0.2606773108421924
-0.1756258306016336
0.2428242314307313
-0.24327426062922
0.2317650713503437
0.2025379069563509
-0.009296621861809351
0.2891620156763433
-0.05569832660427276
0.284161936451938
-0.1235114008200241
0.2853163148553508
0.249056271592126
0.0175851647346742
0.3007273594535533
-0.005017604038158763
0.3010917873422531
-0.0437139330250399
0.306008351037643
0.273337478827327
0.03066198025313904
0.3021549878951498
0.007041821061526288
0.302214744863346
-0.02705982138245966
0.3100201185451075
0.2824095849758121
0.2837126800819683
0.01751597940417454
0.2844949658003793
0.01599838397870135
0.2848884636967881
0.01567146677521303
-0.0228676002373307
0.2884198480959236
0.3103268765666188
-0.009293784976055375
0.3106388958910624
-0.01022421812767971
0.3111144922745472
-0.01061520420947892
-0.06091833159225402
0.3263973109755673
0.302538934188996
-0.03205194471887957
0.3029507075913697
-0.03196148961176815
0.3034285358242718
-0.03183221542790587
-0.09313806327184199
0.3226960435451508
0.3023280876647583
0.3024616666859946
0.3027523411425911
0.2540343465292491
0.2742416990369245
-0.1793257336461022
0.2452849536992271
-0.04782184148682572
0.2345022810646652
-0.006266106907483526
-0.0001120239282034752
0.2333493918344814
0.28353430379984
-0.1528830952698257
0.2472400460347981
-0.02716932775502839
0.2345901172684102
0.001095575512236435
0.0003486212112544518
0.2333456347959049
0.2695309800754961
-0.06597337106056006
0.2461421850337817
0.01194044013602258
0.235087889775439
0.007822857887133161
0.0009414137649986221
0.2333665644778518
0.197761909615724
0.2195167656252484
0.2317573785249639
0.2332097440580285
0.2333278082946508
1.560424870677979e-05
0.2333277892252252
2.633857133393924e-06
0.2333281455188752
1.027527234409575e-07
-5.21225229643818e-10
0.2333281596458396
0.2333281698600602
3.300091829072649e-05
0.233328154571201
3.615474181151157e-06
0.2333281593101399
1.028223389210048e-07
2.324708203715886e-10
0.23332815974822
0.2333295408407758
6.500659430930256e-05
0.2333283049830634
5.975169666883051e-06
0.2333281607249264
2.089020773032857e-07
9.764344333085262e-10
0.2333281596377602
0.2333167204607042
0.2333275742104757
0.2333281543209599
0.2333281597777519
0.2333281599620818
-1.279970018863708e-10
0.2333281600011597
8.182232669184941e-11
0.2333281184389258
1.933555940913934e-07
0.02970072658958062
0.2242810994887049
0.2333281598025642
-4.774269868335068e-11
0.2333281598398692
-1.031880136892482e-11
0.2333281758955912
4.027292788144621e-08
-0.005739312684512388
0.2243647683439164
0.2333281597751498
-3.682565363760659e-11
0.2333281597818131
-1.42572065264801e-11
0.2333281642193203
8.250024663425393e-09
-0.03498679102735286
0.2032489766343646
0.2333281597822921
0.233328159774347
0.2333281602613141
0.1956773080483642
0.2781049171377354
0.240672169355921
0.3088772754469921
-0.01742480717034567
0.3133738913016088
-0.05196317365706626
-0.05234732044742196
0.3135517266266661
0.2922922621466448
0.117941317483791
0.3291978549740857
-0.03439501268258904
0.3354337562004407
-0.06308494720488567
-0.06283532091908761
0.3355289247099099
0.2638366756788255
0.05428404256922226
0.3143052971144014
-0.03618251487138713
0.3222897771975042
-0.04944599314132891
-0.0490791051428795
0.3224146349597541
0.250760213031438
0.2817634314736929
0.2903217509259692
0.2905888808048798
0.3136035065587813
-0.05172531510022405
0.3137098712552661
-0.05129378963267572
0.3139517732100796
-0.05110498472001923
-0.04973970865441446
0.3142768181517705
0.3354559417086878
-0.06237774707268962
0.3354209383920683
-0.06197574777289006
0.3354471418049964
-0.06175689436171949
-0.06125074188816937
0.3362725836367549
0.3223654225019744
-0.04887723410061828
0.3223467100942838
-0.04860138566898264
0.3224513829749682
-0.04846471784298811
-0.04778853056565224
0.32263955145484
0.2905798133060646
0.2905288051291935
0.2905260973189849
0.2915938966525914
0.3302504681707865
-0.01463719109363848
0.3507682106896301
0.006442495839651841
0.3794397301574032
0.05700797646296607
0.2932733652557511
0.429622299745658
0.3431752792497623
-0.04889964069042163
0.3531561193372892
-0.04212115101212666
0.3815506066683529
-0.01153414793627894
0.1196692210509397
0.5238101119649036
0.3232114984098562
-0.04520304464909142
0.3255748495522187
-0.04625111800920734
0.3436983062390101
-0.01448849037581224
-0.008411221844149774
0.5103224615823283
0.2972397873602559
0.3108077517575275
0.3786239022547322
0.4775341989967777
0.254046600706162
-1.23967191502489
0.05616005781599375
-0.383452916736406
0.005377430385197234
-0.0332658931348709
-0.002954023544202954
0.000179897913783195
0.1836010275079385
-0.9123494291977077
0.02155847975048316
-0.1706951785949686
-7.915268600934035e-05
0.007934187762842305
0.01982520168337498
0.0002071732781288773
0.09557126087682784
-0.4691871787228117
0.008351565774665547
-0.06397041699945979
-0.001091775431117194
0.01591921651773128
0.01994234208034058
0.0004388560275608959
0.05449382106883105
-0.0004837444926233791
-0.00018399000948972
0.0007235686302101314
0.002624506324121201
-0.002889764756676544
0.004827340341681521
-0.003333957662288209
0.006694495938562056
-0.00630580384198607
-0.00756419465940255
0.02471971932529126
-0.0005341986144235273
0.01437367964621233
-0.002618592732991093
0.01493881159207936
-0.007929633269645579
0.01431773288940476
-0.0001583064235164203
-0.001324981205555513
-0.0009703258865955203
0.01716608662080249
-0.004307352323729498
0.0181039147193932
-0.01032409398814961
0.01785830244639559
0.006371632005311045
-0.01196139026106378
-0.0001124280556414657
-0.00260952098912491
-0.008881795477419758
-0.007880326015208517
0.1736948180421467
0.08864862104689131
0.225620085260072
0.05315213764446258
0.2334764483901547
0.02720538734367833
0.0479020403194671
0.242475679470871
0.1206190536948381
0.005672676478593514
0.2063975737029446
0.04349222715253431
0.2388299663256706
0.05016420584175024
0.04878890129755337
0.2601665425721065
0.07280387414121391
-0.03904219256791146
0.1834527954489726
0.002681617088246185
0.2447958086295871
0.05049093358426746
0.02113269540296281
0.2914495077073042
0.001497909879313794
0.08480496227343494
0.1992295162950444
0.2496840809739358
0.1935136354957729
-0.3554125403608432
0.4293246375881477
0.1310258213523209
-0.2755529203228251
0.364559436792911
0.05650976024041489
-0.1731092379328217
0.276510307800155
-0.09264298823811488
0.005567755713439967
0.2121753278994326
0.2268751591814471
-0.2681989725543524
0.1672023125135323
-0.1781600845651266
0.07844741877318109
-0.101871181811187
-0.04305182126286246
0.01210614964295688
0.2018511777764556
-0.1548498753953755
0.1656349830419916
-0.0549383899617871
0.1189512454205593
-0.03489070192620754
-0.02004064471132797
0.03557097079772721
0.09615730416962401
0.06118232661602619
0.05046817758096021
0.03030427578399245
0.004561127547430413
0.005259942407358113
0.0004222950598240221
0.003507758062243545
0.0001843771524548364
0.003384896839288331
0.003385413655289697
-3.327373099271114e-14
0.005717303727281554
0.01453265036111155
0.002050584992034248
0.01256118928677284
0.001010788745618059
0.01208502159631638
0.01181882492464726
5.004677228193088e-14
0.003273375872649288
0.03928265998527659
0.001836820166279646
0.03873848084436816
0.001029772365574097
0.03806593845202862
0.03766034329405533
-1.131525428910152e-13
0.001770202352130074
0.001015935275564289
0.0005314923146475387
-7.187306305667107e-13
0.003385413655291571
-0.000184377152508259
0.01181882492473483
-0.001010788745588829
0.03766034329387069
-0.001029772365618603
-0.0005314923142652195
0.09230813371301973
0.003384896839261398
-0.0004222950598244402
0.01208502159643253
-0.002050584992147095
0.03806593845203342
-0.001836820166149021
-0.001015935274876908
0.0926770165787467
0.003507758062207427
-0.004561127547407798
0.01256118928679124
-0.005717303727442211
0.03873848084435554
-0.003273375872485863
-0.001770202352094713
0.0933504398900718
0.005259942407392613
-0.03030427578404227
0.01453265036104236
-0.03557097079772544
0.0392826599852673
-0.0121061496429339
-0.005567755713359795
0.09434576255324589
-0.05650976024034729
-0.09264298823826747
0.2121753278994749
-0.1310258213519577
-0.1731092379324953
0.276510307799807
-0.193513635495641
-0.2755529203228628
0.3645594367930488
-0.3554125403609274
-0.2424756794709642
0.4293246375882289
-0.07844741877348624
-0.04305182126286784
-0.1672023125132536
-0.1018711818113196
-0.2268751591811585
-0.1781600845649527
-0.2681989725541581
-0.2601665425721795
-0.1189512454204134
-0.02004064471132913
-0.1656349830419236
-0.03489070192618903
-0.2018511777762278
-0.05493838996176746
-0.1548498753951715
-0.2914495077070945
-0.05046817758099286
-0.06118232661601509
-0.09615730416959968
-0.249684080973621
-0.1992295162946339
-0.02113269540273094
-0.08480496227377074
-0.05049093358367546
-0.001497909879307972
-0.002681617088663463
0.03904219256777486
0.00788032601528362
-0.2447958086295866
-0.04878890129697377
-0.1834527954489215
-0.05016420584107834
-0.0728038741413156
-0.04349222715292467
-0.005672676478994249
0.01196139026114976
-0.2388299663257201
-0.04790204031870737
-0.2063975737031463
-0.02720538734359879
-0.1206190536950179
-0.05315213764511995
-0.0886486210475956
0.001324981205584323
-0.2334764483900747
-0.2256200852601282
-0.1736948180423591
-0.02471971932516746
-0.006694495938632583
-0.007564194659467532
-0.004827340341672762
-0.006305803841900749
-0.002624506324125966
-0.003333957662335338
-0.002889764756744136
-0.0001798979137752794
0.007929633269579075
-0.0001583064234841683
0.002618592732994855
0.01431773288934011
0.0005341986144190083
0.0149388115922145
0.014373679646242
-0.0002071732781302113
0.0103240939881372
0.006371632005392716
0.00430735232377426
0.0178583024462574
0.00097032588660711
0.01810391471960967
0.01716608662091144
-0.0004388560275687013
0.008881795477517655
0.002609520989153957
0.0001124280556210567
-0.0007235686302158829
-0.005377430385137362
-0.002954023544697218
-0.05616005781470625
-0.03326589313410035
-0.2540466007046065
-0.3834529167348215
-1.239671915027188
-0.4296222997456621
7.915268596066574e-05
0.0198252016832147
-0.02155847974992533
0.007934187763345847
-0.183601027506635
-0.1706951785941124
-0.9123494291983067
-0.5238101119648921
0.001091775431114494
0.01994234208030188
-0.008351565774422587
0.01591921651811532
-0.09557126087619609
-0.06397041699904681
-0.469187178723116
-0.5103224615822567
0.0001839900095038163
0.0004837444927435555
-0.05449382106851673
-0.4775341989968399
-0.3794397301576714
0.2932733652574706
-0.3507682106895996
0.05700797646347033
-0.3302504681704882
0.006442495839983797
-0.01463719109247674
-0.3142768181511286
-0.3815506066686477
0.1196692210515921
-0.3531561193372399
-0.01153414793582197
-0.3431752792501092
-0.0421211510116577
-0.04889964068921127
-0.3362725836370916
-0.3436983062391425
-0.00841122184421994
-0.3255748495524484
-0.01448849037540811
-0.3232114984100276
-0.04625111800867143
-0.04520304464869951
-0.3226395514550357
-0.3786239022550713
-0.3108077517579399
-0.2972397873607453
-0.2915938966532956
-0.3139517732097076
-0.04973970865102129
-0.3137098712552351
-0.05110498471896185
-0.3136035065586117
-0.05129378963259834
-0.05172531509964351
-0.3135517266264402
-0.3354471418045736
-0.06125074188567214
-0.3354209383921475
-0.06175689436031839
-0.3354559417087797
-0.06197574777233872
-0.06237774707208632
-0.3355289247100438
-0.3224513829751687
-0.04778853056406218
-0.3223467100947114
-0.04846471784173145
-0.3223654225020983
-0.04860138566851835
-0.04887723410026967
-0.3224146349598327
-0.2905260973197933
-0.2905288051295031
-0.2905798133063088
-0.2905888808051481
-0.3133738913016385
-0.05234732044681223
-0.308877275446892
-0.05196317365683845
-0.2781049171383225
-0.01742480716911088
0.2406721693542699
-0.2242810994886742
-0.3354337562005706
-0.0628353209186957
-0.3291978549740625
-0.06308494720426083
-0.292292262146914
-0.03439501268221157
0.1179413174831456
-0.2243647683439628
-0.322289777197574
-0.04907910514284008
-0.3143052971144404
-0.04944599314060782
-0.2638366756789753
-0.03618251487076152
0.05428404256898178
-0.2032489766343115
-0.2903217509261185
-0.2817634314737207
-0.250760213031289
-0.1956773080481464
-0.2333281184388832
0.02970072658943324
-0.2333281600011143
1.933553738786564e-07
-0.2333281599620483
8.164979803382266e-11
-1.279557015898547e-10
-0.2333281596458439
-0.2333281758955601
-0.005739312684850617
-0.2333281598398166
4.027283373453372e-08
-0.2333281598025496
-1.035893593126502e-11
-4.770533967857205e-11
-0.2333281597482239
-0.233328164219308
-0.03498679102760227
-0.2333281597818092
8.249993577180703e-09
-0.2333281597751462
-1.426636586643326e-11
-3.682715243868984e-11
-0.233328159637702
-0.2333281602613083
-0.2333281597743434
-0.2333281597822761
-0.2333281597777361
-0.2333281455188513
-5.210951670164832e-10
-0.2333277892252196
1.027526689845182e-07
-0.233327808294644
2.633857221268077e-06
1.560424872754096e-05
-0.2333493918344549
-0.2333281593100912
2.325231673871997e-10
-0.2333281545710111
1.028223067800482e-07
-0.2333281698601069
3.615474211793313e-06
3.300091842844965e-05
-0.2333456347957828
-0.2333281607248557
9.764509756315931e-10
-0.2333283049828755
2.089020550988252e-07
-0.2333295408410912
5.97516975070489e-06
6.50065943025302e-05
-0.2333665644775921