/*--------------------------------*- C++ -*----------------------------------*\
  =========                 |
  \\      /  F ield         | OpenFOAM: The Open Source CFD Toolbox
   \\    /   O peration     | Website:  https://openfoam.org
    \\  /    A nd           | Version:  11
     \\/     M anipulation  |
\*---------------------------------------------------------------------------*/
FoamFile
{
    format      ascii;
    class       volScalarField;
    location    "0.31";
    object      T;
}
// * * * * * * * * * * * * * * * * * * * * * * * * * * * * * * * * * * * * * //

dimensions      [0 0 0 1 0 0 0];

internalField   nonuniform List<scalar> 
880
(
500
500.0000001012168
500.0108210910889
502.4108846912294
500.0000000000777
500.0000002156254
500.0162810407554
503.708121515772
500.000000000135
500.0000007969431
500.0329637620093
505.3141363665545
500.0000000068017
500.0000039571949
500.074657388422
507.755026610504
499.9999999315296
499.9999999802219
500.0000036140972
500.000176763353
500.0000255762412
500.0000531975035
500.0011729545839
500.0016574108456
500.1804375131229
500.314145540054
500.5508542164346
500.6337918425533
512.9971866929362
518.9776234882239
524.0494316043131
526.5277092164183
500.0002895653407
500.0022331389322
500.005835996417
500.0240011415928
500.017147182782
500.0608329655071
500.1272144362805
500.2569816913853
501.8888569113795
502.9814906336839
504.279405010222
505.9037265505467
528.8352149869779
531.7806694021648
532.604676655105
532.0810683257795
522.1792696116297
517.3975917720932
515.6937083874078
513.9936277538437
509.5100997973107
511.0082792753173
512.0116966184515
512.2344520010618
500.8076274837298
501.4183719158089
502.1080090104443
502.7157360510254
500.0855780321247
500.2193741184133
500.4333603232973
500.7230054803984
501.0317163095165
501.3319164698291
501.5736651122357
501.6486642144332
503.1595943964138
503.452032703309
503.6448267476974
503.6347432156732
511.8975631674961
511.3478089004666
510.3676647059456
509.5122113485294
512.4872505428701
511.7161857262045
510.4274514983391
509.9678372524576
508.737746685219
508.6666947661564
503.6355114101713
501.6378834652829
512.4832829392985
507.5202620526082
503.5517592207244
501.50463821641
542.2863548915653
508.5744920271956
502.937495305855
501.155972089412
599.0601192807773
516.2421803704342
503.2481955764967
501.0418596707581
500.5130905882269
503.6501323379634
528.7105577792839
627.8827285798362
500.3797846678182
504.5629397291845
541.480249939756
628.6920438409081
500.5614027992243
507.0703385163965
559.0487396335554
633.6438352987981
501.1754714802807
512.0682092227704
576.3620630483204
636.0275082332478
633.4423134576374
591.9477783604489
521.1141795059754
502.5260798091005
628.5276075955068
601.2374172268673
533.7501140847357
505.1650622220062
620.9072585716916
602.2539108533565
547.1281332470503
509.4760899630584
611.6142831260076
598.9301209705949
556.3392028145768
515.8243256724016
523.6318575029554
557.0966736020151
585.4614184442103
600.5756588056216
523.8646370516573
546.7795751607053
567.9985549573192
584.9229605384924
522.0575071406981
536.404571895224
549.3874611926104
563.4008150519236
518.9424724968937
526.1157930218469
529.2588671850183
534.2542882003464
517.2228205384826
518.1246664101452
514.0882749764598
500.6269292743922
513.1774308400995
510.1504680702245
498.5416742299747
463.0013269516048
509.4659473714938
505.2764254739119
493.6240796776697
419.2415971099728
506.4598451346784
504.9319184926937
497.3410694497451
409.8572119744834
475.5704339676018
500.5025217685792
503.6828219144076
503.8082359863182
519.6577927942353
503.1171170196304
502.4653652578382
502.0442133016645
545.6963762611018
505.0586593069714
501.4201921217417
500.8967576820316
546.2090435646139
508.56651521208
500.58170975669
500.315353051401
537.5208832652484
507.2278373280183
498.7703554272802
499.5879856106048
520.0845086036169
502.3877395934017
497.6714318708271
499.4346999007478
503.956224767692
498.7954375799725
497.8239193920358
499.6527396539669
494.0632424607326
495.1846011160948
498.0809955145244
499.8404451758993
454.8691232941903
475.7172989332988
494.7899744447586
499.5885982554863
453.0602173108006
476.7183523300565
494.7265240182237
499.5746498923389
450.5289374821833
478.2932129048156
494.650236252962
499.5598972254822
453.884279081788
480.5979246474515
494.7623979184316
499.5481758217456
494.0632424607562
495.1846011161226
498.0809955147602
499.8404451756888
503.9562247676819
498.7954375797506
497.8239193919889
499.6527396536421
520.0845086035083
502.3877395930627
497.6714318704378
499.4346999003679
537.5208832652055
507.2278373275959
498.7703554271883
499.5879856104586
503.8082359862498
503.6828219145688
500.5025217688662
475.5704339666328
502.0442133015526
502.4653652578773
503.1171170197784
519.6577927937196
500.8967576820652
501.4201921217776
505.0586593066149
545.6963762610978
500.3153530513995
500.5817097568825
508.5665152115483
546.2090435645957
409.8572119737976
497.3410694499099
504.9319184927608
506.4598451346242
419.2415971098624
493.6240796776408
505.2764254740846
509.4659473714204
463.0013269517013
498.5416742300116
510.1504680703482
513.1774308401625
500.6269292745912
514.0882749764426
518.1246664099903
517.2228205385287
523.6318575031111
557.0966736024561
585.4614184445975
600.5756588057875
523.8646370515285
546.7795751607728
567.9985549574374
584.9229605387186
522.0575071402062
536.4045718954553
549.3874611927008
563.4008150520757
518.9424724968484
526.1157930217474
529.2588671850183
534.2542882005765
611.6142831260734
598.9301209707354
556.33920281475
515.8243256729405
620.9072585717572
602.2539108535381
547.1281332473079
509.476089963057
628.5276075956224
601.2374172270726
533.7501140847355
505.1650622220818
633.4423134577728
591.9477783605935
521.1141795063093
502.5260798090735
500.5130905881923
503.650132338032
528.7105577792922
627.8827285798233
500.3797846681317
504.562939729415
541.4802499398098
628.692043840701
500.5614027996738
507.0703385170605
559.04873963388
633.6438352986829
501.1754714803837
512.0682092223847
576.362063048412
636.027508233462
501.0418596706262
501.1559720893994
501.5046382168617
501.6378834656762
503.2481955761162
502.9374953057579
503.5517592204016
503.6355114092706
516.2421803702083
508.5744920271916
507.5202620524201
508.6666947660878
599.0601192805384
542.2863548914004
512.4832829393871
508.7377466853742
501.648664214922
503.6347432146376
509.5122113486829
509.9678372527274
501.5736651128053
503.6448267468028
510.3676647060855
510.4274514984422
501.3319164701225
503.4520327031138
511.3478089004147
511.7161857259651
501.0317163091634
503.1595943967667
511.8975631676772
512.4872505429271
500.0855780311881
500.8076274838424
509.5100997976069
522.1792696121595
500.2193741186888
501.4183719153566
511.0082792752387
517.3975917724541
500.4333603240856
502.1080090100179
512.011696618513
515.6937083872324
500.723005480422
502.715736051508
512.2344520014742
513.9936277536852
532.081068326133
505.9037265514289
500.2569816929645
500.0240011441604
532.6046766548386
504.2794050097066
500.127214436994
500.0058359920234
531.7806694022227
502.981490633434
500.0608329648354
500.0022331363097
528.8352149871647
501.888856911589
500.0171471831385
500.0002895658461
526.5277092165519
500.6337918429394
500.0016574110416
500.0001767640705
524.0494316043638
500.5508542163259
500.0011729544423
500.0000036143258
518.9776234883271
500.3141455399875
500.0000531973847
499.9999999802321
512.9971866929748
500.1804375130931
500.0000255761119
499.999999931522
500.0000000000775
500.0000001014576
500.0108210910527
502.4108846900654
500.0000000001133
500.000000215438
500.0162810407516
503.7081215142813
500.000000000257
500.0000007968367
500.0329637620152
505.3141363647867
500.0000000069798
500.0000039570709
500.0746573883973
507.7550266103449
504.6096249865193
506.8792454309827
510.6239227716441
518.7089099882362
506.8792454291282
509.7445224653119
515.8425948965249
527.8294600355645
510.6239227709662
515.8425948962328
525.6510115209134
540.6716700330297
518.7089099874335
527.8294600354234
540.6716700340593
557.3150297073735
575.0225955949837
561.4901410513365
554.1859012077009
541.4946389388095
572.9623003048331
568.8614804427909
567.4849428365786
561.4378292120192
573.2899579802744
572.0904768083362
571.3695862766015
569.3647462083716
570.3241103520247
569.8025694374877
569.7224769340637
568.7880861888008
566.0103283176571
564.5079957277794
559.9722259371642
553.8260242096062
565.8143598577517
564.1389774064777
559.883329867669
554.4257244596764
565.8627386935711
564.2059383240418
559.8840110610937
555.0313936446965
566.0511064132277
563.9794159431028
559.9620197335504
551.0106155242859
513.2756909786721
494.1447471690274
491.5408006294859
492.3058506913437
502.830884866111
489.9148438982197
491.7536306336369
492.8884691094279
492.5935735463249
489.8170695008021
493.2855236757698
494.5837073978292
470.5721337352743
485.0933319464843
491.7353819942898
493.2361418328448
493.0031773915982
494.0175649336392
495.4114156010468
496.9704891629874
493.5666765758459
494.3781453111783
495.5450358715782
497.2232498756512
494.953735687294
495.4435098617092
496.3354766102029
497.4388065955914
493.9067576802204
494.7327539934597
495.8198826865911
497.7330755410061
499.4700346014715
538.8977189573737
607.3068462597107
652.6299199952471
500.9353246781417
551.7842655721564
617.3432247050434
647.8585718420999
502.8238617781758
558.9435992366831
621.4660804096383
649.5335003220949
504.2861768841943
566.9060107183928
625.4327319594429
648.8040058136274
687.8402823586465
677.4374972515724
673.2392028734611
666.864040231088
696.0876484655389
685.4045113570329
679.1224260835321
672.1728592953463
703.2149428550655
693.0861272746537
684.4462726213328
676.5617660105696
701.884621237041
697.4841027930765
687.3312404051567
678.6882836921397
656.0068954685806
644.5493698722636
632.1546134441162
622.157998323916
660.4313478150872
648.0681264099267
635.4869790229282
624.0401713951728
664.8540274979171
652.1351913315312
639.4763405016339
626.8145971353259
667.4419641321778
656.1999702678428
644.1834556257879
630.1284339985715
614.0835832191257
604.76929452184
589.4125301380487
566.4621652390615
614.9344005015154
604.9431449776994
591.4794331132219
593.564376879519
615.969170532722
604.6808917732631
598.7879980829522
619.9791829970627
618.3020981188179
608.3595832543496
610.9989409855269
602.961347576204
524.6086365121674
456.3807941668819
359.4447915554952
274.6130178173037
511.2956723878778
414.5603621053712
278.8926672075557
243.0175420090892
469.125938566136
362.8961139240339
248.9464878284743
238.0187742892324
369.0076147884606
284.4876996970681
232.9596760711558
246.0183813099152
359.9305510560822
429.95779153775
475.2477074552068
511.7997801446576
323.7296487085808
389.2153541922073
436.4678171256132
474.8025276256708
304.0213334482417
352.936715475582
395.5619522042117
430.9426708107071
306.1413944550351
350.0416720199067
392.064900631364
418.1076170594902
490.4033336634531
502.6460163878078
492.9273847895202
486.6375215451019
442.3918057832523
473.4095235180063
483.215035597578
490.73961922556
406.8471124706977
438.0805960389078
466.2168813239345
503.7930689705277
389.6137490595491
413.1624600904107
446.6887893143182
522.8589026952729
478.2058235994693
465.7667808202026
457.3499967912281
450.5645026272875
479.4708745095341
480.4512095082522
478.0127078452
474.1153989695331
485.1063486500685
499.7861661990373
497.1052483796968
487.2373346344293
468.8259278503672
489.2265117118667
485.8416441305932
475.5484843888619
457.7594506505118
440.4981494756084
431.5496621588812
429.2918552491574
472.3613164946122
454.8448591717703
442.0480827369404
438.4370917431235
472.2676526016843
466.850028385511
458.6456211534748
454.3921724275671
453.8374387936444
458.7719314272243
460.7672202034911
461.9265265778005
429.2918552491488
438.4370917431121
454.3921724275596
461.9265265778297
431.5496621588198
442.048082736837
458.6456211534068
460.7672202035612
440.498149475485
454.8448591716212
466.8500283854278
458.7719314272842
457.7594506503714
472.3613164944852
472.2676526016257
453.8374387936527
450.5645026272207
457.349996791164
465.7667808202397
478.2058235995001
474.1153989694773
478.0127078451777
480.4512095082673
479.4708745095683
487.2373346343815
497.1052483796901
499.7861661990343
485.1063486500917
475.5484843888053
485.8416441306273
489.2265117119404
468.8259278504103
522.8589026951699
446.688789314428
413.1624600905685
389.6137490598247
503.7930689704837
466.2168813239623
438.0805960390056
406.8471124709252
490.7396192255829
483.2150355976121
473.4095235180698
442.3918057834562
486.6375215451457
492.9273847895428
502.646016387838
490.4033336635283
511.7997801448635
475.2477074556424
429.9577915379987
359.930551055255
474.8025276260162
436.4678171261161
389.2153541925352
323.7296487083403
430.9426708110418
395.5619522046248
352.9367154758986
304.0213334481942
418.1076170597776
392.0649006317627
350.0416720203184
306.141394455134
274.6130178175307
359.4447915542272
456.3807941669776
524.6086365124022
243.0175420090209
278.8926672069049
414.5603621054128
511.2956723881289
238.0187742892653
248.9464878279153
362.896113924262
469.1259385664538
246.0183813100646
232.9596760707356
284.4876996973791
369.0076147889014
566.4621652393159
589.4125301383112
604.7692945221736
614.0835832193867
593.5643768798236
591.4794331134735
604.9431449779212
614.9344005016411
619.9791829973288
598.7879980831739
604.6808917733848
615.9691705326624
602.9613475765369
610.9989409856948
608.3595832544389
618.3020981186496
622.1579983239656
632.1546134440531
644.5493698723664
656.0068954687295
624.0401713951396
635.4869790228829
648.0681264099793
660.4313478151935
626.8145971351975
639.4763405015749
652.1351913315599
664.8540274980222
630.1284339984004
644.1834556257274
656.1999702679085
667.4419641323138
666.8640402312449
673.2392028734846
677.4374972513672
687.8402823585733
672.1728592954544
679.1224260837085
685.4045113567591
696.087648465435
676.5617660107062
684.4462726215011
693.086127274252
703.214942854893
678.6882836923403
687.3312404052828
697.4841027926052
701.8846212368665
652.6299199950696
607.3068462594725
538.8977189574452
499.4700346017294
647.8585718419157
617.3432247047801
551.7842655721114
500.9353246784028
649.5335003218628
621.4660804093593
558.9435992365246
502.8238617783474
648.8040058133683
625.4327319591338
566.9060107181689
504.2861768843217
496.9704891633332
495.4114156011565
494.0175649334461
493.0031773916415
497.2232498759185
495.5450358715352
494.3781453109163
493.5666765759492
497.4388065957444
496.3354766100264
495.4435098614487
494.953735687448
497.7330755411064
495.819882686405
494.732753993142
493.9067576804691
492.3058506911947
491.5408006294348
494.1447471693855
513.2756909792387
492.8884691092282
491.7536306336091
489.9148438986759
502.8308848664886
494.5837073975305
493.2855236758319
489.8170695014066
492.5935735463689
493.2361418325233
491.7353819943566
485.0933319472067
470.5721337353876
553.8260242097142
559.9722259375135
564.5079957282999
566.0103283178015
554.4257244596133
559.8833298680687
564.138977406992
565.8143598579262
555.0313936445231
559.8840110614776
564.2059383245258
565.8627386936605
551.0106155240379
559.9620197339386
563.9794159436231
566.0511064133196
568.7880861887049
569.3647462082649
561.437829211909
541.494638939093
569.7224769339991
571.3695862764544
567.4849428363005
554.1859012075392
569.8025694374385
572.0904768081402
568.861480442327
561.4901410507584
570.3241103519686
573.2899579800487
572.9623003043363
575.0225955940958
491.7682757986823
493.559542025681
497.8554625532652
499.8438959694061
485.4851524839132
489.0019465222984
496.7698547647769
499.762540490782
476.2320252278927
485.4970924836684
495.825041932925
499.66347046178
464.2845167537681
482.5989923601783
495.1475701399959
499.5882089323775
499.5885982554366
494.7899744448814
475.7172989333181
454.8691232942094
499.5746498922411
494.7265240184354
476.7183523299673
453.0602173109027
499.5598972254928
494.6502362530518
478.2932129046673
450.5289374822962
499.5481758218467
494.762397918416
480.5979246473652
453.8842790817845
499.5882089323471
499.663470461655
499.7625404909924
499.84389596946
495.1475701398526
495.8250419328003
496.7698547646042
497.8554625533434
482.5989923602088
485.4970924837776
489.0019465225446
493.5595420259317
464.2845167536102
476.2320252277207
485.4851524838203
491.7682757987062
)
;

boundaryField
{
    back
    {
        type            empty;
    }
    inlet
    {
        type            zeroGradient;
    }
    front
    {
        type            empty;
    }
    top
    {
        type            zeroGradient;
    }
    outlet
    {
        type            fixedValue;
        value           uniform 500;
    }
    bottom
    {
        type            zeroGradient;
    }
    wall
    {
        type            zeroGradient;
    }
}


// ************************************************************************* //
