/*--------------------------------*- C++ -*----------------------------------*\
  =========                 |
  \\      /  F ield         | OpenFOAM: The Open Source CFD Toolbox
   \\    /   O peration     | Website:  https://openfoam.org
    \\  /    A nd           | Version:  11
     \\/     M anipulation  |
\*---------------------------------------------------------------------------*/
FoamFile
{
    format      ascii;
    class       volScalarField;
    location    "0.359155";
    object      p;
}
// * * * * * * * * * * * * * * * * * * * * * * * * * * * * * * * * * * * * * //

dimensions      [0 2 -2 0 0 0 0];

internalField   nonuniform List<scalar> 
880
(
80.0000000000004
80.00000016344441
80.01344023641668
81.87949473281692
80.00000000017725
80.00000048020441
80.01667511595217
82.76280239880852
80.00000000090169
80.00000187386576
80.03087079092273
83.82127184187632
80.0000000120275
80.0000082310082
80.06376717674179
85.40597859667493
79.99999994467788
80.00000002749124
80.00000610648877
80.00009433793124
80.00003794327644
80.00014578904944
80.00091057578817
80.00134551109429
80.14451390096121
80.2344532406096
80.38530949333385
80.53745933758864
88.34258743836477
91.39363301255972
93.99843140444392
95.23260040223641
80.00023347663236
80.00190152515154
80.00718230328242
80.02226420547848
80.01261707207706
80.05403787276505
80.10840172541951
80.22859508877612
81.2700407498458
81.9070405568669
82.71392820246402
83.76392042541973
96.38278808589247
97.94880331732912
98.27163779347102
97.50738409790253
90.98600310567096
87.50940977234248
85.83796932351586
84.74330141936493
85.69036411017224
86.36992309792207
86.77248791351148
86.80723567167354
80.63843761144433
81.12290291304677
81.63817307390994
82.02228540418656
80.07902974123166
80.19116374786323
80.360950979984
80.59933273747647
80.87726359777938
81.15642064550009
81.43274536135181
81.63893935585803
82.31178838201376
82.47968982122339
82.5665568226851
82.57236429658167
86.44793105089343
85.94892479163711
85.29431094370044
84.61619295416529
83.58737940739773
82.89961956760926
82.50749518844496
82.08042278265006
82.083927004589
84.14387439131335
82.5195954284963
81.76493880989786
87.73324191048107
83.86363982342712
82.36899522406637
81.74508300638837
120.5208211916832
85.2600381124731
82.18671818251575
81.49298152104214
158.3254910381242
93.04958036260574
82.66883718530781
81.40064169635102
81.37051233589094
83.39082356204577
102.760075862189
175.0687992920925
80.87088406579089
84.74749905274253
113.7172358991572
174.2749919674286
81.08312843286875
87.89367056807806
128.3504440730629
176.1391723709996
81.88832476277271
93.57160210210854
142.2503946221363
173.4192526870308
167.7160637662279
149.9397634725328
102.2194806878672
83.66244664298415
160.7482223716576
151.190452922779
111.8068426684688
86.83133998960091
153.3528397093641
148.9239985826259
120.1065863644774
91.92884634524241
145.6388432573352
138.9127869155877
121.445579260682
98.29341383825172
103.9306415352035
117.3605095614218
126.5710291854148
136.6073485378089
103.1217875513782
109.2101718315762
113.4309682559111
123.663237570661
100.8237090154579
101.4811720017681
100.6848475687884
107.3262577149589
97.83591423922195
95.22198553539782
89.17856613790688
88.30843503074757
95.45985838605931
89.32633601840723
78.72799160209479
66.39735112341914
91.67931216686368
83.96010060553533
69.93777340500263
43.06544319766529
88.7999979394498
81.54222332554629
63.25026510775565
26.39335128796575
86.3522564564289
80.46196004724642
59.00559719258115
14.84379379525108
15.62499399657809
60.58247300124516
79.58696859187542
84.16954727157352
24.77837586098942
61.37447965869715
78.99510304283278
82.7024149604501
27.34561283451878
61.053862697273
78.13757065488844
81.71134797260626
25.84389308644285
60.4476012181694
77.53156326886742
81.17322235023326
31.27219567077855
63.07347745866102
77.20361434818703
80.23864027763021
36.96191438525278
65.61355456406572
77.11764710110405
79.68628785342814
43.59764593940871
68.85309780937713
77.31589518124383
79.66622726791495
51.42141441824947
71.1001233620126
77.70075194408787
79.73954890607492
53.2721031262852
58.94424988941195
73.2953767068477
79.26225163576861
51.92525238368892
60.14866940944865
73.51996537221198
79.25398000157499
49.48456582640954
61.8661655957002
74.01942134417445
79.25576077984297
47.16905392539971
63.82485077584376
74.73560390337244
79.31406406677181
51.42141441825707
71.1001233619007
77.70075194413781
79.73954890575719
43.59764593942702
68.85309780908169
77.31589518115372
79.66622726750532
36.96191438526883
65.61355456381651
77.11764710070263
79.68628785291831
31.27219567083241
63.07347745844761
77.20361434806253
80.23864027730086
84.16954727171535
79.58696859194244
60.58247300128421
15.62499399631064
82.70241496042698
78.9951030428147
61.37447965870771
24.77837586073858
81.7113479726068
78.13757065494323
61.05386269683542
27.34561283441563
81.1732223501281
77.53156326904738
60.44760121801333
25.84389308646231
14.84379379524952
59.00559719243747
80.46196004716417
86.35225645653087
26.39335128787645
63.25026510774971
81.54222332572289
88.7999979394736
43.06544319761077
69.93777340519605
83.96010060561321
91.67931216708035
66.39735112346517
78.72799160198481
89.32633601820358
95.45985838625519
103.9306415354383
117.3605095620572
126.5710291858752
136.6073485378213
103.1217875512671
109.210171831522
113.4309682560869
123.663237570822
100.8237090149828
101.4811720016797
100.684847568782
107.3262577150185
97.83591423915274
95.22198553526826
89.17856613784053
88.30843503083524
145.6388432573725
138.9127869157574
121.4455792610552
98.29341383909444
153.3528397093956
148.9239985828088
120.1065863645639
91.92884634530753
160.7482223717231
151.1904529228314
111.806842668346
86.83133998975366
167.7160637661135
149.9397634727728
102.2194806882153
83.66244664307345
81.37051233587994
83.39082356198553
102.7600758620693
175.0687992918767
80.87088406630463
84.74749905301779
113.7172358991558
174.2749919671763
81.08312843360244
87.89367056874761
128.3504440732257
176.1391723708481
81.88832476292551
93.57160210198883
142.2503946222833
173.4192526869247
81.40064169629291
81.4929815209756
81.74508300668428
81.76493880995574
82.66883718482157
82.18671818236341
82.36899522399113
82.51959542835746
93.04958036210752
85.26003811245081
83.86363982308585
84.14387439115227
158.3254910377103
120.5208211913059
87.73324191051115
82.08392700459531
81.63893935605824
82.57236429672861
84.61619295441872
82.08042278286831
81.43274536117127
82.56655682284266
85.29431094394107
82.50749518851356
81.15642064547379
82.47968982122852
85.94892479160687
82.89961956718849
80.87726359749367
82.31178838180875
86.4479310511577
83.5873794074885
80.07902974106055
80.63843761109354
85.69036411052534
90.98600310590813
80.19116374755842
81.12290291273804
86.36992309825911
87.50940977236367
80.36095098017493
81.63817307367862
86.77248791357117
85.83796932306885
80.59933273724053
82.02228540399516
86.80723567203495
84.74330141900771
97.50738409784027
83.76392042553064
80.22859508862308
80.02226420578131
98.27163779341558
82.7139282025789
80.10840172519407
80.00718230323773
97.94880331746843
81.90704055681195
80.05403787206872
80.00190152488388
96.38278808589867
81.27004074963699
80.01261707182245
80.00023347703033
95.23260040203205
80.53745933769362
80.00134551117655
80.0000943383485
93.99843140399524
80.38530949328168
80.00091057553179
80.00000610674206
91.3936330120949
80.23445324052135
80.00014578884252
80.00000002738727
88.34258743796234
80.14451390090244
80.00003794323339
79.9999999453709
80.00000000002807
80.00000016352345
80.01344023644754
81.87949473271807
80.00000000026192
80.00000048001256
80.01667511596555
82.76280239886484
80.00000000110963
80.00000187376273
80.03087079095781
83.82127184218056
80.0000000123395
80.00000823086081
80.06376717673209
85.40597859676782
83.52249326831416
85.09337761419573
87.64123620438481
92.78373743368748
85.09337761447335
87.14828724111763
90.99428732840077
98.68746868256301
87.64123620452537
90.99428732844395
97.30850405583013
106.8171143451006
92.78373743377645
98.68746868242707
106.8171143453683
117.1785679812251
127.9895691593221
119.0219374781406
115.0978051344513
106.8619532358038
126.2766159746731
123.6424855941166
123.600896251521
119.5267109713499
126.3175322029322
125.4919397576853
125.0481425680401
123.6372826423156
123.7353033103081
123.3281685185777
123.2413205795594
122.3905772019468
119.6747061190071
117.8550210276509
114.251120203566
109.3404595257712
119.94087213976
118.0387353478297
114.3861731703044
109.8053286941472
120.2765820359799
118.220546521648
114.3684373220157
110.2400974143355
120.451409109858
118.1121264516009
114.5200240401178
108.5599950722892
82.83108259207206
71.90599960677955
70.60657712515052
70.98715657375111
75.82133026213407
69.03132739156592
69.65883257900927
70.38352601602755
69.99765555503973
68.89669251838716
70.23120803556404
70.93169718806307
60.73671295943242
66.59889923357483
69.23967073461992
70.20028755928894
70.93257023579871
71.29529176869194
72.11033614720714
73.05369784907649
70.47533196976539
70.85399046840602
71.73825335745134
72.93161716965344
70.90715150223474
71.13734248049931
71.87532994039978
72.80976584764608
70.29957295686833
70.62116594544626
71.55633465229229
72.84944632284618
78.66411044774934
114.0029788729143
165.0373165206189
181.4260809726055
81.34893052778509
121.4930331660505
162.5159893487699
173.2868603905104
83.47800828969709
125.2691478842028
161.2894820908322
171.9862293155459
84.84469718931686
130.6856723231413
161.6395582834328
171.9589092400086
218.1690603773108
209.3531156318305
201.8150638374497
190.5584294945004
219.336272375212
212.131989690502
203.9647520785123
192.3977282709078
218.3318499459
213.6626569870539
205.0616926124123
193.5151716014528
213.2131478441965
215.5873526901435
206.9810518475205
195.2502422895501
178.1743792300453
167.9169203080347
158.2843083135717
153.3860812627064
180.1776304488501
169.3161095378558
158.9780375185077
153.7592215017449
181.3249298318296
169.5253080338228
159.5285625937444
153.7255999864317
183.7301638089249
170.9382345561516
161.1861946661191
154.8251592344766
148.5662519078319
140.6559118755872
126.7747195645137
105.8852803728617
149.2588514289389
142.1786877330607
128.8944047736298
114.3608411046194
149.2029297628646
142.6054631998983
130.6880313239094
119.668355466173
150.3653387329999
144.9495649710128
134.0407496287174
134.5833016017803
64.62403504042689
16.55038640193613
2.691199839774392
1.283001790362972
49.9528885976594
10.39539646916514
2.242716941272788
1.464784605196685
34.73916365112193
6.572867130299952
1.964270414434051
1.621609594132555
19.5512614653758
3.061911903676374
1.727041472692612
1.814289144778972
1.928855342704711
4.158077307601259
6.788798317899891
10.6743394311304
2.737587880753193
5.091336869348928
7.803459782018698
11.94690986706772
3.201417736531857
5.475894807750042
8.647764405387269
12.64802057729547
3.755658178080475
6.201701006628307
10.09385423421273
13.79340126157384
12.51809094702038
18.94288015398928
26.03467097617463
34.74371711784715
12.13093509709962
17.88044147444647
24.72166249487861
33.23344275303464
12.44164982819734
16.35366697674255
22.8776603098118
32.24202416950075
11.69719896286705
14.46413608153246
19.06333823715341
30.28912116307529
35.03956414494815
33.2122655593472
32.55006292853455
33.17503954164933
31.86734798358826
31.78710687180928
32.24776624896311
32.35254156221493
31.01209793864113
32.65830212125379
32.98822902514871
33.0230938092361
29.23221414411305
31.45717119308851
31.77657579399037
32.50410985642151
32.92372748471186
33.23714349187377
33.49881334225734
33.62633414747902
32.97976711928723
32.93877249790715
32.8485091168735
32.95587558537866
32.9277419730977
33.39852265881423
33.83825720080071
34.09787754160574
34.74786596084152
35.79989506653052
36.54066298954868
36.54508539125341
33.626334147481
32.95587558538276
34.09787754160853
36.54508539125747
33.49881334225861
32.84850911687273
33.8382572008131
36.54066298957176
33.23714349187335
32.9387724979106
33.39852265883562
35.79989506655845
32.92372748472982
32.97976711930159
32.9277419731316
34.74786596088249
33.1750395417174
32.55006292856994
33.21226555940721
35.03956414497743
32.35254156224809
32.24776624901124
31.78710687187675
31.8673479836301
33.02309380926111
32.98822902519294
32.65830212130212
31.01209793869832
32.50410985644554
31.77657579401908
31.45717119312732
29.23221414416374
30.28912116316175
19.06333823726272
14.46413608163339
11.69719896295282
32.24202416957843
22.87766030990911
16.3536669768494
12.44164982829253
33.23344275311237
24.72166249498068
17.88044147456003
12.1309350972041
34.74371711790957
26.03467097628507
18.9428801540947
12.51809094714702
10.67433943118535
6.788798317930195
4.158077307563961
1.928855342732163
11.94690986712492
7.803459782057628
5.091336869335556
2.737587880754647
12.64802057736023
8.647764405439293
5.475894807749321
3.201417736526638
13.79340126163596
10.09385423427351
6.20170100664722
3.755658178075026
1.283001790398112
2.691199839736349
16.55038640182827
64.6240350404819
1.464784605211495
2.24271694126235
10.39539646912685
49.9528885975787
1.621609594131991
1.964270414422516
6.572867130287833
34.73916365111236
1.814289144774037
1.727041472680694
3.061911903676289
19.55126146536347
105.8852803728559
126.7747195644229
140.6559118754955
148.5662519077417
114.3608411045837
128.8944047735513
142.1786877329446
149.2588514288726
119.6683554660868
130.6880313237957
142.6054631998059
149.2029297628014
134.5833016017245
134.0407496285853
144.9495649709348
150.3653387329635
153.3860812626841
158.2843083133612
167.91692030762
178.1743792295183
153.7592215016753
158.9780375182889
169.316109537099
180.1776304482387
153.7255999864518
159.5285625934981
169.5253080330919
181.3249298312986
154.8251592344283
161.1861946659382
170.9382345558083
183.7301638084426
190.5584294940645
201.8150638370193
209.353115631584
218.1690603773273
192.3977282705492
203.9647520784009
212.1319896901839
219.3362723751905
193.5151716012754
205.061692612242
213.6626569867094
218.3318499458846
195.250242289394
206.981051847446
215.5873526897858
213.2131478442251
181.4260809726064
165.0373165203598
114.0029788729757
78.66411044803401
173.2868603904223
162.5159893485947
121.4930331660889
81.3489305280839
171.9862293154576
161.2894820906863
125.2691478841923
83.478008290012
171.9589092398637
161.6395582832903
130.6856723231269
84.84469718964084
73.05369784929781
72.11033614704499
71.29529176817762
70.93257023554736
72.93161716990956
71.73825335725267
70.85399046788019
70.47533196954416
72.80976584792498
71.87532994012764
71.13734247999201
70.9071515020139
72.84944632312052
71.55633465206331
70.62116594492028
70.29957295663162
70.98715657330719
70.6065771248059
71.9059996069075
82.83108259220973
70.38352601559917
69.65883257859377
69.03132739178508
75.82133026222151
70.93169718763536
70.23120803513278
68.89669251864217
69.99765555508944
70.20028755885478
69.23967073410461
66.59889923381442
60.73671295951198
109.3404595257818
114.2511202035753
117.8550210279553
119.674706118884
109.8053286940792
114.3861731703922
118.0387353481062
119.9408721396448
110.2400974142739
114.3684373221202
118.2205465218283
120.2765820357886
108.5599950721828
114.520024040189
118.1121264517688
120.4514091097004
122.3905772013094
123.6372826414017
119.5267109703971
106.861953235748
123.2413205787988
125.0481425669998
123.6008962501185
115.0978051340798
123.3281685179359
125.4919397566323
123.6424855925157
119.021937477043
123.735303309615
126.317532201914
126.2766159727809
127.9895691571497
54.10013681285386
71.27372531680062
77.56558823670889
79.75981413443421
50.83006399143731
69.89691459275537
76.9376139425256
79.66649903880855
48.23201302038878
68.24143894287374
76.32389762007904
79.55047037123211
46.4027912427896
65.93738333119195
75.50714059736704
79.42171571230678
79.26225163566068
73.29537670681302
58.94424988942643
53.27210312631464
79.25398000145331
73.51996537223691
60.14866940949234
51.9252523837214
79.25576077982394
74.01942134422437
61.86616559568903
49.48456582646209
79.31406406678096
74.73560390333797
63.82485077580609
47.16905392543511
79.42171571218543
79.55047037107065
79.66649903878005
79.75981413417863
75.50714059717076
76.32389761996595
76.93761394231908
77.56558823668726
65.93738333118554
68.2414389428946
69.89691459288501
71.27372531691991
46.40279124277286
48.23201302033993
50.830063991431
54.10013681287266
)
;

boundaryField
{
    back
    {
        type            empty;
    }
    inlet
    {
        type            zeroGradient;
    }
    front
    {
        type            empty;
    }
    top
    {
        type            zeroGradient;
    }
    outlet
    {
        type            fixedValue;
        value           uniform 80;
    }
    bottom
    {
        type            zeroGradient;
    }
    wall
    {
        type            zeroGradient;
    }
}


// ************************************************************************* //
