/*--------------------------------*- C++ -*----------------------------------*\
  =========                 |
  \\      /  F ield         | OpenFOAM: The Open Source CFD Toolbox
   \\    /   O peration     | Website:  https://openfoam.org
    \\  /    A nd           | Version:  11
     \\/     M anipulation  |
\*---------------------------------------------------------------------------*/
FoamFile
{
    format      ascii;
    class       surfaceScalarField;
    location    "0.359155";
    object      phi;
}
// * * * * * * * * * * * * * * * * * * * * * * * * * * * * * * * * * * * * * //

dimensions      [0 3 -1 0 0 0 0];

internalField   nonuniform List<scalar> 
1652
(
1.706212168242977
0.5337381654478428
-1.756372824956998e-13
1.17247400376669
0.5337381584389944
9.350298313393068e-13
0.6387445867986464
0.5335572554401526
6.861178292183467e-13
0.5291694839201417
-8.937073303627585e-12
0.1057110198148878
1.706212168247669
1.067476330876236
1.172474005823366
1.067476302897802
0.6387502637697102
1.067105770248018
1.05346984737864
0.1085005243153654
1.706212168244339
1.601214496297358
1.172474013684009
1.601214387086107
0.6388068594166429
1.60047435963202
1.575037420534282
0.1089062829051011
1.706212168319542
2.134952661525102
1.172474043699649
2.134952229342487
0.63889422762992
2.133494061424118
2.097349034035337
0.1052268505134716
2.651191214819399
1.72371178017802
3.167429763797731
1.723711779123104
3.683668090576492
1.723711851101188
1.723712858754211
4.199906973940642
2.651189462659068
1.207473399151652
3.167421592639005
1.207473284727132
3.683647067132321
1.207475965515983
1.207511786952665
4.199820763311946
2.649582181877052
0.6899959836504332
3.166041481421515
0.6888420754881149
3.68270333745625
0.6872913829747136
0.6887252686249469
4.194527648602068
2.650867314499038
0.1168416379790787
3.273921281933755
0.04172675068871246
3.912938985441706
0.01812305177682705
4.554424670731559
0.01129206884320183
4.164891496785342
0.03501638365517434
4.129861189973001
0.03500477554558101
4.094845450291968
0.03485882518002337
0.0347833276552223
4.059708230051299
4.164990020034828
0.06971408968392728
4.13035592082969
0.06893698551084509
4.096343753501897
0.06750157365962445
0.06568121712423408
4.062545135153719
4.174763928201652
0.082426069824384
4.160198956188082
0.07411025214910527
4.152929872461637
0.06156329438374253
0.05299088371484784
4.147956745910986
4.603031548853131
0.006229736488460813
4.647524195429845
0.005264826791828381
4.68066530506389
0.006630797514263265
4.71290310549703
0.007741273322724729
4.670357826441071
0.1044110717662692
-0.06872435662414145
4.585724448345092
0.1015261368831373
-0.01838142902814863
4.503702140055972
0.09666153457780652
-0.008941506935331578
0.08785464081742939
4.43158996536104
-0.00679686939529367
4.2200750372866
0.0136033363409046
4.275142416798345
0.02650689122938776
4.314320509442065
0.03726270465403908
0.04540321560460159
4.33812496857166
4.068841633888655
0.00107281171094431
4.08131271860429
0.002962578622308865
4.098843427021176
0.005654381503549577
0.009948126241967503
4.118417938253772
4.059561753237913
4.059934824267
4.061254005019639
4.064431263770268
4.069792523692084
-0.0155414848370462
4.077672842916156
-0.02161770080703662
4.087609761038108
-0.02801218930566873
-0.03209875954557651
4.096889809488675
4.138828756050364
-0.0536883862992294
4.158797001730523
-0.06002471178160462
4.176976970092723
-0.06320965119359667
-0.06155342047490864
4.190953694945934
4.347616196606298
-0.0786440188036312
4.345711832450379
-0.068225671404471
4.33366615158987
-0.05402060262095865
-0.048083210183548
4.31921694635596
4.365087446900637
-0.007519689420413644
4.316460184150243
-0.005961435741988957
4.273262411556548
-0.003539376317263587
4.244347165198421
-0.002873356983027819
0.0426273474104476
4.228725404355931
-0.01743514629870535
0.05773745687496828
4.308743119406526
0.03446377539760315
4.199813431321941
4.101764355835609
0.04040402516246233
4.249591305985575
-0.1455730435242742
0.04759100079125478
4.301639790560992
0.03367019305417362
4.206127755340647
4.102778805994995
0.07809638979492634
3.98538911717973
-0.1400767899852927
0.04624091819896109
4.308905208324724
0.0280878977742397
4.211399737783488
4.097979805185698
0.1745639325472129
3.682652694917668
-0.04235373274262905
0.06563927560912819
4.316439155356202
0.0280210355062851
4.226389481716803
4.100449018609084
0.07034736425240307
3.979731869035584
0.1236071929147789
4.132342624607269
0.08034337021297333
4.217573055920564
3.561207690594695
0.1473733841823495
0.06630487156484133
3.876789335706768
0.08933890041424764
4.042681750105536
0.008635156565300894
4.095006782311151
3.434961430987438
0.111801120333258
0.0528463506662511
3.784906753353397
0.01859776077578235
3.955584195550974
-0.07006742344627792
3.934876422791013
3.333179767453612
0.05847103527049857
0.02157739417577109
3.705401983130967
-0.08831246368826517
3.861334565295268
-0.1185376466388988
3.745589694341021
3.239390869998529
0.02715407960244676
0.1401839105308239
3.15525881524045
0.002302946705698083
0.1879572465275415
3.584198038719023
0.03388517229810173
3.734400663559463
3.642098904647471
0.1485383997533785
3.077853082782696
-0.006620835297770689
0.2559204259159334
3.472697400672711
0.1027046935545131
3.58491513331947
3.592055778890511
0.14049370345691
2.995536194128258
0.002453837894900834
0.2945742452010837
3.34625216629339
0.1907902474408024
3.450018588781222
3.557216422040886
0.1100313649547693
2.890810188331212
0.01568744347945683
0.2666577965110168
3.221454710742933
0.2509049364551605
3.304421040790022
3.515284471685115
-0.2198726924315333
3.464240243903363
-0.1874281085239925
3.230010810660422
-0.04685596457397534
3.107193746129401
2.78951566560733
0.04415832958197752
-0.1620759226783637
3.402257923822354
-0.1271155988770678
3.13974540481959
0.001567347981039413
3.005015770934202
2.707236240277845
0.06647011700062522
-0.1025246951680202
3.328730464090687
-0.05277645254279473
3.057221859947302
0.06928697783201637
2.911678434264765
2.6412672106614
0.1219758992153082
-0.0360120820418226
3.224094081394922
0.03385923813163927
2.966959579341613
0.155706364127035
2.819902546069207
2.569311693105518
0.2296508248490405
-0.3468628621442937
3.454573104628812
-0.5764979186230903
3.185689419814581
-0.7153261646878317
3.000099557079663
2.633140337918799
-0.7690663521616383
-0.3002613733372818
3.659392888384576
-0.5257778432859233
3.407161016485069
-0.6287055127448355
3.176725943749344
2.281335959654662
-0.2632297113519184
-0.2736976378682914
3.844364784616485
-0.482143968003919
3.621293417649054
-0.5140483381267709
3.331221206769603
1.802844011976844
-0.02967640942543969
-0.2404039113845041
4.010892105157883
-0.4394991459576098
3.827674491714389
-0.3629602552419101
3.439161966244434
1.418355521859552
-0.01228897471121913
0.1578176384798058
1.460586609458003
-0.01047193485016502
0.2075993503443781
3.53015161575684
0.1042225023111336
3.938070131919932
4.062722035155224
0.1656577487681892
1.43995181917565
-0.007972455610571017
0.1877557324916152
3.62594515063376
0.09473752973069782
4.050807100694426
4.107781990629223
0.1503884082862258
1.343361696651953
-0.00339137722862802
0.1686416815752624
3.723485993699251
0.08926885098127346
4.160122221622475
4.149654110699495
0.1199079245402635
1.254214829930582
0.002208696835631064
0.1500596835391888
3.816797581620131
0.08905134774739693
4.257612984382972
4.196376844766225
-0.2360163495027342
1.570407368114922
-0.01566733301226283
-0.184549139095797
3.985519535277206
-0.04692995885194984
4.197847916195949
4.097610515333451
-0.265019574073999
1.92830523801819
0.006001762705749134
-0.1780397515424376
4.068999344048715
-0.03207898146836019
4.113177041321096
4.0600379440507
-0.2623927824062756
2.245653177955766
0.03362326440963245
-0.1343746595810797
4.102165558796202
-0.02060869651805075
4.067397421354114
4.056532958592094
-0.2321085433880124
0.08789671920291331
2.49856494523363
-0.1113152729858546
4.099422461928869
-0.01646951162339283
4.039809264752649
4.056694748746748
0.3370595177711178
-0.4387922545529803
-0.01287560124749951
5.60484991751764e-12
0.8930088923195387
-0.4129120698047801
-3.095301792654936e-13
1.633927581445589
-0.464720582670044
7.487344078072056e-13
-0.5171146846361672
-1.278221972711435e-11
0.33412686292068
-0.8921259264908687
-0.01278077642782457
0.9069464933793802
-0.8652852944984644
1.634845900898519
-0.9425357919746333
-1.035786297284431
0.3307511236599281
-1.351574118621491
-0.01559645357783441
0.9267251672899115
-1.343134103734452
1.63893483420004
-1.451606913159188
-1.556762723849145
0.3241242654944754
-0.01608012180256998
-1.703812841210263
0.9568877912779254
-1.8511601870892
1.647598033453037
-1.983871489085984
-2.082303476491271
-0.2321085433869096
-2.245653177956243
0.08789671920291972
2.498564945231478
-0.1113152729844412
-4.10216555880114
4.099422461927614
-0.01646951161901344
-4.067397421352598
4.039809264749501
-4.056532958593006
4.056694748742448
-0.2623927824055224
-1.928305238022513
0.03362326440988377
-0.1343746595823244
-4.068999344056594
-0.02060869652055941
-4.113177041323977
-4.060037944054614
-0.2650195740748996
-1.570407368120383
0.006001762705993868
-0.1780397515467157
-3.985519535284767
-0.03207898147301091
-4.197847916197285
-4.097610515336324
-0.2360163495034349
-1.25421482993376
-0.01566733301206934
-0.1845491391000366
-3.81679758163052
-0.04692995885600015
-4.257612984382066
-4.196376844756627
-0.1042225023062435
4.062722035171909
-4.010892105183073
-0.2075993503325403
3.938070131941837
-3.827674491744372
-0.1578176384732775
3.530151615733768
-3.439161966214641
1.460586609429693
-1.418355521837146
-0.01047193485040113
-0.09473752972474014
4.107781990633166
-0.1877557324778954
4.050807100710399
-0.1656577487630479
3.625945150621351
1.439951819165589
-0.007972455610711623
-0.08926885097561027
4.149654110693979
-0.1686416815582807
4.160122221630139
-0.1503884082809507
3.723485993696664
1.343361696648267
-0.00339137722846072
-0.08905134774066065
-0.1500596835227311
-0.1199079245353401
0.002208696835636133
0.3629602552456857
-1.802844011963697
-0.01228897471120289
0.4394991459729051
-3.331221206755746
0.240403911399488
-3.621293417676732
-3.844364784636418
0.5140483381308697
-2.281335959642553
-0.0296764094246869
0.4821439680186605
-3.176725943744751
0.2736976378795951
-3.407161016506287
-3.659392888399227
0.6287055127521138
-2.633140337914291
-0.2632297113508145
0.5257778433005741
-3.00009955707778
0.3002613733476022
-3.185689419827237
-3.454573104634869
0.7153261646948043
-2.56931169310532
-0.7690663521634837
0.5764979186349325
-2.819902546070666
0.3468628621488138
-2.966959579347242
-3.224094081394391
-0.2198726924315607
3.464240243914879
-3.515284471701055
-0.187428108516685
3.230010810675092
-3.304421040813237
-0.04685596456957875
3.107193746117997
-3.221454710726146
2.789515665596646
-2.890810188319251
0.04415832958200649
-0.1620759226720405
3.402257923829531
-0.1271155988687268
3.139745404828576
0.001567347985655387
3.005015770925222
2.707236240271678
0.06647011700208882
-0.1025246951656734
3.328730464093093
-0.05277645253456209
3.057221859953825
0.0692869778361066
2.911678434259754
2.641267210658083
0.1219758992157952
-0.0360120820378651
0.03385923814063696
0.1557063641306253
0.2296508248492641
0.1100313649575602
-2.995536194118603
0.01568744347986606
0.2666577965177568
-3.346252166283532
0.2509049364575147
-3.450018588795452
-3.557216422052669
0.1404937034598357
-3.077853082775991
0.002453837894824451
0.2945742452092043
-3.472697400669067
0.1907902474444677
-3.584915133328145
-3.592055778897151
0.1485383997568951
-3.155258815235392
-0.00662083529849411
0.2559204259231005
-3.584198038720925
0.1027046935553149
-3.734400663562355
-3.642098904649974
0.1401839105329437
-3.239390869997925
0.002302946705238451
0.1879572465349919
-3.745589694347722
0.0338851723014898
-3.861334565296083
-3.705401983128485
0.0703473642538115
3.979731869036744
-4.100449018606807
0.1236071929153414
4.132342624608557
-4.226389481714874
0.08034337021343474
4.217573055924008
-4.316439155358374
3.561207690598883
-3.682652694921094
0.1473733841822429
0.06630487156672504
3.876789335708487
0.08933890041603415
4.042681750107699
0.008635156565875546
4.095006782313562
3.43496143098808
0.1118011203321394
0.05284635066810262
3.784906753354796
0.01859776078024367
3.955584195555257
-0.07006742344561767
3.934876422799512
3.333179767454534
0.05847103527157416
0.02157739417882509
-0.08831246368585388
-0.118537646637536
0.02715407960288629
-4.097979805185135
-0.02802103550546398
-4.102778805996411
-0.02808789777341658
-4.101764355836983
-0.03367019305241892
-0.03446377539770906
-4.096889809489393
-4.211399737784611
-0.06563927561162852
-4.20612775533924
-0.04624091819951121
-4.199813431315966
-0.04759100079161482
-0.05773745687487813
-4.190953694941053
-4.308905208327546
-0.1745639325464536
-4.301639790561429
-0.07809638979399852
-4.308743119405722
-0.04040402516306241
-0.04262734741033408
-4.319216946357164
-3.985389117185413
-0.04235373274274157
-4.249591305986376
-0.1400767899860185
-4.228725404354816
-0.1455730435225206
-4.24434716519916
-0.01743514629843729
-0.03209875954407448
-4.087609761037855
-0.06155342047422863
-4.176976970087608
-0.04808321018257306
-4.333666151593624
-4.273262411557505
-0.002873356982305703
-0.02801218930624572
-4.077672842915877
-0.06320965119275374
-4.158797001725115
-0.05402060261896424
-4.345711832456653
-4.316460184148213
-0.003539376316255727
-0.02161770080586123
-4.069792523693541
-0.06002471178129476
-4.138828756043867
-0.06822567140345104
-4.347616196614379
-4.365087446899323
-0.005961435742137894
-0.01554148483432294
-4.064431263775147
-0.05368838629989509
-4.118417938246226
-0.0786440188032283
-4.338124968579837
-4.431589965362011
-0.007519689420023984
-0.001072811712761412
4.059561753236244
-4.059708230047155
-0.01360333634407196
4.068841633871828
-4.062545135133791
-0.1044110717696268
4.220075037300635
-4.147956745926834
4.670357826450579
-4.712903105508322
-0.06872435662341531
-0.002962578628553647
4.059934824266727
-0.02650689123359035
4.08131271859
-0.1015261368865227
4.275142416812699
4.585724448352481
-0.0183814290283961
-0.005654381505353689
4.061254005021663
-0.03726270465954323
4.098843427009609
-0.09666153458209759
4.314320509453586
4.503702140060337
-0.008941506936453042
-0.00994812624590713
-0.04540321561034683
-0.08785464081997019
-0.006796869395221061
-0.05299088371950289
-4.680665305072135
0.007741273322658615
-0.06568121713671388
-4.152929872468865
-0.034783327660455
-4.09634375349313
-4.094845450291562
-0.06156329438938968
-4.647524195435164
0.006630797514053988
-0.06750157367255794
-4.160198956186956
-0.03485882518323291
-4.130355920834162
-4.129861189978042
-0.07411025215562084
-4.603031548850482
0.005264826791992305
-0.06893698552262562
-4.174763928192631
-0.03500477554611403
-4.164990020052165
-4.164891496789055
-0.08242606982890294
-4.55442467071771
0.006229736489446747
-0.06971408969649129
-4.194527648586345
-0.03501638365873383
-4.199820763339797
-4.199906973943976
-0.6887252686231732
-3.912938985412425
0.01129206884427547
-1.207511786945044
-3.682703337444944
-1.72371285875926
-3.683647067147537
-3.683668090576841
-0.6872913829726196
-3.273921281900602
0.01812305177850781
-1.207475965508566
-3.166041481417357
-1.723711851102575
-3.167421592652143
-3.167429763801559
-0.6888420754877408
-2.650867314470309
0.04172675068646831
-1.20747328472321
-2.649582181877653
-1.723711779123472
-2.651189462668194
-2.651191214825514
-0.6899959836504751
-2.097349034023379
0.1168416379711006
-1.207473399151445
-2.133494061427454
-1.723711780188883
-2.134952229342166
-2.134952661529111
1.706212168246033
0.5337381654428806
1.172474003771286
0.533738158443537
0.6387445868018586
0.5335572554442054
0.5291694839053611
0.1057110198185749
1.706212168248593
1.067476330870321
1.172474005824037
1.067476302897654
0.6387502637701191
1.067105770251515
1.053469847371523
0.1085005243177659
1.706212168246495
1.601214496294571
1.172474013684137
1.601214387086467
0.63880685941592
1.600474359635875
1.575037420532472
0.1089062829042463
1.706212168319983
1.172474043697326
0.6388942276270217
0.1052268505110205
0.1054761218848504
0.1054761218890204
0.1054651195028832
0.1079719503452291
0.1059222135890979
0.1078288473195922
0.1026803954972223
0.1077865904921989
0.1079719503426765
0.1054651195071807
0.1076780325465041
0.1076780325488869
0.1081686275738059
0.1066958252031494
0.09904060057152241
0.1111322412122869
0.1078288473205409
0.1059222135925618
0.1066958252038541
0.1081686275763558
0.1063682472317227
0.1063682472321246
0.09589870764226517
0.1089246810012293
0.1026803955009435
0.107786590494016
0.09904060057496514
0.111132241214466
0.09589870764646703
0.1089246810009047
0.09567903984425165
0.09567903984927059
-0.03916516416763816
0.1340435266834641
-0.06253348882367593
0.1313138023851004
-0.08851758718396191
0.1359919137504954
0.134876123090855
-0.005683041975449887
0.1388624727221729
-0.01617614442296933
0.1408678662785534
-0.02706092500568824
0.1458988914391021
0.1484345913137553
-0.0009908910336499099
0.1391877484545022
-0.007345872015650068
0.146499746162207
-0.01313701464751421
0.1509065471017348
0.1525089607276892
-0.001218427645899078
0.1398054171256194
-0.006135053840806204
0.1507770247891353
-0.009219495062919247
0.1533093747504676
0.1538229117171721
0.153304486114081
0.006169802683654801
0.1533738057899052
0.004948857744626056
0.1526215252924251
0.007182729478064698
0.006669578217894379
0.1537760201646181
0.1535216985265137
0.005391557429438365
0.1538391568314292
0.004325638975521573
0.1539173454854751
0.006914015039820198
0.003199471681141819
0.1574329814369665
0.1528823064389793
0.002725309237005813
0.1538641697006355
0.003032941926949584
0.1547062538602465
0.005884767511155908
-0.009752494273324475
0.1676853086961599
0.1419795421962946
0.144652632762184
0.1502914093805616
0.1404654233157136
0.1403008197226147
-0.05510058164351853
0.131095210920649
-0.008870071010340291
0.1296715077164601
-0.00696078228809538
-0.006209586719292337
0.129657803763373
0.1446509056274808
-0.0422293203123322
0.1388120197277301
-0.002739544575129177
0.1356436702452906
-0.003209314659502804
-0.00392535319595777
0.1339599499539174
0.1511974901564344
-0.02569966311788319
0.1456035104210833
0.003130212584827846
0.1416395310964586
0.001326451165037046
8.829210670519005e-05
0.1382201589929204
0.1147571674408322
0.1181775825691479
0.120106073397244
0.1208111497700499
0.1299225496807401
-0.006883065567346636
0.1308473510665212
-0.005825203483120156
0.1320172380359604
-0.003770246310554226
-0.003039526383031177
0.1331242568612077
0.1327175227464294
-0.004748149007634039
0.1322474443214489
-0.004284907612093047
0.1322725765581876
-0.002832683580928169
-0.002530341619618431
0.132697908790196
0.1355152565403865
-0.001149300969532557
0.1336102848717586
-0.001296633276862053
0.132551240614675
-0.0007893184490060934
-0.001116580066939238
0.1321973520886151
0.1205620019597277
0.1203322232625001
0.1204705622621448
0.1203665947354965
0.1377904189542922
-0.02477340349048654
0.1349080054543117
-0.1504215915919451
0.1107970632504913
-0.123052636691619
-0.01105858517537767
0.08053599430433826
0.132214279581038
-0.02826213052388632
0.1023767557778197
-0.1269812655358203
0.05613980705168875
-0.08151953905834025
-0.00262828927078268
0.04681603325501363
0.1239623529664775
-0.02437532990343749
0.05398117500535453
-0.0629907777137042
0.002587714426194099
-0.03527213751269115
-0.006643031318364634
0.004863596077236354
0.09100220784501845
0.02209993893394513
-0.01731267152686353
-0.02687685413590871
0.1047518365643645
0.1254395387399105
0.1177040368914075
0.1030313980895626
0.1245978176155018
0.05757346947506914
0.02674756349912222
0.1298501772414301
0.08615266186702827
0.08816101837992374
0.1121738426700405
0.08105547924279299
0.123371719058768
0.05042072438432443
0.02494909489236619
0.1296013147053538
0.05320354459808348
0.04165657966487202
0.09766223281584394
0.04053600495143828
0.1175466907664602
0.03379021269913507
0.02013140355442877
0.1261519110992737
0.01607251804316473
0.06049153884401839
0.09670435389488918
0.1200195955659315
0.1350780953589783
0.003088313293888478
0.1400344246894996
-0.006426103536492089
0.1434908845497186
0.001365956844338267
0.01111670842021184
0.1477696819337787
0.1347863011541557
0.005065781562466509
0.1395798383464165
-0.002637306550647978
0.1424732235602126
0.001745958919185941
0.00678825057438659
0.1464991228127606
0.1320067134288244
0.006210244111849006
0.1377164086833809
0.000131269421246083
0.1417209216065082
0.001451842557604555
0.00311528373296055
0.1452944321193398
0.1330947631405298
0.138847003318329
0.1429946260395326
0.1462833624655947
0.1586622075860592
0.03178554148107748
0.1726561366140559
0.05121299124811085
0.1922492821589911
0.1023252825481925
0.1805239177740378
0.2412410645777053
0.1566710213340211
0.01993294570316828
0.1704586181037128
0.03610466460780581
0.1914997421334065
0.08113851630266367
0.1229154701897658
0.2492106874782859
0.1538894904808356
0.009768256668572284
0.1672289807821302
0.02141587080668494
0.1942623839090801
0.05345254717006215
0.03429438811643132
0.2830990249439566
0.1546646472811147
0.1746585604730531
0.227366346034352
0.261530280993775
0.122003431695593
-0.6494837059683202
0.01214894174494775
-0.1526568366710386
-0.002601080814328641
-0.01385425446315087
-0.009771973130699455
-0.003865966901028447
0.08464040960906746
-0.4845191861014951
0.001806105109744617
-0.06912601371096619
-0.004316929959839547
-0.006804392349101476
-0.006320844225479552
-0.006751627738283094
0.04503318796943558
-0.2463283841671951
-0.002597021327502742
-0.02080531119094237
-0.00588329879647554
-0.002579708608186421
-0.003321879837872128
-0.008049004193132068
0.01518031235607852
-0.004926923832414674
-0.006661834445120403
-0.009085569101725066
-0.005368480770846975
-0.00790145961660284
-0.00684346970346919
-0.00504047658854156
-0.00852138402695707
-0.0008052807744380434
0.003542703427931729
-0.009128171507907351
-0.008195788943191727
-0.005612066453958717
-0.009148082952006567
-0.00275845800122939
-0.00965551032228913
0.000713369875654634
0.003170685790430776
-0.008474864324088066
-0.009692455131750443
-0.002881634388931046
-0.009471929336278927
-0.001542874635744092
-0.008702872574701506
0.0009330298656759772
0.002634821358513874
-0.007325762399405843
-0.01079547627131785
-0.01095196512904395
-0.009119851619079583
-0.005722334412779447
-0.008414520564160501
-0.01576114628027916
0.001961770605308322
-0.002827971509242383
0.02249564616363261
0.01465282462435548
0.07050458184451355
0.04245448974297484
-0.009499650426411868
-0.01395548049181134
-0.007036900360920081
-0.003666332185797143
0.008933245389092369
6.135779759551541e-05
0.04773578521698313
0.0339053162811964
-0.01175964087977251
-0.008571410815581874
-0.01144249247866621
-0.002546818338265922
-0.003586135434166741
-0.006441996198777181
0.0255937714761514
0.02035556567087653
-0.01308669363449469
-0.01387495481974948
-0.01900315257577491
0.009014351829662037
0.04130518044926536
-0.006366242254242524
0.01064698446195279
0.04001247088486803
-0.007454069726014034
0.01127495676590104
0.03678845828803268
-0.01238189388158344
0.01704943154060021
-0.01697830848309721
0.02820076939780777
0.02547526004009357
0.03268165215400613
-0.0037928697925982
0.03079997913608404
-0.004794850267907484
0.02750418026611332
-0.008742769912293787
-0.01083864995482568
0.02111970701508543
0.01851719106059819
-0.001716776120351107
0.016427623949168
-0.002231367188394291
0.01258355450753394
-0.004446316439596778
-0.00501937008827915
0.006847115679391058
0.006558999014728083
0.004593461576909992
0.0002897026953826431
-0.004414607981804118
-0.006416999865692656
0.002585693757464241
-0.00606041249096885
0.0007788014365065175
-0.003636493989817149
-0.0008811391724720778
-0.001876158575295772
-6.22002449546244e-14
0.003502018678462775
0.006014719064392243
0.001030518667121796
0.003644043585400689
-3.963171879688837e-05
0.0009261938466782159
-0.0009161321022574109
-2.674943599956237e-14
0.01671029616446888
0.01018665940026816
0.01133448173151166
0.00893694151453038
0.005686354209932749
0.006662886800399819
0.005078544511051723
1.752764600126966e-14
0.02176035508007804
0.01432402636256797
0.007706966790683389
5.661443536197908e-14
-0.001876158575304768
0.003636493989705121
-0.0009161321022602385
3.963171875551175e-05
0.005078544511053579
-0.005686354209916977
-0.007706966790564436
0.0128756012474849
-0.0008811391724805502
0.00606041249088965
0.000926193846675083
-0.001030518667169716
0.006662886800447458
-0.01133448173152083
-0.01432402636252647
0.01278077642792974
0.0007788014364977711
0.006416999865622629
0.003644043585400106
-0.003502018678497115
0.00893694151457786
-0.01671029616451891
-0.02176035508012303
0.01559645357792343
0.002585693757474208
0.004414607981790136
0.006014719064392739
-0.006847115679401453
0.01018665940028346
-0.02111970701510076
-0.02820076939787859
0.01608012180257234
-0.03678845828800888
-0.01697830848306756
0.02547526004009806
-0.04001247088487379
-0.01238189388162472
0.01704943154062562
-0.04130518044923249
-0.007454069726075582
0.01127495676595067
-0.006366242254321239
-0.04245448974299893
0.01064698446202979
-0.02750418026613095
-0.01083864995483986
-0.03079997913610751
-0.00874276991233356
-0.03268165215399185
-0.004794850267955814
-0.003792869792662641
-0.03390531628129442
-0.01258355450755774
-0.005019370088298999
-0.01642762394918817
-0.00444631643961305
-0.01851719106063738
-0.002231367188421925
-0.001716776120371629
-0.0203555656709548
-0.0002897026953960699
-0.004593461576948857
-0.006558999014806853
-0.009014351829752638
0.01900315257569821
-0.02559377147621526
0.01387495481971665
0.006441996198759944
0.01308669363448488
0.002546818338207683
0.008571410815516836
0.005722334412808448
0.003586135434062693
-0.04773578521703496
0.01144249247860646
-6.135779777709238e-05
0.01175964087971658
0.003666332185703863
0.01395548049174429
0.007325762399404599
-0.008933245389230154
-0.07050458184454719
0.007036900360815012
-0.01465282462461796
0.009499650426311842
0.002827971509134511
0.01576114628009603
0.008474864324071225
-0.02249564616376327
-0.001961770605447232
0.00841452056405975
0.009128171507890583
0.008521384026964432
0.00354270342793021
0.006843469703546339
-0.0008052807743860503
0.005368480770897526
-0.005040476588668505
-0.00790145961664906
0.003865966900985486
0.009655510322288407
0.003170685790423018
0.009148082952043248
0.0007133698756727307
0.008195788943203441
-0.002758458001320904
-0.005612066454007879
0.006751627738288843
0.008702872574712134
0.002634821358531429
0.009471929336299263
0.0009330298656893832
0.009692455131757873
-0.001542874635789355
-0.002881634388960913
0.008049004193130569
0.009119851619116416
0.01095196512908792
0.01079547627134235
0.009085569101726103
0.002601080814301829
-0.009771973130612873
-0.01214894174444859
-0.01385425446290622
-0.1220034316946166
-0.152656836670359
-0.6494837059689411
-0.2412410645777589
0.004316929959882134
-0.00632084422540475
-0.001806105109565873
-0.006804392348998082
-0.08464040960842603
-0.06912601371071056
-0.4845191861015062
-0.2492106874780058
0.005883298796504567
-0.003321879837861268
0.00259702132757943
-0.002579708608141226
-0.04503318796914944
-0.02080531119090701
-0.2463283841671481
-0.2830990249436595
0.006661834445126043
0.004926923832445619
-0.01518031235600957
-0.2615302809937013
-0.1922492821589585
0.1805239177742359
-0.1726561366141288
0.1023252825484898
-0.1586622075859603
0.05121299124920797
0.03178554148126889
-0.1477696819339021
-0.191499742133343
0.1229154701899705
-0.1704586181035779
0.08113851630322622
-0.1566710213339456
0.03610466460844475
0.0199329457033548
-0.1464991228128292
-0.1942623839088772
0.03429438811638696
-0.1672289807819628
0.05345254717018544
-0.1538894904807216
0.02141587080728069
0.00976825666859571
-0.1452944321193967
-0.227366346034102
-0.1746585604729607
-0.15466464728102
-0.1462833624655931
-0.1434908845497303
0.01111670842027002
-0.1400344246892354
0.001365956844056715
-0.1350780953585848
-0.006426103536697036
0.003088313293767797
-0.1298501772412547
-0.1424732235602237
0.006788250573848797
-0.1395798383461143
0.001745958919381119
-0.1347863011538221
-0.002637306549827856
0.005065781562841321
-0.129601314705155
-0.1417209216064383
0.003115283733230445
-0.1377164086829392
0.001451842557766869
-0.1320067134284432
0.0001312694210049425
0.006210244111737095
-0.1261519110991787
-0.142994626039508
-0.1388470033182377
-0.133094763140334
-0.1200195955656588
-0.1245978176155404
0.026747563499111
-0.1177040368914896
0.05757346947461972
-0.104751836564442
0.1030313980888851
0.1254395387403414
-0.08053599430459323
-0.1233717190590009
0.02494909489224739
-0.1121738426700794
0.05042072438326528
-0.08615266186721755
0.08105547924201328
0.08816101838024115
-0.04681603325522947
-0.1175466907665562
0.02013140355458598
-0.09766223281582162
0.03379021269884541
-0.05320354459831574
0.04053600495107468
0.04165657966505953
-0.00486359607738257
-0.09670435389459081
-0.06049153884372251
-0.01607251804330945
0.02687685413589921
-0.1107970632509564
-0.01105858517537384
-0.1349080054547685
-0.1230526366922681
-0.1377904189544873
-0.1504215915908787
-0.02477340349014731
-0.1331242568614791
-0.05613980705203915
-0.002628289270760753
-0.1023767557784729
-0.0815195390587557
-0.1322142795813032
-0.1269812655353693
-0.02826213052360249
-0.1326979087904009
-0.002587714426410301
-0.006643031318324055
-0.05398117500596575
-0.03527213751273683
-0.1239623529667499
-0.06299077771361883
-0.02437532990327604
-0.1321973520887546
0.01731267152676762
-0.0220999389341625
-0.09100220784514876
-0.1203665947354611
-0.1320172380360424
-0.003039526382361823
-0.1308473510663332
-0.003770246309891312
-0.129922549680746
-0.005825203483298153
-0.006883065567382357
-0.1296578037632118
-0.1322725765582139
-0.002530341619088716
-0.1322474443212922
-0.002832683580419881
-0.1327175227463298
-0.004284907612348593
-0.004748149007569397
-0.1339599499538957
-0.1325512406145518
-0.001116580066710254