/*--------------------------------*- C++ -*----------------------------------*\
  =========                 |
  \\      /  F ield         | OpenFOAM: The Open Source CFD Toolbox
   \\    /   O peration     | Website:  https://openfoam.org
    \\  /    A nd           | Version:  11
     \\/     M anipulation  |
\*---------------------------------------------------------------------------*/
FoamFile
{
    format      ascii;
    class       volScalarField;
    location    "0.359155";
    object      T;
}
// * * * * * * * * * * * * * * * * * * * * * * * * * * * * * * * * * * * * * //

dimensions      [0 0 0 1 0 0 0];

internalField   nonuniform List<scalar> 
880
(
500.0000000000027
500.0000002914546
500.0240310762538
503.3392885334653
500.0000000004407
500.0000008552266
500.0298366368916
504.8852061586254
500.0000000016356
500.0000033312198
500.0552978044988
506.7133574561047
500.0000000211684
500.0000145939788
500.1146853057802
509.4256818990991
499.9999999006574
500.0000000748178
500.0000101482304
500.0001636568905
500.0000670616175
500.0002565914933
500.0016136526646
500.0023550874288
500.2632092005204
500.4344806334723
500.7183348789939
500.9601735098878
514.9147599470397
521.1091566704316
526.370443256181
529.0253067483957
500.0004090242209
500.0033825665702
500.0128118989203
500.0397479285729
500.0227784662181
500.098495918253
500.2003684063013
500.4217226769757
502.4147293002566
503.6971964295035
505.2844643164637
507.2284951674105
531.2536230639561
533.8950120168377
534.3897316225572
533.1623308826174
522.8391745480758
517.6385471899066
515.444359588319
513.9701519308973
511.0450303072349
512.6614582565767
513.5753906530434
513.7052581754218
501.1765743681393
502.0591718226588
503.0067596210918
503.7647536915085
500.141041055555
500.3403765173397
500.6408831381655
501.0633360565191
501.5565576492998
502.0486909752352
502.534016807289
502.8852439375833
504.3907477217491
504.7467740032551
504.9483143214685
504.8984398842031
513.0659224560704
512.1678369991798
510.9860646512043
509.7487468855136
512.2217050605692
511.033228394342
510.2809093292821
509.5140990380455
508.9389462991276
508.8782664356759
504.7578350310218
503.0927540038982
519.1798675239453
508.0393914208773
504.3848297010699
503.0532644343438
571.2647618688443
510.4289912363733
503.9275837627707
502.6006277286923
620.312547182484
523.8809533876583
504.7779526013853
502.442737043973
502.3922557804098
506.0630743364911
539.6583359242188
637.397176049466
501.5126796910155
508.5829296805648
556.2771337656519
635.1801591027929
501.8883672604374
514.4280662084202
576.5804043526684
636.1919342654909
503.3192609387548
524.8429554793624
594.7231994259494
633.4435288880589
628.3275652658991
604.79328820414
539.7826226012888
506.4769525198106
621.8253332695556
607.4536367379114
554.9636559671115
512.1479773605192
614.5111068882535
605.2878184524274
566.9683086692124
521.1345297829372
606.6500811974068
594.2651431588988
569.0691173661675
532.05742879432
541.2625534945771
563.5948983147317
579.7657523777298
597.1563291252421
539.8065762989305
552.0490174938585
562.8343128170815
582.2104933496032
535.8128880744911
540.3156753411722
544.5171820581423
560.5799267388135
530.6188786835683
529.8310601265179
525.3178422719355
530.4103531842198
526.7374954121022
520.4470649105591
508.5035318574671
495.5374683263187
520.5797752463263
511.2748295256175
491.9788088912643
459.8420247065442
515.7532015173358
506.0155879276673
477.9600273364436
425.1049143072855
511.5804741936853
504.5823120355733
477.7205842832943
399.7953557894807
410.6611871532753
486.8637897004255
503.2599319734306
507.7628660553141
478.0101370298866
493.0572189139929
502.4042014631564
505.1647210038408
517.2923657121528
495.751359424862
500.8750614139147
503.3551067519538
530.2080270321775
500.4249341438534
500.2285735452911
502.2864428596943
539.0050787904127
504.3362761203203
498.9659235646191
500.390716563004
533.7824514036085
504.2989182301783
497.6630178245197
499.2216938894937
525.7614311581992
503.4786823470184
497.2762692794586
499.1950216015995
517.6717392332614
499.1060205633934
497.0807688281715
499.4049094293431
479.7435981715843
469.4064621852684
488.9463029043133
498.682918874609
474.2225975082325
471.29708659976
489.4347286768354
498.682662279061
465.1945437037342
473.4228265798545
490.3347204979998
498.6965964523704
459.4725749819909
476.2552223545754
491.3851168790052
498.7855903804846
517.6717392333278
499.1060205630653
497.0807688285836
499.4049094290846
525.761431158328
503.4786823463882
497.2762692794844
499.1950216009033
533.7824514036482
504.2989182294436
497.6630178233655
499.221693888551
539.0050787904974
504.3362761196038
498.9659235644173
500.3907165624139
507.7628660555281
503.2599319736984
486.8637897008182
410.6611871523867
505.164721003751
502.4042014632242
493.05721891468
478.0101370290258
503.3551067518947
500.8750614139967
495.7513594240075
517.2923657119226
502.2864428594639
500.2285735456367
500.4249341431835
530.2080270325293
399.7953557908007
477.7205842830653
504.5823120355668
511.5804741938368
425.1049143074277
477.9600273364056
506.0155879281344
515.7532015173056
459.842024706773
491.9788088916893
511.274829525667
520.5797752464662
495.5374683266272
508.5035318572723
520.4470649101537
526.7374954122198
541.262553494583
563.5948983153249
579.7657523783948
597.1563291256846
539.8065762984802
552.0490174935597
562.8343128172721
582.2104933501485
535.8128880737162
540.3156753409032
544.5171820580899
560.5799267391533
530.6188786833474
529.8310601261477
525.3178422717557
530.4103531845659
606.6500811977328
594.2651431592853
569.0691173664599
532.0574287952651
614.5111068886637
605.2878184527848
566.9683086693373
521.134529782852
621.8253332700436
607.4536367381706
554.9636559668003
512.1479773604968
628.3275652662604
604.7932882045455
539.7826226017308
506.4769525197402
502.3922557803253
506.0630743363878
539.6583359240863
637.3971760494079
501.5126796917757
508.5829296810419
556.2771337657603
635.1801591028112
501.8883672614849
514.4280662094312
576.5804043530056
636.1919342653787
503.3192609388158
524.8429554791622
594.723199426482
633.4435288881909
502.4427370437691
502.6006277285493
503.0532644348481
503.0927540040383
504.7779526005969
503.9275837625341
504.384829700915
504.757835030821
523.8809533869089
510.4289912363157
508.0393914203357
508.8782664354855
620.3125471821972
571.2647618684417
519.1798675239945
508.9389462989988
502.8852439380397
504.8984398845515
509.7487468859619
509.5140990385441
502.5340168071629
504.9483143218715
510.9860646516447
510.2809093295257
502.0486909752516
504.7467740034427
512.1678369991538
511.0332283937145
501.5565576488531
504.3907477216064
513.0659224564204
512.2217050607642
500.141041055083
501.1765743677507
511.0450303078657
522.8391745484851
500.3403765166937
502.0591718222774
512.6614582572331
517.638547190072
500.6408831384255
503.0067596209216
513.5753906534686
515.4443595875803
501.0633360560989
503.7647536913893
513.7052581759841
513.9701519304102
533.162330882661
507.2284951675726
500.4217226768617
500.0397479289574
534.3897316226652
505.2844643166569
500.2003684059903
500.0128118987673
533.8950120172467
503.6971964294789
500.0984959170542
500.0033825659723
531.2536230640829
502.414729300032
500.0227784658234
500.0004090248888
529.0253067481574
500.9601735101701
500.0023550876795
500.0001636576773
526.3704432556879
500.7183348790016
500.0016136523227
500.0000101487134
521.1091566697886
500.4344806333792
500.0002565910989
500.0000000745034
514.914759946487
500.2632092004581
500.0000670613132
499.999999901189
500.0000000001753
500.0000002915829
500.0240310762075
503.3392885332566
500.0000000005271
500.000000854942
500.0298366368966
504.8852061586922
500.0000000018922
500.0000033310651
500.0552978045742
506.7133574566217
500.0000000219066
500.0000145937569
500.1146853058041
509.4256818993197
506.2228020893832
508.9245639838791
513.2450247044189
521.8904500758174
508.9245639843813
512.3828061555265
518.7507434236949
531.3264463276654
513.2450247046912
518.7507434237857
528.8751289732197
544.0713281717948
521.8904500758889
531.3264463275132
544.0713281723094
560.254856598987
577.2381657781598
564.2316306910258
557.3494772731713
544.9443971521138
575.4522671064695
571.541558647659
570.3271371901321
564.624012748532
575.3895370381916
574.3188397250035
573.7580241722338
572.0533255533949
571.9776000227864
571.5424767886958
571.6812355838963
570.9766359189553
567.8961519659779
565.5522138822558
560.4604201350493
553.2871961744163
567.5556956396658
565.1519374140792
560.2388686455386
553.9650756899604
567.5721510176269
564.9914490308419
559.9820702579514
554.5590326111943
567.6345902708083
564.7346980052715
560.1854425083351
550.9726759574128
512.3827948796193
492.8117401980424
489.952736473187
490.4529394568219
501.8281715102199
488.7101150407227
489.9736566201247
491.0998510468615
491.5815662532474
488.8794483282963
491.5627050277824
492.8406342071041
469.9276654646188
484.1254195754875
489.9048508544394
491.6020131139462
490.7963702877079
491.8141944325697
493.3359933111604
494.8497230870632
491.0077882830275
491.4851185318205
492.8663629924044
494.8646607410743
492.3207656962676
492.3432107863399
493.2712801258366
494.7397196511059
491.2526685713696
491.4241311850948
492.7295701458771
494.8442946220877
505.0033598751598
567.6215252695795
639.3142996468749
664.5265067079382
510.9129114999539
581.1115312274612
641.9712263645876
660.2318769681411
516.3864954684246
589.4457968352222
641.9414299875433
660.9327304818422
520.1906217212339
597.7176156299528
642.153151188438
661.3426908112863
694.2979388349752
681.4530571610903
670.159530900219
656.8963949390019
702.7478350600334
690.0150021822433
676.912905927423
662.5702223841492
708.7268623952179
697.4807658335135
683.0258258432897
668.0568821591862
706.6501338985132
701.3024302698589
687.2016358912865
671.8473649513669
643.6453404513312
633.0505639234563
623.2294781939052
618.9692970002304
648.7485356796944
637.1483554627761
625.9646743954589
621.0680641652582
653.9088886094974
640.660433707341
629.5267922825517
623.1800881562483
658.3243568165544
643.7197900284849
633.0141355389203
625.603119888242
615.0669486341459
607.6486486875642
590.9837047086002
565.0105535690918
616.8422154609767
609.2345168168505
593.782072905759
592.6536958509338
617.8350379254194
610.1506148320948
602.769489313294
620.4174610430533
619.7295670142099
613.9991525284574
616.3459312111676
603.9819181700651
522.5322628785518
460.2053686702761
422.5203446660874
425.7651416348164
512.0725190264957
421.9777833865383
305.4598276586902
252.8732041944941
468.7351716597076
368.0960319170688
252.1657753647773
231.8585536447078
368.0106725855021
282.5902885244486
227.8297318763351
239.6016519027216
375.5790751400002
404.0327832272778
471.1233857213124
522.9491427733307
306.4717801580574
380.4117837267182
441.8359117569412
491.7033753096946
291.68904908144
350.9238617741548
404.3881081003183
445.101112332907
298.9470235666755
351.4271290332797
402.0903546928724
431.1102560112772
487.0484769120641
510.3350959575597
509.2521542018459
509.6528534296839
435.764692446185
473.9299684451728
492.6534624324074
510.5353740259819
407.3363331676824
432.9129246580029
470.5429808634249
514.1508395036968
392.4784740788001
408.2776703224455
445.0626575156024
512.9579101756872
491.7994603637846
470.5943565057201
459.3771098848954
459.6725207670458
495.1519348282395
485.9987451727482
482.0052986393937
475.886819511777
504.2160863521465
507.4006099458401
501.610152672562
488.6228120606918
503.5741857264119
508.60754411448
498.7232782294546
484.0972840768954
465.942324335446
450.6417344716127
442.2525003808678
439.9122332987652
471.5402486642927
455.7011021048648
444.4305102741753
441.0682567611195
469.7983612837876
461.3123137711497
452.6360537354691
449.0202394014867
462.7834511042839
460.232959468632
455.5122781254428
452.3761421955153
439.9122332987296
441.068256761082
449.0202394015139
452.3761421956081
442.2525003807073
444.430510274014
452.6360537354643
455.5122781256929
450.6417344713108
455.701102104609
461.3123137710908
460.2329594688257
465.9423243350906
471.5402486640466
469.7983612837091
462.7834511044236
459.6725207672094
459.3771098849262
470.5943565060374
491.7994603640509
475.8868195117948
482.005298639488
485.9987451729907
495.1519348284728
488.6228120605846
501.6101526725427
507.4006099458576
504.2160863522104
484.0972840766664
498.7232782293632
508.6075441144305
503.5741857263801
512.9579101758001
445.0626575160374
408.2776703230568
392.478474079408
514.1508395038054
470.5429808638223
432.9129246585939
407.3363331683364
510.5353740261561
492.653462432734
473.9299684457154
435.7646924470721
509.6528534298221
509.2521542020376
510.3350959579109
487.0484769128529
522.949142773187
471.1233857212308
404.0327832258231
375.5790751486713
491.7033753096915
441.8359117571529
380.4117837260121
306.471780158237
445.1011123332017
404.388108100842
350.9238617739622
291.689049081183
431.1102560116654
402.0903546934794
351.4271290336429
298.9470235665047
425.7651416559859
422.5203446679611
460.2053686703607
522.5322628791209
252.8732041975305
305.4598276588239
421.9777833866063
512.0725190265684
231.8585536447703
252.1657753644006
368.0960319175063
468.7351716600701
239.6016519028015
227.8297318757942
282.5902885250402
368.0106725858868
565.0105535694385
590.9837047089962
607.6486486880359
615.0669486345563
592.6536958513118
593.7820729058865
609.2345168171157
616.8422154612859
620.4174610432964
602.7694893133047
610.1506148320804
617.8350379256522
603.9819181704138
616.3459312111042
613.9991525283546
619.7295670144064
618.969297000746
623.2294781942619
633.0505639234867
643.6453404511967
621.0680641657216
625.9646743956464
637.1483554623795
648.7485356792989
623.1800881565513
629.5267922826472
640.660433706949
653.9088886092337
625.6031198885731
633.014135539119
643.71979002835
658.3243568162186
656.8963949387889
670.1595308999765
681.4530571607754
694.2979388348519
662.5702223838773
676.9129059272805
690.0150021819225
702.7478350598956
668.0568821589737
683.025825842897
697.480765833082
708.7268623950436
671.8473649512321
687.2016358910056
701.3024302694693
706.6501338983334
664.5265067079265
639.3142996466225
567.621525269539
505.0033598756283
660.2318769680023
641.9712263643009
581.1115312273595
510.912911500514
660.9327304816056
641.9414299872124
589.4457968350163
516.386495469004
661.3426908109448
642.1531511880955
597.717615629735
520.1906217218009
494.8497230877147
493.3359933111869
491.8141944318456
490.7963702874331
494.864660741724
492.8663629921664
491.4851185308539
491.007788282615
494.7397196517525
493.27128012538
492.343210785349
492.3207656957359
494.844294622719
492.7295701455075
491.4241311840378
491.2526685707932
490.4529394560382
489.9527364725603
492.8117401984144
512.3827948799889
491.0998510461134
489.9736566192918
488.7101150412411
501.8281715105127
492.8406342063339
491.5627050268111
488.8794483287455
491.5815662534638
491.6020131131459
489.9048508532684
484.1254195758604
469.927665464831
553.2871961746736
560.4604201353148
565.5522138828076
567.8961519658856
553.9650756900002
560.2388686457189
565.1519374145715
567.5556956395109
554.5590326111483
559.9820702581297
564.9914490312086
567.5721510173628
550.9726759572691
560.1854425083794
564.7346980054983
567.6345902705751
570.976635918046
572.0533255522814
564.6240127476701
544.9443971522372
571.6812355828921
573.7580241708073
570.3271371884915
557.3494772726235
571.5424767876026
574.318839723273
571.5415586449283
564.2316306891097
571.9776000218437
575.3895370363567
575.4522671030276
577.2381657745136
505.1119242438863
497.246503133681
496.8147775624535
499.4852214905518
485.4201121446938
492.0309774328035
495.3945456273403
499.3464100134823
470.3798042838951
486.3969182793609
493.9819128230353
499.1491648001886
460.132996199914
480.4311411350711
492.4999229348963
498.9424751085259
498.6829188741991
488.946302904284
469.4064621852357
479.7435981716744
498.6826622787066
489.4347286769981
471.297086599708
474.2225975085846
498.6965964523957
490.3347204983669
473.4228265796389
465.1945437040287
498.7855903806316
491.385116879187
476.2552223543799
459.4725749821125
498.9424751084329
499.1491647999945
499.3464100138477
499.4852214906867
492.4999229346797
493.981912822839
495.3945456270635
496.8147775626479
480.4311411351543
486.3969182796703
492.0309774333421
497.2465031340522
460.1329961997374
470.3798042836456
485.4201121447036
505.1119242440146
)
;

boundaryField
{
    back
    {
        type            empty;
    }
    inlet
    {
        type            zeroGradient;
    }
    front
    {
        type            empty;
    }
    top
    {
        type            zeroGradient;
    }
    outlet
    {
        type            fixedValue;
        value           uniform 500;
    }
    bottom
    {
        type            zeroGradient;
    }
    wall
    {
        type            zeroGradient;
    }
}


// ************************************************************************* //
