/*--------------------------------*- C++ -*----------------------------------*\
  =========                 |
  \\      /  F ield         | OpenFOAM: The Open Source CFD Toolbox
   \\    /   O peration     | Website:  https://openfoam.org
    \\  /    A nd           | Version:  11
     \\/     M anipulation  |
\*---------------------------------------------------------------------------*/
FoamFile
{
    format      ascii;
    class       volScalarField;
    location    "15.2";
    object      p;
}
// * * * * * * * * * * * * * * * * * * * * * * * * * * * * * * * * * * * * * //

dimensions      [0 2 -2 0 0 0 0];

internalField   nonuniform List<scalar> 
4455
(
142.61414
142.71252
142.90805
143.22385
143.63774
144.21798
144.88992
146.18064
146.55076
142.5633
142.67425
142.88806
143.21554
143.66576
144.27768
145.08387
146.36626
147.26572
142.46017
142.5946
142.83091
143.17851
143.64906
144.29367
145.12902
146.51288
147.50392
142.30926
142.47604
142.73894
143.10793
143.59474
144.27852
145.16822
146.65162
147.86403
142.12026
142.32226
142.61398
143.00418
143.5098
144.23132
145.19643
146.79375
148.30874
141.90073
142.13927
142.45936
142.86864
143.39745
144.16038
145.19279
146.9317
148.73653
141.65849
141.93286
142.27942
142.70478
143.25324
144.05613
145.15388
147.05928
149.19085
141.40344
141.70845
142.07846
142.51742
143.08316
143.92322
145.07601
147.16168
149.64944
141.14421
141.47228
141.86018
142.31106
142.89068
143.76734
144.9747
147.24035
150.12655
140.88784
140.6416
140.41378
140.20852
140.0286
139.87635
139.75446
139.6651
139.61227
141.22974
140.98513
140.74552
140.5155
140.29974
140.10212
139.92581
139.77327
139.64413
141.62728
141.3819
141.13273
140.88384
140.63909
140.40235
140.17613
139.96295
139.76186
142.08381
141.83498
141.57682
141.31267
141.04403
140.77466
140.50791
140.24768
139.98993
142.67375
142.42799
142.16915
141.89935
141.61732
141.32758
141.0353
140.74898
140.46229
143.58644
143.3664
143.12121
142.85338
142.55746
142.24207
141.90998
141.57352
141.23092
144.85505
144.70674
144.53038
144.31437
144.03283
143.70499
143.34164
142.96539
142.58259
147.32056
147.29918
147.15641
146.90274
146.54254
146.11393
145.63768
145.12748
144.57668
150.74478
151.21113
151.10675
150.54512
149.71385
148.75814
147.75674
146.74054
145.71947
139.60681
139.58733
139.5448
139.4898
139.41885
139.33755
139.23622
139.12276
138.98596
139.56565
139.49093
139.39873
139.28918
139.16172
139.01735
138.855
138.67463
138.47425
139.62949
139.52903
139.42438
139.31027
139.18269
139.03959
138.87962
138.70235
138.50691
139.80175
139.67247
139.54977
139.42014
139.27539
139.11244
138.9298
138.7276
138.50581
140.24114
140.10448
139.98906
139.86952
139.73172
139.5721
139.39015
139.1876
138.96631
140.95008
140.78229
140.64622
140.50385
140.33856
140.14645
139.9277
139.68731
139.43168
142.26997
142.08404
141.93216
141.76071
141.55541
141.31737
141.05196
140.76716
140.47452
144.06597
143.61603
143.16412
142.69088
142.19254
141.67305
141.14262
140.61494
140.11861
144.81182
143.99834
143.18633
142.39197
141.62216
140.87313
140.15896
139.48863
138.8885
138.47587
138.08304
137.96431
138.18943
138.71949
139.4447
140.25258
141.10826
141.997
139.70038
139.35327
139.06795
138.85302
138.71192
138.64895
138.66518
138.79176
138.9826
140.1966
139.94148
139.69832
139.47271
139.26826
139.08888
138.93606
138.81192
138.71716
139.1711
138.91612
138.65858
138.39963
138.14008
137.88105
137.62341
137.36907
137.11894
138.73413
138.49696
138.24902
137.99061
137.721
137.4404
137.14819
136.84515
136.53093
138.2685
138.01776
137.74964
137.4644
137.16169
136.84124
136.50214
136.14422
135.7664
138.29531
138.06752
137.82033
137.55305
137.26481
136.95474
136.62148
136.26411
135.88094
138.25471
138.01441
137.7531
137.47035
137.16637
136.83819
136.4851
136.10339
135.69282
138.813
138.6034
138.38205
138.14735
137.89766
137.6228
137.32046
136.98488
136.61637
136.21174
135.77158
135.29135
134.77183
134.2062
133.59526
132.9303
132.21229
131.43059
135.25014
134.77579
134.26628
133.72179
133.1375
132.51372
131.84419
131.12879
130.35967
135.47123
135.03291
134.56534
134.06566
133.53309
132.96357
132.35613
131.7051
131.00929
135.3688
134.94991
134.50996
134.04645
133.55948
133.0449
132.50253
131.92613
131.31509
136.20657
135.87127
135.52604
135.16854
134.79951
134.41411
134.01268
133.58761
133.13884
136.87512
136.63799
136.4089
136.18587
135.96954
135.75387
135.53858
135.31368
135.07848
138.65365
138.62015
138.61751
138.64057
138.68905
138.75334
138.83258
138.91521
138.99933
139.24817
139.57305
139.95655
140.38836
140.8662
141.3807
141.92899
142.50044
143.0916
142.91195
143.84769
144.80765
145.79002
146.80398
147.84471
148.92192
150.02846
151.16224
152.31521
143.68833
139.07122
134.81991
132.65608
130.66088
130.26139
129.53714
130.58634
153.48866
144.28612
139.12679
134.53699
132.13899
129.96253
129.45999
128.65167
129.6666
154.67325
144.86354
139.15446
134.21368
131.57462
129.20909
128.59601
127.70343
128.67281
155.86415
145.41455
139.14542
133.84735
130.96227
128.39924
127.66779
126.68049
127.58958
157.03561
145.90643
139.08207
133.41796
130.28628
127.51972
126.66455
125.58351
126.41865
158.17491
146.33113
138.95096
132.92026
129.54527
126.56898
125.58443
124.39699
125.14425
159.18164
146.64013
138.7294
132.33944
128.72073
125.53216
124.41463
123.12021
123.76894
160.01732
146.82245
138.398
131.66397
127.80844
124.40804
123.15209
121.74603
122.28461
160.45639
146.77386
137.91619
130.8706
126.78613
123.181
121.77765
120.27403
120.70444
119.04012
118.69287
120.26959
121.8266
125.60401
129.90602
137.20807
146.4357
160.41125
117.34832
116.99203
118.5973
120.3183
124.18341
128.64786
135.99464
145.11907
157.53955
115.41612
115.15615
116.77196
118.64999
122.54161
127.11142
134.37561
143.34506
155.03273
113.22146
113.17123
114.79304
116.82372
120.70764
125.36511
132.54127
141.41549
152.75757
110.73948
111.02161
112.6587
114.83993
118.72297
123.47536
130.58391
139.41078
150.43299
108.10535
108.71086
110.36626
112.71107
116.59742
121.45414
128.51513
137.29156
147.99257
105.28717
106.23352
107.91052
110.42816
114.32997
119.28984
126.31222
135.04332
145.45629
102.3192
103.59658
105.2859
107.99602
111.91211
116.97132
123.96304
132.64466
142.91375
99.12809
100.79696
102.48333
105.4015
109.33472
114.48905
121.45648
130.11975
140.34529
137.74484
127.4522
118.79806
111.842
106.58933
102.65677
99.501225
97.83562
95.746763
135.09954
124.66777
115.9883
109.03049
103.67197
99.749916
96.326095
94.704456
92.127702
132.41016
121.74119
113.03391
106.06622
100.58408
96.688766
92.977086
91.406727
88.317635
129.65754
118.68929
109.93325
102.94986
97.327318
93.455657
89.436597
87.929942
84.278767
126.84332
115.47811
106.69361
99.682864
93.908043
90.059809
85.736681
84.287223
80.058012
123.93194
112.13006
103.31106
96.265394
90.331304
86.496087
81.855501
80.466711
75.620047
120.91686
108.60677
99.799128
92.696936
86.606577
82.783157
77.832589
76.49298
71.019887
117.76287
104.94342
96.155503
88.980147
82.740115
78.902156
73.645898
72.351964
66.235063
114.47902
101.10191
92.387064
85.117695
78.742521
74.880943
69.347672
68.071118
61.370102
56.512959
63.606338
64.868225
70.60375
74.50275
80.959869
88.297447
96.835209
110.67907
51.738584
58.963028
60.259878
66.069016
69.986949
76.437698
83.824392
91.905592
106.08136
46.804818
54.189367
55.554429
61.358498
65.351842
71.743023
79.21708
86.887255
101.05164
41.777299
49.324973
50.825069
56.524879
60.61276
66.928574
74.548205
81.778004
95.630434
36.630998
44.365687
46.050187
51.593571
55.799568
62.028161
69.841453
76.766525
89.647305
31.57248
39.357557
41.279525
46.624492
50.915497
57.058731
65.134913
71.862486
82.943937
26.62318
34.339242
36.49861
41.642515
45.991424
52.021222
60.439696
67.399299
75.159772
21.976071
29.390968
31.772454
36.703714
41.06037
46.920997
55.759814
63.49705
66.184438
16.806055
24.586715
27.10745
31.837106
36.200034
41.801084
51.104597
60.580939
56.493274
11.769496
19.98426
22.510389
27.061174
31.345584
36.646513
45.942467
58.901708
49.687051
7.6575416
15.70113
18.061899
22.458388
26.865767
32.234314
41.795507
58.293008
46.52844
4.3689911
11.608049
13.864856
18.062212
22.688755
28.477994
38.915157
57.016175
48.716843
1.4820614
7.7079434
9.9057705
13.572356
18.457723
24.415112
36.317028
54.808107
59.553313
-1.0775544
3.9656326
6.1243648
8.8896005
14.000504
19.91642
33.677985
50.62246
55.853576
-3.255224
0.41161051
2.5556076
3.9733006
9.3483183
15.054832
30.67917
47.95565
52.853431
-4.9590962
-2.9750108
-0.80133377
-1.0732192
4.4990789
9.9525989
27.989006
47.939264
52.773342
-6.1309178
-6.1884388
-3.9170214
-6.1801978
-0.54397288
4.8662954
25.917329
44.642534
50.486784
-6.7505008
-9.1906534
-6.8428286
-11.234149
-5.8210056
-0.7831126
24.198179
42.69803
50.007517
49.750993
41.798846
22.902897
-5.1676024
-10.922651
-15.945903
-9.4391526
-11.82024
-6.8208665
49.604006
41.396136
20.084834
-9.5698813
-15.75723
-20.21519
-11.773226
-14.009511
-6.472667
49.272506
40.264706
17.175373
-13.983429
-20.751022
-24.326897
-13.819199
-15.746026
-5.6867734
48.709331
38.446215
14.030739
-18.294537
-25.83386
-28.248594
-15.617763
-17.041826
-4.3827319
47.97827
36.949325
10.590928
-22.529661
-30.996449
-31.948976
-17.10077
-17.883076
-2.6327995
47.130616
35.406954
6.9646774
-26.62917
-36.152253
-35.387906
-18.330348
-18.286871
-0.43545441
46.312559
34.090523
3.7316559
-30.791362
-41.30152
-38.504676
-19.236922
-18.2206
2.1201104
45.094872
32.692602
0.79590668
-34.948002
-46.285374
-41.219059
-19.878091
-17.670751
5.0239014
44.423767
32.097892
-1.7719824
-39.656327
-51.878364
-43.501869
-20.177672
-16.558502
8.5241254
43.620085
29.165203
-6.5400837
-46.953824
-59.665595
-46.079507
-20.027756
-13.646182
14.977942
41.775802
21.912759
-22.635632
-62.683961
-69.927839
-47.008917
-17.426909
-7.2167649
24.679168
40.36878
14.331234
-32.024734
-76.854702
-77.353647
-45.167903
-12.659016
1.4039305
35.006622
39.457174
5.7017704
-48.07767
-90.753078
-81.891914
-40.440667
-5.7509139
11.656102
45.266579
36.440601
-3.2001423
-58.994325
-102.64896
-82.953193
-33.217841
2.3093696
22.809501
55.025993
32.00714
-12.252599
-74.031321
-113.65527
-80.841429
-23.597965
11.42336
34.390713
63.609587
27.128071
-21.189417
-84.600271
-121.32915
-75.493143
-12.36964
20.697415
45.803354
70.977717
22.069057
-29.81328
-97.892914
-126.04234
-67.429637
0.22448601
30.08825
56.797361
76.886535
16.999368
-40.705337
-106.74593
-124.33379
-56.52743
12.701707
38.808614
66.738434
81.329248
22.268299
-27.803782
-109.57012
-131.78234
-53.720396
21.297224
53.73217
82.610625
110.9297
22.177627
-27.405776
-106.00568
-132.18473
-58.807772
18.426947
54.315309
81.664067
109.10099
22.120239
-27.102704
-103.58027
-133.11798
-62.128573
15.217022
54.147749
79.829205
107.52331
21.938003
-27.398607
-102.76433
-134.56561
-68.176021
11.122381
53.947499
77.272472
105.49636
21.645287
-27.385377
-102.2768
-136.73092
-73.434038
7.5275232
52.962813
74.756415
104.05281
21.348685
-27.843059
-104.36029
-137.85664
-78.222584
4.4894321
51.716574
72.355527
102.54836
21.091571
-28.07284
-105.90808
-139.56791
-82.376361
2.1402697
50.084261
70.148906
101.42657
20.750211
-28.746232
-108.32247
-142.7045
-85.4313
0.77942737
48.476981
67.914916
100.6086
20.494739
-29.591508
-110.72515
-144.70356
-87.316506
0.52484043
46.757211
67.416642
99.020792
14.626819
-55.025713
-136.82981
-134.79625
-34.526557
17.282167
40.233654
68.559201
81.899084
20.496826
-43.236259
-127.68292
-140.74895
-49.331206
6.5910971
32.148479
58.825438
77.715128
26.313905
-32.223897
-111.72534
-138.77522
-61.764817
-5.0784678
23.497795
48.092269
72.093623
31.774553
-21.305546
-100.12555
-133.31967
-71.523714
-16.369914
14.80506
37.017212
65.038628
36.562984
-10.139018
-81.927257
-123.5703
-77.947543
-26.950307
6.1031013
25.719839
56.773797
39.662511
1.1196571
-69.143117
-111.95202
-80.962267
-35.646857
-2.0031668
14.789682
47.323409
40.923502
11.750367
-49.641032
-97.388386
-80.070777
-42.262422
-9.4499136
4.4663519
37.317163
42.955419
20.940286
-37.965282
-82.252972
-75.466652
-45.994157
-15.062779
-4.4492039
27.124167
45.364307
29.408724
-18.032018
-63.941478
-67.069997
-46.812948
-18.689345
-11.469503
17.363236
-6.714608
-13.127942
-11.605511
-20.376945
-17.633436
-15.48178
18.85016
44.715451
52.834723
-6.0632658
-14.991747
-13.70219
-24.574653
-22.800905
-20.53612
15.297155
43.84046
52.53275
-4.9538966
-16.371573
-15.457826
-28.527
-28.102161
-25.657209
11.686124
42.160437
51.889293
-3.3367603
-17.298198
-16.929101
-32.218503
-33.462082
-30.715515
7.6954061
40.34502
51.087255
-1.3040598
-17.762168
-18.057867
-35.619378
-38.828396
-35.699952
3.4911422
38.614855
50.184133
1.1480502
-17.78839
-18.915099
-38.696114
-44.11341
-40.504637
-0.79428512
36.943989
49.178452
3.9227152
-17.344851
-19.433758
-41.384297
-49.302712
-45.479778
-4.5855884
35.479994
48.33509
7.0131522
-16.423305
-19.66417
-43.605538
-54.24749
-50.362103
-8.3152961
33.962232
46.898144
10.677494
-14.947545
-19.554841
-45.305209
-59.818769
-55.810879
-11.540279
33.336325
46.105318
53.18778
45.147063
20.878775
-10.392134
-12.160154
-15.661819
-9.2011054
-10.786649
-6.9098207
53.644631
46.48751
22.952646
-3.8401805
-6.4908437
-10.545142
-6.4387166
-8.0179987
-6.5969689
55.940511
49.765473
25.36156
2.0730981
-1.0756658
-5.3378904
-3.4694858
-4.9894736
-5.7495494
56.301834
49.464742
28.197319
7.9728873
4.1179217
-0.15564788
-0.23782835
-1.7551473
-4.3592806
58.33122
51.678575
31.283589
13.621817
9.1020882
4.9224642
3.2356051
1.666152
-2.4690005
62.466249
55.521341
34.048614
18.888148
13.883072
9.7870932
6.9654497
5.2977518
-0.15913299
52.134697
57.311496
36.679285
23.642105
18.434697
14.448774
10.92764
9.1216218
2.5184634
49.543444
58.121847
39.42182
27.8738
22.92175
19.023031
15.159176
13.165974
5.640485
52.305236
58.554499
43.609911
32.790464
27.721899
23.793465
19.655132
17.425902
9.6216799
54.717442
61.929564
63.280972
69.183998
73.44191
80.466713
88.560311
97.542191
111.37087
49.815183
57.136323
58.50186
64.45688
68.714571
75.767549
84.024116
92.672573
106.89241
44.76015
52.210835
53.61819
59.539536
63.832966
70.852229
79.31366
87.708348
102.00927
39.636227
47.202346
48.708572
54.484122
58.830468
65.769227
74.484266
82.622743
96.750744
34.405132
42.107731
43.757771
49.324408
53.726546
60.549129
69.563897
77.598216
90.963069
29.291916
36.982826
38.828103
44.125343
48.535589
55.208821
64.588152
72.617918
84.47896
24.301014
31.868712
33.909078
38.91903
43.289503
49.743511
59.559149
68.00093
76.97288
19.656192
26.855989
29.066818
33.775857
38.040321
44.164218
54.46076
63.851048
68.304478
14.558585
22.021938
24.313188
28.725213
32.878053
38.517812
49.316323
60.600322
58.860202
115.07381
101.74332
92.671489
84.753747
77.856337
73.632292
67.918876
66.542267
59.712955
118.28293
105.53455
96.44668
88.713033
81.996436
77.806977
72.363129
70.961859
64.712869
121.3684
109.13731
100.08882
92.504659
85.983996
81.82482
76.685108
75.235639
69.63392
124.32353
112.60632
103.59358
96.132441
89.809345
85.66005
80.83177
79.330732
74.362456
127.18947
115.9017
106.95921
99.596473
93.471801
89.328859
84.825405
83.264431
78.924391
129.96274
119.06433
110.18108
102.8968
96.961203
92.814257
88.626122
87.00912
83.25872
132.6827
122.07213
113.25991
106.03505
100.27541
96.126193
92.256395
90.581341
87.404236
135.34082
124.9597
116.19405
109.01416
103.40959
99.257258
95.685485
93.96324
91.309431
137.95955
127.70886
118.98357
111.83042
106.36285
102.22444
98.931058
97.170222
95.016194
118.75882
118.41596
120.03956
121.64617
125.50903
129.88593
137.26728
146.51525
160.50242
117.03833
116.68951
118.34585
120.12514
124.08372
128.63227
136.06366
145.20661
157.63751
115.07235
114.82507
116.49529
118.44139
122.43451
127.09972
134.45495
143.44758
155.13876
112.84287
112.80858
114.48752
116.59504
120.59075
125.35646
132.63167
141.53189
152.87399
110.31861
110.62261
112.3214
114.58902
118.59551
123.46953
130.68681
139.54412
150.55996
107.63796
108.271
109.99344
112.43354
116.4574
121.44986
128.63144
137.44334
148.13348
104.76416
105.74657
107.4979
110.12089
114.17481
119.28627
126.44385
135.21711
145.6106
101.73551
103.05697
104.82785
107.65357
111.73808
116.9667
124.11137
132.84227
143.08583
98.474112
100.19785
101.97419
105.01994
109.1375
114.48228
121.62321
130.34558
140.53652
120.44898
122.05042
123.5538
124.94538
126.23412
127.41754
128.5119
129.51549
130.44402
120.02098
121.51415
122.90509
124.19398
125.3927
126.50112
127.53447
128.49209
129.38603
121.56322
122.94908
124.22341
125.40438
126.49457
127.50693
128.44324
129.31456
130.1225
123.01022
124.24575
125.37705
126.42029
127.37662
128.26122
129.07557
129.83315
130.53523
126.69223
127.71508
128.62761
129.45225
130.19317
130.86912
131.48136
132.0457
132.56275
130.8443
131.63188
132.30168
132.8773
133.37032
133.79533
134.15754
134.47705
134.75643
137.96409
138.43547
138.757
138.96942
139.09199
139.14737
139.14892
139.11417
139.05194
146.84321
146.88226
146.69093
146.37335
145.94044
145.44065
144.882
144.29714
143.69209
160.54154
160.09608
159.25485
158.24236
157.09712
155.91941
154.72207
153.53105
152.3514
131.29605
130.21616
130.87637
131.19293
133.04557
135.01175
138.97384
143.08824
151.19256
132.08476
130.99217
131.57755
131.80714
133.49441
135.24398
138.88408
142.49011
150.05318
132.80903
131.71378
132.23353
132.38656
133.91967
135.4662
138.79611
141.91183
148.94111
133.47966
132.38899
132.84547
132.93174
134.32132
135.67904
138.71184
141.35691
147.85754
134.09568
133.01794
133.41917
133.44899
134.70705
135.89255
138.64286
140.83596
146.80915
134.66596
133.60698
133.95557
133.93852
135.07648
136.10694
138.59001
140.35186
145.78801
135.18968
134.15583
134.45885
134.40449
135.4345
136.32831
138.5629
139.91399
144.79879
135.67378
134.66938
134.92975
134.84681
135.78033
136.55598
138.56179
139.52466
143.83204
136.11747
135.14747
135.37121
135.26802
136.11634
136.79197
138.59185
139.19409
142.88955
138.7399
138.17619
138.21688
138.18664
138.65442
139.08847
140.11913
139.61284
138.39944
138.52841
137.93386
137.98715
137.934
138.41577
138.83272
139.86434
139.26731
138.01244
138.30518
137.67037
137.73791
137.6639
138.16641
138.57454
139.62181
138.98396
137.89887
138.06856
137.3853
137.46849
137.37662
137.90666
138.3151
139.39727
138.77155
138.12906
137.81689
137.07886
137.17801
137.07182
137.63577
138.05521
139.19426
138.63374
138.66453
137.53982
136.74805
136.86557
136.74925
137.35398
137.79603
139.01666
138.57476
139.39575
137.23508
136.39216
136.52982
136.40799
137.06068
137.53847
138.86594
138.59507
140.21003
136.89683
136.00743
136.16982
136.0479
136.75663
137.28445
138.74423
138.72676
141.07235
136.52535
135.59363
135.78387
135.66787
136.4415
137.03491
138.65224
138.92309
141.96782
138.80696
140.02914
140.39697
139.35
138.8882
138.42582
138.43037
138.3976
138.91442
139.40325
140.52374
140.68975
139.60674
139.11116
138.64945
138.62763
138.5997
139.05245
140.07043
141.05012
140.97493
139.84838
139.31543
138.85343
138.80663
138.78161
139.16695
140.78149
141.57945
141.24119
140.06845
139.49913
139.0378
138.96824
138.94536
139.26924
141.52747
142.09827
141.48052
140.26197
139.66053
139.20242
139.11289
139.09097
139.35133
142.2953
142.59651
141.68748
140.42872
139.80013
139.34881
139.24191
139.21954
139.42302
143.08826
143.07027
141.8609
140.57266
139.92143
139.48004
139.3573
139.33012
139.47861
143.89979
143.52321
142.01493
140.71051
140.03848
139.60427
139.46303
139.42329
139.52158
144.71314
143.97423
142.20294
140.88052
140.1765
139.73502
139.56433
139.49892
139.54116
145.6198
144.48614
142.51706
141.16429
140.39895
139.92491
139.69756
139.57842
139.54651
146.63811
145.03879
142.9014
141.51012
140.68794
140.18518
139.90024
139.70908
139.5998
147.65203
145.55107
143.27955
141.84947
140.97648
140.44786
140.11532
139.86331
139.69005
148.65221
146.03005
143.64561
142.18449
141.27119
140.71715
140.34374
140.04153
139.81314
149.60723
146.46216
143.97707
142.50285
141.56359
140.98927
140.58298
140.2413
139.96692
150.44032
146.82704
144.26286
142.8019
141.84844
141.26083
140.8305
140.4595
140.14876
151.01018
147.08713
144.48343
143.07309
142.12137
141.52808
141.08239
140.69227
140.35643
151.13425
147.23802
144.66411
143.32195
142.38356
141.78958
141.33478
140.93493
140.58708
150.69689
147.26806
144.81687
143.546
142.63287
142.042
141.58367
141.18296
140.83648
142.61108
142.70981
142.90553
143.22135
143.63529
144.21574
144.88842
146.17973
146.54919
142.55375
142.66555
142.88013
143.20814
143.65879
144.27098
145.07748
146.36056
147.26184
142.44384
142.58009
142.81793
143.1665
143.63755
144.28259
145.11769
146.50346
147.49999
142.28662
142.45603
142.72099
143.09138
143.57858
144.26292
145.15263
146.63812
147.85565
142.09186
142.29702
142.59115
142.98304
143.48907
144.21121
145.17735
146.77482
148.29932
141.86696
142.10904
142.4318
142.84292
143.37232
144.13597
145.16989
146.90677
148.72278
141.6196
141.89799
142.24746
142.67468
143.22387
144.02751
145.12698
147.02813
149.17305
141.35993
141.66927
142.04237
142.48319
143.04977
143.8906
145.04522
147.12392
149.62573
141.09654
141.42918
141.82024
142.27295
142.85348
143.73085
144.94029
147.1958
150.09464
149.43826
150.13438
150.83259
151.65414
152.59505
153.6097
154.69709
155.81762
156.87343
150.13584
150.7766
151.50503
152.35793
153.31818
154.33738
155.40881
156.50857
157.54015
150.83702
151.50719
152.27393
153.14682
154.10606
155.1164
156.1692
157.25143
158.29652
151.6606
152.36325
153.14996
154.01907
154.96235
155.95572
156.99196
158.07103
159.15772
152.60636
153.32861
154.115
154.96841
155.88394
156.85787
157.88163
158.97251
160.1263
153.62928
154.357
155.13491
155.97162
156.86823
157.83244
158.86262
159.99269
161.21243
154.72914
155.44227
156.20357
157.02435
157.90898
158.88036
159.92663
161.12259
162.45724
155.87265
156.56586
157.30979
158.13015
159.03008
160.04482
161.16277
162.38392
163.71576
156.96355
157.63385
158.39434
159.26016
160.23296
161.31806
162.56363
163.78536
165.51521
170.15811
166.65269
165.44447
163.58656
162.23563
160.94964
159.87035
158.93591
158.17579
160.08807
161.11674
161.06922
160.99496
160.65075
160.14162
159.56113
158.89143
158.20049
156.45477
156.99406
157.1194
157.34278
157.36271
157.30344
157.17606
156.93887
156.57435
154.07507
154.38761
154.36542
154.5433
154.55732
154.58385
154.5539
154.51469
154.35547
152.30433
152.48925
152.46944
152.54985
152.52585
152.52299
152.49153
152.4806
152.41102
150.70121
150.82605
150.77159
150.857
150.79405
150.81819
150.74862
150.73313
150.66127
149.2755
149.3164
149.27759
149.30004
149.25273
149.23618
149.18894
149.15411
149.10104
147.9029
147.89548
147.82448
147.84087
147.75812
147.75604
147.67867
147.6511
147.58148
146.59484
146.52687
146.45799
146.40333
146.32951
146.26942
146.21058
146.1572
146.09647
144.70989
143.34109
141.84568
140.11978
138.15699
135.60039
132.54855
128.86436
126.06968
144.78887
143.41121
141.89618
140.14346
138.09353
135.52296
132.33896
128.75425
125.29604
144.81078
143.43228
141.87395
140.10059
137.96485
135.36317
132.07421
128.38953
124.37412
144.89226
143.47445
141.93668
140.09264
137.96141
135.22585
131.86834
127.85201
123.38214
144.91595
143.528
141.93694
140.1255
137.91006
135.16487
131.65039
127.37298
122.4307
145.0161
143.59215
142.00914
140.16112
137.93763
135.12045
131.54127
126.87197
121.57156
145.05328
143.6666
142.06047
140.25501
137.97585
135.20777
131.49043
126.68222
120.71839
145.13809
143.71903
142.12585
140.28508
138.04288
135.18885
131.50478
126.44075
122.06331
145.25459
143.85676
142.26551
140.47991
138.22851
135.51295
131.68695
126.74907
119.45693
126.61829
129.25214
132.42465
134.67005
136.18008
137.58382
138.9465
140.289
141.57358
125.4593
128.39731
132.04859
134.42079
135.99866
137.479
138.92401
140.3054
141.61549
124.08164
127.63694
131.74893
134.17428
135.78132
137.31039
138.80682
140.22788
141.56064
122.23985
126.80868
131.50256
133.99551
135.70994
137.31035
138.86208
140.294
141.634
119.92098
125.75212
131.00565
133.53598
135.34661
137.05742
138.68808
140.17223
141.54108
117.17423
125.62233
131.20135
133.60611
135.46448
137.19076
138.81757
140.28305
141.64158
111.62275
123.91605
130.56113
132.98322
135.04257
136.92622
138.64134
140.14896
141.53645
107.59102
124.39276
131.04088
133.20254
135.21472
137.07994
138.76702
140.25164
141.62177
96.962275
122.87682
130.63143
132.842
134.99602
136.95694
138.68645
140.18081
141.56797
142.82213
144.04157
145.28707
146.55677
147.88066
149.24844
150.68619
152.19852
153.8191
142.85938
144.08945
145.33006
146.61204
147.93473
149.31955
150.76438
152.2978
153.92343
142.82349
144.07067
145.32813
146.62625
147.96175
149.36161
150.8148
152.36619
154.00662
142.88672
144.14071
145.39471
146.69951
148.03417
149.44182
150.8996
152.46465
154.11477
142.81437
144.0877
145.36051
146.67916
148.02742
149.44935
150.92404
152.50815
154.17497
142.90029
144.16638
145.43018
146.74637
148.09155
149.51516
150.98893
152.57733
154.24811
142.81806
144.10415
145.38763
146.71848
148.07543
149.5094
150.99416
152.59509
154.27717
142.89338
144.16894
145.446
146.77039
148.12521
149.55671
151.04143
152.64209
154.32574
142.84867
144.13471
145.4168
146.74963
148.10615
149.54391
151.02958
152.6363
154.32197
155.55422
157.42955
159.44728
161.61117
163.91224
166.36632
168.91154
171.57721
173.47489
155.68311
157.57012
159.62587
161.83242
164.21998
166.77627
169.47858
172.27588
174.32965
155.79294
157.70367
159.79983
162.0514
164.52481
167.18528
170.03481
172.92696
175.18247
155.92048
157.84712
159.97848
162.26261
164.80723
167.53373
170.50869
173.51064
176.02642
156.00088
157.94716
160.10782
162.42402
165.02541
167.81447
170.92066
174.05038
176.8641
156.08452
158.04165
160.22471
162.56256
165.2123
168.04846
171.29077
174.53921
177.68959
156.129
158.09646
160.30012
162.65404
165.34542
168.21349
171.58181
174.9534
178.50979
156.18081
158.15102
160.36601
162.7274
165.45001
168.33488
171.82089
175.27028
179.47264
156.18283
158.15941
160.37938
162.75284
165.48183
168.39473
171.93342
175.47159
179.61053
174.49524
167.16601
164.4245
161.28322
158.05979
154.97306
152.01296
149.13876
146.32127
175.66154
167.97873
165.1515
161.86971
158.57279
155.40416
152.4304
149.50463
146.67676
176.73959
168.71414
165.81929
162.46225
159.09364
155.87015
152.86746
149.91904
147.07669
177.84339
169.39009
166.4067
162.93594
159.55473
156.25571
153.25566
150.24982
147.42032
179.00299
170.232
167.11365
163.54779
160.11147
156.79219
153.74677
150.74352
147.88039
180.15374
170.80647
167.58701
163.92786
160.49356
157.07963
154.04153
150.96696
148.12133
181.56613
171.87264
168.32798
164.62673
161.1308
157.70009
154.61844
151.54237
148.67862
182.30292
172.14946
168.5469
164.79429
161.30727
157.82096
154.74284
151.63293
148.77429
184.74785
173.78103
169.50976
165.64907
162.11712
158.57764
155.45492
152.31461
149.44062
143.50156
140.68132
137.83202
134.96199
132.04942
129.09692
126.08465
123.00262
119.84608
143.81682
141.0034
138.12668
135.26916
132.33317
129.39382
126.35833
123.28961
120.11094
144.21788
141.40172
138.53244
135.6749
132.7494
129.81361
126.79412
123.73846
120.57851
144.51351
141.7194
138.81537
135.98071
133.03218
130.11403
127.08145
124.03739
120.87609
144.9853
142.16925
139.27754
136.43447
133.48977
130.58096
127.54109
124.52733
121.34281
145.18005
142.38688
139.46842
136.64224
133.68818
130.78472
127.75268
124.72916
121.5814
145.73681
142.94068
140.01825
137.20526
134.2383
131.3623
128.30728
125.33547
122.12724
145.81465
143.02321
140.09681
137.28164
134.32278
131.43623
128.40219
125.40545
122.25784
146.46459
143.67455
140.73823
137.93754
134.96887
132.10662
129.06125
126.10572
122.91305
116.22706
112.07029
107.86746
103.48832
99.116156
94.929526
90.934777
85.210571
77.974088
116.55111
112.47178
108.38171
104.10705
99.851595
95.813585
92.247879
87.27238
80.893455
117.06124
113.06176
109.09423
104.89392
100.8244
96.777166
93.501473
88.573829
83.379743
117.43589
113.55553
109.66475
105.58067
101.56199
97.638928
94.65429
91.610806
85.838932
117.96293
114.12062
110.40397
106.35496
102.50087
98.465304
95.824169
91.601761
93.601154
118.25387
114.58805
110.85999
106.9979
103.03191
99.141091
95.806462
95.574359
94.578788
118.89697
115.26036
111.79625
107.95329
104.23959
100.20753
97.128122
91.746511
114.88273
119.03557
115.55942
112.00925
108.38063
104.52984
100.61134
96.112298
94.082206
104.61623
119.81716
116.46039
113.18881
109.6755
106.19403
102.39986
99.966858
83.136181
141.7744
60.190948
47.678683
50.368665
47.138637
45.570599
49.373377
50.746274
51.109581
50.454815
61.438917
47.119957
50.550201
47.783091
48.340542
49.860554
50.966002
51.218144
50.584658
61.839559
46.400671
50.911619
47.7092
47.610102
49.959911
51.084856
51.295027
50.707028
60.295312
45.219432
51.673419
47.695934
49.087977
50.235215
51.180659
51.432401
50.813598
55.976351
43.853644
51.771469
47.925515
48.963537
50.489373
51.297234
51.551903
50.937704
50.763341
43.868847
52.990407
47.386569
49.563162
50.770132
51.350826
51.687998
51.045859
52.843491
55.304502
50.709233
48.061222
49.881877
50.93441
51.467545
51.798895
51.143642
52.154116
40.144547
51.671903
47.431872
50.148752
51.098288
51.500106
51.8845
51.2099
-20.050912
62.806714
48.98932
48.024725
50.849354
51.228499
51.608386
51.942267
51.239001
49.330687
48.095415
46.294098
43.891919
41.052951
36.912423
33.405497
23.511367
28.119201
49.599638
48.353253
46.458401
44.000107
40.829547
36.241405
32.461913
23.483007
29.591239
49.699204
48.3516
46.37809
43.674957
40.234559
35.229242
30.697421
23.955734
29.629754
49.806894
48.438637
46.323155
43.462515
39.717206
34.464191
29.536816
23.887728
31.730895
49.9392
48.50682
46.268229
43.262292
39.216595
33.886737
28.971575
25.914663
33.876302
50.021506
48.5675
46.204104
43.038061
38.781816
33.4857
29.008134
28.048816
36.096846
50.110341
48.574721
46.060654
42.717219
38.302472
33.015288
29.496508
30.476573
39.059595
50.144962
48.591981
45.986845
42.523958
38.000212
33.102118
29.681308
32.150931
40.210207
50.156534
48.465672
45.657883
41.924256
37.198153
32.43113
30.361496
34.943879
43.454458
30.504673
30.11289
31.305696
34.313574
38.007053
40.960723
39.568363
36.950228
33.68067
31.143155
29.711212
29.59448
33.255028
37.448594
40.973382
40.705143
38.953205
37.199336
31.763875
30.254176
29.954071