/*--------------------------------*- C++ -*----------------------------------*\
  =========                 |
  \\      /  F ield         | OpenFOAM: The Open Source CFD Toolbox
   \\    /   O peration     | Website:  https://openfoam.org
    \\  /    A nd           | Version:  11
     \\/     M anipulation  |
\*---------------------------------------------------------------------------*/
FoamFile
{
    format      ascii;
    class       volScalarField;
    location    "0.064";
    object      Ma;
}
// * * * * * * * * * * * * * * * * * * * * * * * * * * * * * * * * * * * * * //

dimensions      [0 0 0 0 0 0 0];

internalField   nonuniform List<scalar> 
880
(
1.443353270571932
1.443353270571932
1.443353270571932
1.443353278896976
1.443353270571932
1.443353270571932
1.443353270571934
1.443353231461001
1.443353270571932
1.443353270571933
1.443353270571924
1.443349648095801
1.443353270571932
1.443353270571932
1.443353270581303
1.443322253167542
1.443353270571932
1.443353270571932
1.443353270571933
1.443353270571093
1.443353270571932
1.443353270571932
1.443353270571935
1.443353270571932
1.44335327179133
1.443353259365923
1.443357312338301
1.443351500054212
1.440333494664201
1.429190591096126
1.420403794079228
1.418533937817006
1.443353267445637
1.443353264990358
1.443353263520987
1.443353268411352
1.443353187566974
1.443353174656947
1.443353168810562
1.443353161217774
1.443262509063667
1.443247933622945
1.443244110385718
1.443218318910779
1.416994795934495
1.416251576380896
1.4173117769764
1.410261962414657
1.425697819484629
1.440994027853029
1.449300141996492
1.448605576963969
1.443161921407125
1.443171187231509
1.44320435069343
1.443353791837488
1.44335297632639
1.443353017464283
1.443353108830106
1.443353271806633
1.443353249890591
1.443353246374777
1.443353250471998
1.443353261147957
1.443353268766141
1.443353270473457
1.443353270571612
1.443353270571932
1.443353287094398
1.443353272304643
1.443353270602747
1.44335327057367
1.443368075195088
1.443355033382535
1.443353307146967
1.443353270763503
1.445316052452769
1.443634285220644
1.443363600368856
1.4433533231242
1.443353262156209
1.443353270527996
1.443353270569009
1.443353270571932
1.443353269432648
1.443353271047644
1.443353270608819
1.443353270572373
1.443349389499733
1.443353024564046
1.443353257919503
1.443353269821607
1.442145796880009
1.44340655635942
1.443354690683667
1.443353271841143
1.443353279928684
1.443352790091847
1.443266674756355
1.371217486983815
1.443353266560625
1.443352589827084
1.442746765014493
1.294427346493606
1.44335323752035
1.443352247271157
1.442337463530082
1.268023416283973
1.443353221892501
1.443351956990442
1.44211299283448
1.265181669120025
1.258828640479017
1.441889775670405
1.443351588734285
1.443353208685099
1.253696609007474
1.441647201925897
1.443351169389488
1.443353184957327
1.243275616847283
1.441286288585878
1.44335043825644
1.443353167950439
1.235303981584419
1.44085177343473
1.44334954849233
1.44335310279756
1.443353113193083
1.443349757481924
1.440625142373994
1.222734959050742
1.443353078827903
1.443348647530435
1.440151266140786
1.220957746481112
1.443353018337411
1.44334780662287
1.439973056180443
1.235085332408144
1.443353094503877
1.443349125939679
1.440906498235807
1.308796038982082
1.44335287173025
1.443367251168103
1.444110764840353
1.43558737756839
1.443354005078646
1.443354590897622
1.443132315280427
1.440757275403609
1.443353275782393
1.443343677386619
1.439591328220456
1.356611402539568
1.443353223289778
1.443299697807543
1.433901618067191
1.254740297370253
1.234468597364964
1.435874199000323
1.443329262681546
1.443353253909001
1.251159058244762
1.436582901348387
1.443329303652835
1.443353249263115
1.282850045771305
1.439114552339525
1.443343094542851
1.443353265000746
1.263049942393861
1.438092173843698
1.443338759263664
1.4433532596819
1.338659542762933
1.44121702207222
1.443348584958379
1.443353266748447
1.40661006493275
1.442937841349232
1.443352717520532
1.44335327020176
1.437791117957354
1.443329191970565
1.443353269680749
1.443353270600718
1.446474353436057
1.443397561838165
1.44335341330149
1.443353270665227
1.417514123676705
1.442815001554994
1.443350046776319
1.44335326185659
1.417640077222995
1.442818975993444
1.443350049198544
1.443353261838932
1.417445571809421
1.442823320743466
1.443350045125261
1.443353261714803
1.415815280285986
1.442819996793215
1.443350049540026
1.443353261599624
1.446474353440713
1.443397561841899
1.443353413306983
1.443353270660588
1.437791117962412
1.443329191975144
1.443353269691532
1.443353270599492
1.406610064932093
1.442937841347033
1.443352717519718
1.44335327020154
1.338659542756922
1.441217022061693
1.443348584957271
1.443353266751207
1.443353253901765
1.443329262665427
1.435874198997057
1.234468597361422
1.443353249256915
1.443329303652108
1.436582901343076
1.251159058241643
1.443353265006952
1.443343094536211
1.439114552338982
1.282850045761423
1.443353259681258
1.443338759260574
1.438092173835773
1.263049942397631
1.254740297377641
1.433901618074473
1.443299697818038
1.443353223293846
1.35661140254572
1.43959132822687
1.443343677396926
1.443353275794768
1.440757275403901
1.443132315288752
1.443354590897929
1.443354005085274
1.435587377566366
1.444110764843196
1.443367251171145
1.44335287171635
1.443353113197206
1.443349757473737
1.440625142370131
1.222734959044267
1.443353078826527
1.443348647526005
1.440151266139188
1.220957746481054
1.443353018329993
1.443347806622866
1.439973056186471
1.235085332408526
1.443353094491516
1.443349125939775
1.440906498239906
1.308796038982893
1.235303981574447
1.440851773442239
1.443349548481156
1.443353102798686
1.24327561683967
1.441286288566479
1.443350438256118
1.443353167948047
1.253696609010906
1.441647201915955
1.443351169376871
1.443353184959626
1.258828640468738
1.441889775687863
1.443351588736815
1.443353208687242
1.443353279922887
1.443352790084329
1.443266674757745
1.371217486991135
1.443353266566204
1.443352589835396
1.442746765009082
1.294427346497443
1.443353237523725
1.443352247271125
1.442337463529523
1.268023416276532
1.443353221896636
1.443351956987484
1.442112992833707
1.265181669125401
1.443353271842327
1.443353269819232
1.443353270572414
1.443353270571932
1.443354690692276
1.443353257920448
1.443353270602775
1.443353270571416
1.443406556357384
1.443353024560292
1.443353271051624
1.44335327053002
1.442145796879853
1.443349389499236
1.443353269432309
1.443353262155778
1.443353270571934
1.443353270573521
1.443353270761021
1.443353323121653
1.443353270571591
1.443353270604398
1.443353307133802
1.443363600368934
1.443353270472203
1.443353272304555
1.443355033390851
1.443634285219742
1.443353268764513
1.443353287095641
1.443368075185931
1.4453160524566
1.443353249899042
1.44335297633366
1.443161921411137
1.425697819485469
1.443353246381812
1.443353017463583
1.443171187232616
1.440994027858637
1.443353250474652
1.443353108821401
1.443204350695454
1.449300141998535
1.443353261150062
1.443353271801135
1.443353791838524
1.448605576969435
1.410261962411961
1.443218318894363
1.443353161222397
1.443353268415377
1.417311776978414
1.443244110367899
1.443353168812351
1.443353263519003
1.416251576370631
1.443247933617704
1.443353174655973
1.443353264992743
1.41699479593748
1.443262509098135
1.443353187568672
1.44335326744338
1.418533937813882
1.443351500045366
1.443353270571932
1.443353270571072
1.420403794080818
1.44335731234946
1.443353270571932
1.443353270571933
1.429190591092164
1.443353259368526
1.443353270571932
1.443353270571933
1.44033349466544
1.443353271791086
1.443353270571932
1.443353270571934
1.443353270571932
1.443353270571933
1.443353270571932
1.443353278821453
1.443353270571931
1.443353270571932
1.443353270571932
1.443353231468379
1.443353270571932
1.443353270571932
1.443353270571932
1.443349648114509
1.443353270571932
1.443353270571932
1.443353270581331
1.443322253176461
1.443353629125402
1.443354199611844
1.44335666035774
1.443147831992539
1.443354199492014
1.443358632220145
1.443383865295846
1.438897720893104
1.443356660505616
1.443383865320324
1.44198035505389
1.407322109002845
1.443147831965672
1.438897720898421
1.407322109018093
1.245285905391624
1.078993551156754
1.174866670832811
1.325232791409861
1.398448193149703
1.132794498026575
1.157688817447661
1.225428938809051
1.291483256701477
1.191003803727748
1.221845372777741
1.251171676226518
1.282344810303407
1.219545098056865
1.273699037498664
1.284187634197586
1.296941924654423
1.305308920226755
1.310077433468589
1.311724323279798
1.29914863452231
1.306152155791208
1.315848897360767
1.318270217266189
1.316471212145069
1.30258921086494
1.313526210502715
1.315441030310625
1.382618424173024
1.229512020377433
1.234461228695678
1.235228468728114
1.482574066120837
1.424172814943534
1.531320520375604
1.512147251188538
1.473712839911117
1.517563393482814
1.631528765014739
1.54548371650358
1.490563123586216
1.670134635833061
1.626508717484895
1.553103292482569
1.502148339572259
1.272094023435808
1.259098314978069
1.310826769214013
1.378719356960968
1.451935422111418
1.444802046190373
1.443446076859066
1.443354586690221
1.461761038404197
1.447088952405404
1.44363283539883
1.443357879010355
1.472253397309939
1.450852314666893
1.444023352639032
1.443366131563125
1.416146281311286
1.436774674433585
1.442723667193341
1.443353944396905
1.443353256395371
1.443353280762199
1.443352810490678
1.362978650282199
1.443353270755133
1.443353280077718
1.443352877833666
1.259368677681834
1.443353307452532
1.443353274695178
1.443352884697767
1.152732057245238
1.443353259517346
1.443353264800373
1.443352461489414
0.9889927347871079
0.9032175393239036
0.9588294218578584
0.9931161897856319
1.010499793924109
0.762460525964789
0.902596112273605
0.9823283578151009
1.014156460397069
0.6593782620227734
0.8468748885635021
0.9591672690687839
1.005437518417431
0.5689846153428503
0.7592235226416474
0.8509508925900142
0.9015236972776184
1.016225274516668
1.016918945948649
1.014605899168866
1.01445077443929
1.024061573348389
1.026046804699339
1.025578409389767
1.026282908911607
1.016353583106552
1.017927449993679
1.018123942472265
1.018966263821208
0.9246677833188246
0.9293470866603916
0.9295369452597985
0.9263082935207241
1.011211038583965
1.017225844472537
1.044708626385555
1.120984035254363
1.024183301039637
1.032380786283296
1.070344576310233
1.165074623340017
1.017903271071345
1.025931921024377
1.087997428436059
1.444904555614692
0.9358573767761426
0.9462843453766561
1.068702591684102
1.962196049172913
1.35323090962508
1.359099917370989
0.5075016984287255
0.1779660783821862
1.368331173383754
1.164726565290387
0.4258151784047399
0.2531033545681384
1.477185934223598
0.8986526905288089
0.384849399922977
0.1301208205830677
1.073264623290841
0.3665803940212227
0.2912767481516205
0.1537380720540171
0.1345460541316249
0.168204174848951
0.2365430346256198
0.2480412280675578
0.2800100868031489
0.2516105512886378
0.2457853557834037
0.3792595607987622
0.09017532584433423
0.1477379556009099
0.3312782511816987
0.4935544930905534
0.1285443186654436
0.1764258126812224
0.3516109381516073
0.5614785661705658
1.211508057850104
1.376553871559445
1.454751481263914
1.482326231941072
0.8660509786461362
1.176161230054849
1.374150199509462
1.48120799780356
0.3243560026454465
0.732240323207428
1.12448222667783
1.54901429150674
0.1634450249363742
0.4328832739888357
0.8987832774686848
1.84859234477161
1.64284489698499
2.045271910741951
1.681388980193797
1.186928859608425
1.822427924611904
2.343827594688596
2.567724584645473
1.472662943058147
1.945179898612332
2.403872934029063
2.491616578602133
1.338893948364359
1.58501712253484
1.500314336438604
1.471591097907954
0.90164872951083
0.6549725532384481
0.5938108016536151
0.5506912984169343
0.2989830181156293
0.8524727060588794
0.8677596074995287
0.7853402401872979
0.3283386607473258
1.004801786488893
0.9196842568815693
0.8407546374692552
0.4054950141693969
0.9417351983656223
0.8224732011369797
0.7050630734169445
0.491870342253132
0.298983018116395
0.3283386607468499
0.4054950141680143
0.4918703422507739
0.5506912984175117
0.7853402401889858
0.8407546374680883
0.7050630734156229
0.5938108016539242
0.867759607499926
0.9196842568838582
0.8224732011378816
0.6549725532373054
0.8524727060567824
1.004801786490394
0.9417351983674805
1.18692885961036
1.681388980197625
2.045271910748511
1.642844896994395
1.472662943061196
2.567724584640595
2.343827594689676
1.822427924616886
1.338893948362668
2.491616578600551
2.403872934032672
1.945179898615263
0.9016487295088885
1.471591097907547
1.500314336438467
1.585017122535886
1.848592344773946
0.8987832774692783
0.4328832739891339
0.1634450249354439
1.549014291510283
1.124482226680793
0.7322403232084423
0.3243560026405703
1.48120799780743
1.374150199514989
1.176161230055301
0.8660509786401036
1.482326231945247
1.454751481268494
1.376553871559119
1.211508057845552
0.2480412280642537
0.2365430346191532
0.168204174847845
0.1345460541318643
0.379259560801596
0.2457853557798428
0.2516105512889685
0.28001008680046
0.4935544930921986
0.3312782511802069
0.1477379556008201
0.09017532584213479
0.561478566171234
0.3516109381524972
0.1764258126804699
0.1285443186639758
0.1779660783875126
0.5075016984311929
1.359099917363291
1.353230909625066
0.2531033545564282
0.4258151784060494
1.164726565287517
1.368331173388648
0.1301208205744676
0.384849399919057
0.8986526905259232
1.477185934227304
0.1537380720479853
0.2912767481486825
0.3665803940200686
1.073264623294012
1.120984035254959
1.044708626384359
1.017225844471505
1.011211038578753
1.165074623341585
1.070344576309348
1.032380786281532
1.024183301035838
1.444904555617604
1.087997428436093
1.025931921022762
1.017903271069768
1.962196049177028
1.068702591688099
0.9462843453818143
0.9358573767823987
1.014450774431093
1.014605899165553
1.016918945951058
1.016225274509772
1.02628290890778
1.025578409387034
1.026046804699447
1.024061573344928
1.018966263820521
1.018123942470392
1.017927449993557
1.016353583105947
0.9263082935264856
0.9295369452616038
0.929347086660557
0.9246677833230329
1.010499793924796
0.9931161897822024
0.9588294218606793
0.903217539325459
1.014156460398599
0.9823283578123159
0.9025961122757369
0.7624605259654137
1.005437518418757
0.9591672690669963
0.8468748885645988
0.6593782620230824
0.9015236972775179
0.8509508925907258
0.7592235226423164
0.5689846153416728
1.36297865028275
1.443352810492173
1.443353280762836
1.443353256394705
1.259368677682292
1.443352877834264
1.443353280078473
1.443353270754763
1.152732057245263
1.443352884694375
1.443353274695786
1.443353307451953
0.9889927347868607
1.443352461494414
1.443353264800826
1.443353259517446
1.443354586688438
1.443446076857952
1.444802046190513
1.451935422118577
1.443357879008106
1.443632835393394
1.447088952410821
1.461761038403018
1.443366131560595
1.444023352631397
1.450852314675194
1.472253397306065
1.443353944398341
1.442723667191713
1.436774674438032
1.416146281309155
1.473712839916617
1.512147251189569
1.531320520380971
1.424172814943572
1.490563123591884
1.545483716503703
1.631528765018148
1.517563393484088
1.502148339577428
1.553103292482464
1.626508717488286
1.670134635834613
1.378719356960145
1.310826769215557
1.259098314980887
1.272094023436984
1.299148634523221
1.311724323280477
1.310077433463626
1.305308920224843
1.31647121214751
1.318270217264567
1.315848897357873
1.306152155790049
1.382618424178777
1.315441030310461
1.313526210502839
1.302589210863589
1.482574066129344
1.235228468737284
1.23446122870365
1.229512020373477
1.296941924651349
1.282344810306036
1.29148325669871
1.398448193151131
1.284187634195393
1.251171676227569
1.225428938808636
1.325232791417247
1.273699037496507
1.221845372779346
1.157688817449079
1.174866670832001
1.219545098063443
1.191003803735442
1.13279449802752
1.078993551159529
1.4426787627694
1.443299854649381
1.443352972840536
1.443353269888561
1.437793738844688
1.44320906991014
1.443352466991813
1.443353268441024
1.422535778503332
1.443026361690245
1.443351507418742
1.443353265776832
1.407932671483597
1.442782094387637
1.443350154719399
1.443353262229528
1.443353261852345
1.443350046778386
1.442815001554708
1.417514123674022
1.44335326183561
1.443350049193582
1.442818975999754
1.417640077219925
1.443353261719182
1.4433500451191
1.442823320747235
1.41744557181615
1.443353261612411
1.443350049533218
1.442819996813572
1.415815280291129
1.443353262231421
1.443353265779297
1.443353268455083
1.44335326990356
1.443350154718227
1.443351507418881
1.443352466994757
1.44335297284812
1.44278209438322
1.443026361695451
1.443209069903366
1.443299854655655
1.407932671491519
1.422535778508504
1.437793738843356
1.442678762770423
)
;

boundaryField
{
    back
    {
        type            empty;
    }
    inlet
    {
        type            calculated;
        value           nonuniform List<scalar> 
16
(
1.443353270571932
1.443353270571932
1.443353270571932
1.443353270571932
1.443353270571932
1.443353270571932
1.443353270571932
1.443353270571092
1.443353270571072
1.443353270571932
1.443353270571932
1.443353270571933
1.443353270571932
1.443353270571932
1.443353270571932
1.443353270571932
)
;
    }
    front
    {
        type            empty;
    }
    top
    {
        type            calculated;
        value           uniform 0;
    }
    outlet
    {
        type            calculated;
        value           nonuniform List<scalar> 
16
(
1.443353258697929
1.443353258674192
1.443353258489872
1.443353258327507
1.443353269590326
1.443353267620696
1.443353264012649
1.443353259188809
1.443353258695215
1.443353258671982
1.443353258492615
1.443353258335692
1.443353259190018
1.44335326401399
1.443353267629528
1.443353269600025
)
;
    }
    bottom
    {
        type            calculated;
        value           uniform 0;
    }
    wall
    {
        type            calculated;
        value           uniform 0;
    }
}


// ************************************************************************* //
