/*--------------------------------*- C++ -*----------------------------------*\
  =========                 |
  \\      /  F ield         | OpenFOAM: The Open Source CFD Toolbox
   \\    /   O peration     | Website:  https://openfoam.org
    \\  /    A nd           | Version:  11
     \\/     M anipulation  |
\*---------------------------------------------------------------------------*/
FoamFile
{
    format      ascii;
    class       surfaceScalarField;
    location    "4.475";
    object      phi;
}
// * * * * * * * * * * * * * * * * * * * * * * * * * * * * * * * * * * * * * //

dimensions      [0 3 -1 0 0 0 0];

internalField   nonuniform List<scalar> 
8667
(
15.885673
1.9175407
-0.025436379
13.979285
2.030597
-0.12420866
12.060336
2.1469771
-0.2280282
10.13184
2.3413314
-0.41283556
8.2017007
2.5099182
-0.57977863
6.25125
2.7873491
-0.83689828
4.3031496
3.0600307
-1.1119304
2.3251803
3.4546145
-1.4766452
4.0062579
-2.1383888
0.45731117
15.885486
3.8098334
13.979042
3.937041
12.063162
4.0628566
10.137901
4.2665924
8.2034447
4.4443746
6.2477376
4.7430561
4.3029152
5.0048531
2.3078797
5.44965
5.9000019
0.41413561
15.885491
5.7021208
13.981783
5.8407483
12.069085
5.975555
10.141432
6.1942455
8.2082482
6.3775581
6.2470064
6.704298
4.2994453
6.9524142
2.2915409
7.4575545
7.8017572
0.38978557
15.886442
7.5934565
13.984325
7.7428658
12.075462
7.8844182
10.147264
8.1224433
8.2134704
8.3113516
6.254675
8.6630933
4.2883859
8.9187033
2.2588826
9.4870578
9.7092025
0.35143734
15.887764
9.4834688
13.987271
9.6433582
12.081935
9.7897542
10.157995
10.046383
8.2168269
10.25252
6.2605264
10.619394
4.2914637
10.887766
2.2411734
11.537348
11.622285
0.32809052
15.889181
11.372066
13.994625
11.537914
12.087367
11.697012
10.168329
11.965422
8.229053
12.191796
6.2631256
12.585321
4.280883
12.870009
2.2135175
13.604714
13.550929
0.28487403
15.889143
13.260701
14.000193
13.426864
12.09785
13.599355
10.175807
13.887465
8.2379846
14.129619
6.2775696
14.545736
4.2856538
14.861924
2.191514
15.698853
15.490548
0.25189481
15.890827
15.147652
14.003316
15.314375
12.106665
15.496005
10.189313
15.804817
8.2460331
16.072898
6.2750765
16.516693
4.282463
16.854538
2.1675325
17.813784
17.488325
0.16975599
15.893039
17.032391
14.010135
17.19728
12.112987
17.393153
10.199962
17.717842
8.2610331
18.011827
6.2890508
18.488675
4.2871712
18.856417
2.1504855
19.95047
19.494274
0.14453613
18.855577
15.954592
20.674908
15.958447
22.491052
15.96164
24.30765
15.961182
26.12067
15.96474
27.931658
15.966792
29.742131
15.967306
31.54376
15.976151
15.977334
33.344206
19.017848
14.134024
20.838644
14.13765
22.655786
14.144499
24.46776
14.149207
26.281708
14.150792
28.087944
14.160556
29.894834
14.160417
31.697817
14.173167
14.16641
33.508742
19.236889
12.290288
21.072792
12.301747
22.907796
12.309495
24.73337
12.323634
26.555429
12.328733
28.370678
12.345307
30.180043
12.351051
31.984732
12.368479
12.373017
33.778124
19.585227
10.422904
21.448261
10.438713
23.308082
10.449674
25.164732
10.466983
27.01848
10.474985
28.871418
10.492369
30.730518
10.491951
32.584857
10.51414
10.509764
34.44811
19.920495
8.5142358
21.825374
8.5338342
23.730888
8.5441594
25.629041
8.568831
27.522758
8.5812675
29.404073
8.6110546
31.272337
8.6236877
33.135434
8.6510422
8.6654623
34.979736
20.449994
6.5529165
22.419342
6.5644863
24.393759
6.5697428
26.376413
6.5861774
28.360554
6.5971265
30.357642
6.6139663
32.350705
6.6306248
34.341928
6.6598186
6.6675967
36.339794
20.87262
4.5367139
22.909312
4.527794
24.946058
4.5329969
26.990955
4.5412802
29.02735
4.5607323
31.064761
4.576555
33.095283
4.6001031
35.130952
4.6241488
4.657249
37.1413
22.187118
2.3000657
24.440964
2.2739477
26.68536
2.2886014
28.907032
2.3196083
31.107466
2.360298
33.286556
2.3974648
35.448409
2.4382502
37.60078
2.4717773
2.5090878
39.748942
21.805441
-0.011101829
24.25201
-0.17262083
26.548525
-0.007913773
28.850641
0.01749202
31.15172
0.05921921
33.532156
0.017028992
35.977735
-0.0073285867
38.45979
-0.010277611
40.979834
-0.010956914
33.23793
0.10627626
33.139834
0.098095965
33.044077
0.095756403
32.958774
0.085303198
32.875204
0.083569945
32.804633
0.0705716
32.734621
0.07001146
32.679863
0.054758095
0.055183774
32.624679
33.432972
0.18204664
33.367776
0.16329107
33.304803
0.15872957
33.254639
0.13546745
33.205985
0.13222361
33.171071
0.10548613
33.136976
0.10410634
33.117385
0.074349158
0.075837876
33.096731
33.745562
0.21460848
33.722173
0.18668021
33.702401
0.17850143
33.690239
0.14762973
33.681138
0.1413249
33.677977
0.10864737
33.677563
0.10452017
33.682802
0.069109925
0.067734371
33.690905
34.434273
0.22844517
34.42438
0.19657389
34.413824
0.18905654
34.406808
0.15464631
34.399167
0.14896609
34.394936
0.11287823
34.391492
0.10796433
34.390899
0.069702498
0.066833941
34.3918
34.996561
0.21162031
35.018277
0.17485733
35.04328
0.16405439
35.071647
0.12627906
35.103766
0.11684654
35.13865
0.077994831
35.17714
0.069474532
35.214831
0.032011121
0.02517386
35.256491
36.361047
0.19036714
36.379516
0.15638888
36.399394
0.14417635
36.411732
0.11394042
36.424441
0.10413791
36.425539
0.076896794
36.423581
0.07143228
36.406509
0.049083067
0.046412262
36.385271
37.210508
0.12115916
37.262115
0.1047817
37.308387
0.097904531
37.340606
0.081721275
37.367648
0.077095589
37.377228
0.067316721
37.379964
0.068696342
37.364292
0.064755682
0.070896191
37.339808
39.70567
0.16443089
39.65888
0.15157191
39.618541
0.13824301
39.568115
0.13214753
39.500915
0.14429586
39.407954
0.16027724
39.290796
0.18585428
39.148726
0.20682634
0.24244052
38.977181
41.155472
-0.011206588
41.284556
0.022487556
41.284276
0.13852376
41.178407
0.2380161
41.024989
0.29771421
40.826905
0.35836127
40.603632
0.4091267
40.319963
0.49049592
39.96846
0.59394322
39.727485
0.83186273
-0.59088761
39.376353
0.77458163
-0.42345033
38.934365
0.74190009
-0.29991137
38.47554
0.69495309
-0.23612803
37.981297
0.67036162
-0.17611861
37.497255
0.63161081
-0.14756887
37.010122
0.60955668
-0.1224242
36.559551
0.58519304
-0.13462195
0.57444976
36.121
-0.1358989
38.959056
0.84998748
38.885658
0.84797992
38.780332
0.84722653
38.634734
0.84055113
38.469745
0.83535024
38.275671
0.82568483
38.065101
0.82012689
37.833234
0.81705968
0.81873108
37.588953
37.421753
0.76804224
37.487596
0.78213683
37.535659
0.79916407
37.565713
0.81049705
37.577968
0.82309539
37.57447
0.82918259
37.553592
0.84100429
37.522364
0.84828814
0.86287964
37.478215
36.502477
0.65083626
36.620628
0.663986
36.719412
0.70037942
36.818893
0.71101671
36.897232
0.74475559
36.973903
0.75251207
37.030689
0.78421786
37.088261
0.79071656
0.82214219
37.128998
35.414577
0.49275046
35.577692
0.50087069
35.731701
0.54637024
35.887222
0.555496
36.032354
0.59962381
36.176342
0.60852372
36.309472
0.65108842
36.438803
0.66138527
0.69929834
36.561647
34.535094
0.34945564
34.682836
0.35312944
34.835487
0.39371902
34.992387
0.39859542
35.151555
0.44045595
35.315282
0.4447975
35.479894
0.48647569
35.644924
0.49635503
0.52998331
35.81424
33.828605
0.21175582
33.971254
0.21048105
34.116322
0.2486506
34.269672
0.24524572
34.423057
0.28707048
34.586895
0.28095983
34.749371
0.32399975
34.924162
0.32156428
0.35632262
35.097822
33.221167
0.087319647
33.346291
0.085356914
33.484155
0.11078633
33.622341
0.10705998
33.775556
0.13385577
33.928758
0.12775734
34.098312
0.15444607
34.269595
0.15028169
0.17217972
34.453738
32.711999
32.797356
32.908142
33.015202
33.149058
33.276815
33.431261
33.581543
33.753723
33.929093
-0.17537065
34.123474
-0.19438037
34.323225
-0.19975093
34.540053
-0.21682865
34.767359
-0.22730512
35.009927
-0.24256864
35.26111
-0.25118303
35.532893
-0.27178328
-0.28074582
35.813639
34.643708
-0.36534145
34.84293
-0.39360156
35.049307
-0.40612876
35.268519
-0.43604
35.490615
-0.44940158
35.729746
-0.48169995
35.972612
-0.49404817
36.230527
-0.52969837
-0.54501804
36.494799
35.28048
-0.54799889
35.466475
-0.5795969
35.658576
-0.59823014
35.854441
-0.63190467
36.058421
-0.65338128
36.263346
-0.68662486
36.480866
-0.71156844
36.698858
-0.74769006
-0.77282068
36.92666
35.979303
-0.71306251
36.150959
-0.75125294
36.317706
-0.76497733
36.490408
-0.80460625
36.66185
-0.82482378
36.83813
-0.86290468
37.014533
-0.88797126
37.199903
-0.93306012
-0.95623529
37.383318
36.678441
-0.82985702
36.790394
-0.86320616
36.898929
-0.87351206
37.005658
-0.91133507
37.106918
-0.92608413
37.212498
-0.96848416
37.313347
-0.98882038
37.41754
-1.0372536
-1.0610432
37.522348
37.1735
-0.87435806
37.203468
-0.89317475
37.240681
-0.91072515
37.263984
-0.93463814
37.295615
-0.95771472
37.314546
-0.98741528
37.341109
-1.0153838
37.356271
-1.0524157
-1.0859032
37.381131
37.427276
-0.82341842
37.364803
-0.83070155
37.29751
-0.84343248
37.218189
-0.85531735
37.131325
-0.87085063
37.029876
-0.88596655
36.921375
-0.90688213
36.801596
-0.93263731
-0.96532022
36.681013
37.32888
-0.56334549
37.065687
-0.56750816
36.786492
-0.56423765
36.495526
-0.5643514
36.183486
-0.55881119
35.862379
-0.56485939
35.532711
-0.57721385
35.206319
-0.60624536
-0.64625811
34.887257
35.713268
-0.15561285
35.2831
-0.13734093
34.859418
-0.14055562
34.413508
-0.1184407
34.007039
-0.15234288
33.595214
-0.15303433
33.220943
-0.20294306
32.817311
-0.2026124
32.442863
-0.27181085
0.70321912
32.011397
-0.27175257
1.0106615
34.579814
1.1373002
36.554375
1.1208098
37.397622
1.010789
37.632369
0.81515844
37.578948
0.5795098
37.162309
0.29914788
36.775161
36.112787
0.76059753
31.59802
-0.34722047
1.0561544
34.284257
1.1767123
36.433817
1.1472657
37.427068
1.0357823
37.743853
0.84117661
37.773554
0.59968852
37.403797
0.31240503
37.062444
36.425192
0.82958056
31.111586
-0.34314648
1.122698
33.99114
1.2456622
36.310853
1.2182655
37.454465
1.0985061
37.863612
0.88733306
37.984727
0.63531849
37.655812
0.33382438
37.363938
36.759017
0.89541427
30.629271
-0.4130998
1.179176
33.707378
1.2924498
36.197579
1.2507532
37.496162
1.1271989
37.987166
0.91790348
38.194022
0.65965492
37.91406
0.34485223
37.678741
37.103869
0.98186732
30.027507
-0.38010278
1.2656878
33.423558
1.3777442
36.085522
1.3338503
37.540056
1.2017374
38.119279
0.96800939
38.42775
0.6956294
38.18644
0.36929479
38.005076
37.473164
1.0555379
29.486942
-0.51497298
1.332192
33.146904
1.4312893
35.986425
1.3699252
37.60142
1.2316951
38.257509
1.0003237
38.659122
0.72373989
38.463024
0.38245847
38.346357
37.855622
1.1715443
28.863963
-0.54856584
1.4411474
32.877301
1.5350127
35.89256
1.4661578
37.670275
1.3151104
38.408557
1.0530295
38.921203
0.76057692
38.755477
0.40758291
38.699351
38.263205
1.274545
28.33201
-0.74259167
1.5162987
32.635547
1.594095
35.814763
1.5050843
37.759285
1.3500229
38.563618
1.0934717
39.177754
0.79473662
39.054212
0.42247943
39.071608
38.685684
1.416545
27.789131
-0.87366646
1.6564976
32.395594
1.7244026
35.746859
1.6203866
37.863301
1.4439584
38.740046
1.1415756
39.480137
0.82626803
39.369519
0.44680516
39.451071
39.13249
-0.065232934
39.197723
-0.051922227
39.437761
-0.010824165
39.328421
0.1129046
39.356408
0.25092068
38.60203
0.42982674
37.684395
0.61893106
35.557754
0.84149908
32.173026
27.913151
0.71747984
-0.07695706
39.27468
-0.05560661
39.41641
-0.015290417
39.288105
0.059491584
39.281626
0.16138934
38.500132
0.31787184
37.527913
0.45768319
35.417943
0.60454677
32.026163
27.932982
0.58471563
-0.075383785
39.350063
-0.079279314
39.420306
-0.052527035
39.261353
0.053247772
39.175851
0.16005172
38.393328
0.3026797
37.385285
0.44511967
35.275503
0.5871449
31.884137
27.873618
0.64650876
-0.084852088
39.434915
-0.07896841
39.414422
-0.05168624
39.234071
0.0024278852
39.121737
0.072203378
38.323553
0.19685784
37.26063
0.30118779
35.171173
0.40529277
31.780033
27.846675
0.43223587
-0.079074115
39.51399
-0.090795521
39.426143
-0.078443413
39.221718
0.0075741343
39.035719
0.085981726
38.245145
0.20050429
37.146108
0.31559992
35.056077
0.4144658
31.681167
27.813282
0.44785829
-0.086701049
39.600691
-0.086765541
39.426208
-0.070666759
39.20562
-0.032982018
38.998035
0.011956775
38.200207
0.1040638
37.054001
0.17964118
34.9805
0.26057876
31.600229
27.71843
0.35543097
-0.077049915
39.677741
-0.08936958
39.438527
-0.085696712
39.201947
-0.02354121
38.935879
0.032337179
38.144328
0.12442708
36.961911
0.21309649
34.891831
0.29480162
31.518524
27.651556
0.36167547
-0.078188685
39.755929
-0.077984889
39.438324
-0.06418805
39.18815
-0.033489886
38.905181
-0.014398282
38.125237
0.040260224
36.907252
0.087729669
34.844361
0.16365784
31.442596
27.471579
0.34363505
-0.064082635
39.820012
-0.06844762
39.442689
-0.067556553
39.187259
-0.02410864
38.861733
0.011741455
38.089387
0.080043308
36.83895
0.14298487
34.78142
0.21730984
31.368271
27.37612
0.31276934
-0.10149778
27.155764
0.32185352
-0.029117959
31.295891
-0.010748596
34.76305
0.0097706173
36.818431
0.0026781921
38.096479
0.025734991
38.838676
0.039181119
39.173813
0.051985625
39.429884
39.871997
-0.17151307
27.049468
0.27780856
-0.10833458
31.232712
-0.073359972
34.728076
-0.037519947
36.782591
-0.019400262
38.078359
0.015750936
38.803525
0.019369508
39.170194
0.029300492
39.419953
39.901298
-0.065680873
26.803283
0.31186601
-0.0071462197
31.174178
-0.021585316
34.742515
-0.035435109
36.796441
-0.058091409
38.101016
-0.046491498
38.791925
-0.022520087
39.146223
0.0047723021
39.392661
39.90607
-0.15169399
26.692187
0.26279027
-0.11317142
31.135655
-0.11341758
34.742761
-0.11649688
36.79952
-0.11322755
38.097746
-0.082456643
38.761154
-0.061895629
39.125662
-0.029653395
39.360419
39.876417
-0.054308371
26.448655
0.29784034
-0.028213663
31.109561
-0.082293292
34.79684
-0.13080284
36.84803
-0.16541669
38.13236
-0.16335682
38.759094
-0.12416604
39.086471
-0.066199719
39.302452
39.810217
-0.16088081
26.349146
0.26038921
-0.16321139
31.111891
-0.20702946
34.840658
-0.249421
36.890421
-0.2575913
38.14053
-0.22139712
38.7229
-0.17402567
39.0391
-0.10535841
39.233785
39.704859
-0.076673977
26.129018
0.29680279
-0.10222922
31.137446
-0.20591896
34.944348
-0.289296
36.973798
-0.32920113
38.180435
-0.32420522
38.717904
-0.2593322
38.974227
-0.15407231
39.128525
39.550786
-0.20756281
26.071902
0.26467894
-0.26733254
31.197216
-0.36859217
35.045608
-0.44198609
37.047192
-0.45460025
38.19305
-0.40528447
38.668589
-0.32013746
38.88908
-0.19833929
39.006727
39.352447
-0.14310524
25.922274
0.29273273
-0.24078131
31.294892
-0.40609757
35.210924
-0.51452013
37.155615
-0.55350822
38.232038
-0.5290052
38.644086
-0.42382244
38.783897
-0.25726696
38.840171
39.09518
0.44033756
38.654843
0.76045346
38.520056
1.0197836
38.524567
1.2010878
38.462781
1.2664551
38.16667
1.1972156
37.224854
0.9828492
35.425291
0.68996809
31.587773
26.164877
0.44736541
0.51387964
38.140963
0.89609606
38.137839
1.1857368
38.234926
1.3631806
38.285338
1.4244185
38.105432
1.3323386
37.316934
1.0492788
35.70835
0.66966136
31.967391
26.330479
0.50405887
0.56362897
37.577334
0.97679585
37.724672
1.319498
37.892224
1.5624092
38.042426
1.6765436
37.991298
1.6427237
37.350754
1.3939813
35.957093
0.99069013
32.370682
26.802831
0.51833804
0.62775522
36.949579
1.1162356
37.236192
1.4927986
37.515661
1.7470286
37.788196
1.867214
37.871113
1.825115
37.392853
1.5381231
36.244085
1.0480368
32.860768
27.250654
0.60021383
0.67867624
36.270903
1.1980576
36.716811
1.6349979
37.07872
1.9603647
37.46283
2.1496836
37.681794
2.1766279
37.365909
1.9524774
36.468235
1.4591204
33.354125
28.071079
0.63869533
0.75861361
35.512289
1.3342068
36.141217
1.8041583
36.608769
2.1421434
37.124844
2.3534476
37.47049
2.3816257
37.337731
2.1670119
36.682849
1.644458
33.876679
29.017657
0.69788048
0.80319378
34.709095
1.4041082
35.540303
1.9531114
36.059766
2.3623999
36.715556
2.6520243
37.180865
2.7591612
37.230594
2.6283248
36.813685
2.2231303
34.281874
30.38117
0.85961754
0.88086737
33.828228
1.5381114
34.883059
2.1058304
35.492047
2.5213714
36.300015
2.8498334
36.852403
2.9945254
37.085902
2.8731679
36.935043
2.5428123
34.612229
31.728785
1.195197
0.9133946
32.914833
1.5971862
34.199267
2.2694415
34.819791
2.7702294
35.799227
3.1983362
36.424296
3.4701345
36.814104
3.4688544
36.936323
3.3278367
34.753247
32.741832
2.3147894
-0.68510592
33.599939
-1.7577529
35.271914
-2.9509793
36.013018
-4.4376585
37.285906
-6.0448842
38.031522
-7.7988643
38.568084
-9.5206992
38.658158
-10.726561
35.959109
32.766582
-10.751311
-0.63767944
34.237619
-1.6908564
36.325091
-2.871924
37.194085
-4.3896384
38.803621
-5.9993525
39.641236
-7.8591998
40.427931
-9.7215298
40.520488
-10.665543
36.903122
30.884511
-8.7834719
-0.55259179
34.79021
-1.571253
37.343752
-2.7365225
38.359355
-4.2872382
40.354336
-6.0068008
41.360799
-7.9315803
42.35271
-9.8215375
42.410445
-10.300317
37.381902
23.928878
-3.3446843
-0.50334319
35.293554
-1.4860739
38.326483
-2.6246491
39.49793
-4.2023764
41.932064
-5.9480213
43.106444
-7.9683151
44.373004
-9.7913668
44.233497
-9.8749766
37.465512
14.862796
-0.80889461
-0.41062654
35.70418
-1.3540128
39.269869
-2.4916217
40.635539
-4.092225
43.532667
-5.9390312
44.95325
-8.021698
46.455671
-9.8471066
46.058905
-9.3696539
36.988059
5.8189007
-0.32575866
-0.36423222
36.068412
-1.2576498
40.163287
-2.3518293
41.729719
-3.9771752
45.158013
-5.8539078
46.829982
-8.0355243
48.637287
-9.8045537
47.827935
-7.7410176
34.924523
-1.8142986
-0.10781823
-0.27313796
36.34155
-1.124696
41.014845
-2.2095434
42.814566
-3.8430279
46.791497
-5.8209481
48.807903
-8.0160935
50.832433
-9.4311935
49.243035
-5.1766772
30.670006
-7.5794
0.5884241
-0.229359
36.570909
-1.019588
41.805074
-2.0573353
43.852313
-3.7002369
48.434399
-5.7116395
50.819305
-7.9025401
53.023333
-8.9034759
50.243971
-4.5328331
26.299364
-12.589231
0.47699792
-0.15707178
36.727981
-0.89206771
42.54007
-1.9171171
44.877363
-3.5645952
50.081877
-5.6488543
52.903564
-7.7815522
55.156031
-8.2952607
50.757679
-3.8661981
21.870301
-17.122035
0.66660629
1.9171563
-19.595746
0.55655427
4.4133823
19.374075
3.9631486
51.207913
2.5418963
56.577284
1.20464
54.240821
0.27812394
51.008393
-0.16144675
45.316933
-0.32220163
42.700825
36.405779
1.6972598
-21.983479
0.69047332
4.2007803
16.870554
3.814477
51.594216
2.3776605
58.0141
1.0307911
55.58769
0.13896148
51.900223
-0.26766987
45.723565
-0.38149794
42.814653
36.024281
1.4174313
-24.313025
0.91211459
4.0013013
14.286684
3.7134948
51.882022
2.2587457
59.468849
0.89219503
56.954241
0.0269073
52.76551
-0.3394059
46.089878
-0.40554203
42.880789
35.618739
1.2250098
-26.538019
0.99998413
3.7763363
11.735358
3.5441927
52.114166
2.0904915
60.92255
0.72361654
58.321116
-0.10920756
53.598335
-0.43488578
46.415556
-0.46903009
42.914933
35.149709
0.96301018
-28.663292
1.1622629
3.5740559
9.1243122
3.4341742
52.254048
1.9708549
62.38587
0.59923147
59.692739
-0.21342501
54.410991
-0.49458292
46.696714
-0.48765112
42.908002
34.662058
0.80003855
-30.650982
1.1876518
3.3339971
6.5903536
3.2500964
52.337948
1.7949493
63.841017
0.43189442
61.055794
-0.34138794
55.184273
-0.58327229
46.938598
-0.55017975
42.874909
34.111878
0.55961418
-32.359146
1.1485499
3.1009826
4.0489852
3.1340239
52.304907
1.6611414
65.313899
0.3063327
62.410603
-0.43387144
55.924478
-0.63028627
47.135013
-0.55931841
42.803941
33.55256
0.42302633
-34.056202
1.2740294
2.8379188
1.6340927
2.9418796
52.200946
1.4871348
66.768644
0.14073193
63.757006
-0.55733098
56.62254
-0.71310994
47.290792
-0.60422014
42.695051
32.94834
0.22275358
-34.63522
0.35626456
2.5273726
-0.67052634
2.8215777
51.906741
1.3426226
68.247599
0.021001912
65.078626
-0.62850515
57.272048
-0.74803293
47.41032
-0.59156336
42.538582
32.356776
3.3052185
-37.053201
-0.88723809
0.49017478
2.1445174
-3.1995212
55.596437
-5.7223084
70.770386
-6.5964851
65.952803
-5.8310765
56.506639
-4.3178589
45.897102
-2.5713173
40.79204
29.785459
3.4052669
-40.449426
-0.0090411252
-0.3495122
5.8992964
-4.3867174
59.633643
-6.9764636
73.360133
-7.2116689
66.188008
-5.8292077
55.124178
-4.1829162
44.250811
-2.0442242
38.653348
27.741235
3.3162804
-42.738148
-1.0275583
-1.1605187
10.376096
-5.3201747
63.793299
-7.3496574
75.389615
-7.4623543
66.300705
-6.017998
53.679822
-4.1649433
42.397756
-1.7976025
36.286007
25.943632
3.2356565
-43.721432
-2.2523729
-1.723171
15.334923
-6.1596576
68.229785
-8.2710069
77.500964
-7.7421465
65.771845
-5.6167877
51.554463
-3.8148633
40.595832
-0.98411711
33.455261
24.959515
2.8368354
-43.062378
-3.4958892
-2.7025587
20.874317
-7.0136915
72.540918
-8.3631884
78.850461
-7.5079321
64.916588
-5.5654872
49.612018
-3.859963
38.890307
-0.69757704
30.292875
24.261938
2.6210302
-40.778166
-4.9052423
-3.1774887
26.672836
-7.6272471
76.990676
-8.8927294
80.115944
-7.845054
63.868913
-5.2942296
47.061193
-2.8534152
36.449493
0.49389828
26.945562
24.755837
1.8452944
-37.079927
-5.5435331
-4.1873644
32.705495
-8.4273761
81.230688
-8.8761879
80.564755
-7.136785
62.12951
-4.4345286
44.358937
-2.0745463
34.089511
0.83810549
24.03291
25.593942
1.3750099
-32.807691
-5.6472459
-4.5036475
38.584152
-8.8148015
85.541842
-9.0756192
80.825573
-7.2520302
60.305921
-4.2695345
41.376441
-0.73248611
30.552462
2.4359612
20.864463
28.029903
0.43982622
-5.2940763
-27.953441
-5.6461614
44.67014
-9.6761842
89.571865
-8.8471266
79.996516
-6.2377426
57.696537
-2.9835419
38.122241
1.0456901
26.52323
3.1070999
18.803053
31.137003
-0.54414067
38.948773
0.37446696
-38.7791
1.2681355
12.517341
-14.329617
3.0182001
-42.601384
40.851319
4.0812943
-60.461322
59.398228
4.1703964
-66.241306
66.152204
5.3890493
-42.9902
41.771547
8.2414234
-3.5146539
0.66227985
9.784054
27.287146
-28.829776
30.899209
-32.109113
-0.49410837
39.061837
0.38104482
1.4587515
10.564481
3.2366393
-44.379271
4.3735741
-61.598257
4.4409443
-66.308676
5.2719791
-43.821235
7.7209625
-5.9636373
9.1399745
25.868134
29.647465
-0.44657603
39.128286
0.38012681
1.66189
8.4560152
3.5590074
-46.276389
4.7607128
-62.799963
4.7435962
-66.291559
5.2341331
-44.311771
7.3960188
-8.125523
8.6988891
24.565263
28.316714
-0.40144748
39.15425
0.37548313
1.8370944
6.2174733
3.850761
-48.290055
5.087459
-64.036661
5.0315345
-66.235635
5.2733387
-44.553576
7.2415937
-10.093778
8.4150534
23.391804
26.929868
-0.32544736
39.114917
0.3647808
2.0513452
3.8406808
4.1538819
-50.392592
5.3960894
-65.278868
5.3183493
-66.157895
5.3736726
-44.608899
7.1897445
-11.90985
8.2855519
22.295996
25.498253
-0.26971709
39.029474
0.35515952
2.2349387
1.336025
4.4582126
-52.615866
5.7424369
-66.563092
5.6190912
-66.034549
5.4496024
-44.43941
7.0968862
-13.557134
8.1943744
21.198508
23.892194
-0.20310675
38.885491
0.34708989
2.4002212
-1.2673029
4.7689017
-54.984547
6.1302483
-67.924439
5.9135344
-65.817835
5.5384568
-44.064332
7.013615
-15.032292
8.1244142
20.087709
21.999086
-0.13730832
38.681891
0.34090805
2.5973399
-4.0019511
5.0964392
-57.483646
6.5529186
-69.380918
6.2400437
-65.50496
5.7088491
-43.533138
7.0269405
-16.350383
8.1577547
18.956895
19.756153
-0.058251209
0.33387267
38.40627
2.7875627
-6.8477651
5.4563013
-60.152385
6.9878549
-70.912472
6.6092937
-65.126399
5.9880269
-42.911871
7.2297682
-17.592125
8.5195357
17.667127
17.062811
-6.3052965
-27.451595
3.4815245
30.275367
-3.214682
-34.916978
31.826365
5.1046065
5.0718925
-13.391183
7.1772289
19.268984
-21.341606
3.6849366
-22.141101
25.633394
-1.6110916
-59.817307
65.113335
-3.2037942
-66.976594
68.569296
-2.0249392
-62.973549
61.794694
-52.804837
50.779898
-6.3249269
-23.818736
2.6920679
-4.4190742
-36.822831
3.9289479
-3.2761299
7.4192308
15.778701
5.2112495
-19.93312
0.42688812
-55.032946
-2.2653431
-64.284362
-2.0788065
-63.160086
-54.883644
-6.429637
-19.462959
2.0738601
-5.9142738
-37.338194
1.9749756
-11.165379
7.1211591
10.632517
5.9190986
-18.73106
1.3606842
-50.474532
-1.2963089
-61.627369
-1.6436076
-62.812787
-56.527251
-6.2515826
-14.535625
1.3242486
-6.5967078
-36.993069
0.78890305
-18.55099
6.8025171
4.6189034
6.810722
-18.739265
2.8105106
-46.47432
-0.43105377
-58.385805
-1.4966563
-61.747185
-58.023908
-5.8718934
-9.2489579
0.58522613
-6.9759532
-35.889009
-0.36751575
-25.159428
6.310464
-2.0590764
7.1273914
-19.556192
3.6300459
-42.976975
0.71998384
-55.475743
-0.88009409
-60.147107
-58.904002
-4.9762203
-2.9839325
-1.2888051
-6.8905527
-33.974677
-1.140453
-30.909528
5.8697465
-9.0692759
7.5249582
-21.211404
4.7254186
-40.177435
1.4825534
-52.232878
-0.51199714
-58.152556
-59.415999
-3.8559366
2.9113022
-2.0392983
-6.0492493
-31.781364
-1.1972066
-35.761571
5.5934099
-15.859892
7.3488349
-22.966829
5.1935744
-38.022175
2.5903481
-49.629651
0.2659431
-55.828151
-59.150056
-3.1845938
7.6190035
-1.5231075
-5.6570177
-29.308939
-1.9351108
-39.483478
4.7609905
-22.555994
7.0488766
-25.254715
5.6273281
-36.600626
3.0368215
-47.039145
0.66965007
-53.46098
-58.480406
-2.4440764
9.9098705
0.15320935
-5.1636362
-26.589379
-3.0035614
-41.643553
3.092199
-28.651754
6.0282527
-28.190769
5.4446367
-36.01701
3.6527174
-45.247226
1.3658326
-51.174095
-57.114573
-1.2766012
46.546906
-45.270305
-2.1887981
41.692534
-40.780337
-2.7760365
38.82804
-38.240802
-2.8310972
35.185322
-35.130262
-2.5665802
34.509424
-34.773941
-2.3279317
36.696418
-36.935067
-2.5376691
43.346497
-43.136759
-0.93350538
35.848586
-37.452749
-4.6555023
2.8630883
0.85890872
-1.3230578
47.869964
-2.2961972
42.665674
-2.8959653
39.427808
-2.9513493
35.240706
-2.5791173
34.137192
-2.1433205
36.260621
-2.2923606
43.495537
-0.85859788
34.414823
-6.0948834
0.58078314
-1.322705
49.192669
-2.3498181
43.692787
-3.0106711
40.088661
-3.043904
35.273939
-2.5370692
33.630358
-2.0135812
35.737133
-2.1076398
43.589595
-0.71475474
33.021938
-7.4421989
0.63256086
-1.3710493
50.563719
-2.4533775
44.775115
-3.1387446
40.774028
-3.1979806
35.333175
-2.583688
33.016065
-1.8555467
35.008992
-1.804058
43.538106
-0.56492067
31.782801
-8.6466728
0.63955331
-1.3370113
51.90073
-2.4906477
45.928751
-3.2558302
41.539211
-3.3145458
35.391891
-2.5521168
32.253636
-1.6988283
34.155703
-1.5808307
43.420108
-0.41582744
30.617797
-9.7229391
0.66043904
-1.3452012
53.245931
-2.5747702
47.15832
-3.3788201
42.343261
-3.4896991
35.50277
-2.6622726
31.426209
-1.5518633
33.045294
-1.2696552
43.1379
-0.20932752
29.55747
-10.684583
0.75231682
-1.3120345
54.557966
-2.5883593
48.434645
-3.4924717
43.247373
-3.6106765
35.620975
-2.6323911
30.447924
-1.3893959
31.802299
-1.0383498
42.786853
0.028572515
28.490548
-11.471346
0.81533497
-1.3162328
55.874198
-2.6529404
49.771353
-3.5965624
44.190995
-3.797974
35.822386
-2.7625303
29.41248
-1.2391813
30.27895
-0.72772903
42.2754
0.24561516
27.517204
-10.717543
-0.50818788
-1.2403746
-2.6431169
-3.6993475
-3.8939714
-2.67226
-1.0450642
-0.41321669
0.51460791
-0.2930644
2.2957164
-1.3822708
1.9496427
5.8089473
-40.96598
5.1905952
-42.518407
4.8327934
-36.577265
4.5650335
-34.506181
4.0847275
-34.649956
3.1050167
-37.261091
1.7964333
-39.471754
-43.473872
5.2826346
-7.4608241
0.79591875
6.4957414
-42.179087
5.5257626
-41.548429
4.8956874
-35.94719
4.4891416
-34.099636
3.9655522
-34.126366
2.983406
-36.278945
1.7026219
-38.19097
-41.77125
6.8675161
-14.330617
0.0022769603
6.8236314
-42.135203
5.6907263
-40.415523
4.9363546
-35.192818
4.4243794
-33.58766
3.8377195
-33.539706
2.8952577
-35.336483
1.6636333
-36.959345
-40.107617
7.5909721
-21.94244
0.020850438
7.1323523
-41.676583
5.8694886
-39.15266
4.9810671
-34.304397
4.3795584
-32.986152
3.7439461
-32.904094
2.7839148
-34.376452
1.5858079
-35.761238
-38.521809
8.4153125
-30.344667
-0.013085044
7.4328517
-40.694122
5.9409033
-37.660711
5.00061
-33.364103
4.3298532
-32.315395
3.6363256
-32.210566
2.7038798
-33.444006
1.5619803
-34.619339
-36.959829
9.0140416
-38.586813
-0.77189537
7.6206421
-39.300722
5.9902768
-36.030346
5.0227964
-32.396623
4.2902021
-31.582801
3.5509965
-31.471361
2.5996865
-32.492696
1.4617568
-33.481409
-35.498072
9.551092
-42.080098
-6.0578079
7.7062948
-37.455925
6.027186
-34.351237
5.0301121
-31.399549
4.263495
-30.816184
3.477623
-30.685489
2.5460795
-31.561153
1.4317208
-32.36705
-34.066351
9.8226133
-40.658522
-11.244189
7.5834209
-35.216733
6.010561
-32.778377
5.0255046
-30.414493
4.2270691
-30.017748
3.4060729
-29.864493
2.4546757
-30.609755
1.3417212
-31.254096
-32.72463
9.6940071
-37.954088
-12.398441
7.4358277
-32.958553
6.0118231
-31.354373
5.0306681
-29.433338
4.1975496
-29.18463
3.3463385
-29.013281
2.4039804
-29.667397
1.3281003
-30.178216
-31.39653
0.3150232
33.864829
-34.179852
0.66831217
33.276779
-33.630068
1.0124395
33.202775
-33.546903
1.3826289
33.135464
-33.505653
1.6923406
33.535304
-33.845016
1.89934
33.805537
-34.012536
1.7579089
34.372413
-34.230982
1.1535477
32.323148
-31.718787
27.109428
-26.414842
0.45896231
0.30197102
33.562858
0.65409668
32.924653
1.0405909
32.816281
1.4653127
32.710742
1.83438
33.166237
2.1230057
33.516911
1.9996355
34.495783
1.3619548
32.960829
27.888005
0.58337807
0.32926483
33.233593
0.71601599
32.537902
1.1119125
32.420385
1.5550326
32.267622
1.9763336
32.744936
2.3190393
33.174205
2.3581463
34.456676
1.7015156
33.617459
29.126983
0.4625373
0.30879744
32.924795
0.69052418
32.156175
1.1283915
31.982517
1.6224263
31.773587
2.0930051
32.274357
2.5335232
32.733687
2.6535625
34.336637
2.1316959
34.139326
30.674453
0.58422522
0.33004805
32.594747
0.73677865
31.749444
1.1699597
31.549336
1.6791863
31.26436
2.2090651
31.744479
2.7288218
32.213931
3.0501358
34.015323
2.6436114
34.545851
32.590265
0.72779967
0.29809152
32.296656
0.69339457
31.354141
1.1665924
31.076138
1.7166621
30.71429
2.2905171
31.170624
2.8955728
31.608875
3.3375475
33.573348
3.2138828
34.669515
34.648175
1.1559734
0.31494336
31.981712
0.72566455
30.94342
1.1817833
30.62002
1.738303
30.157771
2.3680264
30.5409
3.0266313
30.95027
3.6637138
32.936266
3.792906
34.540323
36.078167
2.3629136
0.27720351
31.704509
0.66259669
30.558027
1.1533285
30.129288
1.7334757
29.577623
2.3975118
29.876864
3.1173533
30.230429
3.8006003
32.253018
4.3348291
34.006094
37.257662
3.1553335
0.3079792
0.68779027
1.1496808
1.7140229
2.4062572
3.203348
4.1019938
5.1495347
4.4531088
-0.55017871
-26.216502
0.35183781
-0.92037958
-31.348586
-1.1192754
-34.032086
-1.0149161
-34.116896
-0.84191477
-34.018017
-0.59470233
-33.752866
-0.36300355
-33.778601
-0.16092095
-33.83215
-34.340773
-0.49211392
-26.011526
0.28713816
-0.81413545
-31.026564
-0.98604456
-33.860177
-0.92309791
-34.179842