/*--------------------------------*- C++ -*----------------------------------*\
  =========                 |
  \\      /  F ield         | OpenFOAM: The Open Source CFD Toolbox
   \\    /   O peration     | Website:  https://openfoam.org
    \\  /    A nd           | Version:  11
     \\/     M anipulation  |
\*---------------------------------------------------------------------------*/
FoamFile
{
    format      ascii;
    class       volScalarField;
    location    "9.65";
    object      p;
}
// * * * * * * * * * * * * * * * * * * * * * * * * * * * * * * * * * * * * * //

dimensions      [0 2 -2 0 0 0 0];

internalField   nonuniform List<scalar> 
4455
(
7245.2459
7251.9713
7267.696
7295.4763
7334.4233
7390.7074
7456.305
7555.2204
7630.1186
7307.5659
7308.6724
7319.4544
7343.1645
7381.8915
7438.0995
7507.9547
7606.9871
7712.4964
7363.9274
7360.2213
7366.4868
7387.8359
7425.3135
7482.1409
7551.7955
7654.3215
7755.2426
7413.6019
7406.2617
7409.1475
7428.6153
7465.5099
7523.0443
7594.4663
7704.2913
7811.4337
7456.4626
7446.8133
7447.5159
7465.3788
7502.2553
7560.8127
7635.6907
7756.8797
7875.6988
7492.7795
7482.1485
7481.2872
7498.0705
7535.3634
7595.747
7674.9262
7810.702
7943.0707
7523.0981
7512.2687
7510.5633
7527.0764
7564.9847
7626.7969
7711.0245
7865.3017
8015.2317
7547.9981
7537.4979
7535.901
7552.3446
7590.1509
7654.2909
7744.1705
7918.8811
8094.103
7568.0492
7558.5631
7557.2779
7573.6167
7611.6291
7678.0379
7774.6717
7970.9739
8182.7181
7583.9998
7596.459
7606.0454
7613.3626
7618.8684
7622.9377
7625.9242
7628.1423
7629.966
7575.878
7589.7819
7600.8129
7609.4897
7616.1903
7621.1695
7624.62
7626.5929
7627.1238
7575.2702
7590.2436
7602.3463
7611.7544
7618.8538
7623.9833
7627.7227
7630.6765
7633.4798
7592.0694
7607.4488
7619.7993
7629.4773
7636.8513
7642.0661
7645.2324
7646.0456
7644.4001
7630.9647
7647.6169
7660.7295
7671.0464
7678.5152
7683.3845
7686.4023
7688.7289
7691.9895
7700.5519
7720.4529
7736.5478
7749.0147
7757.1079
7761.2938
7761.9366
7759.382
7755.789
7807.2078
7840.5239
7870.7655
7895.3645
7913.0361
7923.7523
7928.2386
7928.5418
7926.737
8029.5815
8084.9448
8126.6223
8156.2205
8171.888
8176.0029
8171.024
8160.9672
8146.0277
8313.0403
8479.3337
8590.9365
8618.2911
8601.5918
8565.3606
8516.933
8461.6878
8400.8489
7631.1308
7631.4868
7631.7305
7632.2098
7632.7988
7633.5329
7634.4579
7635.441
7636.2294
7626.491
7626.818
7627.8681
7629.3424
7630.9893
7632.5677
7633.8956
7634.7616
7635.0571
7636.3738
7639.7494
7643.207
7646.395
7649.1545
7651.4857
7653.5155
7655.3865
7656.892
7641.6489
7644.0547
7649.7698
7655.715
7661.2401
7666.5426
7671.5142
7674.9127
7676.6182
7695.4239
7703.0965
7712.503
7721.4481
7729.1585
7735.5706
7741.0032
7745.5026
7749.4219
7753.8968
7760.9385
7772.1492
7784.5569
7795.8925
7805.7279
7813.1257
7817.8046
7820.4533
7924.349
7930.9013
7942.1662
7952.4117
7958.442
7960.3161
7960.0697
7959.2934
7959.1216
8132.0711
8123.3339
8115.2893
8105.21
8092.4156
8076.4125
8055.0236
8032.5179
8013.2767
8345.2979
8293.1393
8235.1202
8174.7675
8116.078
8062.54
8013.788
7967.7417
7937.6943
7932.003
7925.7922
7937.7301
7980.5885
8052.7725
8141.8296
8236.8962
8334.8233
8430.6404
7999.3801
7992.6726
7991.4648
7993.1976
7999.5159
8014.3996
8036.6875
8064.9873
8101.2654
7961.0604
7963.1858
7965.7282
7971.846
7980.2751
7989.2193
7999.2672
8011.9468
8027.3007
7821.6511
7823.461
7825.9939
7828.6596
7831.0556
7833.4626
7834.9681
7836.6608
7837.9909
7753.1524
7756.6474
7759.5148
7761.503
7762.5033
7762.2163
7760.9176
7758.8985
7757.457
7678.0523
7679.0376
7679.1486
7678.8934
7678.9393
7677.9155
7674.9881
7670.6199
7664.8487
7657.7887
7658.1498
7657.3501
7655.0315
7653.1753
7649.1011
7643.5685
7639.4585
7632.9015
7634.6058
7633.6061
7632.0107
7630.0398
7626.7666
7622.5017
7617.057
7609.9671
7600.9572
7636.7447
7636.2786
7635.2176
7633.144
7630.2584
7627.1401
7623.5703
7619.0944
7613.622
7605.8571
7595.5931
7583.1116
7568.0996
7550.8049
7530.8905
7507.9855
7481.2363
7450.9382
7589.5441
7577.2431
7563.3941
7546.2223
7525.7482
7503.0673
7478.4116
7449.4956
7417.311
7623.6308
7613.5771
7603.3164
7589.1064
7572.2406
7554.8489
7533.4696
7509.925
7483.6468
7657.3516
7648.9077
7639.711
7628.4478
7614.2096
7597.9876
7580.0787
7558.2858
7533.3725
7755.2768
7752.0817
7749.4243
7744.1683
7738.9568
7732.4248
7723.6119
7715.1496
7703.2165
7839.1623
7842.3181
7845.4359
7848.6095
7852.1053
7854.5891
7857.3044
7858.5223
7857.7625
8044.8314
8064.5591
8087.2448
8112.1875
8138.5338
8165.4975
8192.8546
8219.819
8245.8693
8142.9234
8186.0567
8233.4009
8284.7509
8340.1104
8395.9349
8451.5332
8509.8577
8571.1731
8531.8088
8631.9377
8731.3272
8838.2061
8948.9273
9059.7244
9166.0996
9273.3008
9390.6983
9511.0039
8634.0902
8270.2069
7854.477
7688.7657
7506.2023
7453.4942
7381.0519
7415.6426
9627.2062
8696.8329
8292.6368
7848.7433
7671.2535
7473.8588
7418.3934
7340.5674
7375.7951
9737.0886
8754.3875
8312.7862
7839.9888
7649.0972
7437.1843
7380.1678
7294.8575
7330.2515
9841.3887
8807.5598
8329.4234
7826.4184
7625.5153
7396.5276
7336.7831
7244.5991
7279.3081
9940.6725
8855.0142
8340.7133
7807.362
7595.2315
7348.5708
7288.9509
7188.5121
7221.6283
10032.497
8895.167
8347.1334
7781.2352
7559.5214
7296.1186
7233.2344
7126.0576
7157.5414
10119.452
8925.9273
8347.2294
7746.7193
7518.4691
7235.8234
7172.4741
7057.9527
7086.5032
10200.019
8947.2812
8337.8639
7704.4456
7469.2953
7168.7975
7104.7867
6982.4142
7008.5063
10274.458
8955.1122
8315.1967
7651.1817
7412.0497
7095.9186
7029.1752
6900.186
6924.149
6836.2034
6810.8287
6942.3634
7011.8648
7340.3381
7584.0508
8273.1104
8944.308
10358.754
6746.2071
6714.1603
6844.6611
6920.0899
7248.2281
7497.956
8192.118
8871.8827
10270.494
6641.4695
6606.8298
6735.8718
6813.5051
7139.9333
7388.2811
8075.2157
8740.3034
10073.547
6511.2608
6489.7333
6614.8976
6697.1141
7013.38
7258.035
7931.5955
8579.7652
9859.8357
6363.3715
6360.5657
6482.3635
6568.2457
6873.2447
7112.9475
7769.1666
8403.2192
9635.3682
6202.8524
6220.3187
6339.0552
6427.9395
6723.5798
6956.3188
7592.4768
8213.2378
9406.5816
6034.9366
6068.8155
6185.8154
6276.1748
6559.9805
6787.8517
7402.4388
8006.3083
9167.9308
5856.9436
5907.6195
6021.3926
6112.9079
6387.4652
6608.1349
7199.7198
7783.9923
8921.4204
5667.1417
5735.5076
5847.4517
5943.3891
6206.4025
6415.5475
6983.8049
7544.264
8667.5547
8406.3356
7289.1461
6756.0029
6211.8191
6013.8736
5760.523
5663.3883
5554.7363
5464.3697
8137.5827
7020.1267
6516.0532
5996.4839
5814.0067
5568.5185
5467.7306
5363.0383
5248.6443
7862.132
6738.0343
6266.0211
5771.494
5603.4411
5369.8589
5264.0135
5163.4484
5022.1767
7577.1772
6441.4099
6004.7791
5537.6344
5385.1331
5159.1651
5049.5803
4954.6174
4784.2235
7281.5107
6131.2258
5734.7889
5297.4547
5159.4562
4942.9331
4826.4573
4736.9262
4537.6566
6970.0824
5809.1884
5457.4807
5052.7762
4926.2847
4719.1816
4596.1035
4512.2149
4281.9956
6641.2178
5474.2609
5175.581
4806.1029
4688.7481
4489.1739
4361.4802
4280.0839
4020.2962
6291.4333
5128.2991
4892.4811
4557.9228
4448.2883
4252.988
4119.9528
4040.4844
3752.3601
5920.2932
4771.2206
4610.9359
4310.0616
4202.1872
4016.1898
3875.9216
3796.0631
3484.6687
3228.6461
3543.6797
3624.8391
3769.1311
3949.0075
4055.6402
4323.177
4385.1776
5477.4346
2978.8796
3285.2291
3369.7246
3514.1609
3687.4611
3791.8932
4036.1966
3972.0467
4929.5789
2708.5626
3022.6614
3113.565
3259.5769
3424.9723
3531.0321
3768.3551
3576.4444
4308.8738
2431.8203
2759.9809
2854.9566
3000.1419
3159.5272
3272.3788
3520.2071
3231.7404
3579.3775
2163.3408
2499.1778
2599.5518
2740.6443
2893.8131
3015.9432
3302.6728
2968.6045
2757.3501
1910.9538
2243.5893
2344.6866
2482.0507
2632.2673
2753.2101
3111.5717
2802.6955
1819.9342
1672.0497
1994.8976
2095.7389
2227.5498
2369.8708
2486.6001
2931.0554
2766.2156
857.10765
1451.8913
1755.6883
1857.326
1986.0427
2110.3156
2209.5442
2739.2012
2893.2433
-44.480751
1215.6226
1528.8992
1629.2011
1757.5225
1863.7683
1923.3886
2526.9023
3214.0415
-623.08259
998.57954
1318.2647
1412.3661
1531.5753
1614.456
1605.0751
2183.7631
3536.3867
-1017.292
827.9957
1125.7703
1202.3938
1313.381
1370.3238
1298.952
1779.8658
3753.1874
-1793.1155
698.11593
950.30177
1004.5775
1098.1635
1141.1234
1043.6131
1392.3414
3826.1152
-2708.5649
590.52999
788.4559
816.74956
885.76612
912.79705
809.84874
1088.2863
3692.6584
-2031.1331
501.97485
643.2679
643.65237
670.56009
668.07354
569.33684
961.1131
3319.9564
-1085.3629
426.61852
505.61771
484.89023
451.19472
404.23619
304.2637
861.34977
2799.744
-1667.9762
358.05889
378.51297
329.9005
225.42425
127.24267
-0.97466729
763.97748
2415.4337
-2123.6819
313.79184
261.12013
189.01995
10.957879
-149.58962
-344.68851
711.33218
2214.0499
-2260.7765
290.14598
156.55141
65.382844
-192.81985
-421.70764
-727.87892
726.7431
1831.2604
-2522.877
-2591.1573
1595.5744
831.77668
-1067.6797
-665.10372
-374.15053
-43.855985
76.032965
288.98945
-2623.193
1472.1132
847.24392
-1382.0509
-886.04792
-533.69425
-139.2845
22.265728
302.97265
-2665.7882
1314.1376
760.73775
-1718.8951
-1106.4603
-681.57813
-221.74921
-9.8614057
334.48559
-2728.496
1101.6359
597.11662
-2044.7395
-1319.1008
-818.43372
-288.97287
-24.258528
375.87431
-2803.8629
847.01671
379.04517
-2358.4
-1521.6116
-944.75174
-341.1935
-20.611993
427.81435
-2896.238
575.21382
132.11862
-2644.3022
-1713.639
-1056.3083
-377.83765
2.7044462
485.66236
-2975.4716
295.12439
-146.91379
-2919.4146
-1896.5687
-1152.1934
-400.17022
43.250124
553.21097
-3070.0112
8.0749187
-416.43933
-3157.9133
-2071.6415
-1234.5847
-409.52647
100.2233
628.38724
-3146.9917
-307.98271
-716.77935
-3404.3482
-2236.8233
-1300.657
-404.47503
172.69913
731.98238
-3233.3762
-600.07195
-1053.4203
-3701.4596
-2452.0379
-1361.3818
-358.11678
318.74615
895.2232
-3215.5439
-838.09863
-1722.3847
-4353.5274
-2687.2451
-1334.4327
-220.60675
564.402
1032.2861
-3237.0688
-1071.8642
-2178.2869
-4942.8028
-2775.9923
-1218.6625
-7.8999905
808.07845
1126.1271
-3288.4933
-1285.8018
-2782.0019
-5446.5713
-2708.2125
-975.45012
243.94311
1055.6721
1160.8632
-3278.2688
-1465.6072
-3222.2228
-5821.2432
-2507.1562
-690.80734
509.42013
1260.7868
1159.7603
-3252.0135
-1631.0625
-3670.9071
-6089.1401
-2183.5107
-385.0285
777.59015
1371.7841
1090.2672
-3341.8096
-1792.147
-3998.9245
-6266.7009
-1773.009
-96.921883
998.90085
1397.8135
971.85417
-3520.9848
-1922.1082
-4362.5538
-6372.3827
-1278.6534
163.56021
1167.6966
1335.8711
819.5826
-3703.8203
-2002.6004
-4425.6059
-6400.7498
-733.42254
331.09063
1275.7483
1172.8567
614.09717
-8855.5722
-7260.3339
-5375.6311
-4235.7338
-2848.8043
-1448.0335
-158.22838
615.19881
312.07389
-8595.9364
-6993.0267
-5318.5188
-4979.0335
-3143.2031
-1611.8208
-178.40061
748.23374
443.05537
-8332.3612
-6736.0479
-5235.0654
-5669.5391
-3379.2104
-1735.888
-149.11443
846.25875
537.83024
-8068.7738
-6484.0272
-5149.1418
-6271.468
-3552.2517
-1815.4187
-68.1068
899.17475
607.55265
-7806.8123
-6234.5729
-5065.1397
-6785.3677
-3663.8551
-1849.3439
75.020102
911.09887
677.34603
-7543.2922
-5988.7529
-4979.9853
-7209.7413
-3705.9032
-1841.2552
276.1478
901.55473
769.68121
-7283.6808
-5740.9788
-4888.5983
-7544.556
-3678.5096
-1790.3544
514.78708
896.42533
874.17481
-7028.6943
-5495.5862
-4791.9422
-7801.5183
-3590.1623
-1680.7819
761.34476
919.6978
961.54412
-6767.0615
-5246.3812
-4688.768
-7984.3185
-3449.9805
-1501.9712
983.72553
973.93248
1013.5046
-12755.846
-9627.1079
-235.89995
3005.2007
4224.2566
4856.7901
4952.6416
3511.6192
1555.1306
-13026.486
-9926.6647
-1210.7428
2737.494
4182.7754
4854.1142
5148.203
4206.206
2246.068
-12856.245
-10246.175
-2174.2572
2196.3385
4029.3087
4842.7775
5310.1291
4816.261
2954.5957
-12945.274
-10618.126
-3092.2909
1597.5328
3755.4445
4707.2347
5285.8747
5236.0789
3679.9935
-13146.448
-11075.971
-3963.6652
920.07659
3361.6198
4529.1958
5149.6148
5476.6733
4262.0269
-13761.322
-11630.522
-4769.2456
135.5991
2884.6715
4256.4959
4858.6001
5490.1616
4752.5951
-14746.557
-12303.405
-5493.9389
-720.74124
2324.0183
3875.5029
4536.0937
5345.0492
4993.4052
-15921.991
-13073.644
-6074.2931
-1480.9549
1713.662
3430.0315
4104.423
5025.443
5038.4717
-16662.163
-13937.416
-6557.9665
-2137.6847
1148.3218
2969.4826
3712.1959
4662.4575
4927.6081
3494.5201
2695.3863
2071.678
1195.8081
-492.4649
-3152.7407
-6681.5865
-15567.718
-17141.106
3688.7761
2904.6362
2223.8644
1357.4026
-389.44472
-3149.2719
-6849.5913
-15603.991
-17240.092
3882.1544
3116.9414
2384.1397
1537.2423
-255.53953
-3104.1396
-6936.3923
-15606.79
-17222.474
4055.6697
3331.8808
2550.8986
1723.6288
-98.741239
-3030.9171
-6988.7408
-15616.748
-17197.089
4218.9777
3545.1505
2720.764
1912.0524
66.107714
-2948.7269
-7026.7012
-15588.288
-17126.204
4373.9145
3754.6465
2892.6074
2094.9793
235.31828
-2865.644
-7046.1143
-15469.049
-17045.354
4517.1049
3958.1715
3063.7634
2277.0848
406.14283
-2775.11
-7046.7336
-15285.831
-16902.639
4647.0532
4157.2638
3233.225
2461.1902
586.60687
-2663.8869
-7026.9082
-15042.706
-16868.867
4762.3185
4348.5448
3405.0788
2642.9027
774.70634
-2513.6962
-6980.0171
-14793.103
-16832.335
-17045.966
-15419.418
-6314.124
-3093.456
-564.81109
1045.2292
1919.8898
2487.4093
3298.4866
-16622.154
-14758.814
-5758.6071
-2952.1058
-612.77771
900.1064
1770.9528
2283.3022
3095.1094
-15263.683
-13405.073
-5221.7587
-2781.0944
-647.88607
767.81865
1628.8457
2089.536
2892.2
-13613.895
-11751.403
-4774.8152
-2593.6779
-662.42458
645.40019
1493.4185
1905.9756
2686.2152
-14113.02
-10082.205
-4364.3657
-2388.8371
-660.06997
544.26819
1366.816
1734.9009
2482.3987
-17841.705
-8561.9954
-3888.866
-2165.1615
-627.05518
466.40211
1252.1263
1577.9251
2276.9492
-18842.493
-7092.1786
-3344.104
-1928.9318
-578.36827
412.78949
1149.3205
1434.4162
2077.3356
-16649.078
-5524.2263
-2829.8997
-1734.0617
-538.49851
353.56369
1040.4504
1300.2848
1890.9415
-14582.184
-4622.4227
-2612.658
-1641.8707
-569.07245
258.83482
907.53148
1168.893
1730.0831
770.4161
628.9589
359.66717
-50.640275
-605.6756
-1291.5098
-2039.3669
-2348.4886
-543.33292
776.73654
597.38985
307.8832
-140.00525
-752.57649
-1532.7119
-2470.275
-3181.015
-1500.526
812.69518
591.87748
286.39948
-193.47133
-855.86723
-1718.4598
-2834.9974
-4018.9168
-2600.7694
875.78719
610.09042
298.51989
-211.94281
-913.36588
-1837.5301
-3109.2997
-4800.9405
-3869.1187
967.5902
653.71591
339.05655
-198.8969
-929.85966
-1892.1921
-3276.7691
-5475.1446
-5375.995
1084.4143
721.04404
409.44839
-155.67249
-908.62475
-1886.4611
-3311.2849
-5934.8007
-7213.5238
1223.6125
810.06459
503.88346
-85.168812
-854.65944
-1835.2484
-3205.5592
-6110.0821
-9407.4411
1382.6738
917.83051
621.90838
11.597137
-772.87924
-1754.343
-2984.4514
-5941.4459
-11508.978
1556.8077
1039.2376
756.60876
127.86428
-673.99493
-1675.1216
-2752.2975
-5338.5547
-13107.897
223.18909
-1599.6809
-1577.7379
-1010.2721
-424.8499
70.211549
442.02922
683.47714
792.52613
861.33197
-931.57582
-1119.8033
-710.60854
-222.26215
213.52815
546.8996
760.97753
844.71569
1441.0273
-294.71722
-651.58376
-388.56236
4.7525866
378.31808
673.73139
861.54509
927.27624
1973.4947
307.51628
-187.96228
-52.690568
248.92091
562.44665
820.4794
983.02591
1030.7637
2462.8286
877.2604
274.2396
293.06772
508.28811
761.56359
983.10237
1121.8856
1155.7945
2918.6983
1409.8069
721.22644
640.89087
776.39283
971.87978
1159.402
1274.0689
1299.7191
3341.7859
1908.7869
1154.2253
987.70966
1051.1097
1192.4758
1347.1716
1439.2047
1459.1301
3746.2415
2372.0124
1569.7553
1327.9649
1326.1736
1416.8281
1542.854
1614.2938
1632.0814
4131.0558
2807.3797
1969.7595
1659.3642
1601.2391
1644.4319
1742.1303
1794.78
1814.5558
3505.7406
3417.7377
3468.911
3486.6369
3669.2341
3973.7471
4571.9456
5571.4005
7075.3687
3351.5788
3255.0711
3303.3161
3319.3634
3495.8689
3799.1021
4396.9683
5401.4337
6801.2102
3176.0794
3086.8849
3126.0687
3138.4585
3303.6843
3594.2297
4172.8219
5159.6301
6471.6587
2984.6707
2912.3898
2941.0292
2947.2788
3095.4167
3365.9987
3917.9784
4882.2992
6152.6465
2788.5091
2732.1075
2752.0533
2746.7552
2872.9593
3119.4732
3639.4718
4587.8803
5841.9794
2591.6687
2546.274
2554.9491
2536.3924
2637.4805
2858.5397
3345.1106
4278.3798
5525.5825
2394.6546
2358.372
2353.155
2318.5532
2388.4502
2578.532
3032.6236
3948.3783
5198.032
2198.127
2170.0819
2150.9157
2097.9012
2133.8651
2284.7338
2699.1093
3595.5777
4856.1491
2003.9944
1981.0119
1946.9321
1871.8366
1870.6759
1978.0817
2344.4349
3215.0746
4501.1233
3664.3837
3824.7304
3980.1475
4130.5493
4274.4669
4411.7822
4542.769
4667.3129
4786.3049
3574.1138
3725.3667
3870.9632
4011.2633
4145.2806
4274.7425
4398.4257
4514.9338
4628.3138
3628.5071
3779.7012
3921.0897
4058.2045
4188.4042
4311.8968
4430.0577
4542.6237
4649.8643
3645.5611
3794.3655
3933.0204
4065.628
4190.146
4307.4224
4419.484
4525.5616
4626.2625
3825.3103
3967.3105
4098.1071
4218.089
4330.4153
4435.8075
4533.1017
4625.1344
4713.1786
4122.5637
4250.322
4363.3135
4467.3975
4559.8562
4644.4377
4722.8698
4795.1715
4862.6387
4700.3951
4800.4616
4882.872
4952.1188
5009.2415
5058.125
5099.3387
5134.9303
5167.291
5654.5662
5698.1764
5717.051
5720.2372
5712.3829
5695.6618
5672.9766
5646.4384
5618.0813
7112.8168
7093.6413
7032.8363
6951.7308
6855.0816
6755.7224
6652.1303
6549.3608
6448.7174
4898.7371
4736.5628
4752.6444
4722.4961
4795.5307
4926.6218
5195.6957
5589.4938
6350.6052
5005.7998
4839.7523
4850.7585
4814.7839
4874.6881
4987.3942
5222.0251
5561.6805
6254.76
5107.1892
4939.0392
4944.7215
4903.6947
4950.7524
5046.1637
5248.9158
5535.75
6161.8592
5203.0639
5033.6305
5034.4535
4989.3225
5024.2993
5103.59
5274.8608
5512.3457
6071.4507
5293.3531
5124.1875
5120.3209
5072.1224
5096.1337
5160.4804
5301.7105
5491.6487
5985.238
5379.1018
5211.1152
5202.5394
5152.1344
5166.3728
5216.9933
5329.4485
5475.8588
5900.2449
5459.5658
5293.7035
5281.4051
5229.6149
5235.4215
5273.5392
5359.2398
5463.934
5817.2702
5535.3763
5372.4792
5356.7334
5304.4806
5303.2253
5330.1932
5390.5898
5457.8573
5737.9358
5606.5065
5447.6986
5428.7794
5376.8211
5369.7081
5387.1398
5426.1846
5456.6245
5660.2393
6059.6761
5964.6434
5933.8189
5912.0034
5898.7359
5902.7821
5888.7885
5772.5031
5428.3341
6020.1534
5919.9672
5888.9412
5863.2839
5846.9122
5846.8605
5828.7663
5707.2573
5366.4838
5979.8216
5872.4824
5841.6072
5811.6177
5792.6965
5789.2725
5769.0666
5646.029
5325.4794
5938.1743
5822.0108
5791.6456
5757.1792
5736.6209
5731.1393
5710.5629
5593.2283
5315.5125
5894.1292
5767.9323
5739.0947
5700.2203
5678.926
5673.234
5654.4599
5549.9959
5339.0211
5845.9977
5710.6713
5683.557
5640.8392
5619.9613
5615.709
5601.6348
5515.1764
5385.1584
5793.0621
5650.4877
5624.8211
5578.7856
5559.6035
5558.3766
5552.8258
5489.2529
5445.6162
5735.2031
5586.6809
5562.8462
5514.0277
5497.8801
5501.0419
5507.0071
5471.3682
5514.6353
5673.1219
5519.1855
5497.4977
5446.6431
5434.5957
5443.9786
5465.0384
5460.3832
5585.1404
5494.9824
5843.2803
5950.7686
5958.7047
5949.2311
5958.6805
5976.3724
6005.1905
6093.2082
5586.7233
5924.3762
6014.7176
6014.5094
5997.9325
6003.2015
6015.8292
6042.2098
6119.5319
5686.6841
6008.2731
6076.8228
6067.6789
6043.3214
6044.6324
6051.7904
6076.2461
6141.8151
5792.9368
6093.9259
6135.701
6117.7772
6085.2933
6083.1626
6084.6011
6106.7636
6161.5368
5903.9663
6179.6997
6191.1106
6164.9263
6124.0579
6118.862
6115.4981
6134.915
6177.9545
6014.9512
6265.2347
6243.2861
6208.8125
6159.9805
6151.9181
6143.715
6160.4012
6191.596
6124.8832
6352.5758
6292.6594
6250.1389
6193.708
6182.5449
6168.8614
6182.3642
6202.6115
6233.7292
6439.5486
6340.8971
6290.0499
6226.6167
6211.3672
6192.3866
6201.3222
6209.8629
6344.1266
6522.066
6391.9999
6330.8195
6260.9738
6239.1785
6215.0856
6215.7707
6213.5287
6475.5685
6607.0763
6457.9217
6382.5417
6306.594
6273.7493
6243.8907
6229.1154
6216.1483
6633.9424
6697.6071
6537.1051
6444.9703
6364.5532
6321.5724
6285.1849
6253.9486
6228.4061
6796.6605
6787.1467
6615.987
6508.0901
6422.9948
6371.8433
6328.4744
6284.7603
6247.8482
6959.6172
6876.2911
6694.9549
6573.3018
6483.0736
6424.8393
6374.5831
6321.5035
6274.1396
7118.948
6964.611
6772.171
6639.4538
6544.2957
6480.3187
6423.7843
6363.7551
6307.1704
7273.3492
7051.5192
6846.8352
6705.9404
6606.6538
6538.0679
6476.496
6410.8848
6346.8307
7422.0341
7134.3627
6917.7753
6772.2174
6670.0355
6598.0492
6532.4328
6462.7203
6393.1892
7551.9853
7210.6622
6985.7858
6838.2409
6734.4175
6660.0883
6591.4648
6519.0597
6445.9223
7636.9903
7276.514
7050.5156
6903.2512
6799.3256
6723.5875
6653.2772
6579.4853
6504.8577
7177.1867
7190.7405
7214.0212
7247.8389
7290.1422
7350.1907
7421.7427
7528.8884
7603.2834
7104.2228
7125.6603
7157.3154
7197.7361
7246.8524
7312.5779
7397.6097
7516.5845
7640.4226
7027.6476
7057.7196
7097.8118
7145.1592
7199.3028
7271.1451
7365.8514
7498.2084
7646.3233
6948.4757
6988.0735
7036.2194
7089.3958
7148.0307
7226.6163
7329.4725
7476.5713
7648.9938
6868.6482
6917.4994
6972.9446
7031.2105
7094.1411
7178.1718
7290.3019
7452.5491
7658.4556
6789.4599
6846.9987
6908.731
6971.0373
7037.9
7127.146
7248.2257
7425.8346
7665.4412
6712.4449
6777.2106
6843.977
6909.382
6979.622
7073.8802
7203.7004
7395.8507
7669.2809
6638.716
6708.8506
6779.4754
6847.5292
6920.6342
7018.9537
7155.6857
7361.3452
7667.7351
6569.2916
6642.8341
6716.0652
6786.116
6861.2292
6962.9688
7105.6683
7322.9756
7658.3952
7872.2684
7915.0653
7960.8377
8014.736
8074.0872
8132.427
8179.3103
8203.0666
8188.5169
7943.5193
7983.7142
8030.7653
8086.786
8147.5324
8204.9907
8248.2857
8268.7407
8247.4254
8014.6689
8059.5483
8110.672
8169.6399
8231.557
8287.954
8327.9764
8344.6507
8319.2525
8102.7669
8151.8708
8206.9462
8268.0955
8329.3603
8384.4311
8420.8228
8430.6989
8399.0485
8209.0657
8263.1633
8321.4624
8384.2089
8445.4857
8497.8396
8530.4834
8531.5247
8479.8501
8334.5745
8393.1393
8456.2127
8520.5831
8582.246
8633.0333
8662.8953
8652.7763
8605.3977
8487.0192
8549.7648
8616.0264
8683.9636
8746.4429
8796.6742
8827.9248
8799.71
8673.1026
8677.0543
8743.5875
8813.5897
8886.0832
8955.2081
9006.9903
9036.0122
9020.5465
8957.638
8911.3035
8977.6275
9055.0093
9137.9823
9220.0799
9269.5475
9273.1328
9161.6465
8959.8931
11571.565
10832.275
10497.881
10117.425
9844.1815
9630.1516
9469.9951
9348.1519
9261.0159
10017.707
10105.693
10103.73
10053.412
9971.6708
9861.8171
9746.3962
9619.8799
9517.4864
9502.5446
9560.4685
9585.3282
9597.1573
9593.9333
9574.6533
9538.1073
9482.206
9415.6407
9293.9573
9311.3393
9309.441
9311.3733
9309.6616
9303.5993
9294.1917
9276.9237
9245.6895
9122.7002
9136.3322
9131.5114
9129.8572
9124.0214
9115.6011
9108.1368
9101.5914
9083.13
8968.3283
8977.2198
8972.9807
8972.2506
8967.2111
8958.7214
8950.8703
8944.9534
8931.3595
8833.6998
8836.1941
8832.339
8830.6257
8826.5154
8819.9952
8813.6184
8809.0803
8798.9132
8709.1419
8707.5912
8701.6206
8699.1797
8693.6812
8688.2341
8681.3217
8676.6111
8669.0204
8592.3192
8585.3406
8579.0635
8573.0584
8566.4335
8560.3589
8553.566
8547.5326
8540.1881
8412.7092
8293.9486
8166.0635
8028.1273
7872.4646
7664.0092
7424.9355
7163.4071
6968.5488
8419.9528
8300.9453
8172.6512
8032.7656
7870.7132
7660.6558
7404.4226
7142.2053
6901.2913
8425
8303.8898
8175.6853
8031.4061
7862.9946
7646.9408
7373.7372
7095.3074
6812.0664
8432.7016
8308.9381
8180.6488
8032.6464
7859.3267
7636.6887
7349.7806
7040.7635
6713.68
8438.2257
8313.8099
8185.7863
8035.4398
7858.0135
7631.3618
7328.0613
6986.9061
6606.2402
8447.2377
8320.1503
8193.2207
8039.4344
7860.8849
7629.2264
7314.6648
6935.003
6500.7782
8451.9257
8327.5076
8198.5838
8047.3897
7864.1453
7633.7185
7307.1797
6903.8375
6408.1684
8460.7626
8332.3585
8206.1178
8052.1953
7871.7672
7635.0849
7309.248
6872.8968
6438.8664
8470.6267
8344.2947
8217.0896
8066.9907
7885.074
7658.7486
7324.8019
6894.5635
6198.9335
7000.7162
7209.0562
7552.8403
7814.4533
7970.9005
8104.2197
8244.6735
8361.8545
8550.524
6902.6691
7127.473
7509.5638
7790.8398
7959.8325
8106.9544
8246.1835
8376.7578
8563.9585
6781.2032
7043.2153
7479.8496
7774.6567
7943.0674
8098.1443
8238.6855
8397.0661
8577.5949
6637.5035
6958.1174
7450.775
7763.861
7943.9094
8105.5512
8251.1709
8420.6906
8591.108
6453.5867
6880.4542
7421.1789
7728.2746
7910.8384
8075.3349
8251.2468
8442.5947
8607.9711
6194.2174
6830.7051
7436.7003
7742.0357
7924.9295
8094.92
8275.0553
8472.5123
8640.0309
5807.3381
6683.059
7381.4261
7689.9233
7887.0184
8062.5009
8269.6801
8483.0649
8653.412
5425.9245
6728.3159
7437.0599
7709.362
7903.058
8083.5357
8292.3129
8532.8383
8696.9994
4500.9267
6572.5472
7402.62
7676.9974
7881.5868
8069.1859
8279.8395
8541.1309
8714.7266
8652.9869
8761.732
8907.2498
9076.7393
9232.4459
9333.7044
9428.3395
9572.2413
9737.0976
8663.8583
8765.9506
8908.0841
9083.2671
9242.7702
9340.1309
9431.5772
9575.6452
9748.0758
8673.3098
8769.6467
8910.6394
9092.0341
9254.0986
9346.8445
9435.2902
9579.8096
9760.1717
8685.6405
8771.6181
8914.337
9105.8267
9266.6958
9354.3965
9439.1203
9586.1452
9773.7577
8696.0139
8762.6805
8906.7476
9115.8517
9275.9173
9356.2857
9435.8689
9583.8959
9781.1198
8716.6653
8763.8847
8911.6936
9131.3593
9292.6459
9365.3701
9439.7979
9588.6169
9790.4869
8713.8148
8751.2349
8909.9563
9138.9264
9296.3333
9361.1042
9432.198
9585.1777
9795.7699
8735.9843
8755.8631
8916.2131
9154.2449
9315.6638
9368.6183
9432.7676
9583.1594
9798.1077
8748.1996
8762.7901
8920.974
9154.104
9312.6672
9370.416
9435.9006
9586.6242
9798.5524
9907.0553
10054.865
10184.916
10302.784
10395.545
10468.969
10535.324
10666.112
10533.599
9926.4357
10079.798
10213.412
10331.827
10425.242
10494.819
10559.132
10697.308
10528.412
9946.9397
10104.758
10242.685
10361.209
10454.066
10517.302
10583.672
10719.48
10504.063
9967.0715
10128.988
10270.528
10389.02
10480.99
10533.394
10606.496
10735.479
10443.056
9982.0923
10150.576
10295.962
10414.109
10505.081
10542.038
10620.514
10745.327
10436.217
9998.5645
10174.312
10321.336
10441.668
10530.681
10555.991
10641.162
10758.476
10330.673
10007.618
10185.229
10333.039
10455.775
10537.618
10548.076
10642.413
10799.407
10379.919
10017.348
10201.338
10351.544
10472.673
10552.75
10553.608
10633.909
10769.759
10316.249
10012.444
10194.729
10346.911
10470.606
10550.219
10557.308
10642.425
10785.119
10463.575
11390.528
11374.016
11178.696
10879.039
10544.209
10215.525
9894.3217
9582.2441
9276.2583
11428.625
11434.902
11257.422
10954.571
10612.672
10276.102
9947.6487
9630.4285
9322.2323
11446.027
11485.858
11332.229
11024.339
10679.921
10335.283
10001.26
9678.7142
9369.5549
11444.824
11533.013
11406.382
11092.624
10748.212
10394.824
10055.679
9722.9773
9412.2128
11423.732
11568.984
11476.238
11156.862
10815.266
10457.372
10114.517
9779.0593
9462.2244
11391.238
11599.805
11542.363
11215.888
10875.321
10504.63
10157.562
9810.4289
9496.7093
11338.592
11616.781
11598.424
11275.796
10943.264
10573.231
10223.799
9875.7452
9556.3034
11332.626
11624.521
11639.588
11313.078
10980.029
10599.936
10249.642
9892.9536
9574.8946
11233.442
11612.282
11675.51
11378.103
11055.075
10677.839
10325.447
9967.0604
9645.8489
8976.6119
8682.5817
8392.8315
8100.8784
7804.6673
7498.1238
7183.3088
6858.3133
6526.8692
9018.6063
8721.7108
8427.9614
8134.4797
7836.9076
7530.6047
7215.6702
6890.3055
6557.4578
9063.5742
8765.0217
8469.3816
8174.8327
7877.901
7572.6052
7259.1733
6935.6302
6605.9133
9100.7252
8804.2198
8502.502
8212.1447
7909.8191
7610.0111
7293.0297
6973.8375
6642.8687
9150.567
8849.5304
8548.5535
8254.4973
7954.4131
7652.3406
7338.2606
7018.0665
6689.955
9176.5344
8880.1487
8571.3783
8282.7826
7976.6745
7681.2246
7362.8016
7047.9669
6718.8589
9236.7881
8937.8961
8629.9939
8338.8105
8033.5985
7737.5344
7420.3535
7106.0754
6776.9973
9248.8647
8951.785
8638.9993
8350.3867
8042.2737
7748.9051
7430.5931
7118.4352
6791.0879
9318.4661
9019.8306
8706.6988
8417.0859
8109.3109
7816.589
7499.6956
7190.0536
6860.6659
6154.8462
5728.7822
5310.4135
4923.1981
4493.4532
4057.476
3416.2213
2546.0957
1078.6588
6188.7905
5776.8043
5371.4859
5002.4335
4580.9667
4184.268
3582.8774
2780.7891
1336.8131
6239.0365
5840.1666
5429.8846
5054.7428
4619.9073
4200.6647
3606.2179
2879.5089
1610.361
6281.9881
5897.5608
5484.0556
5115.5695
4681.3209
4264.4454
3704.0903
3030.1446
1936.6791
6329.6626
5956.0686
5551.1521
5184.4774
4762.7136
4335.0232
3832.1505
3212.7099
2386.0676
6364.8882
6008.4199
5606.1431
5238.9235
4832.1148
4392.5527
3920.098
3394.3289
2964.161
6424.5476
6077.1457
5697.4047
5323.9703
4939.2203
4487.6455
4054.3084
3447.3708
3932.8671
6443.6068
6109.7727
5729.6101
5363.9983
4984.2817
4545.0862
4023.795
3622.4346
3458.1439
6520.7714
6199.3799
5850.3815
5490.3683
5146.9865
4738.8696
4313.0503
3136.0503
6924.9415
-421.8557
-2338.1801
-3223.5138
-2765.1345
-2917.4668
-3145.6519
-2336.1288
-1824.5809
-1531.467
-384.47668
-2529.3524
-3217.0778
-2643.2055
-2783.637
-2916.6392
-2255.408
-1804.4684
-1504.1449
-465.59867
-2805.8524
-3139.5765
-2677.0625
-2919.8314
-2914.9372
-2187.4277
-1782.8073
-1498.263
-716.6625
-3135.7662
-3051.6906
-2679.5127
-2828.0287
-2757.2919
-2127.0022
-1752.75
-1483.8432
-1126.2931
-3416.4348
-2842.6667
-2681.576
-2863.2282
-2678.4134
-2063.4421
-1716.8156
-1460.3288
-1217.9147
-3323.0623
-2752.7294
-2748.1472
-2796.7278
-2561.0694
-2005.5332
-1680.6119
-1439.6367
-682.77472
-2926.7915
-2752.6902
-2724.3424
-2759.2678
-2459.3398
-1951.3136
-1645.1001
-1422.2899
-1439.6987
-4278.7016
-2680.7792
-2795.9654
-2724.198
-2391.9299
-1911.7708
-1615.1891
-1408.9786
-10167.06
-2041.4559
-2710.898
-2741.1832
-2635.4899
-2270.0663
-1846.0297
-1582.5006
-1397.4312
-1501.3889
-1579.7167
-1722.9187
-1958.713
-2240.6873
-2506.9065
-2661.4515
-2689.8689
-2603.6783
-1454.3637
-1534.8565
-1684.9809
-1932.1015
-2225.263
-2476.6088
-2614.5437
-2638.2773
-2577.049
-1450.6133
-1531.6624
-1688.6718
-1950.7306
-2249.8191
-2496.7905
-2629.2588
-2615.7124
-2508.6575
-1436.6698
-1523.5175
-1689.2073
-1958.6535
-2263.7203
-2484.8987
-2579.8983
-2558.6372
-2391.0179
-1418.308
-1504.8642
-1680.8669
-1960.1219
-2269.9266
-2482.166
-2565.1643
-2510.6072
-2246.7503
-1399.9742
-1485.4108
-1671.4086
-1954.9652
-2271.149
-2461.4645
-2524.5872
-2413.9366
-2078.037
-1385.4266
-1469.7079
-1666.7759
-1964.1769
-2280.9381
-2454.2343
-2478.065
-2270.5522
-1882.155
-1374.2744
-1461.3954
-1665.638
-1965.8504
-2278.624
-2447.8558
-2419.5623
-2187.2049
-1786.5596
-1368.2829
-1463.0272
-1683.8953