/*--------------------------------*- C++ -*----------------------------------*\
  =========                 |
  \\      /  F ield         | OpenFOAM: The Open Source CFD Toolbox
   \\    /   O peration     | Website:  https://openfoam.org
    \\  /    A nd           | Version:  11
     \\/     M anipulation  |
\*---------------------------------------------------------------------------*/
FoamFile
{
    format      ascii;
    class       volScalarField;
    location    "0.025";
    object      T;
}
// * * * * * * * * * * * * * * * * * * * * * * * * * * * * * * * * * * * * * //

dimensions      [0 0 0 1 0 0 0];

internalField   nonuniform List<scalar> 
880
(
500
500
500.0000000000745
499.9999999614815
500.0000000000001
500
499.9999999995837
499.9999986173077
500
500
500.000000063186
500.0000878629824
500.0000000000001
500
499.9999995060008
500.0034498070082
500
500
500.0000000000001
500.0000000000213
500
500
500.0000000001912
499.9999999990412
500.0000275427809
500.0000697035686
500.000083468069
499.999993264716
500.1603091937526
500.5906890150377
500.8135132677877
500.7769135521668
500.00000000138
500.0000000017091
500.000000001864
500.0000000014742
500.000000185419
500.0000002332451
500.0000002547297
500.0000002060286
500.0005309653998
500.0005851770073
500.000618630476
500.0006054990251
500.8303583381239
500.8938428895805
500.9085402195075
501.0168169330707
500.7815543805017
500.3060831334563
500.0487215990536
500.0020006719456
500.0009657931873
500.0004985157
500.0000988435
500.0000047302115
500.0000005941758
500.0000003344122
500.0000000682057
500.0000000031662
500.0000000048771
500.0000000024914
500.0000000003599
499.999999999994
500
500
500.0000000000001
500
500.0000000000233
500.0000000000001
500.0000000000001
500.0000000000001
500.0000000302263
499.999999999775
499.9999999998875
499.9999999999777
500.0000127975518
499.9999998127084
499.9999999338252
499.9999999944972
500.0000000005134
500.0000000000426
500
500.0000000000001
499.9999992780681
499.9999999868954
499.9999999998079
500.0000000000001
500.0005940045623
500.000010054877
500.0000000076365
500.0000000000508
499.7516761503749
499.9994804844225
499.9999996168497
499.9999999998365
500.0000000017432
500.000000287633
500.0008900048888
502.0449260677711
500.0000000045859
500.0000007813057
500.0023074167954
504.3001958926313
500.0000000059662
500.0000009974991
500.0027903645202
504.8141488781397
500.0000000075632
500.0000012269683
500.0032052767446
505.0554883037273
505.3145417014339
500.0037048096164
500.0000015230096
500.0000000096606
505.6043859656689
500.0043190648653
500.0000019127003
500.0000000124796
505.9166102711821
500.0050567959215
500.0000024147226
500.0000000162794
506.3000622721493
500.0061013899539
500.0000031925348
500.0000000224298
500.0000000165294
500.0000023301017
500.0050589914997
505.8990037244666
500.0000000186901
500.0000025484003
500.0050744013259
505.4183372624524
500.0000000227143
500.0000028124679
500.0049660046896
504.6751717345476
500.0000000033985
500.0000005263017
500.0019814196595
501.7974079599348
499.9999998238875
499.9995698846421
499.9734947634288
500.8754892143901
499.9999999240922
499.9998908880705
499.9368130037575
495.4663161045843
499.9999999416028
499.9999056718752
499.9358986850014
493.110391868784
499.9999999646657
499.9999268956724
499.9312760837659
491.7729179258076
494.7522393952738
499.9651679708159
499.9999433726094
499.9999999557527
494.6902400085257
499.9688252202376
499.99995591802
499.9999999695675
495.6208387946299
499.9769531963377
499.9999689477141
499.9999999799713
494.4155800353028
499.9717292345869
499.9999655924424
499.9999999775962
498.1291270451426
499.9960796536938
499.9999957102576
499.9999999970977
499.837898083791
499.9998404190285
499.9999998872367
499.9999999999545
499.947094357177
499.9999003024651
499.9999999048241
499.999999999922
499.8475973318901
499.9997229068508
499.9999997294833
499.9999999997687
499.5978320862275
499.9983598984481
499.9999977579618
500.0000000021449
499.5980050434872
499.9983606863226
499.9999977556939
500.0000000021156
499.5972380642061
499.9983563829291
499.9999977118913
500.0000000014409
499.6033242601217
499.9983709682385
499.9999976296502
499.9999999997289
499.8475973318872
499.9997229068314
499.999999729453
499.9999999997853
499.9470943571941
499.999900302425
499.9999999047796
499.9999999999512
499.8378980837663
499.9998404189972
499.9999998872325
499.9999999999565
498.1291270451654
499.9960796536568
499.999995710259
499.9999999970989
499.9999999557703
499.9999433726296
499.9651679708841
494.7522393952181
499.9999999695631
499.999955918014
499.9688252202308
494.6902400084452
499.9999999799809
499.9999689477017
499.9769531962979
495.6208387945516
499.9999999775953
499.9999655924901
499.9717292346047
494.4155800353658
491.7729179257772
499.9312760837674
499.9999268956576
499.9999999646701
493.11039186875
499.935898684998
499.9999056718746
499.999999941594
495.4663161045582
499.9368130037876
499.9998908880827
499.9999999241064
500.8754892143771
499.9734947633884
499.9995698845954
499.9999998239216
500.0000000165143
500.0000023301146
500.0050589915587
505.8990037244307
500.0000000186981
500.0000025484063
500.0050744013475
505.4183372625374
500.000000022688
500.0000028124803
500.004966004681
504.675171734518
500.0000000034065
500.0000005262802
500.001981419658
501.7974079599343
506.3000622721734
500.0061013899186
500.0000031925462
500.0000000224711
505.9166102711981
500.0050567958896
500.0000024147291
500.0000000162834
505.6043859656826
500.0043190648897
500.0000019126996
500.000000012485
505.3145417014384
500.0037048096195
500.0000015230149
500.0000000096688
500.0000000017505
500.000000287645
500.0008900048715
502.0449260677833
500.0000000046124
500.0000007813384
500.0023074167861
504.3001958926243
500.0000000059848
500.0000009975012
500.0027903645176
504.814148878127
500.0000000075612
500.0000012269733
500.0032052767758
505.0554883037252
499.9999999998373
500.0000000000448
499.9999999999999
500.0000000000001
499.9999996168134
500.0000000076206
499.999999999815
500
499.9994804843916
500.0000100548964
499.9999999868807
500.0000000000437
499.7516761503468
500.0005940045577
499.9999992780847
500.000000000512
500
500.0000000000001
499.999999999975
499.9999999944979
500.0000000000001
500.0000000000001
499.9999999998908
499.9999999338492
500
500
499.9999999997617
499.9999998126824
500.0000000000001
500.0000000000312
500.0000000302423
500.0000127975438
500.0000000048624
500.0000005941443
500.0009657931956
500.7815543805445
500.0000000024608
500.0000003344402
500.0004985157163
500.306083133444
500.0000000003662
500.0000000681797
500.0000988434881
500.0487215990142
499.9999999999939
500.0000000031609
500.0000047302145
500.0020006719312
501.0168169330713
500.0006054990064
500.0000002060229
500.0000000015097
500.908540219483
500.0006186305067
500.0000002547097
500.0000000018637
500.8938428895848
500.0005851770369
500.0000002332071
500.0000000016899
500.8303583381087
500.0005309653908
500.000000185393
500.0000000014045
500.7769135521522
499.999993264726
499.9999999990468
500.0000000000231
500.8135132677773
500.0000834680607
500.0000000001697
500
500.5906890150275
500.0000697035599
500
500
500.1603091937454
500.0000275427577
500.0000000000001
499.9999999999999
500.0000000000001
500
500.0000000000761
499.9999999614785
500
500
499.9999999995858
499.9999986173167
500
500
500.0000000631901
500.00008786299
500
500.0000000000001
499.999999505986
500.0034498069585
499.9999995046285
499.999990433732
500.0013528591894
500.1123038048398
499.9999904337249
499.999905127677
500.0133667119517
501.0160096305187
500.0013528591959
500.0133667119503
500.600302178954
506.5565690393083
500.1123038048951
501.0160096305636
506.556569039391
528.3595172905549
554.941406757516
530.5486778040757
518.6589923683817
506.5526663169665
559.7186702204513
549.0080049137914
542.5966081267852
524.1850693675566
561.9463943723754
556.0599716113589
552.4262121089886
533.9224885951589
562.8155846121624
557.4879074058663
554.1304462469215
535.1359942646957
536.5490627312731
537.1105326770178
537.2868930366988
541.3811414547963
554.8488056861351
555.0772169302003
555.2207578338523
561.3182865442434
558.1287554914487
558.3427784733611
558.4842696631191
561.0697526777425
563.3719809747255
563.4552674318408
563.5027366558927
561.906213750035
522.4957381459544
506.2739520818665
500.6697988275699
500.0190922536669
528.1015012792485
507.2347819114786
500.8252392538923
500.0234236150066
518.5017944392919
506.2073616201797
500.9145872587484
500.0269068563504
495.7374202129666
500.6861217981534
500.1566393927325
499.9953120246737
500.0000796694155
499.9999910050751
499.9999976989406
499.9999998918183
500.0000454769552
499.9999819425077
499.999996561869
499.9999998878427
499.9999723613079
499.9999752489882
499.9999974479818
499.9999999278631
499.9993650274021
499.999971409744
499.9999954255771
499.9999997460423
499.999999990774
500.0000000452144
500.0238726106408
494.9079030964762
499.9999999958844
500.0000000154813
500.0881629394509
501.1671555676132
499.9999999993217
500.0000000018271
500.1663504029166
516.9673462728814
499.9999999982703
500.0000000002952
500.3130146633437
530.1684948080384
586.4063442710429
614.0430285217661
618.174741206836
618.4281098878057
624.7232041620441
644.2647367812727
649.0485872300579
649.2894068441587
631.0375233815844
645.0700352905106
650.1901540450935
650.4965984967813
634.688234485209
638.7608030014565
644.0296707276594
644.5253905175591
618.5580037053974
618.7046942980555
618.8475374656449
618.7609244300013
649.2998647142219
649.3113456050687
649.3065784000299
648.9794094357501
650.5062821291542
650.5149341434687
650.512898979134
650.3684046613055
644.5377594470863
644.5445019555627
644.5482259088778
644.5178140723395
612.1839048572638
606.3946720341307
596.0889639338171
555.4292972155304
646.9826052362002
643.8929696530439
635.5278058009493
614.329015628535
649.0430446486945
646.3983710661494
638.2984817359592
635.7193417377264
644.5989000368559
644.0808476870802
640.808350572736
637.4701873117215
523.2677781191477
471.2740008635895
379.0954778709057
364.6012086732672
540.9878547991319
452.091633815897
325.5316509926014
300.9922152699449
542.1752085310065
425.7396092767266
301.5504168861369
280.7251950753606
433.7462233193526
353.5508291302672
277.7698371179489
265.2925720082019
365.6651686103361
367.0839109085629
368.4458714947514
350.7995883136504
300.1706174504287
301.0718100196171
309.4890928499623
307.1052861477588
278.7759353175495
280.2163070543805
291.0955675557895
309.5038592456359
262.6365227507774
264.1856608733736
275.7516113821234
294.4135214931081
465.594372473374
494.1824982691668
497.2641278949509
492.13992044048
440.201874565692
482.761218412009
491.8946436189417
486.8499296515417
422.4758337780779
473.1344695791678
482.5604461791217
487.3372605055494
369.8709877255303
456.1585424648027
474.9731451210281
474.0545051426402
493.6364709605902
484.0753083091056
472.2603992226963
463.8353745088675
477.211485353644
455.9782399149661
426.3123802549401
396.3061337614647
422.9130291913933
417.736979061631
395.5117944319729
351.8481667494021
335.555999658463
277.3306943263403
301.9473806255867
294.9259919697252
249.0630545344483
223.2664796184325
220.3246717205749
219.4503247619841
320.2561495481964
313.0819487109037
311.4101080693954
310.5658881298601
384.5737440953025
382.9379126877154
382.4164693224877
382.1357806082319
460.3397923648711
459.8650957012865
459.7177484140852
459.6449169797588
219.4503247619985
310.5658881298644
382.1357806082032
459.6449169798315
220.3246717206291
311.4101080694104
382.4164693224608
459.7177484141109
223.2664796184957
313.0819487108741
382.9379126877242
459.8650957013634
249.063054534504
320.256149548195
384.5737440952971
460.3397923649189
463.8353745089056
472.2603992227404
484.0753083091407
493.6364709605938
396.3061337614794
426.3123802549401
455.9782399149401
477.2114853536145
351.8481667494105
395.5117944319612
417.7369790616291
422.9130291914024
294.9259919697715
301.9473806256216
277.3306943264158
335.5559996584633
474.0545051426373
474.9731451210213
456.1585424647957
369.8709877255337
487.3372605055492
482.5604461791124
473.1344695791386
422.4758337781252
486.8499296515312
491.894643618948
482.7612184119999
440.2018745657183
492.139920440473
497.2641278949573
494.1824982691658
465.594372473355
350.7995883136785
368.4458714946916
367.0839109084863
365.665168610235
307.1052861478612
309.4890928499822
301.0718100196431
300.1706174504233
309.5038592457676
291.0955675558413
280.216307054415
278.7759353175538
294.4135214932376
275.7516113822114
264.1856608734562
262.6365227507835
364.6012086731983
379.0954778704304
471.2740008631234
523.2677781191511
300.9922152699172
325.5316509922301
452.0916338155185
540.9878547991206
280.7251950753342
301.5504168858828
425.7396092764566
542.1752085310055
265.2925720081473
277.7698371178421
353.5508291301671
433.7462233193797
555.4292972155114
596.0889639337847
606.3946720341162
612.1839048573059
614.3290156285143
635.5278058009419
643.8929696530191
646.9826052361874
635.7193417377198
638.2984817359529
646.3983710661222
649.0430446486422
637.4701873117482
640.8083505727298
644.0808476870789
644.5989000367975
618.760924430014
618.847537465667
618.7046942980462
618.5580037054094
648.9794094357303
649.3065784000454
649.3113456050667
649.2998647142244
650.3684046612777
650.5128989791735
650.5149341434976
650.5062821291725
644.5178140723229
644.5482259089009
644.5445019556096
644.5377594471194
618.4281098878286
618.1747412068559
614.0430285217815
586.4063442711439
649.2894068441668
649.0485872300388
644.2647367812841
624.7232041621004
650.4965984967581
650.1901540450774
645.0700352905143
631.0375233815708
644.5253905175634
644.0296707276228
638.7608030014674
634.6882344851654
494.9079030964651
500.0238726106402
500.0000000451799
499.9999999907747
501.1671555676023
500.0881629394499
500.0000000154636
499.9999999958838
516.9673462728778
500.1663504029137
500.0000000018238
499.9999999993231
530.1684948080308
500.3130146633377
500.0000000002952
499.9999999982691
499.9999998918186
499.9999976989543
499.9999910050665
500.0000796694336
499.9999998878477
499.999996561865
499.9999819424996
500.0000454769662
499.9999999278666
499.9999974479701
499.9999752489787
499.9999723613194
499.999999746045
499.9999954255688
499.9999714097133
499.9993650274172
500.0190922536681
500.6697988275394
506.2739520818494
522.4957381459806
500.0234236149887
500.8252392538759
507.2347819114732
528.1015012792627
500.0269068563401
500.914587258741
506.2073616201812
518.5017944392941
499.9953120246708
500.1566393927254
500.6861217981604
495.7374202129655
541.3811414548088
537.2868930367282
537.1105326770365
536.5490627312569
561.3182865442216
555.2207578338695
555.0772169302345
554.8488056861293
561.0697526776902
558.4842696631179
558.3427784733705
558.1287554914641
561.9062137499736
563.5027366558729
563.4552674318444
563.3719809747635
535.1359942646467
533.9224885950683
524.1850693676406
506.5526663170057
554.1304462468772
552.4262121088904
542.596608126795
518.6589923683592
557.4879074058415
556.0599716112837
549.0080049137816
530.548677803978
562.8155846121987
561.9463943724577
559.7186702205963
554.9414067575301
499.903010724773
499.9996981339095
499.9999995966398
499.999999999826
499.7312764026189
499.9991345958254
499.9999988103351
499.9999999993326
499.5315135423648
499.9984198139393
499.9999978194634
499.9999999985454
499.3931085391715
499.9979820623827
499.9999972940561
499.9999999983603
500.0000000021661
499.9999977579633
499.9983598984449
499.597832086208
500.0000000020988
499.9999977557122
499.9983606863271
499.59800504347
500.0000000014454
499.9999977118665
499.9983563829296
499.5972380641977
499.9999999997381
499.9999976296423
499.9983709682577
499.6033242601176
499.9999999983335
499.9999999985593
499.9999999993315
499.9999999998163
499.9999972940331
499.9999978194579
499.9999988103433
499.9999995966615
499.9979820623725
499.9984198139296
499.999134595859
499.9996981339015
499.3931085391334
499.5315135423475
499.7312764026443
499.9030107247824
)
;

boundaryField
{
    back
    {
        type            empty;
    }
    inlet
    {
        type            zeroGradient;
    }
    front
    {
        type            empty;
    }
    top
    {
        type            zeroGradient;
    }
    outlet
    {
        type            fixedValue;
        value           uniform 500;
    }
    bottom
    {
        type            zeroGradient;
    }
    wall
    {
        type            zeroGradient;
    }
}


// ************************************************************************* //
