/*--------------------------------*- C++ -*----------------------------------*\
  =========                 |
  \\      /  F ield         | OpenFOAM: The Open Source CFD Toolbox
   \\    /   O peration     | Website:  https://openfoam.org
    \\  /    A nd           | Version:  11
     \\/     M anipulation  |
\*---------------------------------------------------------------------------*/
FoamFile
{
    format      ascii;
    class       volScalarField;
    location    "0.106";
    object      p;
}
// * * * * * * * * * * * * * * * * * * * * * * * * * * * * * * * * * * * * * //

dimensions      [0 2 -2 0 0 0 0];

internalField   nonuniform List<scalar> 
880
(
80
80
80
80.00022080305438
80
80
79.99999999998681
80.00102565081544
80
79.99999999999999
80.00000000299092
80.00540165179513
80
80
80.00000008973412
80.01008532004698
80
80.00000000000001
79.99999999999994
80.00000000004292
79.99999999999999
80
79.99999999999983
80
79.99999921738274
80.00000351268716
80.02474930513286
79.95354517487411
80.8599128930129
83.38311084347229
85.45175922290898
86.36003187275081
80.00000435380933
80.00001632055096
80.00001992729693
80.00001162554734
80.00009023209675
80.00024225713496
80.0005872734536
80.00040163509611
80.05293276214688
80.1088813455079
80.17855201347454
80.17793573731286
87.38375380105578
88.69351957238267
90.04854404363653
91.58621044962223
90.78512139503957
88.37972365899707
86.49384954340165
85.20942361476735
80.30820540193589
80.58308792790518
80.7449189888187
80.6541470153176
80.00117822000152
80.00308827307458
80.00613284411176
80.00650599520743
80.00004890199972
80.00011218384638
80.00019729380867
80.0001897742824
80.00011789943703
80.00003544123011
80.00000381028205
80.0000000944015
80.0050593197244
80.00244537002439
80.00055442543018
80.00004991117879
80.50547949479977
80.29550437587767
80.09939253276593
80.01703552008901
83.93366691307186
82.71236051330781
81.5682415154722
80.62143138496505
80.12377743728668
80.00115978464184
80.00000156139392
80.00000000211119
80.01078857517231
80.00009790624931
80.00000011318116
79.99999999725385
79.99774785960621
79.99974106290307
80.00000021872161
80.00000036533297
81.7974314573523
80.00696546787509
79.99973130707579
79.99997880886893
79.9999690484367
79.99987554597527
80.05792369551695
95.50418757169027
79.99999286781031
80.00047439099224
80.30103587182745
108.6530531694998
80.00006413837058
80.00153984862516
80.58745612126512
115.6087529345832
80.00017257813039
80.00439879574782
81.0580368118174
122.2142569889452
128.0984474988328
81.44251289736989
80.00579927531592
80.00024004170072
135.1521743901522
82.04349668882566
80.01038122562822
80.00040575274099
139.8707068734291
82.37679542856534
80.01157890285204
80.00043979652143
145.3215693043385
83.04941426246501
80.01937638148685
80.00079410111833
80.00085595007296
80.02180502668456
83.76540638273579
151.0821607894391
80.00128235015104
80.03246101050657
84.78676175017787
153.1626964201519
80.00227302907403
80.04473159824431
85.08435694822595
145.2114275327644
79.99977966921357
80.0169286691239
82.97716726365256
123.2826534510662
80.00437157717437
80.1101557217163
83.43774285672824
96.76961945403575
80.00469126446134
80.12322574848911
81.23253667080725
70.40503697939666
79.99953455175594
80.0335542016864
79.77626185966848
57.52390872767918
79.99879321197545
79.93764081564679
77.78109124371549
50.69044447514788
48.74742585301037
76.9497023391564
79.9180440310071
79.99948783938196
46.28831971168163
76.59164251279199
79.92345854740762
79.99965849981049
44.66151754309858
76.75334676558299
79.95468743672731
79.99986233019543
42.02973299943117
76.52909627132763
79.95492572581435
79.99986221268361
48.95324539401835
78.19432046416102
79.98505279675972
79.99995371411565
57.32798002050345
79.30139930530919
79.99621245984348
79.99998982464815
63.77729650068039
79.70376536054789
79.99875476436834
79.99999715223601
69.52949281135963
79.89248595761126
79.99962108736307
79.99999851806723
71.53842584620897
79.5289419615973
79.99215800030453
79.99994895427949
72.04838236783669
79.54297425008058
79.99223099965023
79.99994913959083
72.75588193598242
79.554123207484
79.99217897477901
79.99994901597479
73.91192579671403
79.60784815288089
79.99221478862931
79.99995059431919
69.52949281120439
79.89248595720422
79.99962108684458
79.99999851871901
63.77729650027046
79.70376536010461
79.99875476296907
79.99999715227629
57.32798002023999
79.3013993056634
79.99621245979385
79.99998982480453
48.95324539422673
78.19432046517261
79.98505279677485
79.9999537137569
79.99948783964871
79.91804403215926
76.94970233971553
48.74742585289543
79.99965850026094
79.92345854792489
76.59164251324412
46.28831971193544
79.99986232940637
79.95468743771309
76.7533467652962
44.66151754323494
79.99986221293096
79.9549257260261
76.52909627254535
42.02973299913499
50.69044447442575
77.78109124281035
79.93764081466328
79.99879321215026
57.52390872673158
79.7762618588862
80.03355420069822
79.99953454954408
70.40503697926179
81.23253666994421
80.12322574866054
80.0046912644643
96.76961945423785
83.43774285650552
80.11015572119078
80.00437157882278
80.00085594954709
80.02180502823343
83.76540638376433
151.0821607907639
80.0012823503107
80.03246101073903
84.78676175028305
153.1626964201664
80.00227302979516
80.04473159821629
85.08435694740804
145.2114275326835
79.99977967106892
80.01692866923467
82.97716726307024
123.2826534509186
145.3215693061854
83.0494142608708
80.01937638278842
80.00079410112029
139.8707068748556
82.37679543086298
80.0115789026574
80.00043979686771
135.15217438987
82.04349669075472
80.01038122811131
80.00040575231904
128.0984475001464
81.44251289524868
80.00579927511919
80.00024004137126
79.99996904937407
79.99987554679346
80.05792369583125
95.50418757046673
79.99999286721405
80.00047438995372
80.30103587159709
108.6530531699154
80.00006413776626
80.00153984864896
80.58745612209059
115.6087529345861
80.00017257746035
80.00439879556136
81.05803681131886
122.2142569894456
79.99997880855345
80.00000036574254
79.99999999733663
80.00000000204385
79.99973130610819
80.00000021874676
80.00000011415428
80.00000156082649
80.00696546815612
79.99974106319928
80.00009790561694
80.00115978434269
81.79743145764148
79.99774785994137
80.01078857484939
80.12377743736143
80.00000009351648
80.00004991128954
80.01703552064154
80.6214313852971
80.00000381011483
80.00055442509262
80.09939253436625
81.56824151562874
80.00003544180531
80.00244537008449
80.2955043750553
82.71236051325401
80.00011789974124
80.0050593195933
80.50547949554145
83.93366691273607
80.00004890087243
80.00117821901775
80.30820540138056
90.78512139484938
80.00011218285368
80.00308827315985
80.58308792795494
88.37972365822554
80.00019729340795
80.0061328452492
80.74491898891497
86.49384954304874
80.00018977391314
80.00650599597353
80.65414701543961
85.20942361419765
91.58621045010561
80.17793573822242
80.00040163447107
80.0000116249885
90.04854404389042
80.1785520145994
80.00058727332468
80.00001992727928
88.69351957341205
80.10888134595599
80.00024225728029
80.00001632051776
87.38375380080022
80.05293276173067
80.0000902317317
80.0000043541291
86.36003187294446
79.95354517564967
80
80.00000000020938
85.45175922264936
80.02474930235353
80
79.99999999999999
83.38311084380236
80.00000351246825
80
79.99999999999999
80.85991289263194
79.99999921700454
80
79.99999999999989
80
79.99999999999997
80
80.00022080197098
80.00000000000003
80.00000000000001
79.99999999996868
80.00102564309188
80
80
80.00000000305421
80.0054016497417
80
80
80.00000008921518
80.01008531941308
80.00039176981828
80.00160511865683
80.00909264210782
80.20048703004815
80.0016051430038
80.00187587169812
80.00657417982887
80.7835919133306
80.00909263754023
80.00657416361102
80.29866080657247
85.10091882613979
80.20048701773531
80.78359190870427
85.10091888206482
102.7601139393321
132.9044281928398
111.8170349882259
100.4159556505666
89.35280507906097
127.8302166096418
123.279258925337
120.7936891236629
111.6509465614686
124.8987422879071
123.6082395747461
123.4344188382794
119.251520355512
125.5524017495675
124.2652898872167
123.916407319551
121.2647942076905
123.1806724380199
123.9138510896649
125.0589257744639
127.7562012716601
124.5342094322585
125.2508596502823
126.2492271711685
129.3032852153594
124.9060596802053
125.3313853475577
126.2978268951684
128.7092257498844
125.2790987251915
125.2302958396476
126.2044954857061
126.9466490425205
107.2854629874475
87.02522481079319
81.69160852317984
81.47374495854436
97.6167661629279
79.51818831896482
79.4331714715676
81.13431857936081
88.00388973695948
76.0731769479144
80.24001780701464
82.22583719676278
69.18814054295777
70.82067232475219
78.99781337224809
81.64635124980244
81.65583350533346
81.99745611431318
82.07751798787648
81.32525190251296
81.60591743652546
82.12947836392632
82.01598638634154
81.23400921368506
82.40413974278285
82.56858996844764
82.27344075169545
81.389982175325
81.87933367643207
82.00227852107115
81.9830249387109
81.03654223919013
80.45378528485377
80.07391348991261
79.99760359374987
103.6243446091622
80.47363266847847
80.09758244823787
79.99546288326687
116.3287894714233
80.5777985886108
80.1292154720895
80.00931090197334
122.6507228882216
80.31094506332948
80.03635495459253
80.01118461130358
125.5853365026241
194.2270110112598
207.0725755357477
207.9085274938489
208.648302664144
216.9785008787291
217.4610663596923
212.9584827006414
211.2562424865686
215.1017863452484
211.5844976816097
213.1652152837286
211.7420762962813
227.5125917447706
218.6371395106377
214.0989385668461
212.0845320661535
209.6526650559885
215.7116817337761
219.2902287691061
222.4967793655373
210.9919453922866
216.1639993989839
219.223516378919
222.1454208524029
210.9149576363592
215.4222963661654
218.8838020692345
221.9719075745609
210.7443565350187
214.9511210164621
218.2225656845542
221.5361215377287
221.7126127841259
214.8526561960307
198.1920659537117
165.0645367747643
220.9345623242758
214.583053930023
197.8626142687162
174.5749463800577
221.2771776514048
215.2517248008499
199.5122222709778
185.8099908133325
221.1019510079161
216.3735391738535
201.8680641484838
206.3863779766974
100.6002187678194
20.84763222333094
6.364289146817301
7.948710280157266
77.429831177751
12.19650630085557
7.068408765222994
8.030417647126834
52.11531828988258
6.923599823869773
6.144537134650125
8.449596103747421
29.05925806915719
3.509741991688751
7.046167484279783
8.679320366295512
9.805322128499066
10.67168215181
10.82377496553276
9.383466709254114
9.542145534860822
9.837753593287477
9.32998295281868
8.038622038588626
9.759447567426452
9.613361144621077
8.86267142720669
8.476240482268627
9.657112375311428
9.018078715520438
8.330552853025031
9.727094933536703
21.21957110214443
30.91230096621118
38.16766058190436
48.96920776832528
20.85302168285049
29.96194237837591
35.50179337516614
47.09650781311981
18.72140767395872
29.22552743702389
36.42589699333734
45.48081019048877
14.44651954676744
23.9791295551653
32.40857202923402
43.99675010922918
34.57470968059995
22.28301297473218
10.18668345750483
7.427525648162368
31.47343041682449
17.75917287628684
7.582149155721694
8.479954049358904
24.44995869259412
10.90277335603353
4.113742363820464
9.912683797120563
16.46821124100225
5.129403284446028
2.763630382614275
11.72318407812538
17.22483898750403
16.97273382340002
17.87219491889138
18.4871610465816
15.7963830141507
15.64063072397062
15.85570580508004
15.88949428737529
15.93995732821085
18.03203921313243
18.0214155170454
17.8555384397037
19.84899377518208
31.49897268325223
31.26067935477668
29.53410338699169
18.48716104658413
15.88949428736927
17.85553843970255
29.53410338697174
17.8721949188967
15.85570580506395
18.02141551705061
31.26067935472564
16.97273382340249
15.64063072396934
18.03203921313859
31.49897268317915
17.22483898750789
15.79638301417826
15.93995732824581
19.84899377507624
7.427525648108626
10.18668345743624
22.28301297458401
34.57470968034364
8.47995404934036
7.582149155684423
17.75917287627533
31.47343041665984
9.91268379714988
4.113742363800184
10.90277335596682
24.44995869255819
11.7231840781295
2.763630382619074
5.129403284437917
16.46821124095914
43.99675010912675
32.40857202914672
23.97912955496146
14.44651954655318
45.4808101904212
36.42589699331
29.22552743687005
18.721407673695
47.0965078130457
35.50179337514175
29.96194237827737
20.85302168260402
48.96920776821822
38.16766058180851
30.91230096604916
21.21957110195595
9.383466709133142
10.82377496562075
10.67168215184353
9.805322128434495
8.038622038539957
9.329982952888981
9.837753593316291
9.542145534820174
8.476240482236111
8.862671427279588
9.613361144665426
9.759447567372041
9.72709493348191
8.330552853075174
9.018078715562671
9.657112375236604
7.948710280032716
6.364289146676969
20.84763222312356
100.6002187677242
8.030417647025477
7.068408765094652
12.19650630074415
77.42983117730107
8.449596103622579
6.144537134522879
6.923599823831808
52.11531828966498
8.67932036611994
7.046167484089121
3.509741991619465
29.05925806904983
165.0645367745422
198.1920659538419
214.8526561963074
221.7126127851761
174.5749463799139
197.8626142689751
214.5830539305092
220.9345623255849
185.8099908132193
199.512222271189
215.2517248015533
221.2771776526346
206.386377976521
201.8680641488141
216.3735391745435
221.1019510091795
222.4967793671792
219.290228769353
215.7116817328233
209.652665057572
222.1454208537277
219.2235163787464
216.163999398171
210.991945393867
221.9719075755113
218.8838020689492
215.4222963656479
210.9149576381863
221.5361215386671
218.222565684219
214.9511210158524
210.7443565373135
208.648302666896
207.9085274916762
207.0725755365556
194.2270110100357
211.256242490383
212.9584826977442
217.4610663607544
216.9785008774065
211.7420763001132
213.1652152799646
211.5844976820168
215.1017863430823
212.0845320682575
214.0989385631646
218.6371395113728
227.5125917413601
103.6243446080328
79.99760359179561
80.07391349139401
80.45378528466701
116.3287894693094
79.99546288053585
80.09758245031298
80.47363266798256
122.6507228850991
80.00931089988187
80.12921547470229
80.57779858771606
125.585336498581
80.01118460907381
80.03635495887184
80.31094506135868
81.32525190263743
82.07751798760938
81.99745611403817
81.65583350533315
81.23400921372345
82.01598638614216
82.1294783637733
81.60591743641889
81.3899821754531
82.27344075150198
82.56858996845807
82.40413974251059
81.03654223964142
81.98302493831868
82.00227852136744
81.87933367609673
81.47374495790515
81.69160852292751
87.02522481035693
107.2854629876098
81.13431857863966
79.43317147139001
79.51818831857257
97.61676616306801
82.22583719610648
80.24001780691226
76.07317694760856
88.00388973700419
81.64635124911824
78.99781337227513
70.82067232437952
69.18814054269373
127.7562012713662
125.0589257733628
123.9138510901372
123.1806724396579
129.3032852145012
126.2492271703093
125.2508596512685
124.5342094338415
128.7092257488946
126.2978268944265
125.3313853484452
124.9060596815098
126.9466490419899
126.2044954853837
125.2302958408134
125.279098725694
121.2647942076799
119.2515203553542
111.6509465599684
89.35280507940556
123.9164073192278
123.434418837409
120.7936891236265
100.415955638847
124.2652898870725
123.608239575083
123.2792589250872
111.8170349701654
125.5524017489033
124.8987422882296
127.8302166081184
132.9044281946372
73.25969239809901
79.86047455319462
79.99891436799751
79.99999567353004
72.60025320882447
79.81788344803037
79.99816986831468
79.99999063015548
73.05238821141576
79.7709467384645
79.99696546747157
79.9999819574453
73.40232835688926
79.68815315040101
79.99400288899822
79.99996378391818
79.99994895476993
79.99215800048555
79.52894196097408
71.53842584550777
79.99994913998802
79.99223100030872
79.54297424915565
72.04838236787515
79.99994901534129
79.99217897532355
79.55412320716223
72.7558819353614
79.99995059249875
79.99221478937537
79.60784815152684
73.91192579632245
79.99996378329602
79.99998195678364
79.99999062795419
79.99999567134329
79.99400288930731
79.9969654674487
79.99816986804755
79.99891436724633
79.68815315011865
79.77094673763466
79.81788344870331
79.86047455288289
73.40232835672444
73.05238821055931
72.6002532084339
73.25969239837063
)
;

boundaryField
{
    back
    {
        type            empty;
    }
    inlet
    {
        type            zeroGradient;
    }
    front
    {
        type            empty;
    }
    top
    {
        type            zeroGradient;
    }
    outlet
    {
        type            fixedValue;
        value           uniform 80;
    }
    bottom
    {
        type            zeroGradient;
    }
    wall
    {
        type            zeroGradient;
    }
}


// ************************************************************************* //
