/*--------------------------------*- C++ -*----------------------------------*\
  =========                 |
  \\      /  F ield         | OpenFOAM: The Open Source CFD Toolbox
   \\    /   O peration     | Website:  https://openfoam.org
    \\  /    A nd           | Version:  11
     \\/     M anipulation  |
\*---------------------------------------------------------------------------*/
FoamFile
{
    format      ascii;
    class       volScalarField;
    location    "0.106";
    object      T;
}
// * * * * * * * * * * * * * * * * * * * * * * * * * * * * * * * * * * * * * //

dimensions      [0 0 0 1 0 0 0];

internalField   nonuniform List<scalar> 
880
(
300
300
300
300.0002349431711
300
300
299.9999999998067
300.0013286484019
300
300
300.0000000054827
300.0061491252406
300.0000000000001
300
300.0000002216188
300.0058747397133
300
300
299.9999999999999
300.0000000000496
300
300
299.9999999999997
300
299.9999984223597
300.0000262010838
300.0306287072558
299.9373604203504
300.9874760404898
304.2957560340481
307.1939302794576
308.3337742527662
300.000004666528
300.0000175330142
300.0000214106443
300.000012487441
300.0001139142108
300.0003125025769
300.0007046052716
300.0004621664789
300.0776046367362
300.1537181293243
300.2361048492173
300.2319127616922
309.8622459083422
311.6333954909782
313.0422707682964
314.784848771409
313.8902668708267
311.2295519409809
308.6779392679806
306.5347179343901
300.4071286170918
300.6648222616131
300.8755589861881
300.7498901753469
300.0014494098619
300.0033228970071
300.0063176839211
300.0066931287132
300.0000525623437
300.000120288011
300.0002109622773
300.0002028310189
300.0001259440808
300.0000378660465
300.0000040780114
300.000000101572
300.005142307832
300.0024773320836
300.0005793062969
300.0000540890062
300.5471686652443
300.2997753658469
300.1005173018883
300.0181346636946
304.5630830693744
302.9501542022571
301.6477130703742
300.6487636838481
300.1302280888817
300.0012711691658
300.0000017120318
300.0000000026324
300.0120743845083
300.0001120512678
300.0000001256718
299.9999999969964
299.9961474749968
299.9996793546288
300.0000002843537
300.000000390591
302.3086099568983
300.0086071617157
299.9997183469502
299.9999769534454
299.9999665592078
299.9998700099765
300.0672986893328
320.1143590939802
299.9999921925044
300.0004908711709
300.3711924972084
335.8744078139979
300.0000686605372
300.0018531083922
300.8057264252647
345.7833532940372
300.0001858407665
300.0056060985007
301.527167882322
354.8610207262779
362.4756210024367
302.1412509849645
300.0074466501931
300.0002575592968
369.5563478707756
303.0096801776031
300.0135251457478
300.0004385629276
373.692251717552
303.4781036342422
300.0145545681521
300.000470690057
377.6521889811996
304.4288916196189
300.0251501609937
300.0008589852906
300.0009177254633
300.0275900540434
305.4024563000197
382.0471995523164
300.0013775882443
300.0421646506778
306.9219429907008
383.0321078592378
300.0024524671946
300.0578870256208
307.3113572932977
376.517801789566
299.9997655394442
300.0191539209859
304.2069039287446
356.3918724540623
300.0047752862611
300.1282290975886
305.4717184846468
335.709275503297
300.0039996453012
300.1858536520259
303.9213870714772
316.3732059404426
299.9986440637413
300.0755267967766
302.8666372815502
312.3728101860835
299.9964527693188
299.9279914833234
300.7759052433847
312.3370925931548
306.5566444796113
299.0178157368313
299.8786048202226
299.9989998229211
299.0097164648053
298.5415211762279
299.9106906231263
299.999594231681
290.4154458158201
298.1859792693472
299.9567155177461
299.9998570778949
285.4472297194603
298.1698958870579
299.9617842208002
299.9998614780791
284.2452013586039
299.0597080733026
299.98881435723
299.9999573806818
283.8001402079641
299.5778693370328
299.9970900462853
299.9999906803288
284.8344248730266
299.7445078373628
299.9988061902737
299.9999970922291
288.7011913303613
299.8778438814272
299.9995592195904
299.9999983466426
296.9604404556281
299.7246548885921
299.9932017942376
299.9999490919198
297.6098828283353
299.7337720258217
299.9931400910032
299.9999488940206
298.2522773511691
299.7310956189363
299.9927468709802
299.9999480492316
299.7239599592153
299.7646858918345
299.9909386883369
299.9999452856396
288.7011913297982
299.877843880714
299.9995592184652
299.9999983484609
284.8344248725637
299.7445078367521
299.9988061880361
299.9999970922852
283.8001402078013
299.577869338062
299.997090046662
299.9999906804527
284.2452013590808
299.0597080754803
299.9888143573746
299.9999573799782
299.9989998227274
299.878604821721
299.0178157372736
306.5566444794359
299.999594233659
299.9106906239335
298.5415211767664
299.00971646518
299.999857076671
299.9567155194738
298.1859792684261
290.4154458163338
299.9998614783568
299.9617842213943
298.1698958888356
285.4472297187682
312.3370925920347
300.7759052417754
299.9279914809942
299.9964527684762
312.3728101844062
302.8666372803331
300.075526795187
299.9986440603124
316.37320594059
303.9213870703207
300.1858536523462
300.0039996462552
335.7092755036311
305.4717184842198
300.1282290966587
300.0047752892714
300.000917724421
300.0275900564412
305.402456301257
382.0471995531071
300.0013775881747
300.0421646522515
306.9219429915808
383.0321078593919
300.0024524684662
300.0578870256972
307.3113572922292
376.5178017896083
299.9997655423744
300.0191539213866
304.206903927758
356.3918724539087
377.6521889826302
304.4288916195763
300.0251501632598
300.0008589854626
373.6922517188856
303.4781036392097
300.0145545665779
300.0004706904954
369.5563478700801
303.0096801748458
300.0135251522772
300.0004385621262
362.4756210034107
302.1412509827027
300.0074466459515
300.00025755869
299.9999665606509
299.9998700111171
300.0672986895661
320.1143590929549
299.9999921918695
300.0004908698945
300.3711924978148
335.8744078140306
300.0000686596097
300.0018531067488
300.8057264246816
345.78335329397
300.0001858395685
300.0056061014937
301.5271678843134
354.8610207268336
299.9999769530347
300.0000003912334
299.9999999971236
300.0000000024212
299.9997183457236
300.0000002845431
300.0000001270698
300.0000017110165
300.0086071620584
299.9996793549088
300.0001120503038
300.0012711689349
302.3086099572872
299.9961474755124
300.0120743842394
300.1302280890908
300.0000001001409
300.0000540892464
300.018134665282
300.6487636843514
300.0000040777305
300.0005793057724
300.100517304187
301.6477130702567
300.0000378672024
300.0024773323654
300.2997753643859
302.950154201928
300.0001259443478
300.0051423078613
300.5471686665021
304.5630830687048
300.0000525606106
300.0014494084517
300.4071286174108
313.8902668707948
300.000120286215
300.0033228968496
300.6648222620372
311.2295519400804
300.0002109613567
300.006317685301
300.8755589861765
308.6779392674031
300.0002028302183
300.0066931297936
300.7498901752501
306.5347179335168
314.7848487721939
300.2319127641432
300.0004621656984
300.0000124866478
313.0422707688944
300.236104851002
300.0007046051003
300.0000214107632
311.6333954920617
300.1537181272552
300.0003125030011
300.0000175328205
309.8622459080502
300.0776046343025
300.0001139135161
300.0000046671178
308.3337742533669
299.9373604242058
300
300.0000000003947
307.193930278983
300.0306287018853
300
300.0000000000001
304.2957560341495
300.0000262006991
300
300
300.9874760398448
299.9999984218853
300
299.9999999999999
300
299.9999999999999
300
300.0002349418141
300.0000000000002
300
299.9999999997218
300.0013286402193
300
300
300.000000005649
300.0061491245797
300
300
300.0000002207622
300.0058747395336
300.000432002581
300.0016842409901
300.0093065231585
300.2162214079009
300.0016842685256
300.0019810460031
300.0062563528942
300.8612038952817
300.0093065162035
300.0062563365271
300.3232266502748
305.7843659919651
300.216221398265
300.8612038930127
305.7843660478226
325.1990211035705
354.2388731621845
334.9611186729962
321.7744900077037
310.0328169064738
350.2090129870467
345.4645058857187
340.9898847367994
332.0915114144528
346.6146063938063
344.8142771065535
343.0416668036381
338.8431940872878
345.682524341339
344.2848059927102
343.313907001843
341.3357502156404
343.780301510151
344.8534402661957
345.8463066423256
348.3749127590958
343.7680680768439
344.4487695323456
345.2623144638663
347.9856091759181
343.8033029126701
343.7790827887719
344.4190803507413
346.1317991550595
344.074038190586
343.4422068330207
344.1484520985957
342.1917830136255
331.6578906690453
314.2956817455284
306.0676341710638
303.717338494946
322.6950367530636
305.6483698729598
303.825520985842
304.3433372706391
312.2239553592427
299.3472902988254
304.5948138620228
305.8358125706577
287.556947661155
291.8965174696799
303.8162866034862
305.4345839046246
302.8472971755783
302.691090174273
302.4815404201486
301.3946812581314
303.5980096235658
303.1758328680702
302.5085369227153
301.2825490801367
304.8488431191034
303.8644411095906
302.8076900811199
301.4362018742542
304.3087742597052
303.2287475935862
302.4891959842285
301.0467815777919
300.455817298375
300.0756854506442
299.9981106025908
328.7179916269827
300.459879739413
300.0977134445508
299.995491858654
344.9630762311559
300.5638529714802
300.1302518633371
300.0098155032799
354.0130150722482
300.2796997641033
300.0321848369591
300.011526607206
358.2459522039658
404.3975813776324
416.434145020447
420.308316838531
424.6799494062143
419.1938922990752
422.3848257627451
420.5282029883232
421.2588313410506
423.4628401371755
419.867978582904
418.6379511129712
416.9961445654213
432.9768131534412
424.6062913819137
417.8049040844855
415.3164388772079
428.326713380158
433.6834018726806
435.7596103801057
436.9989811110023
422.8198944744092
427.0198517704633
428.6174447249259
429.9408203540682
416.6599642531929
419.3979819893138
421.1169681523965
422.6512306128871
414.1901925334133
416.3376169734948
417.9249356296695
419.6013225476008
436.1324010842706
431.2972678712102
420.0942261557777
401.1790563914266
429.3230925101631
425.345543903402
415.7954819881862
415.5635276285511
422.3731296285495
419.2888623515099
414.5213196906279
427.0059819438367
419.2759953771185
417.4126458294771
417.5959252738447
407.9859971528304
361.9346602804575
295.8531242386338
215.7250119094864
213.2877591359883
348.7087268953221
260.776961002779
197.7909710593082
183.4193787860868
312.9118932549053
216.8384768065583
174.0612230261026
161.5827810046002
240.4288795403506
161.9474081662103
173.3007293640586
154.2533298490679
219.3011999333727
221.1493727908058
221.2911062358651
218.7471689891667
187.1073976995211
187.6128742577545
191.6157095879636
203.7181767304899
159.287517993599
158.7332960492013
169.9804724369455
205.8735344551073
147.4673111616043
145.3451207909519
160.909758050517
211.8758037736735
262.029776305445
256.8581244180533
256.0028135144894
264.363576521824
276.5606694052211
270.4446020368054
261.355695483924
269.2513746150244
269.2637203751047
282.8150635282472
277.2960497318232
283.0319937985427
245.6400817273784
270.4380785801296
278.0233799505997
294.624001242405
242.5299497749799
217.5991578835195
183.392178797581
166.9369629476201
245.7058735840511
215.5041813604262
174.2586305598974
180.5891343965014
241.0499970944355
190.3194139389529
131.3143522002362
177.3647257909477
216.6445556255534
138.768314945818
110.0947322293726
158.7425237698311
167.8293864226004
170.0323382722476
177.2603460805859
180.5947579990243
179.8421535342954
177.2796467351423
181.9540092753051
183.7728709191678
209.7556577323629
212.2717773832389
211.539120129321
210.3372576313161
238.93947960199
277.4342524021184
270.6872282663306
261.1275688334885
180.5947579990791
183.7728709191364
210.3372576312656
261.1275688332066
177.2603460808098
181.9540092752082
211.5391201292709
270.6872282659959
170.0323382725061
177.2796467351897
212.2717773831592
277.4342524017612
167.8293864227302
179.8421535344764
209.7556577325481
238.939479601537
166.9369629472731
183.3921787971693
217.5991578828185
242.5299497742304
180.5891343964799
174.2586305599575
215.5041813606246
245.7058735834189
177.3647257909717
131.314352199811
190.3194139384825
241.0499970943883
158.7425237697389
110.0947322293358
138.7683149456968
216.6445556253202
294.6240012421749
278.0233799503409
270.438078579609
245.6400817261756
283.0319937983828
277.296049731813
282.8150635279645
269.2637203737052
269.2513746147944
261.3556954838973
270.4446020364605
276.5606694039904
264.3635765214615
256.002813514366
256.8581244175205
262.029776304506
218.7471689886518
221.2911062365982
221.1493727910873
219.3011999330784
203.7181767302045
191.6157095889086
187.6128742582374
187.107397699196
205.8735344549278
169.9804724376237
158.7332960497295
159.2875179934933
211.8758037732678
160.909758050901
145.3451207913248
147.4673111615633
213.287759134659
215.7250119080981
295.8531242384878
361.9346602806056
183.4193787848028
197.7909710581092
260.7769610021746
348.7087268945498
161.5827810036616
174.0612230246848
216.8384768062408
312.9118932544092
154.2533298482933
173.3007293620384
161.9474081648723
240.4288795397607
401.1790563915229
420.0942261560932
431.2972678712708
436.1324010843714
415.5635276287334
415.7954819885788
425.3455439036574
429.3230925105995
427.0059819440857
414.5213196909517
419.2888623520186
422.3731296292796
407.9859971527104
417.5959252742391
417.4126458300359
419.2759953780175
436.9989811109969
435.7596103795298
433.6834018738857
428.3267133806641
429.9408203543252
428.6174447244755
427.0198517709512
422.8198944751391
422.6512306134081
421.1169681521648
419.3979819893384
416.659964254082
419.6013225483039
417.9249356295151
416.3376169733116
414.1901925347315
424.6799494065249
420.3083168375966
416.4341450201309
404.3975813769521
421.2588313421395
420.5282029868068
422.3848257633009
419.1938922981099
416.9961445674749
418.6379511107326
419.8679785831945
423.4628401356571
415.3164388787833
417.8049040821728
424.6062913821954
432.9768131512244
328.71799162492
299.9981105967304
300.0756854532432
300.4558172981413
344.963076229207
299.9954918547803
300.0977134470536
300.4598797389327
354.013015069688
300.0098155010793
300.1302518659722
300.5638529706302
358.2459522006814
300.0115266050148
300.032184841419
300.2796997620226
301.3946812580055
302.4815404195087
302.6910901738134
302.8472971755002
301.2825490800583
302.5085369222932
303.1758328676926
303.5980096232971
301.4362018743809
302.8076900807098
303.8644411093425
304.8488431186178
301.0467815783149
302.4891959836181
303.2287475936158
304.3087742591275
303.7173384939586
306.0676341705473
314.2956817445735
331.6578906687821
304.3433372697324
303.8255209854328
305.6483698720297
322.6950367528522
305.8358125698352
304.5948138617672
299.3472902981715
312.2239553589972
305.4345839037583
303.8162866034696
291.8965174689826
287.5569476605633
348.3749127584082
345.8463066420212
344.8534402680767
343.780301511958
347.9856091750324
345.2623144636713
344.4487695339003
343.7680680780471
346.1317991542192
344.4190803502571
343.7790827896418
343.803302913858
342.1917830130069
344.1484520981854
343.4422068339475
344.0740381910641
341.3357502139222
338.8431940873704
332.0915114133802
310.032816905219
343.3139070007591
343.0416668031655
340.9898847372361
321.7744899960285
344.2848059923504
344.8142771065203
345.4645058849501
334.9611186624255
345.6825243407341
346.6146063932315
350.2090129844242
354.2388731631971
293.5030697912863
299.8712835005411
299.9989369674977
299.9999956001058
294.2101957916252
299.8543481871777
299.998300152905
299.9999906042237
297.1053495612554
299.844308937607
299.9971222233431
299.999981416012
299.8545297487618
299.8156431849259
299.9921539342173
299.9999579922296
299.9999490928969
299.9932017942083
299.7246548879718
296.9604404549625
299.9999488947731
299.9931400920887
299.7337720243687
297.6098828287292
299.9999480479888
299.992746872311
299.73109561785
298.2522773500299
299.9999452822816
299.9909386898145
299.7646858888185
299.7239599584725
299.9999579912704
299.9999814145505
299.9999905997842
299.9999955962537
299.9921539347035
299.9971222233313
299.9983001524396
299.9989369661046
299.8156431844843
299.8443089364923
299.8543481882417
299.871283499712
299.8545297480617
297.1053495597313
294.2101957909963
293.5030697915024
)
;

boundaryField
{
    back
    {
        type            empty;
    }
    inlet
    {
        type            zeroGradient;
    }
    front
    {
        type            empty;
    }
    top
    {
        type            zeroGradient;
    }
    outlet
    {
        type            fixedValue;
        value           uniform 300;
    }
    bottom
    {
        type            zeroGradient;
    }
    wall
    {
        type            zeroGradient;
    }
}


// ************************************************************************* //
