/*--------------------------------*- C++ -*----------------------------------*\
  =========                 |
  \\      /  F ield         | OpenFOAM: The Open Source CFD Toolbox
   \\    /   O peration     | Website:  https://openfoam.org
    \\  /    A nd           | Version:  11
     \\/     M anipulation  |
\*---------------------------------------------------------------------------*/
FoamFile
{
    format      ascii;
    class       volScalarField;
    location    "5.8";
    object      p;
}
// * * * * * * * * * * * * * * * * * * * * * * * * * * * * * * * * * * * * * //

dimensions      [0 2 -2 0 0 0 0];

internalField   nonuniform List<scalar> 
4455
(
5956.9883
5965.3105
5981.8017
6009.0064
6049.3715
6103.2898
6177.5367
6281.1806
6445.8688
6007.846
6011.768
6025.4176
6050.7592
6091.8762
6150.9781
6232.7068
6348.1738
6516.7706
6052.3946
6053.2911
6064.4451
6088.6348
6130.6066
6192.5628
6276.4765
6397.0164
6558.2059
6090.164
6089.4854
6098.4938
6122.1985
6165.601
6231.1064
6320.466
6451.4586
6619.6835
6121.5306
6119.3463
6127.7012
6151.4265
6196.8321
6266.8926
6364.0709
6508.4676
6679.1912
6146.6798
6143.6141
6152.1637
6176.14
6224.1846
6298.9624
6405.5901
6565.882
6744.4952
6165.8596
6163.0803
6172.3415
6196.4146
6247.0878
6326.4889
6443.0331
6624.3008
6814.1588
6179.2654
6178.4915
6187.8675
6212.5152
6265.4921
6349.8989
6475.418
6684.5257
6890.8404
6187.9895
6189.4842
6198.7629
6225.3227
6279.6635
6369.6627
6502.3337
6746.079
6980.3379
6192.8733
6194.6344
6193.9949
6191.7014
6188.5497
6185.2986
6182.4456
6180.3906
6179.3538
6196.341
6199.5672
6200.0911
6198.7067
6195.9584
6192.1738
6187.7812
6183.167
6178.409
6206.1625
6210.2958
6211.5489
6210.4769
6207.5143
6203.111
6197.6237
6191.7575
6186.203
6235.1554
6240.846
6242.7441
6241.7414
6238.2294
6232.7739
6225.6838
6217.2529
6207.9047
6290.4612
6297.2193
6300.2619
6299.9021
6296.4143
6290.4701
6282.4985
6273.676
6264.4997
6388.2314
6403.0472
6412.8228
6417.0986
6416.0337
6409.6336
6398.8955
6385.1296
6369.8227
6527.913
6550.5149
6571.132
6587.4785
6595.9614
6596.345
6588.8692
6575.5325
6558.4204
6819.2212
6891.5523
6943.3995
6975.6865
6987.6779
6983.7065
6967.2992
6943.274
6913.6602
7122.5081
7345.5208
7509.9474
7547.6114
7524.0267
7477.2427
7410.8973
7329.7926
7240.7186
6179.3372
6178.3818
6176.7852
6174.8657
6172.5972
6169.8789
6166.541
6162.5377
6157.6292
6174.9526
6172.4116
6170.0125
6167.367
6164.0514
6159.9564
6155.005
6149.0757
6142.0345
6182.7843
6181.9589
6180.9329
6179.3076
6177.1369
6173.7058
6169.1195
6163.5391
6156.7023
6199.7929
6197.1732
6197.2855
6197.8124
6197.6598
6196.3449
6193.4621
6188.7402
6182.1001
6256.6737
6257.8767
6262.1249
6266.2777
6268.7837
6269.2095
6267.3012
6263.0749
6256.9289
6358.7838
6360.5017
6367.1905
6373.86
6377.5274
6377.3785
6373.6462
6367.1354
6358.3886
6544.5462
6546.1829
6553.3608
6558.6276
6559.1748
6554.9216
6545.2843
6532.3806
6517.893
6885.3892
6865.2338
6845.9686
6822.4693
6793.5669
6759.0616
6719.5897
6678.0387
6637.2205
7162.5748
7093.2676
7022.6928
6948.8174
6870.7082
6794.1078
6723.9783
6658.8825
6601.7628
6563.787
6530.8709
6514.7524
6523.948
6558.8685
6614.3627
6681.4433
6754.4541
6832.3304
6601.4373
6572.658
6549.6657
6531.9062
6519.7754
6513.3282
6511.9735
6515.7698
6524.0919
6502.0629
6487.5609
6475.1583
6464.0177
6453.1548
6441.6253
6429.8576
6419.6242
6411.8265
6348.361
6338.3926
6327.723
6316.1631
6303.9128
6291.0235
6277.4801
6262.8327
6247.08
6249.273
6241.2362
6232.379
6222.223
6210.0916
6196.215
6180.57
6162.9073
6143.275
6174.1297
6165.2381
6155.3469
6144.107
6130.6872
6116.5272
6100.552
6082.3378
6061.7612
6148.8704
6140.0465
6129.5758
6117.1169
6103.4058
6087.713
6070.1028
6050.2328
6028.6761
6133.7505
6124.1976
6113.2884
6100.705
6086.5078
6071.1827
6052.8412
6032.2836
6010.6257
6151.5769
6143.8235
6134.9393
6124.7371
6112.7783
6099.3921
6083.7822
6066.1761
6046.4904
6024.9836
6000.7615
5972.8961
5941.8054
5907.2711
5869.1009
5827.5238
5782.2224
5732.6473
5986.0267
5958.0195
5927.6069
5894.5401
5858.2102
5818.5081
5774.6869
5728.3685
5678.1601
6005.0665
5979.0489
5950.6184
5919.7631
5885.2777
5848.4928
5808.8104
5764.8554
5718.2752
6039.1657
6014.151
5986.4769
5958.0286
5925.8315
5890.0662
5852.6351
5812.0992
5767.1876
6122.2637
6100.0488
6076.3288
6050.9486
6023.8061
5994.5988
5962.9916
5928.7806
5891.5081
6230.4094
6213.0723
6195.3875
6177.0907
6158.0872
6137.5498
6115.1887
6090.0841
6062.0327
6406.554
6402.0328
6397.9081
6394.3681
6392.1007
6389.8789
6386.489
6381.6695
6374.4272
6537.1681
6555.8612
6578.1339
6602.4896
6627.9493
6650.8397
6674.4688
6693.8731
6703.896
6913.448
6995.9217
7083.4484
7171.4764
7259.0315
7356.797
7448.3078
7536.026
7637.8617
7685.7259
6710.6338
6362.307
6030.0829
5850.6112
5717.8359
5668.3456
5623.4092
5678.4015
7735.9146
6697.7478
6346.6469
5994.133
5806.3571
5664.4843
5613.6095
5564.1575
5618.9458
7708.958
6651.7923
6326.7913
5953.1238
5758.0014
5606.7989
5554.9238
5501.2794
5554.4079
7610.5881
6606.0553
6297.7486
5907.0092
5704.7207
5545.1061
5491.6254
5433.465
5484.4412
7531.1495
6585.1294
6261.7101
5855.0945
5645.8101
5475.4422
5422.8417
5360.8353
5408.8871
7560.6862
6593.992
6221.0335
5795.9324
5581.0806
5401.7247
5350.7663
5282.7078
5327.4397
7677.2626
6614.9972
6176.8547
5729.0302
5509.9772
5325.0263
5271.2964
5199.8876
5240.9739
7781.8389
6633.8911
6131.1698
5654.5848
5431.6916
5237.4662
5186.001
5111.812
5148.8303
7860.5378
6640.1001
6078.0208
5571.7397
5345.2221
5141.76
5095.639
5018.8074
5053.1717
4958.2835
4919.7554
4995.5182
5041.0846
5246.6559
5475.9514
6008.6386
6633.4295
8003.3559
4864.9394
4815.5589
4886.9544
4931.2809
5133.1294
5360.6996
5904.8884
6566.0969
8020.6455
4752.8591
4704.7559
4771.189
4810.2121
5005.4215
5224.5534
5767.5775
6438.5653
7873.1948
4624.5913
4588.0426
4646.7926
4680.2811
4864.6631
5069.642
5602.063
6267.8911
7666.4317
4485.3924
4463.4856
4515.0337
4543.4667
4711.9998
4899.5953
5415.4887
6078.0711
7436.2174
4342.0515
4333.3801
4375.9769
4399.2297
4549.1863
4717.8786
5211.0828
5863.8096
7175.2424
4192.933
4196.456
4228.6543
4246.9575
4376.3981
4524.5561
4989.7397
5629.9033
6913.9906
4041.4198
4055.3471
4079.6283
4089.5174
4195.482
4321.1823
4752.6178
5372.1568
6631.6449
3884.9487
3910.6241
3926.7442
3927.5056
4008.0033
4106.9053
4501.3328
5091.319
6338.8986
6040.5003
4788.9496
4234.5003
3883.003
3815.8103
3761.7204
3767.0834
3764.3776
3725.0927
5728.1829
4466.7144
3951.5924
3650.3354
3619.5212
3593.017
3607.9134
3615.4256
3560.746
5398.9737
4121.8619
3657.8864
3411.1512
3421.0973
3422.6234
3447.7047
3464.7654
3397.308
5061.0873
3757.319
3353.1631
3171.8619
3224.3302
3253.407
3284.8476
3314.6554
3231.5965
4700.1457
3370.665
3040.6923
2929.8245
3026.9546
3086.4462
3132.124
3164.4634
3068.4872
4322.2298
2962.6941
2720.4695
2692.1265
2837.2081
2925.099
2979.6903
3014.4566
2904.7536
3914.1501
2533.777
2403.0115
2465.6214
2657.3513
2768.9312
2824.576
2866.4881
2744.9842
3480.4241
2088.2797
2090.5718
2251.2194
2484.0238
2620.1073
2678.8448
2721.1784
2586.9472
3007.0775
1627.1563
1789.586
2050.9864
2325.8563
2479.5446
2544.85
2579.7319
2436.3315
2290.0993
2440.4483
2413.048
2348.9769
2181.7326
1868.5861
1495.2443
1126.7345
2444.5434
2147.5113
2304.863
2280.8894
2230.1653
2054.1757
1715.3984
1232.474
589.52527
1726.5299
1998.7461
2172.7584
2159.3522
2122.2032
1948.4274
1593.8048
1026.5076
88.745702
887.56002
1851.3444
2042.4619
2043.3973
2021.9833
1860.998
1510.4875
894.84301
-338.35192
-115.13904
1701.6122
1911.2653
1929.7026
1932.5065
1792.7038
1462.239
851.16344
-623.48731
-1328.9939
1557.5938
1779.8539
1820.702
1851.3593
1739.4637
1442.4193
897.07484
-729.6487
-2713.7617
1409.7666
1644.9808
1712.6092
1769.4538
1694.2826
1442.3011
1007.8059
-607.68518
-4226.3758
1269.4903
1507.5005
1597.0805
1687.7464
1657.7742
1442.2365
1160.3744
-199.18716
-5439.7736
1065.2594
1367.7554
1483.6424
1605.1053
1628.6645
1432.4064
1284.081
531.77234
-6181.3838
852.28873
1225.1967
1360.8582
1516.0628
1576.6247
1395.1694
1328.9109
1243.1618
-6783.7337
665.40877
1084.6513
1233.2127
1425.9287
1494.6424
1350.2791
1297.112
913.8801
-8244.6915
504.26504
942.18991
1102.2438
1335.5929
1409.0412
1311.7674
1222.0076
374.31004
-10358.844
350.94421
799.0461
975.02911
1246.7182
1327.6317
1293.6821
1181.9815
-250.75454
-10496.089
197.09925
652.12401
849.34328
1164.2764
1270.0983
1293.2204
1168.8877
-1121.766
-8466.4533
39.303108
499.52989
717.86935
1078.8533
1233.8563
1293.7637
1217.5471
-1953.9739
-7954.1967
-117.35624
343.56413
578.23692
984.01123
1211.7836
1298.5431
1242.7182
-2770.0211
-8825.3421
-271.0259
183.2495
430.1758
874.08009
1195.7067
1322.5893
1202.5307
-3353.4087
-9338.582
-414.59848
17.506405
272.81292
745.17046
1175.3027
1376.8073
1185.2881
-3516.69
-9552.5556
-9535.1094
-3460.0753
1171.248
1448.1537
1145.5956
606.24234
115.68892
-146.55581
-549.25861
-9402.3222
-3454.6252
1221.6914
1515.2104
1103.8964
459.77567
-39.895533
-306.03692
-667.55664
-9287.5446
-3485.5315
1285.3993
1589.7875
1044.4592
294.25768
-198.54339
-463.64836
-771.908
-9124.2535
-3540.4728
1314.9642
1653.9405
961.89745
111.29773
-357.15618
-617.54963
-864.92651
-9003.3722
-3584.1731
1348.7385
1714.8609
859.32285
-81.351343
-512.15671
-763.77866
-934.9321
-8770.1612
-3625.7935
1352.1784
1775.2164
735.89722
-281.99062
-665.03052
-902.36756
-982.53907
-8429.6412
-3717.4674
1281.7058
1807.2852
581.2004
-492.30782
-815.33607
-1030.657
-1030.4718
-8148.3668
-3846.7717
1211.9877
1822.7404
408.85686
-708.08506
-963.71036
-1145.9093
-1062.8937
-7868.0864
-4022.6608
1013.2086
1826.1738
215.49454
-925.96646
-1107.161
-1246.2411
-1072.8717
-7602.4684
-3885.0767
829.67257
1813.0528
-159.13046
-1297.2145
-1333.6686
-1387.0597
-1065.682
-7434.0598
-3508.5449
970.96063
1607.3265
-886.86224
-1800.039
-1588.4522
-1491.9579
-967.74803
-7346.4463
-3261.1566
720.59583
1304.3562
-1701.6994
-2267.1569
-1781.0068
-1495.5643
-801.09686
-7451.56
-3023.0749
567.13156
965.49754
-2557.3143
-2636.8064
-1874.1525
-1390.676
-619.67583
-7466.8684
-2792.7671
201.81914
585.6303
-3427.0725
-2855.7001
-1876.2897
-1187.6907
-414.72039
-7539.6686
-2611.086
-282.8327
135.55471
-4302.3918
-2932.7081
-1751.0802
-954.05204
-226.65143
-7662.6208
-2465.506
-636.83386
-342.31227
-5129.0472
-2850.6983
-1572.719
-703.19251
-55.99538
-7697.0231
-2453.4488
-777.07676
-1058.5077
-5859.6034
-2609.1974
-1349.0693
-436.77588
28.122132
-7570.2686
-2295.0134
-808.37207
-1645.679
-6425.4283
-2202.0122
-1148.2336
-245.44772
63.275073
-10409.982
-9483.6184
-6983.4969
-5359.8246
-4252.7022
-4553.7682
-2791.9271
-1446.2123
-2.0401846
-10324.124
-9247.2712
-6854.9297
-5414.6787
-4722.3525
-5007.2619
-3076.3061
-1501.887
-106.65234
-10228.55
-8996.8523
-6698.0993
-5435.2838
-5185.6913
-5390.6399
-3305.0867
-1529.5631
-192.78027
-10128.81
-8734.449
-6505.8012
-5416.9633
-5621.0273
-5698.0619
-3477.5907
-1519.2195
-267.65944
-10021.987
-8462.7088
-6289.0112
-5350.4115
-6023.5245
-5931.3436
-3587.0498
-1464.5376
-338.75278
-9911.7287
-8180.841
-6056.9399
-5246.3526
-6392.3741
-6071.4407
-3625.2876
-1359.7835
-408.86203
-9797.9564
-7890.685
-5795.9833
-5113.881
-6718.7717
-6106.8535
-3592.3241
-1207.0572
-478.93381
-9668.8704
-7595.0286
-5504.1126
-4967.2801
-6991.8561
-6042.4776
-3493.5889
-1027.8059
-536.05982
-9526.6884
-7287.3932
-5194.6619
-4805.3485
-7204.8731
-5879.2519
-3330.5924
-849.08523
-559.31461
-11353.439
-13809.539
-5036.3018
-632.07043
988.71982
1656.5045
2727.6248
3211.7636
2615.4598
-11749.656
-14018.71
-5839.0225
-1042.9718
793.42871
1505.6205
2525.5813
3065.2218
2990.354
-11575.851
-14205.172
-6631.6042
-1603.7213
578.21871
1372.9837
2304.6636
2955.362
3092.6279
-11714.453
-14356.028
-7363.8925
-2266.6468
312.07016
1260.3568
2022.4664
2725.5009
3109.6476
-12050.199
-14460.138
-8006.4573
-2993.508
-73.170802
1039.7601
1763.7328
2539.4229
2965.7811
-12577.19
-14530.141
-8559.3357
-3702.6083
-520.20946
793.94948
1519.2656
2214.4008
2776.2393
-13313.586
-14586.904
-9036.8384
-4390.7953
-1070.717
513.70529
1285.0543
1943.9386
2528.7134
-14011.873
-14626.863
-9433.8501
-4974.1699
-1652.9272
149.96803
1037.7958
1653.6603
2295.3297
-14230.028
-14629.812
-9773.8858
-5407.0503
-2102.5075
-222.24341
774.1424
1355.0144
2063.3895
865.69007
-7.5541734
-352.75297
-1523.9404
-3027.2955
-5492.3425
-9014.0593
-13860.365
-13250.751
1033.4288
132.88958
-245.14369
-1426.2552
-3015.462
-5603.0088
-9290.5638
-14044.813
-13319.467
1177.7763
278.3273
-129.42429
-1308.7749
-2968.4764
-5667.525
-9511.1478
-14195.165
-13370.381
1307.3406
424.0604
-9.779337
-1176.4831
-2898.3044
-5704.4025
-9684.3858
-14308.181
-13415.334
1432.8936
567.34097
111.85157
-1037.9186
-2814.1761
-5722.5339
-9822.3676
-14425.463
-13468.741
1554.501
709.10505
230.86027
-901.06622
-2722.5462
-5732.9061
-9933.8681
-14515.894
-13538.994
1672.1914
848.128
347.22388
-761.42714
-2622.0798
-5730.4376
-10021.828
-14605.032
-13717.883
1785.3928
985.74077
462.34322
-625.25054
-2512.3946
-5709.5187
-10081.486
-14662.023
-13981.723
1892.585
1122.5833
575.99925
-482.46974
-2390.9743
-5653.1219
-10105.118
-14767.623
-14191.96
-13151.496
-13612.474
-8605.0877
-5310.2858
-3000.1273
-1601.0481
-455.20068
-144.3743
682.31016
-13234.578
-13528.691
-8008.1488
-5059.1784
-2949.2967
-1662.203
-559.93345
-272.68796
512.56314
-12825.47
-12921.561
-7365.7463
-4798.8542
-2887.125
-1707.0265
-656.79661
-393.19501
362.03102
-10986.475
-11623.479
-6765.1937
-4522.782
-2813.9453
-1732.9665
-747.71586
-504.705
213.77624
-10818.059
-10245.396
-6207.2967
-4229.8355
-2709.7193
-1736.921
-822.0209
-603.29924
63.117412
-12780.714
-8990.5546
-5639.846
-3939.3755
-2601.777
-1720.6885
-883.87012
-686.76701
-83.923011
-14070.794
-7795.0389
-5023.1534
-3641.6808
-2483.9648
-1695.4904
-933.58007
-754.97011
-227.45529
-13134.726
-6580.9215
-4413.8853
-3377.4183
-2372.2059
-1670.0338
-993.31887
-814.88475
-349.45245
-11701.486
-5781.2856
-4076.2601
-3207.8602
-2324.6791
-1675.6774
-1070.2342
-871.48263
-442.57531
-664.68777
-690.41025
-843.24622
-1088.9805
-1403.7449
-1757.2334
-1992.161
-1783.9591
102.47679
-750.81777
-802.8162
-984.60437
-1269.2384
-1640.8358
-2083.3268
-2477.5039
-2536.1172
-678.94751
-804.19364
-889.2871
-1097.6311
-1419.8023
-1851.1661
-2375.9403
-2929.5674
-3317.5128
-1561.2976
-827.916
-949.50456
-1181.7407
-1540.0568
-2022.5657
-2625.8888
-3326.703
-4084.5046
-2572.2734
-822.52861
-987.75069
-1233.1168
-1628.1664
-2154.3746
-2826.699
-3656.1609
-4810.3476
-3725.4318
-788.24551
-1004.3052
-1253.1569
-1686.6021
-2250.4466
-2971.2201
-3899.0891
-5422.6365
-5100.5315
-727.25407
-998.6886
-1244.5415
-1717.7823
-2306.8268
-3064.3475
-4035.4157
-5859.7236
-6759.1258
-643.97084
-971.21236
-1208.9622
-1721.8603
-2331.2846
-3113.037
-4059.2358
-6050.1036
-8611.6657
-541.96066
-926.78247
-1150.984
-1705.6564
-2331.8356
-3142.386
-4020.8271
-5933.1813
-10242.258
718.12283
-1119.1026
-1507.5041
-1413.3184
-1142.8494
-889.18379
-681.30986
-552.0758
-549.33634
1234.309
-529.67566
-1046.2595
-1068.2259
-876.45548
-675.57082
-502.0408
-395.47482
-413.86037
1711.9977
27.081407
-586.75924
-713.62776
-593.66654
-449.46608
-307.9936
-222.55129
-254.70671
2155.5492
550.82453
-140.62091
-355.71645
-304.83471
-211.83034
-100.62092
-37.19739
-79.266567
2571.7058
1042.3775
296.15576
0.1895642
-10.771912
34.300155
116.77232
160.16449
114.02205
2964.2306
1502.4053
713.48711
350.89382
284.73703
281.20861
340.76518
364.98903
317.78733
3337.7007
1935.7515
1115.0306
693.64713
577.95816
533.12353
567.57284
575.10733
532.53183
3694.9517
2341.818
1494.4636
1025.9235
865.40134
781.41588
798.02564
787.99684
751.87065
4041.2174
2724.3752
1855.9943
1345.6306
1144.4881
1027.8743
1026.906
1002.3816
975.56746
2768.0739
2697.0529
2800.0447
2839.6894
3115.2914
3451.1953
4152.6385
5141.343
6738.1006
2617.6991
2540.8776
2640.4277
2684.1969
2961.3757
3302.167
4010.0922
5006.9752
6513.8873
2453.7707
2376.9054
2470.5941
2517.3257
2787.6845
3122.8559
3818.4527
4797.7714
6204.436
2265.695
2203.9167
2291.0707
2337.8968
2595.3512
2920.0472
3596.7107
4554.1243
5905.3402
2060.091
2021.28
2098.0568
2144.3145
2385.7707
2697.4518
3352.0521
4293.4004
5612.2504
1849.4245
1829.6
1899.1127
1939.7744
2161.9873
2458.7695
3090.5045
4019.7949
5318.0885
1637.7434
1630.5132
1691.2104
1724.8916
1926.6697
2203.2298
2811.7287
3728.7342
5015.7383
1421.66
1424.5635
1474.6157
1500.7259
1678.1714
1933.0366
2514.3668
3417.6645
4703.8731
1199.463
1215.7834
1251.5935
1266.8536
1416.4905
1646.9027
2194.6486
3082.7013
4378.7488
2921.94
3073.4415
3217.7387
3354.6164
3484.033
3605.7769
3720.5514
3828.6767
3930.0163
2845.4608
2987.2589
3121.9762
3249.6613
3370.6744
3485.1896
3593.4235
3695.7971
3793.1528
2945.6596
3080.4761
3208.5975
3328.1727
3439.6486
3547.2915
3646.6513
3741.233
3831.6435
2981.5405
3113.5103
3237.6205
3351.0516
3457.6109
3556.8036
3649.0094
3735.6949
3817.9114
3248.0714
3363.1059
3468.4798
3563.8913
3651.243
3732.1011
3805.8376
3873.5927
3938.6353
3573.5763
3674.5855
3763.6707
3840.4379
3907.0485
3965.2995
4016.357
4061.9279
4102.6923
4247.3849
4315.6215
4366.5139
4404.4301
4431.6375
4450.2507
4462.0282
4468.3714
4471.3338
5192.3321
5207.1228
5199.3482
5175.98
5140.4397
5095.8641
5044.3836
4988.4726
4929.3955
6750.377
6710.3337
6628.1344
6525.6189
6410.1363
6289.022
6163.2028
6035.8005
5910.6248
4025.4253
3884.9744
3915.3674
3894.6654
3998.1661
4140.3212
4471.9419
4868.979
5786.8276
4114.7797
3971.9492
3996.3151
3969.0209
4054.4353
4175.0845
4470.3726
4808.3738
5661.8296
4199.3049
4055.0502
4072.699
4038.9342
4109.7509
4208.3937
4469.1115
4748.6406
5540.7372
4278.1094
4133.2956
4144.6948
4106.5145
4162.2935
4241.0352
4468.3014
4691.1204
5419.0348
4352.4429
4208.4275
4214.5539
4171.6093
4213.1328
4274.0863
4468.3037
4636.623
5301.2954
4422.0763
4279.5657
4280.1623
4234.1152
4264.2392
4307.4499
4469.6353
4585.5681
5185.1159
4487.0973
4347.2528
4343.3265
4294.9016
4313.4821
4341.4629
4473.763
4537.7315
5070.6569
4548.4974
4411.5829
4404.0979
4353.5209
4361.7358
4375.9606
4481.5488
4493.5267
4956.8163
4606.2798
4472.5083
4461.6804
4410.5757
4410.0601
4411.14
4493.849
4454.8683
4843.582
4970.202
4889.5558
4865.7744
4839.7571
4821.1306
4778.3104
4782.582
4518.807
4198.0388
4937.3191
4854.1201
4829.8274
4800.0117
4778.212
4736.3552
4738.2578
4474.8571
4193.5725
4903.937
4815.9288
4791.4647
4757.8066
4734.1893
4693.0455
4696.0934
4434.9675
4202.9098
4869.9683
4774.3624
4750.9417
4713.5495
4689.0476
4649.2612
4656.0083
4404.774
4243.4904
4834.8423
4730.715
4708.4063
4667.4617
4643.2363
4606.0053
4618.8439
4387.1625
4313.4348
4796.8634
4685.0196
4663.6722
4619.5097
4596.8631
4563.9358
4585.01
4381.2792
4401.4206
4755.4269
4636.3756
4616.6817
4569.8347
4550.5197
4523.373
4555.2407
4385.4973
4503.1275
4709.7757
4584.4723
4567.4578
4518.393
4504.0186
4484.408
4530.235
4399.8974
4613.6832
4660.0597
4530.0242
4515.9169
4465.3621
4457.1044
4447.0384
4509.9036
4423.5191
4728.9782
4208.6179
4566.0844
4830.4531
4819.9763
4863.8783
4877.2423
4899.7609
4922.2489
4997.0904
4244.659
4621.9708
4881.189
4861.5148
4905.8835
4912.7835
4931.7785
4951.9986
5018.2154
4305.2363
4683.7038
4931.1097
4901.8739
4945.3502
4946.0052
4961.3164
4979.6153
5035.7984
4380.0499
4749.6858
4979.8022
4941.1491
4982.2517
4977.3756
4988.4668
5005.8112
5051.7637
4456.4779
4818.9653
5027.8586
4979.421
5017.1001
5006.9503
5013.4785
5029.0731
5064.5045
4539.9705
4888.4528
5077.1607
5015.9905
5050.3255
5034.6545
5036.6232
5048.9431
5075.7079
4636.4002
4954.345
5129.3086
5050.6061
5082.4876
5060.3142
5058.1408
5066.1844
5084.2694
4740.6885
5013.5718
5180.8673
5084.7051
5113.2901
5084.2991
5078.2019
5080.69
5090.4734
4845.3818
5064.6851
5228.8411
5121.1266
5141.6744
5107.2821
5096.8396
5092.1557
5092.8788
4973.4534
5117.8226
5279.4535
5168.7303
5173.3606
5136.539
5119.048
5103.8876
5094.5465
5129.0982
5182.6441
5332.8759
5228.6564
5216.4217
5177.9145
5152.0479
5124.9555
5104.0694
5302.0684
5251.6878
5385.0697
5286.5371
5260.7012
5220.4288
5187.1828
5150.8296
5120.0535
5482.6008
5326.21
5439.9286
5346.0046
5307.6903
5264.579
5225.2361
5181.1354
5141.8516
5678.9271
5408.7004
5496.9615
5406.2339
5357.337
5310.6553
5266.0596
5216.0621
5169.2687
5896.2112
5499.3839
5557.0257
5466.7675
5409.4075
5358.872
5309.824
5255.487
5202.0555
6135.5891
5600.4063
5618.9888
5527.4565
5463.1062
5409.3349
5356.4944
5298.6993
5240.4174
6366.7423
5704.8887
5681.4986
5587.8856
5518.1645
5461.636
5405.9678
5345.6101
5284.3333
6519.419
5805.1596
5742.2142
5647.709
5574.2121
5515.4185
5458.0915
5396.147
5333.4763
5900.8586
5914.0752
5936.412
5968.264
6011.4098
6066.5476
6143.5661
6249.1558
6419.6604
5840.1027
5858.8074
5887.5878
5925.4976
5971.9658
6031.1319
6114.3336
6230.9435
6454.7631
5775.3029
5800.9101
5836.9128
5879.3265
5929.4835
5991.7834
6077.7249
6202.954
6475.0884
5708.0629
5741.7069
5784.0618
5830.73
5883.651
5948.7864
6037.0623
6169.5909
6491.304
5640.2338
5681.749
5729.6621
5780.4933
5834.8592
5902.4526
5992.733
6129.9261
6509.8466
5573.0899
5621.7332
5674.8318
5728.3033
5784.4251
5854.6771
5945.6725
6081.8723
6530.0416
5507.8536
5562.5862
5619.7641
5675.1276
5732.6833
5805.1339
5896.4103
6026.1738
6548.5604
5445.7097
5504.806
5565.1103
5621.7446
5680.3091
5754.3358
5845.8623
5961.7746
6560.0299
5387.4474
5449.2678
5511.2523
5568.8186
5628.0838
5702.7302
5795.8749
5889.6495
6552.2785
6657.9928
6685.7838
6711.8901
6737.0877
6758.8195
6762.5144
6736.3006
6663.0631
6494.0585
6713.6548
6739.7328
6762.0267
6784.9397
6805.1367
6806.3681
6773.7186
6689.6735
6512.5854
6767.301
6798.398
6823.8966
6846.7591
6863.4603
6863.5031
6827.9754
6726.1378
6533.9399
6842.9517
6874.9243
6902.1354
6926.2294
6943.0824
6939.2779
6901.2763
6781.471
6568.3806
6928.5813
6967.2813
6998.8462
7024.8557
7044.5275
7038.3964
6995.4719
6862.9586
6611.1529
7032.8683
7077.3864
7119.8079
7154.1912
7179.341
7176.1376
7123.9225
6991.7475
6749.7674
7183.5736
7233.787
7288.2101
7334.8254
7365.943
7363.7891
7294.8509
7120.2797
6813.5999
7405.1518
7461.4253
7528.5708
7596.1356
7655.0608
7692.8448
7693.4403
7593.2308
7356.0517
7723.5783
7781.311
7860.2099
7947.242
8024.543
8082.7491
8097.8743
8018.7361
7615.1404
10860.854
10319.931
9944.5546
9496.6613
9135.6388
8821.386
8584.6586
8412.2721
8301.4929
9477.3152
9589.9933
9527.6171
9447.1128
9322.4411
9178.1049
9016.9808
8859.2942
8731.9946
9128.4396
9141.6281
9115.0788
9077.224
9019.293
8949.4193
8867.6236
8773.5077
8677.4313
8723.0638
8770.4148
8746.4279
8739.9738
8712.4653
8681.8413
8645.2805
8598.9352
8535.9811
8409.2489
8444.973
8431.8468
8439.3645
8425.535
8411.4243
8394.4376
8374.8487
8337.2861
8158.1239
8178.0757
8164.6121
8173.8799
8162.8295
8155.5331
8143.1414
8133.6572
8109.1463
7959.4544
7964.7218
7953.8837
7953.4749
7943.9286
7936.8984
7924.4374
7918.0894
7900.5944
7781.556
7781.7161
7767.5187
7767.1842
7753.6012
7747.8771
7733.7201
7727.2639
7712.6005
7619.7885
7611.258
7600.6569
7593.3009
7581.5069
7572.6713
7560.2722
7551.3613
7537.5881
7383.5818
7238.6507
7085.3375
6915.2621
6725.4997
6493.1078
6217.0429
5880.0288
5630.6271
7396.0637
7249.7585
7094.2331
6921.2909
6724.5046
6488.2731
6203.3745
5871.6207
5573.7966
7402.2412
7255.6554
7095.5855
6920.4387
6715.565
6475.1079
6177.3607
5844.7972
5496.5665
7414.6769
7264.5322
7103.8289
6922.9234
6715.5969
6465.7503
6158.2564
5803.6741
5403.523
7421.0535
7271.8179
7107.8201
6926.9554
6714.8002
6460.061
6140.2143
5755.5107
5305.1795
7434.1234
7281.0998
7117.3409
6932.9825
6718.2199
6458.3698
6126.8558
5709.1321
5206.942
7439.4827
7289.595
7123.4952
6941.7115
6723.4817
6464.9574
6121.0872
5680.9492
5128.6323
7451.8774
7298.141
7132.1827
6946.3171
6731.1779
6465.164
6122.9324
5654.1316
5102.764
7463.225
7312.5713
7147.0314
6965.0106
6749.3487
6492.8048
6143.9975
5683.0353
5045.2637
5634.9399
5798.8332
6059.4088
6272.7907
6420.9325
6538.7448
6657.5461
6786.2472
6920.0217
5545.4761
5720.1731
6025.0798
6259.1611
6410.6356
6531.4786
6653.8682
6786.4822
6924.3
5431.8368
5637.9991
6000.3645
6250.5702
6400.6036
6524.3735
6650.852
6786.469
6926.6964
5294.4494
5550.1636
5973.5595
6239.5212
6390.488
6521.3153
6653.1832
6791.6865
6934.3568
5125.8725
5463.5582
5941.2385
6213.8545
6365.8928
6503.0111
6641.9944
6784.4204
6930.7768
4875.6255
5418.0811
5958.0671
6224.1787
6374.4395
6514.486
6654.0774
6796.2298
6941.8831
4508.6487
5257.5235
5900.6405
6175.54
6337.235
6489.3854
6637.5307
6784.3419
6933.7254
4179.6061
5321.3942
5954.4751
6194.8727
6354.9758
6505.4816
6650.5534
6795.2143
6943.1124
3200.5808
5164.7746
5922.0594
6160.5667
6334.1304
6493.3904
6643.1681
6789.2448
6938.567
7055.8105
7200.0491
7353.8693
7513.5708
7697.5233
7888.8
8075.2594
8266.2261
8405.1158
7062.861
7209.3215
7365.4465
7527.21
7711.3218
7910.5583
8100.6682
8307.5141
8453.7346
7068.7729
7217.0788
7376.3828
7540.8645
7727.1357
7931.5737
8127.7412
8349.7588
8507.4188
7076.4405
7227.8048
7388.7396
7553.3473
7744.1376
7950.9932
8154.7983
8394.7044
8570.9683
7076.3385
7228.6031
7394.3604
7562.1184
7755.3173
7968.087
8177.225
8436.6205
8647.8703
7086.4178
7241.1215
7404.7747
7574.3429
7768.4504
7983.8148
8199.9179
8476.1202
8731.0799
7080.7689
7235.7411
7403.8475
7574.4792
7774.7055
7987.6718
8215.8168
8506.5746
8797.6893
7089.0712
7246.6799
7410.9416
7583.88
7782.4638
7999.6181
8230.1747
8527.8306
8850.3643
7086.097
7243.2202
7408.3734
7581.3461
7784.2125
7998.1982
8232.7199
8537.2733
8866.954
8417.1723
7663.9365
6218.7153
5583.4796
6235.9109
6865.5004
7193.0524
7457.9614
7234.9865
8581.5293
7779.8192
6121.7082
5379.7844
6099.5793
6802.3355
7182.595
7449.7066
7025.2083
8760.3621
7933.8075
6026.774
5247.3575
6054.4744
6757.3483
7192.4581
7456.1806
6947.2336
8897.3031
8142.3043
6023.286
5181.5089
6004.2239
6707.189
7152.2687
7422.7627
6775.7053
9004.3917
8354.423
6151.5103
5203.8815
5990.46
6666.3016
7172.8722
7519.5077
6730.7589
9101.5368
8570.7373
6375.3676
5325.6295
6026.9025
6628.8717
7101.9635
7437.5257
6741.3081
9184.8976
8799.4906
6609.6189
5544.4611
6060.4998
6615.5244
7098.546
7468.6996
6800.4089
9255.2947
9017.3631
6846.4995
5722.4495
6097.1094
6599.6315
7062.5878
7407.372
6820.856
9280.5614
9066.5907
6960.524
5816.8474
6119.3459
6603.5828
7071.8723
7417.6509
7359.8768
8630.8764
9207.063
9080.993
8800.4484
8451.7267
8088.7192
7743.1141
7384.8843
7038.0483
8612.7387
9271.2602
9168.1814
8887.5934
8527.6145
8161.9565
7803.7841
7440.073
7090.3054
8545.9519
9314.6346
9248.1829
8971.8777
8604.5226
8235.1228
7863.7715
7496.3074
7142.552
8462.8303
9346.8004
9328.0965
9056.687
8683.0838
8308.577
7924.2894
7553.8107
7190.9137
8374.8723
9366.591
9403.0116
9137.755
8757.9881
8380.2591
7986.9216
7614.8747
7249.1592
8349.0432
9369.0405
9468.558
9214.6958
8831.1783
8447.9493
8034.818
7660.1273
7284.8931
8264.7362
9346.9328
9514.9585
9282.3513
8906.7647
8526.5896
8109.802
7731.2173
7356.2875
8157.8613
9316.7347
9546.5096
9329.8711
8949.0209
8564.1569
8135.6153
7757.7238
7372.5573
8004.2076
9232.2342
9548.3309
9388.1513
9028.9202
8651.26
8222.4707
7840.266
7454.115
6690.2168
6347.6104
6004.3226
5656.9386
5301.6811
4931.2869
4550.5855
4154.0407
3745.0821
6740.4023
6393.1412
6048.0746
5695.6532
5341.168
4968.7748
4589.6339
4189.9593
3783.2644
6791.9275
6442.323
6096.0333
5743.0203
5388.7168
5018.1614
4640.505
4243.9919
3840.2943
6840.2397
6484.9231
6140.7555
5782.5113
5431.4552
5057.7985
4685.1015
4287.33
3888.2335
6894.2099
6537.7723
6190.437
5834.9902
5479.866
5110.6712
4734.9974
4341.5293
3941.2698
6933.2561
6568.2249
6224.5151
5863.0657
5512.9432
5139.9286
4769.8943
4376.2401
3978.0487
7000.9256
6637.533
6291.3508
5930.8531
5578.0489
5207.9386
4835.1359
4446.5538
4044.9561
7019.2192
6648.402
6305.0352
5941.4928
5591.736
5219.8635
4850.2968
4462.3969
4061.3424
7099.7848
6729.0006
6384.1032
6021.3214
5671.147
5301.655
4931.5947
4550.0005
4145.2903
3263.2853
2745.6969
2166.0516
1693.7894
1163.786
603.12545
-304.13711
-1961.058
-4379.1534
3299.8258
2808.3261
2245.3084
1785.6056
1283.1337
779.01624
-5.0792755
-1600.035
-4048.1733
3364.2603
2884.0832
2335.0981
1842.9181
1321.1574
764.64665
63.371351
-1391.7273
-3592.9251
3419.1683
2951.0042
2421.5417
1915.6973
1397.6185
843.2359
174.49921
-1132.7673
-3025.5602
3480.8026
3017.4166
2512.5841
2006.2916
1494.3744
945.25683
317.0715
-812.60844
-2296.783
3531.376
3073.0009
2592.7025
2086.4322
1576.0455
1028.5081
432.06801
-526.56626
-1425.1079
3609.3843
3154.4555
2703.325
2205.2625
1708.2787
1142.0816
615.0311
-360.77678
-288.87276
3639.512
3186.6761
2748.6913
2264.0307
1766.0424
1217.695
591.93038
-72.004477
-610.58353
3738.457
3300.9171
2893.9056
2430.6784
1973.5911
1453.8536
950.46888
-494.29134
3594.3748
-6562.6208
-9068.1404
-10990.011
-10335.015
-10313.649
-10285.004
-10256.37
-10207.906
-8134.0522
-6505.5151
-9335.4859
-11003.517
-10221.699
-10193.666
-10126.431
-10044.895
-9981.8396
-8017.7984
-6575.6596
-9672.7425
-10864.797
-10102.044
-10267.664
-10237.601
-10055.274
-9764.4504
-7882.228
-6800.4801
-9991.9436
-10643.258
-10073.369
-10260.382
-10137.709
-9963.1874
-9583.406
-7763.183
-7123.817
-10240.607
-10255.345
-10034.486
-10257.672
-10160.762
-9917.2368
-9387.4258
-7641.2779
-7015.6928
-10161.331
-10087.558
-10085.925
-10222.584
-10113.643
-9847.1293
-9211.3479
-7499.4792
-6161.3942
-9849.9117
-9978.448
-10070.285
-10207.909
-10067.825
-9751.058
-9006.1227
-7360.1411
-6859.4132
-10463.151
-9851.9563
-10158.536
-10185.06
-10010.697
-9683.4027
-8843.9173
-7236.4532
-17403.26
-8425.3909
-10178.181
-10123.541
-10133.229
-9921.621
-9548.1703
-8672.162
-7154.4279
-6155.2179
-5692.3472
-5419.2192
-5307.0382
-5373.2173
-5675.2581
-5816.5042
-5617.1203
-5252.7371
-6226.3994
-5627.0529
-5323.8099
-5194.3114
-5261.4214
-5497.1184
-5701.0706
-5502.0271
-5205.2514
-6238.3269
-5602.8595
-5319.9435
-5200.5377
-5277.2805
-5452.703
-5607.6499
-5380.4232
-5129.3465
-6204.1224
-5553.7519
-5279.6433
-5169.0746
-5250.9877
-5386.7578
-5508.8391
-5276.6112
-5072.8116
-6142.3249
-5490.4461
-5222.6163
-5118.5895
-5199.659
-5313.2756
-5427.5762
-5189.4845
-5021.3898
-6067.2703
-5430.2188
-5168.8772
-5076.5292
-5160.0586
-5269.7133
-5354.5367
-5116.3232
-4974.6593
-5991.3104
-5380.7781
-5125.7527
-5047.1171
-5137.9915
-5257.8201
-5292.6899
-5042.4462
-4921.876
-5941.4923
-5346.4399
-5092.1569