/*--------------------------------*- C++ -*----------------------------------*\
  =========                 |
  \\      /  F ield         | OpenFOAM: The Open Source CFD Toolbox
   \\    /   O peration     | Website:  https://openfoam.org
    \\  /    A nd           | Version:  11
     \\/     M anipulation  |
\*---------------------------------------------------------------------------*/
FoamFile
{
    format      ascii;
    class       volScalarField;
    location    "0.3592368";
    object      Ma;
}
// * * * * * * * * * * * * * * * * * * * * * * * * * * * * * * * * * * * * * //

dimensions      [0 0 0 0 0 0 0];

internalField   nonuniform List<scalar> 
880
(
1.118016635923817
1.118016634793396
1.117913276001987
1.101702450652591
1.118016635922823
1.118016632481563
1.117870538232976
1.096268952684209
1.118016635905756
1.118016621504525
1.117737694984017
1.089039106145796
1.118016635824109
1.118016566726363
1.117400358173606
1.069555034873556
1.118016636535325
1.118016634945924
1.118016603634227
1.118016146180499
1.118016282136412
1.118014695878804
1.118008386292936
1.118021818271873
1.116457611823636
1.115369356986613
1.113824343280275
1.113109208634413
1.03131834088919
0.9943406194905721
0.9723373581676924
0.9700771240536112
1.118010992311999
1.117995259499277
1.117968926976924
1.117859299362448
1.11790255523434
1.117468088878512
1.116770904090156
1.11550763425536
1.104434009448465
1.097435422732631
1.088274505433951
1.079903860231969
0.9590689817891811
0.9591348289787031
0.9575133557118866
0.9810533917376573
1.04005293847055
1.07562413988016
1.089969111809123
1.10439302815179
1.065631476226027
1.065218845857927
1.069326045890157
1.077707209867012
1.111148983912375
1.105552530930077
1.100432630003875
1.097672969551504
1.117316742298617
1.116401024364707
1.115078550817346
1.113440621558401
1.111890028738872
1.110735855537623
1.109985255772068
1.109839861578767
1.097061267294378
1.098711948630378
1.10251466330534
1.107802374928804
1.086124682569656
1.096163840096342
1.105646873904306
1.113536359483445
1.11164589604277
1.119220120561052
1.123416398791944
1.126389433275132
1.128791704385556
1.12090642426804
1.113436769704586
1.109951852575008
1.079488404003593
1.125822920538986
1.120187559821565
1.110313847975615
0.8046092001080045
1.115050319160439
1.125647102387183
1.111386037764124
0.5734021291410203
1.037970477129558
1.125572385611048
1.113023919124225
1.113322263055529
1.121409686810434
0.9542268450157103
0.5177891726336855
1.108802763809896
1.108874237547954
0.8848679027331127
0.554942279980803
1.106523922979884
1.080245743600202
0.8075033183054915
0.574615840672447
1.100895343628244
1.033508764773654
0.7627562734526437
0.6140858794261425
0.6624720696491507
0.7509872518625503
0.9748978798234316
1.089463199787303
0.7143565387022371
0.7749388092486822
0.9219138204756019
1.069247227773913
0.7674917258846153
0.8176036470660946
0.905347406924628
1.037925004234108
0.8151715115144337
0.8746825057552582
0.9234562457723721
1.006074098573946
0.9854177945431244
0.9755968330492005
0.9503709631543288
0.8753676870698258
1.009918740321533
1.039760880493661
1.036596418048334
0.9571065347948884
1.038619882899685
1.101927474240479
1.127949919005714
1.064399566931064
1.064422633136754
1.149828341487723
1.216003273047742
1.193061225400116
1.084293415116672
1.191061488100292
1.30572721079338
1.394838439830324
1.109067321627073
1.221506545170227
1.366104330264518
1.585975700255602
1.124974590357254
1.226892730555132
1.411600561639552
1.77490094478119
1.134437145069805
1.212808920168141
1.386974436942007
1.945085500119423
1.7174679121004
1.321801681270662
1.201073654950722
1.140474679364855
1.181735260885566
1.275075591462276
1.188874933126212
1.140462038480187
1.0275358619138
1.252846789838225
1.179570124984728
1.136956841751487
0.8788723677628097
1.215799081817416
1.165457370774504
1.132923356745275
0.8055052346064192
1.162030439018034
1.142392769842179
1.125675221472496
0.7301838364700638
1.092243223603297
1.11713987442277
1.118953335604102
0.6969523466866053
1.041879391891586
1.105959205598418
1.117614324679629
0.6807083894449282
1.033195255465114
1.106960106369127
1.117614702570811
0.6500031186644589
0.9389514995205257
1.069465130923882
1.113028226431174
0.6571821026614423
0.9372231948175231
1.069604538360861
1.112891528560178
0.6852837752635451
0.9362568991294605
1.070400584131313
1.112842111543247
0.7090128428848594
0.9439657753846719
1.073784172115607
1.113118055361726
0.6807083894450016
1.033195255466651
1.106960106374293
1.117614702576075
0.6969523466862975
1.041879391896491
1.1059592056018
1.117614324686331
0.7301838364720472
1.092243223605129
1.117139874423698
1.118953335606231
0.8055052346075914
1.16203043902546
1.142392769843528
1.125675221472101
1.1404746793632
1.201073654950489
1.321801681271709
1.717467912100141
1.14046203848086
1.188874933126487
1.275075591465116
1.181735260891142
1.136956841748275
1.179570124981377
1.252846789843709
1.02753586191088
1.13292335674077
1.165457370770598
1.215799081819454
0.878872367766152
1.945085500115143
1.386974436941067
1.212808920167914
1.134437145068369
1.774900944782149
1.411600561641468
1.22689273055597
1.124974590358188
1.585975700256491
1.366104330258598
1.221506545170757
1.109067321620751
1.394838439827309
1.305727210795122
1.191061488106349
1.084293415110413
0.9854177945392609
0.9755968330462662
0.9503709631520464
0.8753676870704379
1.009918740321359
1.03976088049416
1.036596418045346
0.9571065347954659
1.038619882902165
1.101927474242132
1.127949919003422
1.064399566930367
1.06442263313504
1.149828341491264
1.21600327304903
1.193061225397741
0.8151715115150456
0.8746825057566234
0.923456245770565
1.006074098567363
0.7674917258859814
0.8176036470677043
0.9053474069239141
1.03792500423297
0.7143565387025526
0.7749388092512393
0.9219138204765109
1.069247227769509
0.6624720696500324
0.7509872518620418
0.9748978798191855
1.089463199786995
1.113322263057463
1.121409686811501
0.9542268450164311
0.5177891726356502
1.10880276380512
1.108874237547245
0.8848679027341274
0.554942279982672
1.106523922971975
1.080245743593029
0.8075033183071811
0.5746158406738172
1.100895343626056
1.033508764773227
0.7627562734548762
0.61408587942638
1.113023919123355
1.111386037765805
1.110313847971368
1.109951852574456
1.125572385615377
1.125647102390597
1.120187559816917
1.113436769704435
1.037970477134774
1.11505031916175
1.125822920542422
1.120906424269378
0.5734021291439361
0.8046092001110507
1.079488404001022
1.128791704385278
1.109839861575811
1.107802374925069
1.113536359482512
1.126389433277716
1.109985255775318
1.102514663303755
1.105646873907239
1.123416398793142
1.110735855537105
1.098711948629868
1.096163840096754
1.119220120564071
1.111890028741722
1.097061267296689
1.086124682570693
1.111645896043269
1.117316742299373
1.111148983917468
1.065631476226915
1.040052938470781
1.116401024365913
1.105552530933959
1.065218845859055
1.075624139883345
1.115078550811887
1.100432630010982
1.069326045891674
1.08996911181638
1.113440621559763
1.097672969551965
1.077707209871756
1.104393028154606
0.9810533917386215
1.079903860230616
1.115507634258751
1.117859299361426
0.957513355713146
1.088274505433296
1.116770904093215
1.117968926978572
0.9591348289812655
1.097435422735342
1.117468088886933
1.117995259498235
0.95906898178799
1.104434009452168
1.117902555238202
1.11801099231296
0.970077124052933
1.113109208633544
1.118021818273293
1.118016146178374
0.9723373581658712
1.113824343280776
1.118008386294638
1.118016603631811
0.9943406194844988
1.115369356987866
1.118014695879687
1.118016634947369
1.031318340879371
1.11645761182707
1.118016282143576
1.118016636532614
1.118016635923625
1.118016634792657
1.117913276001768
1.101702450651459
1.118016635921967
1.118016632485307
1.117870538230817
1.096268952676823
1.118016635905015
1.118016621508175
1.117737694984811
1.089039106129725
1.118016635822624
1.118016566728597
1.117400358173753
1.069555034860518
1.090021677000048
1.079809059661637
1.058234371203352
1.008455668899619
1.079809059670704
1.064150175899367
1.027795879364607
0.9529328271995184
1.058234371222502
1.027795879380268
0.9622076529478286
0.859108925046402
1.008455668916434
0.9529328272240273
0.8591089250576036
0.751544791170403
0.7259576984022862
0.7634725215302414
0.8354129551543866
0.9069054469075782
0.7808836563588375
0.7857142059626113
0.8156860865830533
0.8610032124691458
0.768336699419189
0.8085906576806832
0.8384373357200742
0.8598143855226434
0.8035043110758677
0.8475334631047678
0.8694712803381034
0.8807778827961363
0.89665170860428
0.9095155565831693
0.9296245399805925
0.9684914539881838
0.8949917727459146
0.9106167618876966
0.9352850526976279
0.9903471143444604
0.8839067701005007
0.90812202506109
0.9365981184186845
1.054092793330522
0.8334665565833318
0.8609969173632674
0.8995069153905639
1.141561274952404
1.149102467132729
1.190190901916688
1.16224469741972
1.155848564252132
1.270483980754948
1.298132376964978
1.245480109673693
1.213594606121205
1.425516254626248
1.363578704065057
1.297061859472271
1.251312298192174
1.160550744743565
1.101036126118131
1.087576988398704
1.089678543828273
1.158622180625065
1.159546478217638
1.157141423331526
1.153222314266799
1.197679642839991
1.1829754378155
1.168754162182201
1.156244001268908
1.223635934005068
1.198458583297554
1.175102931415193
1.153896782639392
1.088935262636544
1.078628087267882
1.068265693052535
1.050980808762098
1.122112665459917
0.8700078101618729
0.5643527008165847
0.3648324187827701
1.090917342288672
0.6976073121375208
0.3661615221404309
0.1741346403805488
1.032832167072957
0.5043323089818038
0.1475397574277273
0.03135640527335164
0.8517541088884107
0.3004577234543155
0.02332765105468662
0.1011549483463522
0.3408967273055798
0.4415098696383173
0.5060773939650073
0.5696200355773248
0.2433971778378083
0.3991279296215119
0.4925655092964167
0.5666272985516181
0.1101835938172047
0.3087570926531196
0.4557143932088049
0.5501830912048812
0.009858368926306798
0.1609764366898921
0.325101575534564
0.4612704013945739
0.643790488646438
0.7091239727328233
0.7653465747586825
0.8044258201577668
0.6372076966792056
0.7038036886019947
0.7599633330884092
0.7996773113341933
0.6207890975255052
0.6914817860692178
0.7536164798755695
0.7976351486963478
0.5749316439844
0.6673099036835758
0.7485514655257742
0.7963442386637396
0.8505505582898346
0.9213130373712658
1.016684315149098
1.130832632891879
0.8424438255082691
0.9072173692068256
0.9950904278063282
1.146749101993404
0.8386700375194566
0.8955816477250523
1.009277004210168
1.46524804046654
0.8366964267613398
0.8901270625861261
1.035239395333626
2.043035139861306
1.358004722264466
1.50274874919658
0.7466995290595252
1.540920147017013
1.440689377696539
1.291889844368054
1.120956495636729
1.900700106564155
1.484631295153638
0.9245294196696161
1.36456587699602
1.930169334744646
1.143592160665608
0.4372446776434493
1.650015423330566
1.86418714164668
1.320037646669929
0.8907136592025744
0.6860951702486877
0.4518949355083702
1.399964730480872
0.9917613397449819
0.7130727558808885
0.3512413139589733
1.338002093952987
0.9695935379824
0.6147487478823346
0.235462320734346
1.275456949172023
0.9266907328292654
0.555167914228435
0.179007579594266
0.3129844254129378
0.09002068000828933
0.1519493026303903
0.3539365470786184
0.3575713807775538
0.2740410527509786
0.06743383510179488
0.2737553718041298
0.325357756860461
0.3765570177158106
0.2087417481734104
0.1802077538398418
0.256382602584518
0.3770762293725757
0.287502334740875
0.05460670137432096
0.3303605924384222
0.3633315057585926
0.3674637146645292
0.3665532020382712
0.3127503693222478
0.2977534248281701
0.3017553625578646
0.2879387444281061
0.2125387231357234
0.1577227106639589
0.1531273903458944
0.1300854615607318
0.1153210500495981
0.06703073852994877
0.08520572517269602
0.08051730940437049
0.06427354048374877
0.06053892121757802
0.05568792933823857
0.0494632379307959
0.08590528536164588
0.03554134893922753
0.01249085264051612
0.03216403718607527
0.234343107010718
0.1729330534837815
0.1018678145902384
0.04156759983135033
0.3263175861913733
0.2781432041765346
0.2178994391063357
0.1782787716915371
0.04946323793054718
0.03216403718609397
0.04156759983117384
0.1782787716914033
0.05568792933758655
0.01249085264065794
0.1018678145902744
0.2178994391070786
0.06053892121698225
0.03554134893939404
0.1729330534837327
0.2781432041772871
0.06427354048329721
0.08590528536189326
0.2343431070106012
0.3263175861916862
0.3665532020367457
0.3674637146640292
0.3633315057580239
0.3303605924380102
0.287938744428092
0.3017553625577693
0.2977534248279445
0.3127503693218157
0.1300854615607262
0.1531273903456873
0.1577227106640463
0.212538723135506
0.08051730940439478
0.08520572517307409
0.06703073853046639
0.1153210500501184
0.05460670137399456
0.2875023347385571
0.3770762293700525
0.2563826025828888
0.1802077538397375
0.2087417481722458
0.376557017712751
0.3253577568566132
0.2737553718040018
0.06743383510112731
0.2740410527475029
0.3575713807739411
0.3539365470787022
0.1519493026317945
0.09002068000436016
0.3129844254072121
0.4518949355035478
0.6860951702490584
0.8907136592172445
1.32003764665557
0.3512413139560952
0.713072755879353
0.9917613397506463
1.399964730480134
0.2354623207331235
0.6147487478805825
0.9695935379849028
1.338002093954062
0.179007579594413
0.5551679142291706
0.9266907328289956
1.275456949172583
1.540920146974265
0.746699529055588
1.502748749194893
1.358004722264956
1.900700106548342
1.120956495646046
1.291889844370606
1.440689377693276
1.930169334748063
1.364565877003627
0.9245294196655859
1.484631295149435
1.864187141650846
1.650015423341235
0.4372446776440426
1.143592160664117
1.130832632890719
1.01668431514773
0.9213130373724037
0.8505505582887647
1.146749101994295
0.9950904278074105
0.9072173692063258
0.8424438255102978
1.465248040463373
1.009277004209547
0.8955816477205568
0.8386700375194641
2.04303513985614
1.035239395335461
0.8901270625829529
0.8366964267619903
0.8044258201590128
0.7653465747598515
0.7091239727321862
0.6437904886476036
0.7996773113346756
0.7599633330882933
0.7038036886031114
0.6372076966797583
0.7976351486950151
0.7536164798764792
0.6914817860691594
0.620789097525498
0.7963442386653589
0.7485514655257114
0.6673099036834589
0.5749316439840454
0.5696200355782071
0.5060773939666964
0.4415098696381132
0.340896727305959
0.5666272985519089
0.4925655092982802
0.3991279296223926
0.2433971778385516
0.5501830912049496
0.4557143932095178
0.3087570926536074
0.1101835938180551
0.4612704013938968
0.3251015755336257
0.1609764366902661
0.009858368926517692
0.3648324187837571
0.5643527008191239
0.8700078101626574
1.122112665457721
0.1741346403814217
0.3661615221428844
0.6976073121399917
1.09091734228671
0.03135640527275513
0.1475397574293507
0.5043323089843459
1.032832167070814
0.101154948346323
0.02332765105479456
0.3004577234551403
0.8517541088852849
1.153222314265665
1.157141423335822
1.159546478223787
1.158622180631205
1.156244001266888
1.168754162182815
1.18297543782054
1.197679642843466
1.153896782636929
1.175102931414543
1.198458583302312
1.223635934008914
1.0509808087578
1.068265693053767
1.078628087270829
1.088935262641833
1.155848564257026
1.162244697426682
1.190190901915229
1.149102467131728
1.213594606127453
1.245480109680639
1.298132376963839
1.270483980754533
1.251312298198763
1.297061859479174
1.363578704063419
1.425516254626804
1.08967854382898
1.087576988404247
1.101036126117165
1.160550744746
0.9684914539885273
0.9296245399807422
0.9095155565799867
0.896651708602719
0.9903471143433946
0.9352850526950494
0.910616761885595
0.8949917727434613
1.0540927933323
0.9365981184185267
0.9081220250560235
0.8839067700962278
1.141561274951907
0.8995069153877745
0.8609969173604231
0.8334665565793073
0.8807778827942436
0.8598143855215498
0.8610032124635636
0.9069054468956684
0.8694712803370274
0.8384373357134244
0.8156860865764457
0.8354129551420326
0.8475334630998017
0.808590657673006
0.7857142059537169
0.7634725215214246
0.8035043110714971
0.7683366994123276
0.7808836563509437
0.725957698398731
0.6232858520377947
1.002704969045651
1.099020452709821
1.11667332508688
0.6574120088638701
0.9785209054763674
1.091855004635824
1.115850663905032
0.6902730908874922
0.9705187926700107
1.085819101625339
1.114840351452346
0.7062584183613069
0.9574420268871811
1.079432565415748
1.113852788884052
1.113028226429759
1.069465130922987
0.9389514995204035
0.6500031186613257
1.112891528560761
1.069604538361338
0.9372231948185286
0.6571821026624198
1.112842111544525
1.070400584131947
0.93625689913044
0.6852837752629727
1.113118055364364
1.073784172117434
0.9439657753853326
0.7090128428829805
1.113852788886889
1.114840351449274
1.115850663908668
1.11667332509252
1.079432565419547
1.085819101627066
1.091855004642029
1.099020452717363
0.9574420268861374
0.9705187926729159
0.9785209054767513
1.00270496904503
0.7062584183607565
0.6902730908879848
0.6574120088637112
0.6232858520366137
)
;

boundaryField
{
    back
    {
        type            empty;
    }
    inlet
    {
        type            calculated;
        value           nonuniform List<scalar> 
16
(
1.118016635923817
1.118016635923327
1.118016635921991
1.118016635900154
1.118016636034887
1.118016635839496
1.118016624557549
1.11801645290762
1.118016452906819
1.118016624557002
1.118016635839877
1.118016636034292
1.118016635923624
1.118016635923231
1.118016635921705
1.118016635899328
)
;
    }
    front
    {
        type            empty;
    }
    top
    {
        type            calculated;
        value           uniform 0;
    }
    outlet
    {
        type            calculated;
        value           nonuniform List<scalar> 
16
(
1.111558666666688
1.111421972463315
1.111388412429732
1.111763571805575
1.116097221366488
1.115119994933451
1.113890146201712
1.112672677448701
1.111558666664781
1.111421972463472
1.11138841243095
1.111763571808174
1.11267267745115
1.113890146198549
1.115119994937191
1.116097221372178
)
;
    }
    bottom
    {
        type            calculated;
        value           uniform 0;
    }
    wall
    {
        type            calculated;
        value           uniform 0;
    }
}


// ************************************************************************* //
