/*--------------------------------*- C++ -*----------------------------------*\
  =========                 |
  \\      /  F ield         | OpenFOAM: The Open Source CFD Toolbox
   \\    /   O peration     | Website:  https://openfoam.org
    \\  /    A nd           | Version:  11
     \\/     M anipulation  |
\*---------------------------------------------------------------------------*/
FoamFile
{
    format      ascii;
    class       surfaceScalarField;
    location    "0.3592368";
    object      phi;
}
// * * * * * * * * * * * * * * * * * * * * * * * * * * * * * * * * * * * * * //

dimensions      [0 3 -1 0 0 0 0];

internalField   nonuniform List<scalar> 
1652
(
1.706212168242977
0.5337381654478366
-1.763034163104749e-13
1.172474003768358
0.5337381584212773
9.352518759442319e-13
0.6387445850867459
0.5335571551511309
5.608846720406291e-13
0.529169519691594
-8.919975869048358e-12
0.1057111333938214
1.706212168247671
1.067476330876201
1.172474005829474
1.067476302840355
0.6387502464866363
1.067105508738221
1.053469951834449
0.1085008289003503
1.706212168244342
1.601214496297513
1.172474013702331
1.601214386896027
0.6388068710917392
1.600473901168881
1.575038114841545
0.1089061391795454
1.706212168319533
2.134952661525118
1.172474043756352
2.134952228729215
0.6388942759545539
2.133493281039956
2.097351310145753
0.1052259113228721
2.651191214816933
1.723711780177983
3.16742976378223
1.723711779125779
3.683668090049948
1.723711851207427
1.723712858919336
4.19990697164932
2.651189460782144
1.207473399363326
3.167421594031927
1.207473287089181
3.683647048478079
1.207475968338027
1.207511808011966
4.199820705513295
2.649581366531334
0.6899954919965123
3.166040560124629
0.6888415076503438
3.682702433607145
0.6872903372971114
0.688724759631941
4.194525740447633
2.650874496455909
0.1168378883543273
3.273932041965027
0.04172462114483244
3.912955116108851
0.01811963063051741
4.554446488452397
0.01129148563113264
4.164891486904438
0.0350163968400099
4.12986113386668
0.03500481627044316
4.094845354757219
0.03485880922918505
0.0347832818667736
4.059708000085021
4.16498993356074
0.0697140216473236
4.130355905795032
0.06893656302874074
4.096344158167657
0.06750053343667545
0.06567961549668277
4.062546343614183
4.174765255989453
0.08242250544196961
4.160204187283103
0.07410492368828442
4.15294067804643
0.06155649607892938
0.05298177441664409
4.147974819204177
4.603056252912684
0.006229207882748389
4.647547379286517
0.005264138132656748
4.680683859687542
0.00663157141048798
4.712916916896739
0.007741204923944756
4.67036539778651
0.1044175316007001
-0.06872497132453059
4.585724729395338
0.1015335950762814
-0.0183818833828702
4.503680419565452
0.0966691623750669
-0.008941768454705984
0.08785845227981814
4.431572685946864
-0.00679681011255806
4.220096348323258
0.01360742930262071
4.275163044261101
0.02651443963770395
4.314339846917809
0.03726913600755138
0.04540989509832316
4.338142523445672
4.068844772097078
0.001073229391169828
4.081319771652201
0.002963611457130311
4.098854766627887
0.005655618188666889
0.009950133267703554
4.118433376981773
4.059561397887716
4.059934642904317
4.061254174144546
4.064432381210125
4.069795842909973
-0.01554493020645453
4.077679522311628
-0.02162146906140316
4.087623525283357
-0.02801782968399613
-0.0321080011120729
4.096917116532621
4.138847481084557
-0.05369591860699036
4.158817343034928
-0.06003535807827554
4.176997407505126
-0.06321993826795341
-0.06156520300232443
4.1909746917012
4.347633747966902
-0.07864940847631291
4.345713659766201
-0.06822783065076665
4.333663757424704
-0.05402392127906236
-0.04809064967639137
4.319208290414473
4.365059770544834
-0.007518745313325442
4.316425581623426
-0.005960748605637639
4.273216151981931
-0.003535227699112409
4.244284600710205
-0.002871871554283506
0.04263139939989674
4.228675188698183
-0.01747964930557772
0.05775052572476169
4.308730609250889
0.03447594883952376
4.199831993073714
4.101808838851686
0.04041916743967333
4.249423646784432
-0.1456631474991132
0.04760733770147285
4.301615652348831
0.0336834400997843
4.206144117471801
4.102832708395884
0.07818215233519044
3.985005265310795
-0.1400054978777617
0.0462715689515607
4.308885431511383
0.02810069090600198
4.211434230733302
4.098034066951478
0.1746609728006295
3.682274529438821
-0.04233666006862885
0.06565788474053008
4.316411099479686
0.02803771054796333
4.226445472657128
4.100476874626493
0.07033226488386535
3.979814317852874
0.1235564458643834
4.132435101618793
0.08027919192891431
4.217519051814216
3.560892454797042
0.147356600438452
0.06627760257843684
3.876832958402053
0.08925361220826616
4.042792233949955
0.008555108287533142
4.094876874634999
3.434666952377593
0.1118000009379942
0.05279820397063684
3.784938094564272
0.0184529257669952
3.955719597163529
-0.0701374152637384
3.934668873545874
3.332936841900356
0.05847371610398444
0.02148991683758861
3.705442360022422
-0.08849287878658052
3.861474161553603
-0.1185519880217941
3.745429478087884
3.239256883029673
0.02716044276466922
0.1401540007243864
3.155192383664215
0.00227267897832728
0.1880856727865184
3.58408679533931
0.0340268130245549
3.73448390939082
3.642165098091552
0.1485180262069185
3.077803361428214
-0.006619690388314559
0.255994724910234
3.472522443510333
0.1028850900053249
3.584916125811527
3.592148333093313
0.1404620010960993
2.995520783973568
0.002475136464981875
0.2945973799902447
3.346351562566693
0.1909914920550855
3.450091255378958
3.557358630306663
0.1099860785266596
2.89087110089258
0.01568640990018888
0.2666315198382012
3.221601737441862
0.2510976667361507
3.304257276652381
3.515471601479387
-0.2198605897792757
3.46440456556438
-0.1874176887199707
3.230011807627757
-0.04683133875822043
3.107244250209825
2.789610413702258
0.04415746543973831
-0.1620750997926987
3.402432578526831
-0.1271063204308934
3.139808273140386
0.001551435652352717
3.004997829592552
2.7073069411766
0.06647364941515888
-0.1025099180664215
3.328924491132374
-0.05274314618722142
3.057281022821814
0.06928483210919839
2.91161521705138
2.64131205466053
0.1219614737972639
-0.03597136463312822
3.224303264396723
0.03387160292747693
2.967053227106741
0.1556890639084287
2.819842089866851
2.569307884395192
0.2296405359588831
-0.3468344187370598
3.454812683804547
-0.5764961618793665
3.185793217821576
-0.7153241652173892
3.000044494010426
2.633113945942237
-0.7690707657820364
-0.3002088899302648
3.659650401815485
-0.5257819408776596
3.407276590084313
-0.6286982830752996
3.176611069682501
2.281262536251994
-0.2632236420461501
-0.2736586466215608
3.844644077357076
-0.4821409356728704
3.621429726262837
-0.5140375744845417
3.331024682100513
1.803006615987718
-0.02966566670515429
-0.2402594029871122
4.011167874596757
-0.4394777761880596
3.827813258003581
-0.3630685833841083
3.438905379326567
1.417729968429817
-0.01228122359321669
0.1576812952980859
1.459269921849552
-0.01047806892640926
0.2075843217913808
3.529869921598813
0.1042119978080467
3.938193895465084
4.062975803441741
0.1656293119539654
1.439676166574811
-0.00797889481668353
0.1877443431575126
3.625675748014642
0.09472376146345679
4.050909536121992
4.108048646221873
0.1503822330933775
1.343317390906307
-0.003393865914496925
0.1686298307981476
3.72321229200681
0.08924773796050678
4.160212894980903
4.149923872120509
0.119911298006832
1.25428164956879
0.002202923938476146
0.1500456662447739
3.816529678120733
0.08903423863770898
4.257715410716238
4.196625178880493
-0.2359527088103141
1.570203014126564
-0.01567251724922744
-0.1845878653392623
3.985441515410602
-0.04698229169064949
4.197996379640641
4.09771750064187
-0.264989653845677
1.927849004934432
0.005973952789142978
-0.1781053414596416
4.069002684881993
-0.03211435180560973
4.113303384870182
4.060050793012422
-0.2623646585996922
2.245156657765014
0.0335872785913728
-0.1344454419549813
4.102206306058166
-0.02063081074481721
4.067475893778853
4.056535976631146
-0.232130630720769
0.08786592474963364
2.498258068147286
-0.1113839778034104
4.099524216603408
-0.01648772234961871
4.039832445729319
4.0566913754208
0.337043686080662
-0.4386176431185163
-0.01287170871700198
5.617284415393442e-12
0.8928682224375797
-0.4130655314077845
-3.348432642269472e-13
1.633809951542985
-0.4646877976060706
7.500666754367558e-13
-0.5171012282992717
-1.258015913663257e-11
0.3341161014913305
-0.8918378199873453
-0.01277409848980058
0.906820871141212
-0.8655157594873306
1.634735767400283
-0.9425089978726544
-1.035759199747694
0.3307524753876395
-1.351361181781627
-0.0155802947754401
0.9266020574364126
-1.34337977499636
1.638843067369076
-1.451593531973277
-1.556743790500754
0.3240814928704468
-0.01607251489603563
-1.703816974616781
0.956780763238931
-1.851428424903833
1.647526692316348
-1.98387115891938
-2.082285710475288
-0.2321306307210833
-2.245156657768504
0.08786592474963718
2.498258068142553
-0.1113839777997723
-4.102206306060642
4.099524216604185
-0.0164877223458133
-4.067475893776457
4.03983244572832
-4.056535976624447
4.056691375416504
-0.2623646585982351
-1.927849004937727
0.03358727859204108
-0.13444544195773
-4.069002684893356
-0.02063081074652673
-4.113303384874682
-4.060050793017215
-0.2649896538470162
-1.570203014132392
0.005973952789445042
-0.1781053414622938
-3.985441515416135
-0.03211435181058198
-4.197996379641806
-4.097717500639397
-0.2359527088100305
-1.254281649570845
-0.01567251724899862
-0.1845878653434853
-3.816529678132966
-0.04698229169537327
-4.257715410716697
-4.196625178873073
-0.1042119978031924
4.062975803460442
-4.011167874621872
-0.2075843217791818
3.938193895487318
-3.82781325803383
-0.1576812952917821
3.529869921575915
-3.438905379296881
1.459269921821296
-1.417729968407618
-0.01047806892663713
-0.09472376145766326
4.108048646225322
-0.1877443431431442
4.050909536136103
-0.165629311948965
3.625675748002011
1.439676166564484
-0.007978894816805287
-0.08924773795501317
4.149923872114508
-0.16862983078063
4.160212894990226
-0.1503822330883371
3.723212292004531
1.343317390904614
-0.003393865914234805
-0.089034238630739
-0.1500456662286908
-0.1199112980017838
0.002202923938370661
0.3630685833878899
-1.803006615974563
-0.01228122359321627
0.4394777762030628
-3.331024682086757
0.2402594030023293
-3.621429726289079
-3.844644077376592
0.5140375744886425
-2.281262536239578
-0.029665666704399
0.482140935687435
-3.176611069677832
0.2736586466328809
-3.40727659010607
-3.659650401830671
0.628698283082559
-2.63311394593897
-0.2632236420449319
0.525781940892591
-3.000044494008189
0.3002088899404588
-3.185793217833071
-3.454812683810751
0.7153241652246263
-2.56930788439561
-0.7690707657839773
0.5764961618916727
-2.819842089868148
0.3468344187402432
-2.967053227113004
-3.22430326439596
-0.2198605897784082
3.464404565575816
-3.515471601494641
-0.1874176887133271
3.230011807643077
-3.304257276675185
-0.04683133875307788
3.107244250198918
-3.221601737423336
2.789610413692436
-2.890871100880929
0.0441574654365946
-0.1620750997852903
3.402432578533368
-0.1271063204227878
3.139808273148811
0.00155143565871485
3.004997829583627
2.707306941169061
0.06647364941550826
-0.1025099180639439
3.328924491135127
-0.05274314617949238
3.05728102282844
0.06928483211343228
2.911615217046922
2.641312054657414
0.1219614737967974
-0.03597136462865713
0.03387160293682279
0.1556890639115751
0.2296405359592342
0.1099860785294885
-2.99552078396249
0.01568640990093317
0.2666315198435977
-3.346351562557834
0.2510976667392443
-3.450091255393473
-3.55735863031799
0.1404620010987987
-3.077803361423404
0.002475136464688443
0.2945973799969188
-3.472522443507211
0.190991492059793
-3.584916125818865
-3.592148333100611
0.1485180262100319
-3.155192383657035
-0.00661969038956256
0.255994724916113
-3.58408679534281
0.1028850900049313
-3.734483909394365
-3.642165098093664
0.1401540007264129
-3.239256883031435
0.002272678977819576
0.1880856727944723
-3.745429478089168
0.03402681302842547
-3.861474161554374
-3.705442360020268
0.07033226488514488
3.979814317853911
-4.100476874624769
0.1235564458650175
4.132435101619575
-4.226445472655073
0.08027919193184774
4.217519051817942
-4.316411099482105
3.560892454800955
-3.682274529441492
0.1473566004371964
0.06627760258043935
3.876832958403595
0.08925361220932682
4.042792233952032
0.008555108289501345
4.094876874638603
3.434666952376883
0.1118000009360619
0.05279820397221935
3.784938094566051
0.0184529257743099
3.955719597167581
-0.07013741526369321
3.93466887355285
3.332936841900422
0.05847371610351082
0.02148991684000723
-0.08849287878130241
-0.118551988020823
0.02716044276523955
-4.098034066950996
-0.02803771054713844
-4.102832708397526
-0.02810069090507361
-4.10180883885313
-0.03368344009906177
-0.03447594883983973
-4.096917116533767
-4.211434230734659
-0.06565788474309792
-4.206144117470514
-0.04627156895216528
-4.19983199306846
-0.04760733770066189
-0.05775052572441403
-4.190974691696484
-4.308885431514789
-0.1746609727981332
-4.301615652351847
-0.07818215233386461
-4.308730609250523
-0.04041916744080387
-0.04263139939972016
-4.319208290415636
-3.985005265318586
-0.04233666006886394
-4.249423646785625
-0.1400054978784976
-4.228675188697104
-0.1456631474963982
-4.244284600710863
-0.01747964930545406
-0.03210800111058199
-4.087623525282023
-0.06156520300105689
-4.176997407500325
-0.04809064967507959
-4.333663757429082
-4.273216151982467
-0.002871871554903399
-0.02801782968505573
-4.077679522312136
-0.06321993826607608
-4.158817343029686
-0.05402392127717198
-4.345713659772325
-4.316425581621596
-0.003535227697133242
-0.02162146905971085
-4.069795842911484
-0.06003535807876137
-4.138847481078167
-0.06822783064973892
-4.347633747975512
-4.365059770544349
-0.005960748605870675
-0.01554493020350889
-4.064432381216312
-0.05369591860803835
-4.118433376974788
-0.07864940847600704
-4.338142523457408
-4.431572685948118
-0.007518745311872549
-0.001073229392986708
4.059561397888159
-4.059708000079606
-0.01360742930470221
4.068844772080229
-4.062546343594232
-0.1044175316043087
4.220096348339707
-4.147974819221822
4.670365397795783
-4.71291691690841
-0.06872497132437114
-0.00296361145965407
4.059934642904325
-0.02651443964278788
4.081319771638768
-0.1015335950796309
4.275163044274765
4.585724729402886
-0.01838188338386357
-0.005655618193900147
4.061254174146286
-0.03726913601652015
4.098854766615937
-0.09666916237920353
4.31433984693042
4.503680419569823
-0.008941768456445148
-0.009950133269829964
-0.04540989510224785
-0.08785845228263311
-0.00679681011232125
-0.05298177442163382
-4.680683859695644
0.007741204923553235
-0.06567961551000984
-4.152940678053542
-0.03478328187185953
-4.096344158159332
-4.094845354756494
-0.06155649608447783
-4.64754737929149
0.006631571410122772
-0.06750053344967488
-4.160204187282243
-0.0348588092323906
-4.130355905799017
-4.129861133874473
-0.07410492369535776
-4.603056252913767
0.005264138131810092
-0.06893656304055185
-4.174765255982905
-0.03500481627112584
-4.164989933579139
-4.164891486903201
-0.08242250544617263
-4.554446488435834
0.006229207884458687
-0.0697140216599218
-4.194525740433527
-0.03501639684348268
-4.199820705540224
-4.19990697165524
-0.6887247596300787
-3.912955116078605
0.01129148563160998
-1.207511808004153
-3.682702433595752
-1.723712858924754
-3.683647048495334
-3.683668090049987
-0.6872903372950644
-3.273932041932002
0.01811963063357491
-1.207475968330574
-3.166040560120371
-1.723711851208976
-3.167421594046081
-3.167429763785894
-0.6888415076499624
-2.650874496428079
0.04172462114114373
-1.207473287085424
-2.649581366530541
-1.723711779126114
-2.651189460786312
-2.651191214823039
-0.6899954919965029
-2.097351310133905
0.1168378883474471
-1.207473399363459
-2.13349328104518
-1.723711780188847
-2.134952228733427
-2.134952661529124
1.706212168246033
0.5337381654428741
1.172474003772974
0.5337381584279284
0.6387445850899723
0.5335571551525971
0.5291695196797086
0.105711133397394
1.706212168248594
1.067476330870286
1.17247400582972
1.06747630283969
0.6387502464872062
1.067105508744965
1.053469951824217
0.1085008289018462
1.706212168246498
1.601214496294725
1.172474013702215
1.601214386893771
0.6388068710909971
1.600473901171455
1.575038114841419
0.1089061391787282
1.706212168319974
1.17247404375396
0.6388942759516252
0.1052259113211278
0.1054762313314455
0.1054762313355875
0.1054653905049037
0.1079721214640642
0.1059225123215037
0.1078287807026729
0.1026793117758016
0.1077871429389815
0.1079721214615015
0.1054653905092348
0.1076782111868216
0.1076782111892717
0.1081688396413219
0.1066956984416199
0.09903951502643235
0.1111325192050192
0.1078287807037851
0.1059225123248744
0.1066956984421124
0.1081688396439936
0.106368071684021
0.1063680716841677
0.09589779569945756
0.1089243891494474
0.1026793117802412
0.1077871429408278
0.09903951502917099
0.1111325192068072
0.09589779570398634
0.1089243891489894
0.09567817550711782
0.09567817551209151
-0.03916483278001959
0.1340424888248588
-0.06253204148995911
0.1313125619281522
-0.08851462710380908
0.1359908569763126
0.1348760672029575
-0.005682167638966507
0.1388609451033772
-0.01617533695631307
0.1408669311669888
-0.02705988244421331
0.1458977497451097
0.1484336117963384
-0.0009897405386156688
0.1391852070817972
-0.007344039605863051
0.1464985168651302
-0.01313440638648361
0.1509051713221574
0.1525076705591415
-0.001218717533136682
0.1398031526346136
-0.006135057681128708
0.1507758097878245
-0.009219359369182556
0.1533082287803181
0.1538215466161403
0.1533031251275742
0.006169574844024028
0.1533720935821726
0.00494854203040207
0.1526201010616295
0.007183190272132212
0.006669560935034013
0.1537744863684614
0.1535206777463367
0.005391474952645248
0.1538379674948785
0.004325676737366169
0.1539161512305262
0.006914478102778454
0.003199577071325954
0.1574316302899031
0.1528814144947107
0.002725278556130861
0.1538629313865831
0.003033504321425351
0.1547047669854709
0.005885406339533439
-0.00975264819300492
0.1676840199859614
0.1419776380916302
0.144651557026979
0.1502910763798591
0.1404652905610999
0.1402989035249139
-0.05510089061329099
0.1310927852952327
-0.008870379507267795
0.1296687802690888
-0.006961205757894773
-0.006209408833786678
0.1296551021648562
0.1446496234616969
-0.04222971038837242
0.1388102828477417
-0.002739832621671129
0.1356409986388938
-0.00320940378663423
-0.003925131404936583
0.1339572782950811
0.151196466162495
-0.02570025981526236
0.1456023086617726
0.003129662698784536
0.1416372820474964
0.001326782392302439
8.870778073366559e-05
0.1382175718691871
0.1147562633493687
0.1181759178221387
0.1201040577820053
0.1208093903464358
0.1299200991428142
-0.006882546165344255
0.1308441708803499
-0.005824219959932347
0.1320144168758829
-0.003767094189243564
-0.003038498957287694
0.133120758788257
0.1327149695433469
-0.004747777013142607
0.1322448727463692
-0.004284426229275357
0.1322701020361888
-0.002830349197602555
-0.00252817858814916
0.132695116161621
0.1355128570383904
-0.001149127948352036
0.1336078684873875
-0.001296574226138075
0.132548734498491
-0.0007878404900895641
-0.001115505995361615
0.1321948689759126
0.1205604519539533
0.1203303106517673
0.120469151369112
0.1203652629059874
0.1377885825782416
-0.02482844866789743
0.134882690600637
-0.1505000638365951
0.1107597255425025
-0.1229661762439483
-0.01104208193606704
0.08051142474300198
0.1322028279401772
-0.02831610709836629
0.1023251887062233
-0.1270271973129601
0.056108273750268
-0.0814475980753594
-0.002616628504427732
0.04679675967929139
0.1239354071381495
-0.02441147077144568
0.05391284286844497
-0.06299656323371994
0.002564464448524068
-0.03524061663865591
-0.006634833048472066
0.004849269374440995
0.09095642661802943
0.02205319262713785
-0.01732382801566144
-0.02687791923197358
0.1047430420096364
0.1254179379126805
0.1177022199100951
0.1030275693731904
0.124591904748877
0.0575617554817266
0.02675346442882642
0.1298440356891085
0.08613657927661164
0.08814314610900509
0.1121676843279579
0.08104231563400321
0.1233710901903516
0.05040380725016003
0.02496195705220738
0.129595353794527
0.05318282807567622
0.0416487869934925
0.09764526131756984
0.04051994412271043
0.1175439163003078
0.03378398217088818
0.02014565403099267
0.126144238574303
0.0160635154299176
0.06047019329723133
0.09669641306694289
0.1200202702786372
0.1350665774489387
0.003068180405328524
0.1400249107009711
-0.006417269754822819
0.1434898165349752
0.001381567895907931
0.01112158502902094
0.1477709617126768
0.1347762862633023
0.0050547174195964
0.1395686699998505
-0.002603137793769972
0.1424688188878702
0.001754724294026566
0.00679503255772218
0.1464998287999001
0.1319896117380507
0.006205219156091957
0.1376970370121832
0.0001345688349841945
0.1417125857040326
0.001461528668241119
0.003119745829042841
0.1452932587325623
0.133096871818657
0.1388413022105637
0.1429867035102882
0.1462795284085165
0.1586638388027026
0.03178753247328592
0.1726591450462804
0.05121753022978115
0.1922475802298955
0.1023173508916221
0.1805135128921224
0.2412399829717751
0.1566728642888133
0.01993620311713507
0.1704611966237524
0.03610929161548293
0.1914989059363968
0.08113532191414136
0.1229080231680297
0.2492073486350919
0.1538903189802449
0.00977057369415002
0.1672302579269311
0.02141999375910297
0.1942631646641392
0.05345214017852223
0.03428845344207471
0.2830991295784743
0.1546647507473241
0.1746625362833041
0.2273712523120594
0.2615308826510797
0.1220014426409787
-0.6494854543842125
0.01214932139864012
-0.1526509416618944
-0.0025971297248452
-0.01384696299328046
-0.009765718906000344
-0.003860748144745184
0.08463897140136244
-0.4845210960988782
0.001807032320741507
-0.06912180659848781
-0.004315330979733037
-0.006799005441284573
-0.006316605836801634
-0.006748289915341983
0.04503313682817774
-0.2463298379954947
-0.002596044906304289
-0.02080255534905747
-0.005881493211723141
-0.002576872717343205
-0.003320587740089029
-0.008045784327245791
0.01517957353645052
-0.00492615370101787
-0.006659508549415718
-0.009082471570905502
-0.005367086546845038
-0.007899563055800897
-0.006842747739854946
-0.005047348947346413
-0.008519330732324155
-0.0008105189558161273
0.00353812898145665
-0.009128792785641137
-0.008192585462331922
-0.005611310550653302
-0.009147307377957277
-0.002763149997743963
-0.009653894948268313
0.000706620142382694
0.003168508103222743
-0.008476741225861799
-0.009688795305267161
-0.002882234246985535
-0.009469034381744457
-0.001545635238366896
-0.00870283937807317
0.000929067270542587
0.002634956142214595
-0.007328867896757012
-0.01079236790374956
-0.01094989189748782
-0.009120762811955714
-0.005723274765034285
-0.008421271479536334
-0.01576925612654676
0.001943062395858869
-0.002849552113616857
0.02247365835164578
0.01462025826804118
0.07047390875938238
0.04243668406345642
-0.009509116433419732
-0.01396207095784009
-0.007053814950434403
-0.003681847247392095
0.008908919057884698
4.068721485887827e-05
0.04770566203144629
0.03388586861260235
-0.0117676174116821
-0.008575100012983436
-0.01145453930780897
-0.002555893573458534
-0.003607442090231852
-0.006446016930788986
0.02557349984761323
0.02032664233073564
-0.01309200048382995
-0.01388668744604785
-0.01901299143960322
0.008975832619585879
0.04129062274974042
-0.006356777270179657
0.01063482222373209
0.03999948551203058
-0.007445413302615098
0.01126600107249877
0.03677233434870138
-0.01237320376282808
0.01704048386042973
-0.01696912846120697
0.02817981558043742
0.02546626705704438
0.0326645913496994
-0.003783853123246472
0.03078338293562687
-0.004784126438481237
0.02748567368604931
-0.008732202404381231
-0.01083079856370468
0.02109985827595438
0.01849761328723363
-0.001709175690112929
0.01641341999790587
-0.002220671131669356
0.01257209738032599
-0.004436996845188685
-0.005015162547975033
0.006837842476733913
0.00653315953797267
0.004582775047713636
0.0002902116374493627
-0.004408750077335016
-0.006411106207637129
0.002584399795214336
-0.006056249223256822
0.0007783977894488189
-0.003634258682236477
-0.0008802519326782769
-0.001874220785708744
-6.213085601558532e-14
0.00349586378474926
0.006009703839448197
0.001027974524591663
0.003639490235311037
-4.024466887302819e-05
0.0009232289330072772
-0.0009164614941662291
-2.696454171058349e-14
0.01669116305556455
0.01018022934500439
0.01132022872790883
0.008928126274448521
0.005680782934062413
0.006652553497273877
0.00507298126468617
1.694477891334145e-14
0.02173995463248844
0.01431335027032092
0.007707619231643814
5.657974089245954e-14
-0.001874220785713893
0.003634258682123491
-0.0009164614941702988
4.024466884244154e-05
0.005072981264691506
-0.005680782934024652
-0.007707619231522765
0.01287170871691159
-0.0008802519326727744
0.006056249223203074
0.0009232289330026941
-0.001027974524691166
0.006652553497314414
-0.01132022872800022
-0.01431335027028542
0.01277409848991053
0.0007783977894162582
0.006411106207483794
0.003639490235309614
-0.003495863784697385
0.008928126274558069
-0.01669116305558001
-0.02173995463249658
0.01558029477529711
0.002584399795286008
0.004408750077386087
0.006009703839446927
-0.006837842476812329
0.01018022934508003
-0.02109985827593157
-0.02817981558063475
0.01607251489588509
-0.03677233434862612
-0.01696912846101797
0.02546626705726864
-0.03999948551203594
-0.01237320376280787
0.01704048386039927
-0.04129062274974433
-0.007445413302597105
0.01126600107256107
-0.006356777270255062
-0.04243668406349305
0.01063482222373183
-0.02748567368608569
-0.01083079856372846
-0.03078338293557509
-0.008732202404433023
-0.03266459134974924
-0.004784126438520983
-0.00378385312331081
-0.03388586861268443
-0.01257209738038934
-0.005015162547938108
-0.01641341999788348
-0.004436996845114352
-0.01849761328737422
-0.002220671131719077
-0.00170917569013896
-0.02032664233081638
-0.0002902116374643229
-0.00458277504776123
-0.006533159538011903
-0.008975832619681462
0.01901299143947256
-0.02557349984767322
0.01388668744602998
0.006446016931084764
0.01309200048381571
0.002555893573400879
0.008575100012778003
0.005723274765054354
0.003607442090210335
-0.04770566203150016
0.01145453930773217
-4.068721509362105e-05
0.01176761741157268
0.003681847247298073
0.01396207095793517
0.007328867896769398
-0.008908919058021422
-0.07047390875941378
0.007053814950329536
-0.01462025826827797
0.00950911643332019
0.002849552113632942
0.0157692561262401
0.008476741225844011
-0.02247365835182871
-0.001943062395941254
0.008421271479358663
0.009128792785642329
0.008519330732330173
0.003538128981467051
0.006842747739929897
-0.0008105189557748825
0.005367086546900623
-0.005047348947483309
-0.007899563055853267
0.003860748144700521
0.009653894948260713
0.003168508103212071
0.009147307377995274
0.0007066201423626475
0.008192585462343334
-0.002763149997818938
-0.005611310550695931
0.00674828991534832
0.00870283937803823
0.002634956142228397
0.009469034381774655
0.0009290672706586886
0.009688795305273914
-0.001545635238435095
-0.002882234247024799
0.008045784327245285
0.009120762812013681
0.01094989189752358
0.01079236790377441
0.009082471570906272
0.002597129724818189
-0.009765718905923332
-0.01214932139812473
-0.01384696299302185
-0.1220014426400165
-0.1526509416612137
-0.6494854543848
-0.2412399829710804
0.004315330979775454
-0.006316605836725953
-0.001807032320557183
-0.006799005441184789
-0.08463897140069315
-0.06912180659824232
-0.4845210960988428
-0.2492073486349804
0.00588149321175203
-0.003320587740077297
0.002596044906374671
-0.002576872717297118
-0.0450331368278816
-0.02080255534893741
-0.2463298379954394
-0.2830991295784243
0.006659508549421773
0.004926153701049671
-0.01517957353639012
-0.2615308826512787
-0.1922475802299706
0.1805135128930525
-0.1726591450460997
0.1023173508931937
-0.1586638388028185
0.05121753023176168
0.03178753247461641
-0.1477709617127161
-0.1914989059362028
0.1229080231669172
-0.1704611966238492
0.08113532191364153
-0.1566728642886303
0.03610929161693988
0.01993620311592292
-0.1464998287998817
-0.1942631646638268
0.03428845344225268
-0.1672302579270554
0.05345214017937749
-0.1538903189799301
0.02141999376191561
0.009770573694726004
-0.1452932587327049
-0.2273712523114976
-0.17466253628385
-0.1546647507471271
-0.1462795284085586
-0.1434898165350173
0.01112158502900029
-0.1400249107008538
0.001381567895656799
-0.1350665774483815
-0.006417269754012356
0.00306818040508916
-0.1298440356890229
-0.1424688188879949
0.006795032556220604
-0.1395686699994074
0.001754724297008403
-0.1347762862629693
-0.002603137793666721
0.005054717419373356
-0.1295953537943889
-0.1417125857038134
0.003119745830905796
-0.1376970370118746
0.001461528667687895
-0.1319896117376372
0.0001345688349452256
0.00620521915654515
-0.1261442385742737
-0.1429867035103602
-0.1388413022104372
-0.1330968718184078
-0.1200202702784494
-0.1245919047490499
0.02675346442873838
-0.1177022199101033
0.05756175548154852
-0.1047430420098232
0.103027569372543
0.1254179379129385
-0.08051142474315563
-0.1233710901903913
0.0249619570516777
-0.1121676843279764
0.05040380724881
-0.08613657927694289
0.08104231563209896
0.0881431461102421
-0.04679675967940998
-0.117543916300234
0.02014565403111512
-0.09764526131784726
0.0337839821705771
-0.0531828280757741
0.04051994412424786
0.04164878699153163
-0.004849269374932935
-0.09669641306659484
-0.06047019329684898
-0.01606351543018836
0.02687791923247172
-0.1107597255429741
-0.01104208193608824
-0.1348826906010933
-0.1229661762445943
-0.1377885825784388
-0.1505000638355488
-0.02482844866755488
-0.1331207587885333
-0.05610827375062169
-0.00261662850527189
-0.1023251887068746
-0.08144759807577451
-0.1322028279404405
-0.1270271973125071
-0.02831610709807936
-0.1326951161618202
-0.00256446444873705
-0.006634833048271949
-0.05391284286905366
-0.03524061663869421
-0.1239354071384271
-0.06299656323364133
-0.02441147077128861
-0.1321948689760514
0.01732382801565059
-0.02205319262719717
-0.09095642661816063
-0.1203652629059465
-0.1320144168759571
-0.003038498956614982
-0.1308441708801575
-0.003767094188982439
-0.1299200991428567
-0.005824219960107374
-0.006882546165705189
-0.1296551021646985
-0.1322701020362449
-0.002528178587620278
-0.132244872746224
-0.002830349197134735
-0.1327149695432482
-0.004284426229533261
-0.004747777013077686
-0.1339572782950605
-0.1325487344983687
-0.001115505995129384