/*--------------------------------*- C++ -*----------------------------------*\
  =========                 |
  \\      /  F ield         | OpenFOAM: The Open Source CFD Toolbox
   \\    /   O peration     | Website:  https://openfoam.org
    \\  /    A nd           | Version:  11
     \\/     M anipulation  |
\*---------------------------------------------------------------------------*/
FoamFile
{
    format      ascii;
    class       volVectorField;
    location    "0.0615";
    object      U;
}
// * * * * * * * * * * * * * * * * * * * * * * * * * * * * * * * * * * * * * //

dimensions      [0 1 -1 0 0 0 0];

internalField   nonuniform List<vector> 
880
(
(25 -7.768126373978579e-16 0)
(25 -5.948761387411889e-16 0)
(25 -5.891826157121132e-15 0)
(25.00000012727756 -1.32355727314432e-07 0)
(25 1.210301178234613e-15 0)
(25 -1.444344181026425e-15 0)
(25.00000000000002 -1.601728499850069e-13 0)
(25.0000050181532 -1.597571753879586e-05 0)
(25 0 0)
(25.00000000000001 1.704590777240664e-15 0)
(25 -1.853391513317536e-12 0)
(24.99998104023864 -7.076314791789542e-05 0)
(25 0 0)
(25 -1.058794152545905e-15 0)
(25.00000000009771 -7.511301011640387e-11 0)
(24.99939896449157 -0.0009689540085144928 0)
(25 -8.027207981703019e-16 0)
(25 -7.81877754004319e-16 0)
(25.00000000000001 -2.030430721401635e-14 0)
(25.00000000000002 1.116792234458344e-11 0)
(25 -1.419988807773712e-15 0)
(25 3.181916946790877e-15 0)
(25.00000000000003 1.025806813289776e-14 0)
(25 -2.365434970356812e-14 0)
(25.00000001327464 -1.097822457589151e-08 0)
(24.99999987725836 1.152868451093297e-07 0)
(25.00014081796439 0.0002548766324003603 0)
(24.99964766039503 -0.001037233282156887 0)
(24.96756661010593 0.03569866170839845 0)
(24.85613231642104 0.2025715510950461 0)
(24.78711556019144 0.4149758752706539 0)
(24.79793089670502 0.5491965208942163 0)
(24.99999996894791 -2.756377070657279e-08 0)
(24.99999994311546 -4.591349954799072e-08 0)
(24.99999992821489 -5.523701090055273e-08 0)
(24.9999999796045 -2.418532278675824e-08 0)
(24.999999441003 1.69323040786675e-06 0)
(24.99999959396893 2.771559571230581e-06 0)
(24.99999968567534 3.367416429492805e-06 0)
(24.99999901444468 1.347986033347751e-06 0)
(24.99950371761793 0.002168594128724406 0)
(24.99943479056811 0.002527186018189896 0)
(24.99948674946706 0.002896752618617137 0)
(24.99892478155149 0.00214533115877151 0)
(24.79919243661873 0.622242244310469 0)
(24.81291825864142 0.7053964054156683 0)
(24.83468178393518 0.7418511699937795 0)
(24.74395322897703 0.7931707230722184 0)
(24.97965367526189 0.8098109420059323 0)
(25.15175505181112 0.6425346517489704 0)
(25.20498582470753 0.3534177051346873 0)
(25.12705863145916 0.1388782587960291 0)
(24.99937807383177 0.005851809070461354 0)
(24.99979861597524 0.00667187118584711 0)
(25.00019338288833 0.005735705451083928 0)
(25.00083706155318 0.002548499063394881 0)
(24.99999916566732 9.906686181755831e-06 0)
(25.00000021884891 1.122534300392372e-05 0)
(25.00000104845631 9.300978153110075e-06 0)
(25.00000129634883 4.137618031265462e-06 0)
(24.9999997880587 -1.60328102237554e-07 0)
(24.99999975710567 -1.679949615794711e-07 0)
(24.99999980353649 -1.208582191250317e-07 0)
(24.99999991319283 -4.608917117892479e-08 0)
(24.99999998495639 -7.164281646194985e-09 0)
(24.99999999931499 -3.181905920798904e-10 0)
(24.99999999999998 -3.858626991358384e-12 0)
(24.99999999999999 -6.131603433957951e-14 0)
(25.00000038622482 7.310793135157169e-07 0)
(25.00000002587513 3.677762465527414e-08 0)
(25.00000000028705 1.40345274489816e-10 0)
(24.99999999998143 -8.232040007896331e-11 0)
(25.00031241424975 0.0004712530871367541 0)
(25.0000253297029 2.754707469978604e-05 0)
(25.00000036561336 3.019549622097361e-07 0)
(24.99999999470639 -2.654967040068137e-08 0)
(25.0382988285701 0.03279152985811438 0)
(25.00419933564952 0.00308316354517149 0)
(25.00010734740998 7.022168081928965e-05 0)
(25.00000005068812 -4.683596602928009e-07 0)
(24.99999974174034 -3.382348208813279e-07 0)
(24.99999999671421 -1.260414670600529e-08 0)
(24.99999999996195 -2.286429868707156e-11 0)
(25 6.448617150999105e-14 0)
(24.99999986409907 -5.531579718894342e-07 0)
(24.99999999853491 -3.178334401935082e-08 0)
(25.0000000001064 -1.422167974209656e-09 0)
(24.99999999999602 -2.829932836954353e-11 0)
(24.99992853342534 2.221288190191474e-05 0)
(24.99999757735083 5.381419099827918e-06 0)
(24.99999990914338 3.466461401489057e-07 0)
(24.99999999206478 -5.093107557782722e-09 0)
(25.00132656474407 0.03790020486848526 0)
(25.00066118810231 -0.0008763685307030425 0)
(25.00000748902587 -3.524273192074504e-05 0)
(24.99999999885964 -4.11034168061177e-08 0)
(25.00000007114138 -6.159351480317296e-08 0)
(24.99998978720643 -1.02426987846458e-05 0)
(24.9988510235768 -0.0004380223418141261 0)
(24.19742607700738 0.3589549346992974 0)
(24.99999995706307 -1.077968814408491e-07 0)
(24.99999280620237 5.142212689333792e-06 0)
(24.99386556682025 0.005095400336600733 0)
(23.27217990722824 1.318196795178872 0)
(24.99999967678982 -3.117256908773517e-07 0)
(24.99999305214362 1.764470917271236e-05 0)
(24.99188186688941 0.01287483276771052 0)
(23.09251548411781 2.305778090561599 0)
(24.99999953177294 -4.441252917847987e-07 0)
(24.99999190152872 2.472569213571544e-05 0)
(24.9909810975618 0.01748213127845346 0)
(23.17027942429184 2.768685998230231 0)
(23.10009768791513 2.965178434576349 0)
(24.98925318521412 0.0204776103935815 0)
(24.99998940010042 3.091161576589104e-05 0)
(24.9999994049098 -5.724733092988457e-07 0)
(23.04684694881326 3.129547804912005 0)
(24.98781267065504 0.0247004541053997 0)
(24.99998748482233 4.078602146087121e-05 0)
(24.99999918077577 -7.618079644799857e-07 0)
(22.89387565017505 3.278309477232765 0)
(24.98435022939243 0.02822364594561185 0)
(24.99998118483508 4.939641298611718e-05 0)
(24.99999901766517 -9.615973919633009e-07 0)
(22.79427446165209 3.496222609227028 0)
(24.98220603784145 0.03712536643850733 0)
(24.99997875840775 7.534121529809054e-05 0)
(24.9999983995607 -1.466619618298071e-06 0)
(24.99999850653509 -1.424036320040214e-06 0)
(24.99997959966966 6.718787555255692e-05 0)
(24.98032747453733 0.0383676567384833 0)
(22.62610619031313 3.802420224360586 0)
(24.99999821465848 -1.714519830777362e-06 0)
(24.99997191837156 8.264433593004693e-05 0)
(24.9770522931343 0.04492211895839823 0)
(22.59821856293953 3.956879688211386 0)
(24.99999769840514 -2.261941324654003e-06 0)
(24.99996837131012 0.0001035395793276675 0)
(24.97607223779204 0.04908348878042562 0)
(22.77834411166843 3.804323974282249 0)
(24.99999823252812 -1.640463542901665e-06 0)
(24.99997171174891 7.200640890554122e-05 0)
(24.97650025934768 0.03494957535207271 0)
(23.75283582148027 2.741184448095058 0)
(24.99999101220494 -2.107094735724847e-05 0)
(25.00030809639789 3.696905158120757e-05 0)
(25.03831875027257 0.03586544626233654 0)
(25.5144579154509 1.466169379429499 0)
(25.00000088954578 -7.122985598419104e-06 0)
(24.999667728873 -0.0006305700814734518 0)
(24.9983623760021 -0.02875172975410451 0)
(25.20822113272862 -0.6161074059393297 0)
(24.99999903121991 -1.756675343669028e-06 0)
(24.99934868737064 -0.0007321920443741982 0)
(24.92642683098227 -0.06256087942986917 0)
(23.44466892257321 -1.466589153768708 0)
(24.99999890512652 -1.38985407546865e-06 0)
(24.99890287455203 -0.0007014347930082228 0)
(24.82142933366974 -0.06001142640427041 0)
(21.57895891438392 -0.8816419502718872 0)
(21.22618114542365 -0.4316328820905118 0)
(24.8654083361042 -0.05787036627497199 0)
(24.99953591332343 -0.0004810192314824586 0)
(24.9999995120186 -9.525966288688813e-07 0)
(21.46444702743434 0.1216100706614143 0)
(24.88023712918883 -0.03673784849540478 0)
(24.9995674283983 -0.0003374839109328106 0)
(24.99999952287214 -6.955572007784383e-07 0)
(22.0649654179526 0.01902799552157674 0)
(24.92545759736421 -0.03146266198793452 0)
(24.9998022485872 -0.0002078850439745555 0)
(24.99999981931083 -3.786131361471591e-07 0)
(21.81762002205674 0.1661038644371667 0)
(24.90844167079569 -0.03079550303407241 0)
(24.99973073609328 -0.0002321396202457339 0)
(24.99999973633899 -4.268743433655772e-07 0)
(23.04221660224344 0.3720979228284586 0)
(24.96533770313589 -0.01062385578481004 0)
(24.99992283549251 -5.697059405052928e-05 0)
(24.99999992327906 -1.025937180964691e-07 0)
(24.22348799687807 0.2387324352430248 0)
(24.99343101482438 -0.002800788661072856 0)
(24.99999091082176 -8.170085073024349e-06 0)
(24.99999999251628 -1.10363891862793e-08 0)
(24.83187001698105 -0.01125152364551948 0)
(24.99943690228285 -0.0008569748471591149 0)
(24.99999951449867 -1.740207593703911e-06 0)
(24.9999999997475 -2.093799767324516e-09 0)
(25.00659899009295 -0.1466624633816487 0)
(25.00038194914003 -0.001137228615538498 0)
(25.00000128983881 -3.064457477286614e-06 0)
(24.99999999990745 -4.758587660769657e-09 0)
(24.52443069756982 -0.002875759539978686 0)
(24.99026593917269 -1.093948763868332e-05 0)
(24.99994182624131 -2.092666282284624e-08 0)
(24.99999985050986 -5.009140472666341e-12 0)
(24.5259249305487 -0.01346600532719629 0)
(24.99030985124682 -3.221868246819077e-05 0)
(24.9999418508532 7.162736935110545e-10 0)
(24.99999985013907 4.4777951158138e-10 0)
(24.52282032169767 -0.03539699785938132 0)
(24.99034961327009 -7.492528947282825e-05 0)
(24.99994166359589 1.371218511232648e-07 0)
(24.99999984723587 2.32419684513302e-09 0)
(24.51077136596279 -0.02397941503851829 0)
(24.99036220853998 0.0001647861299732131 0)
(24.99994163706824 1.032607064258596e-06 0)
(24.99999984406165 3.863686219828855e-09 0)
(25.00659899015133 0.1466624633728276 0)
(25.00038194918412 0.001137228628329344 0)
(25.00000128990199 3.064463408357266e-06 0)
(24.99999999985799 4.781525751598149e-09 0)
(24.83187001704678 0.01125152366534849 0)
(24.99943690233625 0.0008569748435995935 0)
(24.99999951462028 1.740231286724905e-06 0)
(24.9999999997345 2.09285645267293e-09 0)
(24.22348799688043 -0.2387324351534248 0)
(24.99343101480477 0.002800788705126103 0)
(24.9999909108143 8.170118282411529e-06 0)
(24.99999999251414 1.103407544584484e-08 0)
(23.04221660214816 -0.372097922878924 0)
(24.96533770301625 0.01062385578085436 0)
(24.99992283547922 5.697058702340788e-05 0)
(24.99999992330818 1.02590920736127e-07 0)
(24.99999951192778 9.52565039460505e-07 0)
(24.99953591315555 0.0004810193096790899 0)
(24.8654083360358 0.05787036621965001 0)
(21.22618114535932 0.4316328821144264 0)
(24.99999952280998 6.956133509017093e-07 0)
(24.99956742839134 0.0003374838999989585 0)
(24.88023712912993 0.03673784852734373 0)
(21.46444702738502 -0.1216100707290275 0)
(24.99999981938225 3.786226736564375e-07 0)
(24.99980224851313 0.0002078850207995765 0)
(24.92545759736376 0.03146266200842861 0)
(22.06496541787018 -0.019027995544874 0)
(24.99999973633122 4.268562574616004e-07 0)
(24.99973073606142 0.0002321396391820196 0)
(24.9084416707049 0.03079550297140272 0)
(21.81762002207731 -0.1661038643568092 0)
(21.57895891445755 0.8816419501935679 0)
(24.82142933376025 0.06001142637027453 0)
(24.99890287464354 0.0007014346677172124 0)
(24.99999890517544 1.389817371850688e-06 0)
(23.44466892264103 1.466589153863187 0)
(24.92642683105351 0.06256087943015928 0)
(24.99934868749095 0.0007321920681950892 0)
(24.99999903134669 1.756669812969933e-06 0)
(25.20822113273066 0.6161074059500659 0)
(24.99836237609983 0.02875172977592863 0)
(24.99966772887938 0.0006305700796250737 0)
(25.00000088963327 7.123056789207107e-06 0)
(25.51445791542624 -1.466169379439063 0)
(25.03831875031534 -0.03586544626296721 0)
(25.00030809642883 -3.69690182738431e-05 0)
(24.99999101205408 2.107094688554093e-05 0)
(24.99999850657956 1.42403275469887e-06 0)
(24.99997959958149 -6.718788988504839e-05 0)
(24.98032747448935 -0.03836765673960037 0)
(22.62610619021997 -3.802420224347339 0)
(24.99999821464184 1.714512377677673e-06 0)
(24.99997191832744 -8.264433629985552e-05 0)
(24.97705229311591 -0.04492211894222561 0)
(22.59821856294439 -3.956879688204631 0)
(24.99999769832102 2.261939713137509e-06 0)
(24.99996837130998 -0.0001035395630601954 0)
(24.97607223786371 -0.04908348876200216 0)
(22.77834411167558 -3.804323974285173 0)
(24.99999823238871 1.640446857209503e-06 0)
(24.99997171175205 -7.200638120914832e-05 0)
(24.97650025939117 -0.03494957534190291 0)
(23.75283582148945 -2.74118444809387 0)
(22.79427446150084 -3.496222609238401 0)
(24.98220603792911 -0.03712536640703142 0)
(24.99997875828428 -7.53412372452144e-05 0)
(24.99999839957225 1.466623905142448e-06 0)
(22.89387565006761 -3.278309477217237 0)
(24.9843502292063 -0.02822364594776765 0)
(24.99998118482506 -4.939642018336058e-05 0)
(24.9999990176367 9.615980570203803e-07 0)
(23.04684694887921 -3.12954780490071 0)
(24.98781267051645 -0.02470045413376213 0)
(24.99998748469025 -4.078603331637981e-05 0)
(24.99999918080262 7.61806734914405e-07 0)
(23.10009768773629 -2.965178434637138 0)
(24.98925318538815 -0.02047761037262825 0)
(24.99998940011693 -3.091162293073628e-05 0)
(24.99999940493377 5.724732691228404e-07 0)
(25.00000007107625 6.159485303337176e-08 0)
(24.99998978711445 1.02427002630894e-05 0)
(24.99885102359703 0.0004380223504505419 0)
(24.19742607710552 -0.358954934704285 0)
(24.99999995713025 1.077941636853546e-07 0)
(24.99999280629975 -5.142212733690644e-06 0)
(24.99386556674526 -0.005095400351698288 0)
(23.27217990727279 -1.318196795157047 0)
(24.99999967682621 3.117253499200179e-07 0)
(24.99999305213707 -1.764471279048521e-05 0)
(24.99188186689978 -0.01287483278014176 0)
(23.09251548401179 -2.305778090584218 0)
(24.99999953181803 4.441251288155668e-07 0)
(24.99999190150425 -2.47256982040236e-05 0)
(24.99098109756672 -0.01748213126548325 0)
(23.1702794243817 -2.768685998189834 0)
(24.99999999887315 4.110325450078413e-08 0)
(24.99999999203853 5.094203790769207e-09 0)
(24.99999999999555 2.708184732174742e-11 0)
(25 -3.091210403126169e-14 0)
(25.00000748913074 3.52427388231264e-05 0)
(24.99999990915741 -3.466495075964438e-07 0)
(25.00000000003617 1.42770404118646e-09 0)
(24.99999999998883 2.265024893182174e-11 0)
(25.00066118807869 0.0008763685202959294 0)
(24.99999757730379 -5.381411458922107e-06 0)
(24.999999998582 3.177852719570467e-08 0)
(24.99999999673926 1.259778141082342e-08 0)
(25.00132656474233 -0.03790020486648858 0)
(24.99992853341999 -2.221287590995045e-05 0)
(24.99999986409667 5.531566599070432e-07 0)
(24.99999974173531 3.382319422017806e-07 0)
(25.00000000000002 4.348761001193641e-14 0)
(24.99999999998006 8.284630086024205e-11 0)
(24.99999999468065 2.653378690963961e-08 0)
(25.00000005066012 4.683629610486557e-07 0)
(25 3.994816243594138e-12 0)
(25.00000000030373 -1.406718737972401e-10 0)
(25.00000036547065 -3.01962718089734e-07 0)
(25.00010734740997 -7.02216626493199e-05 0)
(24.9999999993042 3.178033592975849e-10 0)
(25.00000002587519 -3.677755070614674e-08 0)
(25.00002532978375 -2.754703576925734e-05 0)
(25.00419933563789 -0.003083163559429307 0)
(24.99999998493864 7.16581938622885e-09 0)
(25.00000038624195 -7.310886549498381e-07 0)
(25.00031241415528 -0.0004712531308707958 0)
(25.03829882860829 -0.03279152980969788 0)
(24.9999997881544 1.603159867980211e-07 0)
(24.9999991657528 -9.906692673574668e-06 0)
(24.99937807388705 -0.005851809119710653 0)
(24.97965367526906 -0.8098109420087252 0)
(24.99999975718414 1.679908342452838e-07 0)
(25.00000021883834 -1.12253125885865e-05 0)
(24.99979861598722 -0.006671871165661287 0)
(25.15175505187939 -0.6425346517645916 0)
(24.99999980356359 1.208703608122192e-07 0)
(25.00000104834791 -9.300965377325043e-06 0)
(25.00019338291096 -0.005735705447693773 0)
(25.20498582473252 -0.3534177051300353 0)
(24.99999991321406 4.609473723349955e-08 0)
(25.00000129628641 -4.137652913797072e-06 0)
(25.0008370615569 -0.00254849901792355 0)
(25.12705863152512 -0.1388782588049015 0)
(24.74395322893156 -0.7931707230291755 0)
(24.99892478138286 -0.00214533126305657 0)
(24.99999901449994 -1.347997877151926e-06 0)
(24.99999997965154 2.417415276994985e-08 0)
(24.83468178397329 -0.7418511699929222 0)
(24.99948674926658 -0.002896752638848392 0)
(24.99999968569652 -3.367413008939743e-06 0)
(24.99999992819146 5.524151848675281e-08 0)
(24.81291825852924 -0.7053964054917679 0)
(24.99943479046484 -0.00252718587799795 0)
(24.99999959396857 -2.771589515532327e-06 0)
(24.99999994314076 4.591769780465557e-08 0)
(24.79919243665069 -0.622242244290568 0)
(24.9995037179303 -0.002168593768199599 0)
(24.99999944101432 -1.693207997683775e-06 0)
(24.99999996892384 2.75602186121142e-08 0)
(24.79793089666835 -0.5491965208877606 0)
(24.99964766041881 0.001037232867244391 0)
(25 -3.383404281879735e-14 0)
(25.00000000000001 -1.106927247411171e-11 0)
(24.7871155602038 -0.4149758752762868 0)
(25.00014081803272 -0.0002548764643659346 0)
(25 5.786810595746405e-16 0)
(25.00000000000001 2.495757379341106e-14 0)
(24.85613231636678 -0.2025715510579712 0)
(24.99999987729128 -1.152905836396327e-07 0)
(25 2.336311231042098e-16 0)
(25.00000000000001 3.564492498552744e-15 0)
(24.96756661010127 -0.03569866165450916 0)
(25.00000001326709 1.097354253936591e-08 0)
(25 -1.612252446298279e-15 0)
(25.00000000000002 -5.265122605291531e-15 0)
(25 1.420908939734042e-15 0)
(25 2.13916538540776e-15 0)
(25 5.352892708183678e-15 0)
(25.00000012605981 1.33787923373513e-07 0)
(24.99999999999999 -2.843418720158383e-19 0)
(25 1.656098895301563e-15 0)
(25 1.431159747800328e-13 0)
(25.00000501829073 1.597433736790372e-05 0)
(25 -1.366459512028481e-15 0)
(25 -1.603834175634955e-15 0)
(25 2.220619796801393e-12 0)
(24.99998104064078 7.076305330558655e-05 0)
(25 -1.45705313305701e-15 0)
(25 -4.583279045630629e-16 0)
(25.00000000009442 7.715570521623479e-11 0)
(24.9993989646192 0.0009689539704489732 0)
(25.00000638348361 1.441826421755339e-09 0)
(25.00001807991468 1.839264594813892e-05 0)
(25.0000913386322 0.0001781568158632734 0)
(25.00039303005818 -0.002019281500266212 0)
(25.00001807881236 -1.839240452128111e-05 0)
(25.00007871613602 -1.110050755670491e-09 0)
(25.00046900536973 -0.0008144782952817423 0)
(24.94289849310968 -0.0462263893686618 0)
(25.00009134003637 -0.0001781547602991962 0)
(25.00046900513457 0.0008144780139339975 0)
(24.98360746178058 1.517236290112805e-09 0)
(24.54871672319198 -0.1137984964635242 0)
(25.00039302971717 0.002019281888011489 0)
(24.94289849310452 0.0462263875147854 0)
(24.54871672364101 0.1137984975803759 0)
(22.37962041502185 -2.973892926576154e-10 0)
(20.11836838757253 2.422798852720228 0)
(21.20758303420158 3.0262026444845 0)
(23.5908253896969 1.962788586328875 0)
(24.51909052129865 0.7806228280933715 0)
(20.67390496963709 4.586122686038702 0)
(20.93783818614868 4.731519245091399 0)
(22.14787199491607 4.280776018250838 0)
(23.19227549318569 3.159632543553658 0)
(21.46396218624377 5.386665334978757 0)
(22.04077001324141 5.259385702159492 0)
(22.56619011092854 5.128422299858804 0)
(23.10231491933521 4.666728703477849 0)
(21.98562849986022 5.448987831641063 0)
(22.95616627746858 5.65123998572678 0)
(23.14988797613668 5.597355312571337 0)
(23.39656493336155 5.341534549183732 0)
(23.55526310716385 5.692071859097467 0)
(23.63580151393095 5.804856574965093 0)
(23.66620844363248 5.8180845911311 0)
(23.43566433776692 6.075533189865103 0)
(23.54316837597764 5.897500437405251 0)
(23.71689646542621 5.98406866864802 0)
(23.76342307045391 5.981847333886211 0)
(23.70386845543265 6.474052513394509 0)
(23.49342017736048 5.778107440793097 0)
(23.70311518685014 5.795923035275905 0)
(23.74488497434734 5.78937297940516 0)
(24.89358923782141 6.425629776380271 0)
(22.16523585201394 5.504384609125482 0)
(22.26155903932255 5.510227376613873 0)
(22.28365735896767 5.511352382612275 0)
(26.36576377129079 7.517827069799267 0)
(25.56224437992293 4.498816269950001 0)
(27.03970866147559 1.679200259225384 0)
(26.35452641223634 0.2641278828221656 0)
(25.58461661379178 0.07892126348967475 0)
(27.05291880859511 3.604257507784582 0)
(28.46787255012158 0.3320739353632334 0)
(26.82467493658882 -0.288430096412199 0)
(25.83198452521379 -0.143903008203529 0)
(29.29765457974852 2.220582858204537 0)
(28.07822030039667 -0.5274840263923541 0)
(26.98024689164032 -0.4990824866631654 0)
(26.08952807706028 -0.2787462760876165 0)
(21.55259137891421 1.828853257662189 0)
(21.67505822593115 1.051701447317968 0)
(22.91881915605553 -0.01492930994324909 0)
(24.0669218669078 -0.3612233050338147 0)
(25.15684832114914 0.04588903530195635 0)
(25.02149741073723 0.006400773988950444 0)
(25.00095986675568 0.0001401102244031771 0)
(25.0000076417756 -3.145591073493598e-06 0)
(25.29701765318095 -0.02126535636623401 0)
(25.04878935707879 0.003899700917115449 0)
(25.0025569551909 0.0002507729981311868 0)
(25.00002559543568 -3.656680095713018e-06 0)
(25.49511754144287 -0.1126935694066348 0)
(25.1026457530281 -0.02635652438043695 0)
(25.00632690046257 -0.001882150298157626 0)
(25.00007288843165 -3.190241513256816e-05 0)
(24.62977052829332 -0.1935966111916074 0)
(24.92073096774288 -0.04702825278837952 0)
(24.99396785127726 -0.003871698446248157 0)
(25.00000009336498 -6.730615631869895e-05 0)
(24.99999946445331 -7.768950531593468e-07 0)
(24.99999999420478 2.804699857131362e-07 0)
(24.99998482951396 -1.181897892994631e-05 0)
(24.19832888271004 1.39759828274667 0)
(24.99999945421246 -5.617889457039325e-07 0)
(24.99999992286149 2.572119445450736e-07 0)
(24.99999818514264 -2.801731538344754e-05 0)
(22.8200666035543 1.886677376123041 0)
(24.99999958924263 -1.771976657902192e-07 0)
(24.99999978664052 1.082112412568051e-07 0)
(25.00000296103092 -2.822719467139055e-05 0)
(21.29084453476055 1.427701858966508 0)
(24.9999992443291 2.105955991673425e-08 0)
(24.99999978208615 3.594709078131732e-09 0)
(24.99999400986335 5.745242088745552e-06 0)
(18.50545575973702 -0.01533171046156604 0)
(16.53671180033741 6.895675993783003 0)
(17.18274604367691 8.844796579827593 0)
(17.6940468089159 10.02610631999732 0)
(17.94525044394296 10.73997696201531 0)
(13.68455745452661 7.227817354654835 0)
(15.83264716164733 9.301667988714359 0)
(17.05286326457568 10.61584982782433 0)
(17.55658922291007 11.33369005861972 0)
(11.72246948388596 6.702098078507023 0)
(14.57138351363258 9.216878804750184 0)
(16.41172744059455 10.68565156090873 0)
(17.17459949743318 11.34445578493238 0)
(11.00140473803029 4.598860042072415 0)
(13.44662168557851 7.823879147969915 0)
(14.26236637987458 9.952325675436237 0)
(15.10090828944197 10.547642595316 0)
(17.99176992493748 10.95352923205543 0)
(18.00618250306886 10.98087559550934 0)
(17.95843997739147 10.99916234977685 0)
(17.95309350372929 11.02778713325982 0)
(17.690758807249 11.54582074787531 0)
(17.73629642347486 11.55172766903058 0)
(17.73608383038396 11.5450282312645 0)
(17.76926746536405 11.53000299833365 0)
(17.32100574675826 11.5462873045387 0)
(17.34497361028118 11.57061145526458 0)
(17.34586867693094 11.57498596173749 0)
(17.36299886967758 11.57382240553911 0)
(15.58765121856373 10.66074215127087 0)
(15.67382531087842 10.67117887192718 0)
(15.67688287175476 10.6658554210756 0)
(15.6158170538942 10.63455833502521 0)
(17.7803495741557 11.15414758247067 0)
(17.89017219072017 11.09899035446966 0)
(18.61993053827866 10.50386626131225 0)
(20.43685283621519 8.518902083014691 0)
(17.74371108443374 11.49872776358171 0)
(17.95069080939728 11.36483366531479 0)
(18.87555610894149 10.87973694607811 0)
(20.96074626912041 10.32465611346447 0)
(17.38530488536898 11.52216475365448 0)
(17.61391955239772 11.39581621326835 0)
(18.92386679651693 11.23025782109756 0)
(25.1780241172806 14.80912858335632 0)
(15.82290901320031 10.67292773849955 0)
(16.07879695373956 10.59640415200168 0)
(18.39451434828397 11.41795904455192 0)
(33.72246105590074 19.62009821982916 0)
(25.00494650408324 4.224347519342866 0)
(23.34733926131205 -4.117202813442487 0)
(6.066676236715158 -4.714949183340329 0)
(2.429489084558 -0.5730999587158107 0)
(25.07743710484707 4.240549087016271 0)
(18.46378111968108 -5.527354520990116 0)
(0.8562292099585784 -5.841687861790937 0)
(-3.398992959433034 -1.017010670751886 0)
(25.62736939899638 1.342567448718067 0)
(11.1888938206477 -9.074791868465566 0)
(-1.200547522814595 -4.997057238049425 0)
(-1.397586493080534 -1.086810876010361 0)
(15.28187630671412 -6.452351606935787 0)
(4.361881028420007 -2.483800072047803 0)
(-2.839435647356065 -2.414335742870334 0)
(-1.64513562931746 -0.9588140787866701 0)
(2.082921153832924 -0.03953161077144845 0)
(2.542279473512974 0.3676901136883892 0)
(3.439093789126723 0.7724545383304908 0)
(2.331372296063529 2.736935256960301 0)
(-3.849230381980072 0.02728373249653255 0)
(-3.201389019344505 1.354000153822794 0)
(-1.312305076854575 2.99397319605279 0)
(-0.7119694758355727 5.046966630759772 0)
(-1.407503285595623 -0.03280612251097899 0)
(-0.8953561743482439 1.608495169223631 0)
(0.4154963958778948 4.0652793979368 0)
(-0.02031318621299863 6.72753443560648 0)
(-1.655367721775327 -0.04858864223031448 0)
(-1.576691909234621 1.472724051785982 0)
(-0.4812271876547423 4.315733484140756 0)
(-0.3096940454970765 7.600127578528084 0)
(18.66428237948264 -5.757756219651498 0)
(22.27613496532423 -3.957465034920859 0)
(23.88421584786593 -3.258338568189331 0)
(24.7652120883348 -2.671322935831483 0)
(12.80344664730314 -5.627025592647179 0)
(18.66854616345571 -5.270990078639081 0)
(22.01533478131934 -4.877702096338645 0)
(24.72146173265743 -2.926819127118507 0)
(4.223221846343276 -3.482065155212278 0)
(12.10938532454205 -3.529432144489387 0)
(18.27139266348013 -5.258167680850695 0)
(26.38523865458323 -2.500975989230371 0)
(2.479607374265275 1.43583135570917 0)
(6.740054755948268 3.600345233361901 0)
(15.23791900046795 2.055639524742749 0)
(31.43620079057585 -0.6614133883263525 0)
(25.82420769376251 -5.963583974149582 0)
(28.78822316134524 -10.76933661865658 0)
(21.60243062746206 -12.02337687324484 0)
(14.1321165313533 -11.56232309598394 0)
(27.36481755863118 -9.094022895698521 0)
(30.11255744082857 -15.14709115557112 0)
(26.62194592884959 -15.9121896807057 0)
(12.79533911090422 -15.23071275723624 0)
(28.39407216087164 -9.517916411838094 0)
(26.34142311399599 -19.05151657176724 0)
(22.77856465233579 -15.77308367611776 0)
(10.5374572239116 -10.23983816132816 0)
(18.41634138769745 -11.98694921352237 0)
(10.65981625586295 -10.77806836038741 0)
(4.068701082117527 -13.02747830110072 0)
(1.583798528121612 -9.699095851133945 0)
(0.1033701500646579 -7.156437115329136 0)
(-0.8788138301139622 -6.606146255796886 0)
(-1.344843691756918 -6.417941944167892 0)
(-1.777195641744818 -3.205059271146453 0)
(3.101958363028156 -10.00033109878973 0)
(-0.6354941053147101 -11.21067961282129 0)
(-1.166783385857695 -10.78609058600166 0)
(-1.099821442269775 -5.2903871875671 0)
(6.471803401574112 -13.15658945615735 0)
(4.450246185238996 -12.53979177025977 0)
(2.881845076986228 -11.53992532629463 0)
(1.663049712664911 -5.27443765621949 0)
(10.04435168790865 -10.50905999865324 0)
(8.45412201881466 -9.203897930317904 0)
(7.5570217224318 -6.821496904218028 0)
(6.854896490574346 -2.014070923549825 0)
(-1.777195641742342 3.205059271165546 0)
(-1.099821442258471 5.290387187566088 0)
(1.663049712678913 5.274437656196328 0)
(6.854896490550814 2.014070923495373 0)
(-1.344843691754995 6.417941944178795 0)
(-1.16678338584791 10.78609058602041 0)
(2.881845077007795 11.53992532627761 0)
(7.557021722440852 6.821496904185469 0)
(-0.8788138301142134 6.606146255801852 0)
(-0.6354941053038046 11.21067961282844 0)
(4.450246185265661 12.53979177027595 0)
(8.454122018830143 9.203897930317533 0)
(0.1033701500709444 7.156437115318436 0)
(3.101958363017458 10.00033109877391 0)
(6.471803401600479 13.15658945616028 0)
(10.04435168792851 10.50905999865642 0)
(14.13211653135879 11.56232309599041 0)
(21.60243062751078 12.02337687320202 0)
(28.78822316141688 10.7693366186358 0)
(25.82420769386045 5.963583974178425 0)
(12.79533911090414 15.23071275725956 0)
(26.6219459287828 15.91218968068994 0)
(30.11255744084456 15.14709115554913 0)
(27.36481755868336 9.094022895692332 0)
(10.53745722390166 10.2398381613162 0)
(22.77856465231937 15.77308367608794 0)
(26.34142311401294 19.05151657177867 0)
(28.39407216089808 9.517916411836291 0)
(1.58379852812003 9.699095851117006 0)
(4.068701082117669 13.02747830109949 0)
(10.65981625583596 10.77806836040571 0)
(18.41634138769562 11.98694921352122 0)
(31.43620079059778 0.6614133883303543 0)
(15.23791900048151 -2.055639524716336 0)
(6.740054755979983 -3.600345233327475 0)
(2.479607374243655 -1.435831355722246 0)
(26.38523865462723 2.500975989224861 0)
(18.27139266352783 5.258167680859305 0)
(12.10938532455562 3.52943214453867 0)
(4.223221846311599 3.482065155163915 0)
(24.72146173270689 2.926819127108236 0)
(22.01533478139232 4.877702096363925 0)
(18.66854616346125 5.270990078699587 0)
(12.80344664722848 5.627025592605151 0)
(24.76521208838777 2.671322935820189 0)
(23.88421584792729 3.25833856820465 0)
(22.27613496532471 3.957465034995771 0)
(18.66428237940956 5.757756219602951 0)
(2.331372296088586 -2.736935256875199 0)
(3.439093789055825 -0.7724545383120838 0)
(2.542279473488209 -0.3676901137587196 0)
(2.082921153830975 0.03953161076453698 0)
(-0.7119694757947206 -5.046966630777357 0)
(-1.312305076910251 -2.993973196001299 0)
(-3.201389019337731 -1.354000153846749 0)
(-3.849230381948875 -0.02728373250058522 0)
(-0.02031318619097329 -6.727534435622769 0)
(0.4154963958629148 -4.065279397929203 0)
(-0.8953561743409468 -1.608495169225689 0)
(-1.407503285567625 0.03280612251069045 0)
(-0.3096940454990278 -7.600127578543483 0)
(-0.4812271876540663 -4.315733484154493 0)
(-1.576691909227406 -1.472724051782035 0)
(-1.655367721760079 0.04858864222951121 0)
(2.429489084626967 0.5730999586388917 0)
(6.066676236680193 4.714949183407898 0)
(23.34733926117806 4.11720281346996 0)
(25.00494650408017 -4.224347519346294 0)
(-3.39899295928485 1.017010670696705 0)
(0.8562292099393038 5.841687861797965 0)
(18.46378111962649 5.527354520948679 0)
(25.07743710492149 -4.240549087013672 0)
(-1.397586492965894 1.086810875970936 0)
(-1.200547522806035 4.997057237991248 0)
(11.18889382058337 9.074791868436108 0)
(25.62736939903414 -1.342567448762761 0)
(-1.645135629255962 0.9588140787609285 0)
(-2.839435647343405 2.414335742825633 0)
(4.361881028371825 2.483800072071997 0)
(15.28187630676054 6.452351606913036 0)