/*--------------------------------*- C++ -*----------------------------------*\
  =========                 |
  \\      /  F ield         | OpenFOAM: The Open Source CFD Toolbox
   \\    /   O peration     | Website:  https://openfoam.org
    \\  /    A nd           | Version:  11
     \\/     M anipulation  |
\*---------------------------------------------------------------------------*/
FoamFile
{
    format      ascii;
    class       surfaceScalarField;
    location    "10.4";
    object      phi;
}
// * * * * * * * * * * * * * * * * * * * * * * * * * * * * * * * * * * * * * //

dimensions      [0 3 -1 0 0 0 0];

internalField   nonuniform List<scalar> 
10792
(
0.071268774
-0.044001634
-0.071831914
0.044564774
0.070660515
-0.041942636
0.042550895
0.069945138
-0.039858079
0.040573455
0.069175899
-0.037607636
0.038376876
0.068321538
-0.03546585
0.03632021
0.067460093
-0.033088175
0.033949621
0.066665257
-0.031007605
0.03180244
0.065733433
-0.028473678
0.029405503
0.064990014
-0.026183787
0.026927205
0.064144252
-0.023767843
0.024613604
0.063376125
-0.021203631
0.021971758
0.062756062
-0.018890076
0.019510139
0.062067966
-0.016326185
0.01701428
0.061603637
-0.013823839
0.014288167
0.061126144
-0.011398028
0.011875521
0.060746815
-0.0087954053
0.009174734
0.060499557
-0.0062496207
0.0064968791
0.0602806
-0.0038308242
0.0040497805
-0.0012287056
0.060432144
0.001077162
0.075224055
-0.043377669
-0.07584802
0.074596164
-0.041314745
0.073864059
-0.039125974
0.073074133
-0.03681771
0.072241871
-0.034633588
0.07150496
-0.032351264
0.070657484
-0.030160129
0.06984362
-0.027659813
0.06908152
-0.025421686
0.068206844
-0.022893167
0.067565415
-0.020562201
0.066871113
-0.018195775
0.066249063
-0.015704134
0.0657972
-0.013371976
0.065270843
-0.010871671
0.064967292
-0.0084918542
0.064744708
-0.0060270376
0.064589823
-0.0036759391
-0.0012314654
0.064592583
0.079895764
-0.042788132
-0.080485301
0.079299438
-0.040718419
0.078531143
-0.038357678
0.077816181
-0.036102748
0.077085213
-0.03390262
0.076315185
-0.031581236
0.07543786
-0.029282804
0.074622956
-0.026844909
0.073751275
-0.024550006
0.072945789
-0.022087681
0.0722563
-0.019872713
0.071504158
-0.017443632
0.070899484
-0.01509946
0.070323939
-0.012796431
0.0697885
-0.010336232
0.069463441
-0.0081667952
0.069150265
-0.0057138615
0.069001593
-0.0035272676
-0.0011641261
0.068934254
0.084326138
-0.042204282
-0.084909987
0.083623602
-0.040015884
0.082903835
-0.037637911
0.082253614
-0.035452528
0.081468688
-0.033117693
0.080654119
-0.030766667
0.079824075
-0.028452761
0.079036118
-0.026056951
0.078257776
-0.023771664
0.077544927
-0.021374831
0.076795462
-0.019123248
0.076090432
-0.016738602
0.075479868
-0.014488897
0.074894215
-0.012210778
0.074483095
-0.0099251122
0.074111257
-0.007794958
0.073877716
-0.0054803201
0.073729701
-0.0033792524
-0.0011479173
0.073713492
0.089619544
-0.041704004
-0.090119822
0.088970438
-0.039366778
0.08839049
-0.037057962
0.087707885
-0.034769922
0.086873792
-0.032283601
0.086092776
-0.02998565
0.085256488
-0.027616473
0.08449728
-0.025297744
0.083678795
-0.022953179
0.082864176
-0.020560212
0.082045862
-0.018304934
0.08131949
-0.01601223
0.080688287
-0.013857694
0.08012347
-0.011645962
0.07969987
-0.0095015119
0.079309212
-0.0074042998
0.079073794
-0.0052449027
0.078913169
-0.0032186279
-0.0011014982
0.07886675
0.095020889
-0.041233124
-0.095491769
0.094240232
-0.038586121
0.093528075
-0.036345805
0.092662079
-0.033903926
0.091828519
-0.031450041
0.091069382
-0.029226513
0.090261788
-0.026808879
0.089503092
-0.024539048
0.088659819
-0.022109905
0.087932323
-0.019832716
0.087185392
-0.017558003
0.086542032
-0.01536887
0.085951982
-0.013267644
0.085428741
-0.011122721
0.085009048
-0.0090818187
0.084617294
-0.0070125466
0.08436614
-0.0049937488
0.084168903
-0.003021391
-0.0010620499
0.084129455
0.10093998
-0.04055824
-0.10161487
0.10013631
-0.03778245
0.099512829
-0.035722322
0.098732134
-0.03312323
0.098075306
-0.030793214
0.097220331
-0.028371538
0.096385651
-0.025974199
0.095578125
-0.023731521
0.094795471
-0.021327251
0.094099342
-0.019136587
0.093353972
-0.016812633
0.092688511
-0.014703409
0.09199717
-0.012576303
0.091445303
-0.010570854
0.090945032
-0.0085815487
0.090576921
-0.006644435
0.090326414
-0.0047432417
0.090181154
-0.0028761308
-0.0010247993
0.090143903
0.10688841
-0.039647087
-0.10779956
0.1061409
-0.037034939
0.10543189
-0.035013318
0.10458897
-0.032280308
0.10389118
-0.03009542
0.10297757
-0.027457935
0.10222379
-0.025220414
0.10141885
-0.02292658
0.10072175
-0.020630149
0.10000686
-0.018421706
0.099255778
-0.016061546
0.098550439
-0.013998071
0.09784946
-0.011875324
0.097301201
-0.010022594
0.096824692
-0.0081050402
0.096496654
-0.0063163968
0.096248761
-0.0044953491
0.096105692
-0.0027330609
-0.00094085033
0.096021743
0.11386142
-0.038700936
-0.11480757
0.11321564
-0.036389155
0.11232448
-0.03412216
0.1114583
-0.031414123
0.11065805
-0.029295178
0.10978271
-0.02658259
0.1090382
-0.024475904
0.10811529
-0.022003666
0.10737769
-0.019892553
0.10661925
-0.017663263
0.10597962
-0.015421921
0.10533697
-0.01335542
0.10473697
-0.01127532
0.1042414
-0.0095270286
0.10379349
-0.0076571246
0.10345294
-0.0059758554
0.10316253
-0.0042049308
0.10301105
-0.0025815845
-0.00087571233
0.10294591
0.12089812
-0.037656421
-0.12194263
0.12011037
-0.035601406
0.11906755
-0.033079337
0.11835834
-0.030704913
0.11754378
-0.028480626
0.11680598
-0.02584479
0.11605222
-0.023722137
0.11520162
-0.021153069
0.11448411
-0.019175046
0.11367145
-0.016850598
0.11307125
-0.014821718
0.11238551
-0.012669687
0.11178236
-0.010672171
0.11116563
-0.008910291
0.1106802
-0.0071716997
0.11032321
-0.0056188616
0.11008089
-0.0039626181
0.10995749
-0.0024581783
-0.00082412757
0.1099059
0.1292101
-0.036663766
-0.13020275
0.12825782
-0.034649133
0.12720946
-0.032030976
0.12633879
-0.029834242
0.12525114
-0.027392977
0.1245427
-0.02513635
0.12369921
-0.022878642
0.12295269
-0.020406549
0.12215628
-0.018378633
0.12134807
-0.016042396
0.12066169
-0.014135329
0.11994601
-0.011954016
0.11940828
-0.010134433
0.11878417
-0.0082861862
0.11833794
-0.0067254685
0.11790501
-0.0051859348
0.11764673
-0.0037043304
0.11744602
-0.0022574696
-0.00075456195
0.11737645
0.13755172
-0.035578166
-0.13863732
0.13643802
-0.033535435
0.13547279
-0.031065743
0.13461967
-0.028981124
0.13360103
-0.026374334
0.13276296
-0.024298283
0.13176853
-0.021884211
0.13111078
-0.019748796
0.13025249
-0.017520345
0.12954275
-0.015332659
0.12877764
-0.013370219
0.12810315
-0.011279529
0.127508
-0.009539278
0.12692644
-0.0077046236
0.12652518
-0.0063242178
0.12610281
-0.00476356
0.12588371
-0.003485235
0.12568091
-0.0020546671
-0.00073945974
0.12566581
0.14682224
-0.034401235
-0.14799917
0.1455514
-0.032264601
0.14451157
-0.030025913
0.14345141
-0.027920958
0.14248172
-0.025404651
0.14152216
-0.023338716
0.14053388
-0.020895931
0.13972362
-0.018938542
0.13881047
-0.016607188
0.13818319
-0.01470538
0.13737367
-0.0125607
0.13678869
-0.010694549
0.13611232
-0.0088629047
0.13563767
-0.0072299799
0.13516441
-0.0058509579
0.13477004
-0.0043691836
0.13448962
-0.0032048167
0.13425107
-0.0018161212
-0.00063514032
0.13414675
0.15714883
-0.033041383
-0.15850868
0.15567399
-0.030789763
0.15456014
-0.028912061
0.15324836
-0.026609182
0.15225607
-0.024412356
0.15119766
-0.022280304
0.1502774
-0.01997567
0.14934518
-0.018006332
0.14844234
-0.015704342
0.1476904
-0.01395344
0.14687178
-0.011742079
0.14626881
-0.010091584
0.14557372
-0.00816781
0.14510546
-0.0067617203
0.14458396
-0.0053294584
0.14429391
-0.0040791355
0.14398841
-0.0028993214
0.14383544
-0.0016631512
-0.00049720578
0.14369751
0.16781248
-0.031566069
-0.16928779
0.16632815
-0.02930544
0.1648823
-0.027466207
0.16342224
-0.025149127
0.16229475
-0.023284859
0.1610611
-0.021046651
0.16012312
-0.019037691
0.1590571
-0.016940317
0.15829362
-0.014940865
0.15745079
-0.01311061
0.15676249
-0.011053778
0.15608559
-0.0094146857
0.15546352
-0.0075457386
0.15492398
-0.0062221768
0.15437629
-0.0047817718
0.15404791
-0.0037507532
0.15369518
-0.0025465908
0.15358938
-0.0015573498
-0.00039679729
0.15348897
0.17951435
-0.029833368
-0.18124705
0.17811228
-0.027903364
0.1766168
-0.025970726
0.17529803
-0.023830357
0.17400345
-0.021990282
0.17274108
-0.019784285
0.17169553
-0.017992142
0.1705793
-0.015824082
0.16972229
-0.014083853
0.16869138
-0.012079703
0.16803924
-0.010401638
0.16727253
-0.0086479729
0.16676858
-0.0070417972
0.16616495
-0.0056185421
0.16572552
-0.0043423396
0.16532488
-0.0033501133
0.16501572
-0.0022374349
0.16484957
-0.001391195
-0.0002768322
0.1647296
0.19192506
-0.027948712
-0.19380971
0.19019984
-0.026178148
0.18849009
-0.024260971
0.18700898
-0.022349255
0.1855202
-0.0205015
0.1842592
-0.018523286
0.18306461
-0.016797551
0.1819836
-0.014743069
0.18098288
-0.013083137
0.18000277
-0.011099594
0.17924887
-0.0096477381
0.17848174
-0.0078808368
0.1779869
-0.0065469566
0.17738791
-0.0050195567
0.17700884
-0.0039632653
0.17647538
-0.0028166529
0.17623899
-0.0020010516
0.17600101
-0.0011532127
-0.0003245137
0.17604869
0.20579551
-0.026041355
-0.20770286
0.20392171
-0.024304351
0.20219597
-0.022535238
0.20059571
-0.02074899
0.19905424
-0.018960029
0.19772297
-0.017192017
0.19640423
-0.01547881
0.1953187
-0.013657536
0.19421522
-0.011979657
0.19330109
-0.010185463
0.19241266
-0.0087593124
0.19169837
-0.0071665482
0.19110632
-0.0059549029
0.19057116
-0.0044844036
0.1900963
-0.0034884019
0.18960734
-0.0023276904
0.18926907
-0.0016627802
0.18885136
-0.00073550731
-0.00021978563
0.18874663
0.22027979
-0.023815888
-0.22250525
0.21817934
-0.022203902
0.21627152
-0.020627424
0.21446619
-0.018943655
0.21277398
-0.01726782
0.21121743
-0.015635469
0.20977318
-0.014034555
0.20855153
-0.012435887
0.20738812
-0.010816247
0.20641506
-0.0092124042
0.2054407
-0.0077849528
0.20466823
-0.0063940847
0.20398808
-0.0052747464
0.20354138
-0.0040377094
0.20310893
-0.0030559504
0.20284259
-0.0020613467
0.20254767
-0.0013678639
0.20237095
-0.00055878926
-0.00011235266
0.20226352
0.2361721
-0.021547061
-0.23844093
0.23408189
-0.020113688
0.23208567
-0.018631204
0.23017258
-0.01703057
0.22840026
-0.015495495
0.22673796
-0.013973175
0.22523013
-0.012526723
0.22387348
-0.01107923
0.22266896
-0.0096117312
0.22162763
-0.0081710733
0.22067735
-0.0068346767
0.21981112
-0.0055278543
0.21901336
-0.004476987
0.21840037
-0.0034247116
0.21788367
-0.0025392572
0.21759283
-0.0017705041
0.21729253
-0.0010675662
0.21718768
-0.00045394199
3.3206419e-05
0.21704213
0.25275508
-0.018982821
-0.25531932
0.25042638
-0.017784983
0.24820696
-0.016411792
0.24617216
-0.014995762
0.24428629
-0.013609626
0.24252956
-0.012216451
0.24090299
-0.010900146
0.2394543
-0.0096305452
0.23818373
-0.0083411593
0.23711919
-0.007106531
0.23623642
-0.0059519076
0.23544709
-0.0047385232
0.23472614
-0.0037560353
0.2340879
-0.0027864718
0.23358556
-0.0020369259
0.23321996
-0.0014049021
0.23294922
-0.00079682509
0.23284384
-0.00034856145
9.681557e-05
0.23278023
0.2710785
-0.016475028
-0.27358629
0.26864037
-0.015346852
0.26632853
-0.014099954
0.26423821
-0.01290544
0.26223038
-0.011601801
0.26039205
-0.010378121
0.25864373
-0.0091518264
0.25705686
-0.0080436731
0.25561297
-0.0068972705
0.25439739
-0.005890947
0.25337012
-0.0049246451
0.25258103
-0.003949428
0.25192623
-0.003101236
0.25134583
-0.0022060702
0.25088547
-0.0015765642
0.25050054
-0.0010199814
0.25023172
-0.00052800566
0.2500502
-0.00016703201
0.00015889859
0.24998811
0.29001756
-0.013812249
-0.29268034
0.28743879
-0.01276808
0.28502498
-0.011686145
0.28281979
-0.010700244
0.28082683
-0.0096088488
0.27905328
-0.0086045687
0.2773804
-0.007478947
0.27581898
-0.0064822552
0.27440196
-0.0054802501
0.27312819
-0.0046171739
0.2720177
-0.0038141522
0.27109297
-0.003024704
0.27035869
-0.0023669505
0.2698015
-0.0016488808
0.26933144
-0.0011065033
0.2689861
-0.00067464762
0.26871864
-0.00026053757
0.26861618
-6.4577424e-05
0.0002598628
0.26851522
0.31108487
-0.010914216
-0.31398291
0.30832264
-0.010005849
0.30571278
-0.009076284
0.30319874
-0.0081862042
0.3009162
-0.0073263093
0.29886392
-0.0065522894
0.29709493
-0.0057099591
0.29554463
-0.0049319475
0.29416517
-0.0041007962
0.29292998
-0.0033819836
0.29183326
-0.0027174282
0.29091872
-0.0021101673
0.29020085
-0.001649083
0.28965682
-0.001104853
0.28932302
-0.00077269841
0.28907334
-0.00042496476
0.28896168
-0.00014888487
0.28888089
1.6214696e-05
0.00020422238
0.28893653
0.33303448
-0.0078837146
-0.33606498
0.33018946
-0.0071608291
0.32754746
-0.0064342867
0.32508424
-0.0057229837
0.32280779
-0.0050498527
0.32069659
-0.0044410907
0.31882231
-0.0038356768
0.31719662
-0.0033062578
0.31578809
-0.0026922733
0.31461979
-0.002213683
0.31361147
-0.0017091071
0.31278807
-0.0012867675
0.31210899
-0.00097000351
0.31157375
-0.00056961414
0.31118767
-0.00038661783
0.31088155
-0.00011884664
0.31077536
-4.2689122e-05
0.31072534
6.623297e-05
0.00023162481
0.31069794
0.35722868
-0.004220364
-0.36089203
0.35393501
-0.0038671562
0.35095308
-0.003452356
0.34825807
-0.0030279746
0.3458414
-0.0026331859
0.3436566
-0.0022562902
0.341758
-0.001937076
0.34007287
-0.0016211211
0.33869067
-0.0013100809
0.33752005
-0.0010430555
0.33658209
-0.0007711517
0.33586387
-0.00056855081
0.33529604
-0.00040217066
0.33496149
-0.00023506717
0.33472376
-0.00014887972
0.3345866
1.8310048e-05
0.33459845
-5.4538557e-05
0.33461744
4.7241222e-05
-3.6725417e-05
0.33488579
0.38443711
-0.38865748
0.38056996
0.3771176
0.37408962
0.37145644
0.36920015
0.36726307
0.36564195
0.36433187
0.36328881
0.36251766
0.36194911
0.36154694
0.36131187
0.36116299
0.3611813
0.36112677
0.36117401
0.36113728
0.060627107
0.0011456228
-0.0013405859
0.061026128
0.0037228988
-0.0041219203
0.061717384
0.0059011236
-0.0065923801
0.062679248
0.008547745
-0.0095096094
0.063890367
0.010618004
-0.011829123
0.065350695
0.013135907
-0.014596236
0.067056129
0.015304283
-0.017009717
0.069054321
0.017606713
-0.019604905
0.071109276
0.019929047
-0.021984002
0.073612497
0.022002456
-0.024505678
0.07601458
0.024076999
-0.026479082
0.078888063
0.026167099
-0.029040583
0.081729965
0.02777791
-0.030619812
0.084887777
0.02979669
-0.032954503
0.088248179
0.031304651
-0.034665053
0.091809142
0.033032548
-0.036593511
0.095810688
0.034245394
-0.038246939
0.09980531
0.035770601
-0.039765223
0.036372905
0.10448248
-0.041050074
0.064688164
0.0010500409
0.065234101
0.0031769624
0.065914948
0.0052202764
0.067011314
0.0074513782
0.06834515
0.0092841677
0.069871875
0.011609182
0.071721385
0.013454772
0.073715088
0.015613009
0.075986051
0.017658084
0.078488844
0.019499663
0.08100654
0.021559303
0.083854942
0.023318697
0.086554243
0.025078608
0.089568537
0.026782396
0.092566947
0.028306241
0.095765906
0.029833588
0.098920141
0.031091159
0.1024137
0.032277044
0.032980967
0.10580563
0.069069455
0.00091483956
0.069620349
0.0026260682
0.070308539
0.004532087
0.071475323
0.0062845937
0.072736291
0.0080231993
0.074392873
0.0099526002
0.076188473
0.011659173
0.078179013
0.013622469
0.080453046
0.015384051
0.082741515
0.017211193
0.085309098
0.01899172
0.08785449
0.020773306
0.090530177
0.022402921
0.093172328
0.024140245
0.095935805
0.025542764
0.098566358
0.027203036
0.10120627
0.02845125
0.10384729
0.029636025
0.030524947
0.10630331
0.073936446
0.00069188517
0.074453618
0.0021088958
0.075229241
0.0037564643
0.07637616
0.0051376737
0.077659974
0.0067393858
0.079331973
0.0082806012
0.081070912
0.0099202337
0.083058569
0.011634811
0.085249212
0.013193409
0.087448199
0.015012206
0.089900039
0.01653988
0.092190783
0.018482561
0.094584749
0.020008954
0.096819441
0.021905553
0.09900954
0.023352665
0.1010373
0.025175277
0.10280343
0.026685113
0.10433998
0.028099484
0.029246982
0.10561794
0.079043561
0.00051507499
0.079532834
0.0016196225
0.080330053
0.0029592449
0.08145162
0.0040161068
0.082735664
0.0054553421
0.084398518
0.0066177468
0.08611564
0.0082031116
0.088097197
0.0096532529
0.090052347
0.011238259
0.092011343
0.01305321
0.094014167
0.014537056
0.09589812
0.016598607
0.097784932
0.018122142
0.099480424
0.020210061
0.10093889
0.021894202
0.10219197
0.023922192
0.10292819
0.0259489
0.10340797
0.027619695
0.029620073
0.10303488
0.084337319
0.00030721135
0.084831784
0.001125157
0.085701839
0.00208919
0.086814091
0.0029038539
0.088161617
0.0041078162
0.089760019
0.0050193448
0.091393402
0.0065697284
0.093305079
0.0077415753
0.095033776
0.0095095609
0.097012153
0.011074832
0.098552814
0.012996395
0.1002339
0.014917521
0.10140783
0.016948211
0.10242927
0.019188621
0.10290578
0.021417695
0.10299941
0.023828556
0.10244352
0.02650479
0.10142869
0.028634529
0.031807185
0.099241575
0.09032633
0.0001247849
0.090830672
0.00062081509
0.091627884
0.0012919776
0.09265698
0.0018747577
0.093944217
0.0028205791
0.095388981
0.0035745803
0.096940019
0.0050186899
0.09854865
0.0061329441
0.10004149
0.0080167224
0.10154119
0.009575128
0.10263559
0.011901999
0.1038221
0.013731007
0.1042571
0.016513215
0.10468011
0.018765611
0.10416704
0.021930764
0.10336993
0.024625665
0.10152364
0.028351081
0.098973078
0.031185087
0.035668667
0.095111597
0.096274788
-0.00012826033
0.096716511
0.00017909129
0.09761514
0.00039334909
0.098633479
0.00085641786
0.099978216
0.0014758416
0.10133644
0.0022163552
0.10278047
0.0035746583
0.10418138
0.0047320366
0.10543285
0.0067652471
0.10656315
0.0084448287
0.10730322
0.011161931
0.10768415
0.013350079
0.10744204
0.016755321
0.10675317
0.019454482
0.1051918
0.023492136
0.10321006
0.026607406
0.10002314
0.031538
0.096252846
0.03495538
0.040585976
0.091335537
0.10310502
-0.00028736977
0.10352735
-0.00024323455
0.10430251
-0.00038181207
0.10513735
2.1573714e-05
0.10643212
0.00018107274
0.10746544
0.0011830379
0.10880707
0.0022330211
0.10974348
0.0037956319
0.11071817
0.0057905522
0.11126663
0.0078963659
0.11154038
0.010888184
0.11132034
0.013570118
0.11050522
0.017570442
0.10899717
0.020962534
0.10672778
0.02576153
0.10361506
0.029720123
0.099716405
0.035436652
0.095191535
0.039480249
0.046061873
0.089715638
0.11009594
-0.00047741085
0.11056996
-0.00071725139
0.11131589
-0.0011277457
0.11228147
-0.00094400079
0.11337007
-0.00090752769
0.11428526
0.00026784468
0.11541955
0.001098734
0.11598919
0.0032259847
0.11673619
0.0050435519
0.11657917
0.0080533849
0.1164032
0.011064153
0.1151196
0.014853724
0.11360196
0.019088081
0.11111461
0.023449887
0.10820906
0.028667073
0.10437343
0.033555755
0.10027888
0.039531198
0.095284958
0.044474175
0.051519459
0.089827373
0.11745857
-0.00055952721
0.11786136
-0.0011200407
0.11851668
-0.0017830677
0.1193444
-0.0017717195
0.12018152
-0.001744655
0.12104851
-0.00059914456
0.12169771
0.0004495364
0.12206762
0.0028560787
0.12231454
0.0047966273
0.12179368
0.0085742413
0.1211075
0.01175034
0.11922857
0.016732647
0.11737179
0.020944862
0.11416983
0.02665185
0.11101481
0.031822092
0.10669242
0.037878145
0.10252886
0.043694759
0.097377877
0.049625154
0.05659257
0.092304766
0.12575964
-0.00065336173
0.12624593
-0.0016063225
0.1267885
-0.0023256413
0.12751718
-0.0025003969
0.12819043
-0.0024179048
0.12888926
-0.0012979792
0.12916581
0.00017298324
0.12922309
0.002798803
0.12866462
0.005355093
0.12768027
0.0095585884
0.12618427
0.013246344
0.12401772
0.018899199
0.12157809
0.023384487
0.11808569
0.030144248
0.11479442
0.035113366
0.11038779
0.042284774
0.10660009
0.047482456
0.10173055
0.054494696
0.060857296
0.097465825
0.13418263
-0.00068923739
0.13457995
-0.0020036499
0.13496541
-0.0027110921
0.13555604
-0.0030910308
0.13596332
-0.0028251839
0.13647084
-0.0018055049
0.13653133
0.00011249239
0.13640726
0.0029228744
0.13546136
0.0063009932
0.13432698
0.010692973
0.13231952
0.015253799
0.12998875
0.021229969
0.12691567
0.02645757
0.12363385
0.033426065
0.12038933
0.038357886
0.11667008
0.046004024
0.1139276
0.050224936
0.1106427
0.057779596
0.06160514
0.10989486
0.1437392
-0.00073093022
0.14407106
-0.0023355046
0.14447311
-0.0031131497
0.14487396
-0.003491882
0.14503317
-0.0029843924
0.14508688
-0.001859215
0.14461798
0.00058139582
0.14409888
0.0034419677
0.14284762
0.0075522569
0.1414931
0.01204749
0.13914508
0.017601816
0.13679905
0.023575999
0.13383631
0.029420317
0.13145676
0.035805612
0.12891742
0.040897226
0.1272473
0.047674144
0.1268051
0.050667136
0.12787972
0.056704973
0.056267525
0.13321734
0.1535281
-0.00077005825
0.1536856
-0.0024930034
0.15405072
-0.0034782707
0.15442639
-0.0038675524
0.15456832
-0.0031263306
0.15437916
-0.0016700531
0.15379969
0.0011608693
0.15302487
0.0042167819
0.15151293
0.0090642016
0.14980937
0.013751051
0.14730417
0.020107012
0.14528209
0.025598077
0.14310241
0.0316
0.14205818
0.036849842
0.14129415
0.041661255
0.14293337
0.046034922
0.14611368
0.047486829
0.15295546
0.049863189
0.045834562
0.16338843
0.16471215
-0.0007526057
0.16458644
-0.0023672923
0.16471041
-0.0036022432
0.16472342
-0.0038805667
0.16459737
-0.0030002746
0.16418824
-0.0012609255
0.16355523
0.0017938769
0.16244837
0.0053236464
0.1608818
0.010630769
0.15916863
0.015464224
0.15734124
0.021934402
0.15633418
0.026605137
0.15561851
0.032315669
0.15648695
0.035981401
0.15848928
0.039658921
0.16370938
0.040814825
0.17048933
0.040706882
0.18098281
0.039369707
0.033964945
0.19285243
0.17610197
-0.00080588549
0.1761613
-0.0024266155
0.17628744
-0.0037283844
0.17610161
-0.0036947393
0.17583493
-0.0027335927
0.17531016
-0.00073616373
0.17451311
0.0025909354
0.17314258
0.006694171
0.17170583
0.012067523
0.17028279
0.016887264
0.16949076
0.022726429
0.16958999
0.026505906
0.17064386
0.031261798
0.17370236
0.032922899
0.17858484
0.034776447
0.18635191
0.033047751
0.19505462
0.032004175
0.20614832
0.028276005
0.024254671
0.21585859
0.18844387
-0.00050312185
0.18854322
-0.0025259642
0.18842475
-0.0036099158
0.18815354
-0.0034235272
0.18781336
-0.0023934151
0.18715298
-7.578557e-05
0.18631719
0.0034267277
0.18511793
0.0078934271
0.18428389
0.012901562
0.18365946
0.017511699
0.18425631
0.022129579
0.18580978
0.024952439
0.18906651
0.028005068
0.19429167
0.027697733
0.20123679
0.027831326
0.20970658
0.02457796
0.21800526
0.023705493
0.22670584
0.019575434
0.019065822
0.23189469
0.20214303
-0.00038262962
0.20212762
-0.0025105604
0.20174747
-0.0032297657
0.20156143
-0.0032374888
0.201135
-0.0019669838
0.20041378
0.00064544187
0.19947744
0.0043630606
0.19854459
0.0088262776
0.19832962
0.013116538
0.19866019
0.017181124
0.20054029
0.020249484
0.20336985
0.02212288
0.20825665
0.023118259
0.21431695
0.021637433
0.22150579
0.020642487
0.22856115
0.017522604
0.23466754
0.017599102
0.23951889
0.014724084
0.01810859
0.24047612
0.21695944
-0.00029994061
0.21669891
-0.0022500335
0.21642039
-0.0029512471
0.21615989
-0.0029769856
0.21553724
-0.001344335
0.21492122
0.0012614551
0.214392
0.0048922829
0.21425818
0.008960097
0.21487418
0.012500543
0.21652643
0.015528872
0.21952412
0.017251799
0.22342245
0.018224545
0.22926382
0.01727689
0.23488665
0.016014601
0.24094431
0.014584828
0.24538185
0.013085067
0.2484571
0.014523845
0.24874571
0.014435475
0.021355188
0.24549911
0.2327987
-0.00031840761
0.23238771
-0.0018390464
0.23220746
-0.0027710004
0.2315801
-0.0023496196
0.23104617
-0.00081040477
0.23054468
0.0017629399
0.23019968
0.0052372919
0.23059601
0.0085637635
0.2319437
0.011152853
0.23453244
0.012940136
0.23790526
0.013878975
0.24246639
0.013663414
0.24764406
0.012099223
0.25183804
0.011820622
0.25592336
0.01049951
0.25703576
0.011972664
0.25668588
0.014873727
0.25265746
0.018463888
0.02745445
0.2465582
0.24981023
-0.00014052636
0.24976066
-0.0017894801
0.24958379
-0.0025941274
0.24918114
-0.0019469641
0.24890866
-0.00053792637
0.24857345
0.0020981528
0.24891631
0.0048944315
0.25014126
0.007338809
0.2522732
0.0090209128
0.25528709
0.0099262509
0.25883958
0.010326479
0.2631943
0.0093086987
0.26658129
0.0087122332
0.26947673
0.008925182
0.27026151
0.0097147279
0.2680877
0.014146474
0.2650126
0.017948828
0.25932697
0.024149515
0.031707456
0.25507397
0.26844192
-6.7235302e-05
0.26816517
-0.001512726
0.26746483
-0.0018937818
0.2670334
-0.0015155427
0.26686512
-0.00036964146
0.26695174
0.0020115307
0.26778171
0.0040644627
0.2691996
0.0059209156
0.27150004
0.0067204785
0.27436921
0.0070570833
0.27763029
0.0070653961
0.28078608
0.0061529136
0.28258104
0.0069172644
0.28349362
0.0080126097
0.28145898
0.011749361
0.27943201
0.016173451
0.2770289
0.020351939
0.2748259
0.026352513
0.029245503
0.27728785
0.28905125
-0.00018195108
0.28893401
-0.0013954874
0.288723
-0.0016827742
0.28857814
-0.0013706759
0.28836238
-0.0001538811
0.28899038
0.0013835258
0.29009165
0.0029631901
0.29185129
0.0041612754
0.29408559
0.0044861852
0.29659666
0.0045460097
0.2992181
0.0044439547
0.30065117
0.0047198506
0.30104376
0.006524671
0.29981889
0.0092374762
0.29824355
0.013324702
0.29815398
0.016263025
0.29855508
0.019950838
0.30322448
0.021683115
0.020636841
0.31183314
0.31072859
-0.00021260387
0.31020946
-0.00087635505
0.30951288
-0.00098619155
0.30911226
-0.00097006239
0.30929942
-0.00034104173
0.30981042
0.00087253205
0.31082324
0.001950364
0.31247254
0.0025119818
0.3141701
0.0027886276
0.31592597
0.0027901333
0.31748301
0.0028869172
0.31832812
0.0038747454
0.31894414
0.0059086455
0.31961879
0.0085628238
0.32195264
0.010990858
0.32554641
0.012669248
0.33139825
0.014099006
0.34025309
0.012828268
0.012460184
0.34842975
0.33515086
-0.00047767041
0.33510005
-0.00082555254
0.33500433
-0.00089046678
0.3350609
-0.0010266364
0.33537441
-0.00065455072
0.33614154
0.00010540987
0.33734162
0.00075028055
0.33862656
0.0012270402
0.33997905
0.0014361369
0.34120475
0.0015644406
0.34189821
0.0021934534
0.34265452
0.0031184391
0.34390716
0.0046560062
0.34671234
0.0057576423
0.35069337
0.007009828
0.35610394
0.0072586777
0.36316553
0.0070374116
0.37017434
0.0058194623
0.0058186531
0.37681587
0.36065961
0.35983406
0.35894359
0.35791696
0.35726241
0.35736782
0.3581181
0.35934514
0.36078127
0.36234571
0.36453917
0.36765761
0.37231361
0.37807126
0.38508108
0.39233976
0.39937717
0.40519664
0.41101529
0.10245466
0.044211318
-0.042183501
0.10101633
0.044745635
-0.043307302
0.099393292
0.045384135
-0.043761099
0.098328271
0.045184875
-0.044119855
0.097420589
0.045260298
-0.044352616
0.096813036
0.044426384
-0.043818831
0.096550606
0.043082434
-0.042820004
0.096695834
0.042541078
-0.042686307
0.097610484
0.040205973
-0.041120622
0.098658699
0.037764827
-0.038813043
0.10039166
0.036195787
-0.037928751
0.10332051
0.033622263
-0.03655111
0.1070154
0.029928784
-0.033623676
0.11077412
0.02714947
-0.030908194
0.11490308
0.025136898
-0.029265854
0.11921326
0.0233165
-0.027626677
0.12352086
0.022264146
-0.02657175
0.12862597
0.021994863
-0.027099969
0.02264951
0.13461505
-0.028638592
0.10344106
0.046575888
0.1009542
0.047232502
0.099116578
0.047221753
0.09725415
0.047047304
0.095773235
0.046741212
0.094764058
0.045435561
0.093554673
0.044291818
0.093769213
0.042326538
0.09425789
0.039717295
0.094599689
0.037423029
0.096496428
0.034299047
0.099413119
0.030705573
0.1024239
0.026917998
0.10569478
0.023878595
0.1109588
0.019872875
0.11841006
0.015865242
0.12836165
0.012312554
0.13917717
0.011179349
0.013114366
0.14871231
0.1031848
0.049694398
0.10020186
0.050215434
0.097524186
0.049899431
0.094785606
0.049785885
0.092858276
0.048668542
0.090386384
0.047907454
0.08905259
0.045625611
0.088088459
0.043290669
0.087127135
0.040678619
0.088073608
0.036476556
0.089664137
0.032708518
0.091440242
0.028929468
0.09543016
0.02292808
0.10237607
0.016932685
0.11111127
0.011137677
0.1196161
0.007360408
0.12674962
0.00517904
0.13187394
0.0060550205
0.010125981
0.13486233
0.10136985
0.053942486
0.097720313
0.053864973
0.093738006
0.053881737
0.09055937
0.052964521
0.086971505
0.052256407
0.084226731
0.050652227
0.081532949
0.048319393
0.079074948
0.045748671
0.078615982
0.041137585
0.077853893
0.037238645
0.077941024
0.032621387
0.082377273
0.024493219
0.087767407
0.017537946
0.091319078
0.013381014
0.091546708
0.010910047
0.087840186
0.01106693
0.08057354
0.012445685
0.071303858
0.015324702
0.020800654
0.060629184
0.098122031
0.058855338
0.093202825
0.058784178
0.088449051
0.058635511
0.083800816
0.057612756
0.078988213
0.05706901
0.074878172
0.054762268
0.070217766
0.052979799
0.06750745
0.048458987
0.063557084
0.04508795
0.060046391
0.040749339
0.061048527
0.03161925
0.062283574
0.023258173
0.058211091
0.021610428
0.048900662
0.022691443
0.035981775
0.023828934
0.020570834
0.026477872
0.0033652922
0.029651227
-0.014704463
0.033394458
0.039299274
-0.033203083
0.093340822
0.064756091
0.087037573
0.065087428
0.08110011
0.064572973
0.074605225
0.064107641
0.068339312
0.063334922
0.061470206
0.061631374
0.055232578
0.059217427
0.048165758
0.055525807
0.039897159
0.053356548
0.035335177
0.045311321
0.030048806
0.036905621
0.020950163
0.032356816
0.0082357631
0.034324828
-0.0075888811
0.038516088
-0.025274348
0.0415144
-0.043916939
0.045120464
-0.063268731
0.049003018
-0.083589561
0.053715288
0.059414932
-0.10370522
0.087982825
0.071884863
0.080581374
0.072488878
0.072910916
0.07224343
0.064575573
0.072442984
0.056168289
0.071742206
0.046580863
0.071218801
0.036624104
0.069174185
0.024588864
0.067561047
0.015818599
0.062126813
0.0079668253
0.053163095
-0.0063152716
0.051187717
-0.022919559
0.048961104
-0.040143716
0.051548985
-0.057419797
0.055792168
-0.0754706
0.059565203
-0.093664698
0.063314563
-0.11133463
0.066672954
-0.12836992
0.070750575
0.075287029
-0.14424202
0.083170596
0.080049804
0.074815936
0.080843539
0.065850201
0.081209165
0.056455167
0.081838018
0.046359976
0.081837396
0.035141045
0.082437732
0.022400405
0.081914825
0.0092780794
0.080683373
0.00086816327
0.070536728
-0.011057989
0.065089248
-0.028742968
0.068872696
-0.049499352
0.069717488
-0.070832149
0.072881782
-0.090291255
0.075251274
-0.10835517
0.077629121
-0.12484968
0.07980907
-0.14036743
0.082190703
-0.15423555
0.084618695
0.086784862
-0.16573338
0.080595785
0.089169657
0.071467126
0.089972198
0.061823388
0.090852902
0.052130969
0.091530438
0.041936018
0.092032347
0.031808323
0.092565428
0.020111385
0.093611762
0.0086178872
0.092176871
-0.0024473158
0.081601931
-0.019941422
0.082583354
-0.039613439
0.088544712
-0.061729094
0.091833142
-0.0840099
0.095162588
-0.10497922
0.096220598