/*--------------------------------*- C++ -*----------------------------------*\
  =========                 |
  \\      /  F ield         | OpenFOAM: The Open Source CFD Toolbox
   \\    /   O peration     | Website:  https://openfoam.org
    \\  /    A nd           | Version:  11
     \\/     M anipulation  |
\*---------------------------------------------------------------------------*/
FoamFile
{
    format      ascii;
    class       volScalarField;
    location    "0.1135";
    object      p;
}
// * * * * * * * * * * * * * * * * * * * * * * * * * * * * * * * * * * * * * //

dimensions      [0 2 -2 0 0 0 0];

internalField   nonuniform List<scalar> 
880
(
80
80
80.00000000001826
80.00031303280824
80
80
80.00000000036486
80.00127473259514
80
79.99999999999999
80.00000000636463
80.00682403958604
80
80
80.00000017569984
80.01489658675106
80
80.00000000000001
79.99999999999994
79.99999999947302
79.99999999999999
80
79.99999999999983
80
79.99999848473892
80.00000676845504
80.02888974269291
79.94999350801301
80.95839039499981
83.64273864300355
85.81247300128906
86.73240007666978
80.0000052362042
80.00002429070487
80.00003066530367
80.0000194265869
80.00010712496434
80.00028588632617
80.00080522239375
80.00059528635349
80.05682262228726
80.12326259917047
80.21493176456845
80.2232246321505
87.77590973210816
89.15254172482842
90.53018496739581
92.29026347607009
91.62683345913621
89.0487551016615
87.07483652789311
85.84504196504125
80.38894182308449
80.7483895931862
80.94129468889585
80.85314677421414
80.00168385950025
80.00466092373124
80.00945705674218
80.01072185462313
80.00007353380811
80.00018122586242
80.00034894033628
80.0003601695004
80.0002563791017
80.00010071763707
80.0000161257588
80.00000063617161
80.00904872528734
80.00547729312298
80.00175329944386
80.0002319825709
80.69210701011212
80.47159757510221
80.21539061895197
80.05230093203835
84.58565875531501
83.34315144234854
82.16853246466664
81.1078695603974
80.34706209464184
80.00584103007459
80.0000113048833
80.00000001096303
80.05126102884216
80.00043421188079
80.00000092305754
79.99999999598408
79.9998345396282
79.99967866423461
79.99999409359663
80.00000035454569
82.06736577516594
80.01038775395652
79.99976515523485
79.99997862375214
79.999963128828
79.99988923084355
80.07051068212256
96.88410112463684
79.99999122888308
80.00073563559216
80.37679641618936
111.016720272375
80.00008786458551
80.00203061448245
80.72631655143699
118.6740835331419
80.00026219237525
80.00617231854929
81.30778583613143
125.4936360781036
131.4155707556339
81.83731265991754
80.00846994355699
80.00037946237572
138.9286804783449
82.64225634541486
80.01596210919223
80.00067955470803
144.6042384981517
83.17711531539979
80.01821754785492
80.00073237847846
151.0380032332004
84.05226208594436
80.0302756659501
80.00133187016735
80.00147582648881
80.03573706981003
85.10069005543174
157.2933802198038
80.00226687224561
80.05393481238458
86.4397285309519
158.837221711356
80.00420882137017
80.07444396597974
86.7307544182395
149.3963303007188
79.99986874229977
80.03011348507384
84.05572148095929
126.1403767902774
80.00777191532499
80.17520467191298
84.43403848001249
98.06771624612078
80.00942411523926
80.19252670703935
81.5328282980616
69.98289715774411
80.00093759772236
80.0665126062473
79.93051691052736
56.30240816853198
79.99842463918019
79.93623286497078
77.81434403783771
49.78069811755049
48.20605719645346
76.71502400322055
79.89810020480549
79.99906749254021
45.82977648852501
76.25463862317383
79.89491924336863
79.9993881305185
44.3374234549517
76.23381290852915
79.93155985690082
79.9997618878058
41.10953932893976
75.90020819770551
79.93343833449794
79.9997687684711
47.18835657896764
77.68776700980744
79.97675464565664
79.99992088686832
54.97475467943013
79.03197589308741
79.99381180731451
79.99998174914857
61.35345923225339
79.56420211030324
79.99787835445483
79.99999466491884
67.1323201302268
79.84100507596686
79.99939681771482
79.99999746279269
70.86230887913905
79.41196515390844
79.98869223018832
79.99991790685522
71.63427761624808
79.43405021073566
79.98878460912543
79.99991813886156
72.39935943820171
79.45168335694308
79.98859269019938
79.99991739570925
73.45418942947097
79.52596658841691
79.98817688162319
79.99991746733527
67.1323201300781
79.84100507551325
79.99939681718058
79.99999746349579
61.3534592318558
79.56420210987429
79.9978783529475
79.99999466490686
54.97475467912717
79.03197589346929
79.99381180724502
79.99998174933062
47.18835657914289
77.68776701083118
79.97675464564639
79.99992088648834
79.99906749326182
79.89810020594851
76.71502400369246
48.20605719632378
79.99938813087631
79.89491924392109
76.25463862378574
45.82977648883068
79.99976188690918
79.93155985798039
76.23381290823875
44.33742345506491
79.99976876878758
79.93343833473337
75.90020819902887
41.10953932863647
49.78069811681303
77.81434403682088
79.93623286399287
79.9984246388609
56.30240816749121
79.93051690971284
80.06651260527443
80.00093759593847
69.98289715764926
81.53282829715187
80.19252670722295
80.00942411474772
98.06771624631968
84.43403847978526
80.17520467136706
80.00777191708796
80.00147582593189
80.03573707171319
85.10069005649186
157.2933802211658
80.00226687240036
80.0539348125986
86.43972853114261
158.8372217114088
80.00420882202924
80.0744439659165
86.73075441737467
149.3963303006327
79.9998687444627
80.03011348512211
84.05572148036224
126.1403767901342
151.0380032349125
84.05226208415679
80.0302756670915
80.00133187021854
144.6042384997668
83.17711531801635
80.01821754785618
80.00073237883653
138.9286804786203
82.64225634736641
80.01596211205641
80.00067955423715
131.4155707569643
81.83731265769345
80.0084699430563
80.00037946202535
79.99996312984865
79.99988923170801
80.0705106824289
96.88410112341916
79.99999122829439
80.00073563447141
80.3767964160249
111.0167202727986
80.00008786390981
80.00203061446378
80.72631655221937
118.6740835333899
80.00026219163739
80.00617231840539
81.30778583572082
125.4936360781938
79.99997862337328
80.00000035501294
79.9999999960623
80.00000001086394
79.99976515417578
79.99999409368736
80.00000092415075
80.00001130418171
80.01038775425832
79.99967866455597
80.00043421112537
80.00584102981158
82.06736577550915
79.9998345400202
80.05126102836321
80.34706209481269
80.00000063515117
80.00023198273641
80.05230093264987
81.10786956072586
80.00001612557236
80.00175329907925
80.21539062052597
82.16853246487423
80.000100718282
80.00547729316973
80.47159757435642
83.34315144224948
80.00025637942913
80.00904872518511
80.69210701086429
84.58565875497912
80.00007353260327
80.00168385846732
80.38894182237485
91.62683345899453
80.00018122479442
80.00466092380169
80.74838959312362
89.0487551008725
80.00034893988492
80.00945705791773
80.94129468905379
87.0748365275212
80.00036016910019
80.01072185546016
80.85314677437921
85.84504196441453
92.2902634766527
80.22322463311927
80.00059528569948
80.00001942599827
90.53018496763615
80.21493176594193
80.00080522224218
80.00003066514476
89.15254172588909
80.12326260025391
80.00028588639633
80.00002429081472
87.77590973178813
80.05682262181827
80.0001071246397
80.00000523654882
86.73240007678152
79.94999350811014
80
79.99999999966373
85.81247300095649
80.02888974005795
80
79.99999999999999
83.64273864314578
80.00000676821507
80
79.99999999999999
80.95839039458028
79.99999848432947
80
79.99999999999989
80
79.99999999999997
79.99999999999982
80.00031303218159
80.00000000000003
80.00000000000001
80.00000000037521
80.00127472637894
80
80
80.00000000642503
80.00682403686298
80
80
80.00000017510202
80.01489658640068
80.00061690544574
80.00237617641045
80.01207150782236
80.21994422526407
80.00237620456205
80.00295034128342
80.01032802339753
80.84566770182916
80.01207149533103
80.01032799233001
80.32782312565153
85.34238668226125
80.21994420969486
80.8456676906967
85.34238672741664
103.1715039891643
133.2540218973142
112.2898943687049
100.8719932167086
89.69871964498256
128.1700622642225
123.7019254814512
121.330550263329
112.2331078044164
125.345301621254
123.8677041970871
123.6084880254417
119.476600225716
125.5277020773001
124.4773460647959
124.3531294519745
121.6131873059397
123.3855253782703
123.8682722569296
124.8442849859931
127.3390362448899
124.7413772718238
125.0876430065547
125.9819316482944
128.6503864325728
125.2051999829525
125.3219747031076
126.1651201407276
128.2306347177791
125.680535769832
125.3258431074274
126.1765293598229
126.5740353208782
106.9047273593386
86.63026331394158
80.98703864040031
81.39520033822872
97.25468951134715
78.99200985004431
78.77757254270088
81.08047250600144
87.78451837251075
75.38702542771543
79.62501822794607
82.11776056582093
69.16923032154239
70.31482065105125
78.44437073173927
81.47146169160973
81.69994245407902
81.85626161007877
82.09975856934616
81.77022548420972
81.64986356238164
81.82769500910533
82.09068113524842
81.6486751199748
82.32517583804864
82.30250178172854
82.38562180824677
81.83546834425617
81.76873242238952
81.7017169296843
82.04185613870456
81.54979784750864
80.91101211478384
80.24684737914573
80.01194080839343
105.2156589022146
80.86228087263783
80.28038882194777
80.00401885431205
118.3283450266238
80.99575156875673
80.34693496831716
80.05643395994021
124.8742268899907
80.67857644721526
80.15356495773393
80.10491907658297
128.3840381666114
196.6813219221052
209.5751560353684
210.2732168304617
209.5598768130145
218.6628985309505
219.440674505351
214.869901707171
211.9267403344294
216.3736698089867
213.9273512062046
215.1387972355664
212.7264777987302
228.2006701004571
220.5405502939102
216.2556957094685
213.0353017630794
208.5313832602326
213.3312155900181
216.9604549339345
221.4078576271991
209.7425301487198
213.8243805634446
216.7723958938161
220.998488739468
209.7984311639307
213.3668520805608
216.6370998546219
220.8905207856063
209.9749274390596
213.1575915713573
216.2278849274406
220.6202375374475
221.2697860631293
214.1428749692762
197.0734976482844
164.1435811579927
220.4431245048899
213.9671691150161
196.8601422236615
173.5289603448902
220.8321565254768
214.8151155953841
198.805707139276
184.8118979132746
220.7142437153935
216.1380871553752
201.7341799592668
205.2210461114561
99.56943728113782
20.20260670392769
5.727225965822779
7.532876165360077
76.76679239174091
11.75894211849361
6.503093918930532
7.595803693492981
52.05127427884846
6.481440544916082
5.574053392711249
8.041531956199471
28.91764802700133
3.191877164395623
6.304444193456056
8.218909360973594
9.702331170239049
10.69058601683238
11.00454330255942
9.820770819142627
9.493212663750333
10.03468283542299
9.724875356555735
8.761439160770527
9.66226641485191
9.768336617612388
9.375422746194596
9.093419331113317
9.501804587943012
9.183974340738567
8.955780493763449
10.39013113176928
20.74253801661153
29.28136113134306
36.1163628032682
46.19460809154069
20.05259265195591
28.4838347990603
33.97981156422173
44.4751722965131
17.97886578803839
27.34648538748925
34.0623986314006
43.00853346146653
14.34791575649996
22.76836540948093
30.02906406047839
40.4541657628549
32.5629151783961
21.07456898542535
9.963654561590101
8.492982481315966
29.68217106378657
17.28199479340889
6.947149648749737
11.11087536691599
23.50261413916644
10.33258017170432
5.479714796001656
14.75779865461159
15.35651299990766
5.295907114056797
8.111049813145035
15.63225294323444
17.90350651184951
16.89656968903065
15.36642204131457
15.53670324432887
16.72952315693164
14.62460828093125
13.70214408977646
13.4625189165956
16.67045331234903
16.33218593414525
16.6153211833841
16.86761652927054
19.45890960424024
27.91218511036617
27.96703999766956
27.83374660004436
15.53670324433175
13.46251891659206
16.86761652928047
27.83374660002998
15.36642204132284
13.70214408977146
16.61532118340741
27.96703999766072
16.8965696890275
14.6246082809539
16.33218593417179
27.91218511030974
17.90350651185017
16.72952315700549
16.6704533123747
19.45890960416621
8.492982481267285
9.963654561508008
21.07456898529223
32.56291517814783
11.11087536688914
6.947149648720721
17.28199479338234
29.68217106361679
14.75779865464631
5.479714795990462
10.33258017165076
23.50261413913827
15.63225294323966
8.111049813157525
5.295907114043195
15.35651299986117
40.45416576274923
30.02906406036703
22.7683654092261
14.34791575626662
43.00853346139176
34.06239863134434
27.34648538728191
17.97886578776248
44.47517229642948
33.97981156419231
28.4838347989179
20.05259265169408
46.19460809144425
36.11636280318775
29.28136113116517
20.74253801639735
9.820770819021709
11.00454330262502
10.69058601686667
9.702331170171774
8.761439160723134
9.72487535661474
10.03468283544758
9.493212663697262
9.093419331070729
9.37542274625862
9.768336617642197
9.662266414792164
10.39013113169178
8.955780493798596
9.183974340775528
9.501804587877821
7.532876165223154
5.727225965686058
20.20260670371408
99.56943728102262
7.595803693381923
6.503093918800298
11.75894211837993
76.76679239131289
8.041531956070077
5.574053392600942
6.481440544867497
52.0512742786259
8.218909360827306
6.30444419327841
3.191877164317166
28.91764802688861
164.1435811577637
197.0734976485654
214.1428749696061
221.2697860642132
173.5289603447398
196.8601422239541
213.967169115537
220.4431245062706
184.8118979131432
198.8057071395081
214.8151155961464
220.8321565267422
205.2210461113398
201.7341799596993
216.1380871561757
220.7142437166471
221.4078576286617
216.960454934359
213.3312155896722
208.5313832624042
220.9984887405334
216.7723958939077
213.8243805632241
209.7425301507843
220.8905207862941
216.6370998546384
213.3668520806139
209.7984311659545
220.6202375382823
216.2278849273555
213.1575915713792
209.9749274414897
209.559876815478
210.2732168282361
209.575156036148
196.6813219203985
211.9267403370436
214.8699017042536
219.4406745062942
218.6628985290668
212.7264778011094
215.1387972317989
213.9273512061339
216.3736698058131
213.0353017648965
216.2556957060554
220.5405502938986
228.2006700958616
105.2156589010805
80.01194080536813
80.24684738013327
80.91101211476362
118.3283450243416
80.00401885134504
80.2803888238594
80.86228087203169
124.8742268864431
80.05643395813964
80.34693497146664
80.99575156737184
128.3840381622384
80.10491907504949
80.15356496281355
80.67857644456205
81.77022548429427
82.09975856919941
81.85626160983281
81.69994245398854
81.64867512010697
82.0906811349689
81.82769500893862
81.64986356221182
81.8354683446114
82.38562180794769
82.30250178179948
82.32517583774047
81.5497978482713
82.0418561382052
81.7017169301359
81.76873242198386
81.39520033751808
80.98703864018384
86.63026331332809
106.9047273594831
81.08047250529138
78.77757254259494
78.99200984947463
97.25468951149102
82.11776056516783
79.62501822788822
75.38702542728214
87.7845183725332
81.47146169089949
78.44437073177606
70.31482065057421
69.16923032125808
127.3390362446044
124.8442849848849
123.8682722576375
123.3855253801712
128.6503864316847
125.9819316475229
125.0876430080233
124.741377273382
128.2306347167078
126.1651201400721
125.3219747044402
125.2051999841672
126.5740353201636
126.176529359171
125.3258431085888
125.680535770355
121.6131873059656
119.4766002254062
112.2331078010403
89.69871964543283
124.3531294511859
123.6084880241816
121.3305502625413
100.8719932082446
124.4773460642968
123.8677041966944
123.7019254804685
112.2898943560787
125.5277020768234
125.3453016208693
128.1700622600608
133.2540218942869
71.145323006219
79.79344939643313
79.99826177363192
79.9999927475662
71.14472079263243
79.75108485226605
79.9972786119226
79.99998510502809
71.90495447859841
79.70367162406555
79.9956917604418
79.99997225421301
72.53558629661258
79.61900231661524
79.99116926413471
79.9999407991822
79.99991790734292
79.98869223046091
79.41196515317191
70.86230887800859
79.99991813929634
79.98878460984264
79.43405020977305
71.6342776162024
79.9999173950043
79.98859269074752
79.45168335663227
72.3993594377469
79.99991746538885
79.98817688239704
79.52596658713902
73.45418942902474
79.99994079846394
79.99997225344397
79.9999851026447
79.9999927452313
79.99116926448269
79.99569176042721
79.99727861165329
79.99826177285848
79.61900231621058
79.70367162311037
79.75108485299963
79.79344939614776
72.5355862964025
71.90495447768247
71.1447207920862
71.14532300666042
)
;

boundaryField
{
    back
    {
        type            empty;
    }
    inlet
    {
        type            zeroGradient;
    }
    front
    {
        type            empty;
    }
    top
    {
        type            zeroGradient;
    }
    outlet
    {
        type            fixedValue;
        value           uniform 80;
    }
    bottom
    {
        type            zeroGradient;
    }
    wall
    {
        type            zeroGradient;
    }
}


// ************************************************************************* //
