/*--------------------------------*- C++ -*----------------------------------*\
  =========                 |
  \\      /  F ield         | OpenFOAM: The Open Source CFD Toolbox
   \\    /   O peration     | Website:  https://openfoam.org
    \\  /    A nd           | Version:  11
     \\/     M anipulation  |
\*---------------------------------------------------------------------------*/
FoamFile
{
    format      ascii;
    class       volVectorField;
    location    "0.13";
    object      U;
}
// * * * * * * * * * * * * * * * * * * * * * * * * * * * * * * * * * * * * * //

dimensions      [0 1 -1 0 0 0 0];

internalField   nonuniform List<vector> 
880
(
(25 -2.051852791630644e-15 0)
(24.99999999999331 -2.454163165209199e-11 0)
(24.99999705273222 -3.616349337935624e-06 0)
(24.99925954253895 -0.0004417367096532242 0)
(25 -5.622352765771389e-15 0)
(24.99999999996249 -2.075742311434353e-10 0)
(24.99998798725837 -1.73208514258892e-05 0)
(24.99505997206117 -0.01372488292185561 0)
(25 1.384121559091948e-13 0)
(25.00000000170907 2.630401755191717e-09 0)
(24.99993691400278 -5.470062837933216e-05 0)
(24.98209785668154 -0.05003411943605384 0)
(25.00000000000002 -1.501618004484472e-12 0)
(24.99999998373665 -9.946472066235845e-10 0)
(24.99956585341244 -0.0002667308106866607 0)
(24.86296546113398 -0.130485925828357 0)
(25.00000000000001 -4.419432650995025e-12 0)
(24.9999999999691 5.024339728775421e-11 0)
(24.99999999959181 -9.505901631101199e-10 0)
(24.99999997202053 -1.426831169584975e-07 0)
(25.00000002990587 -3.999965664469459e-10 0)
(24.99999997852315 -4.494184206899291e-09 0)
(25.00000020555576 5.26040353004948e-07 0)
(24.99999148197907 -3.289544047238892e-06 0)
(24.99773029168397 -1.714832885202004e-05 0)
(24.99531271335999 0.001154835244185126 0)
(24.99316313382763 0.01281413892630282 0)
(25.0001753356139 -0.01744785949209744 0)
(24.43804074968734 0.05812866421866378 0)
(24.01364878675799 0.5557373655342033 0)
(23.8840503400618 1.030635130391706 0)
(23.85560167231662 1.291092842401683 0)
(24.99999913593009 -1.852056574451201e-06 0)
(24.9999926168466 1.06455123140744e-06 0)
(24.99996179383577 -7.59447531253105e-05 0)
(24.99995714547416 -5.131023779927621e-05 0)
(24.99990029318193 1.210798970280502e-05 0)
(24.999669247246 0.0001971801905631354 0)
(24.9995908931728 0.0008678823589224229 0)
(24.99957375165762 0.0007923889711826249 0)
(24.96533286368672 0.01344969186341547 0)
(24.94269367733905 0.05002002023254667 0)
(24.93653611114504 0.09328467806255389 0)
(24.94006477190274 0.1046096526184358 0)
(23.84931166050794 1.621143353695259 0)
(23.76425303666988 1.97302238936726 0)
(23.85031367174446 2.178156861932552 0)
(23.88277731267921 2.583685010589292 0)
(24.7812610860078 2.758242996371361 0)
(25.23738423310791 2.492605546945381 0)
(25.46751600631878 2.012545317391489 0)
(25.68878208619448 1.48625853225964 0)
(24.86391209263638 0.2174101437433458 0)
(24.89193331037996 0.3899833934081011 0)
(24.99852768790555 0.4551666576738486 0)
(25.08684697062622 0.4220322060316858 0)
(24.99801051102317 0.002724010075597041 0)
(24.99561846495877 0.007760149664391288 0)
(24.99680673347896 0.01457600955337732 0)
(25.00089316320679 0.01675359925152778 0)
(24.99987916606158 -0.0001512790493479759 0)
(24.99971681720154 -0.0004237111734330719 0)
(24.99940251800879 -0.0007302860660775256 0)
(24.99919655223666 -0.0007746663761498773 0)
(24.99918602745282 -0.0006684806478878657 0)
(24.99932401733598 -0.0004615744735919581 0)
(24.99958538404278 -0.000235332079916072 0)
(24.99983348505599 -8.326775538470418e-05 0)
(25.00312890996521 0.01553597425611504 0)
(25.00434145869978 0.01229956799054492 0)
(25.00390703589891 0.007481153083331767 0)
(25.00214761777475 0.003129396167561005 0)
(25.12610932548045 0.360401664236664 0)
(25.14002315515608 0.2750474929731987 0)
(25.12590417081826 0.1875284049821732 0)
(25.08993177343474 0.1081695527249258 0)
(25.77863739449382 1.038711406081885 0)
(25.74435466931292 0.7276308742116341 0)
(25.64808578049545 0.5169462102050846 0)
(25.52264176921899 0.3640611320031342 0)
(25.38602068422922 0.2500413434312427 0)
(25.0458732942879 0.04699043831745207 0)
(25.00063830753736 0.0007764295430609954 0)
(24.99996153281686 -1.760612328982525e-05 0)
(25.22646779989397 0.08121901418153561 0)
(25.01512204324449 0.01135869401903484 0)
(25.00009265164393 9.650247698982441e-05 0)
(24.99999572311993 -1.765819799312643e-06 0)
(24.9953412561112 0.156963480474156 0)
(25.00115642722384 0.002011937016390171 0)
(25.00000321907871 6.752562399352013e-06 0)
(24.99999978764044 -1.391218589370496e-07 0)
(23.56804257534563 0.6733429658088926 0)
(24.97562413819269 0.02011025322684133 0)
(24.99992610399096 0.0001287370018944254 0)
(24.99999821668611 -5.893251312342892e-06 0)
(24.99999113023235 -1.861395636964225e-05 0)
(24.99931880801256 0.0003603089460350983 0)
(24.8377026644584 0.05759154888682998 0)
(19.51798148428425 1.694739803154441 0)
(24.9999352336541 -7.942804485370835e-05 0)
(24.99829459794175 0.001437831181237517 0)
(24.70313728121937 0.1628816357118237 0)
(19.16943065593576 3.323048762087117 0)
(24.99989643176379 -0.000262177111897142 0)
(24.9951236616007 0.004557596651979154 0)
(24.50104917384413 0.3734120963999293 0)
(18.55637218518092 4.978099563748996 0)
(24.99953239958474 -0.0006083292759779417 0)
(24.9928746436116 0.01022739940126895 0)
(24.33049757431301 0.6516106552277392 0)
(18.42071367334495 6.37924217918204 0)
(18.22079643773759 7.636252247940284 0)
(24.11303941999754 1.063757728769478 0)
(24.98630290489123 0.02090951447839774 0)
(24.99936458505661 -0.001133840689354368 0)
(18.25164148238335 8.495229018604119 0)
(23.99151164618377 1.45113537614989 0)
(24.98494710858981 0.03509525507293886 0)
(24.99837230934215 -0.001980677741120142 0)
(18.22843907864561 9.191321471856336 0)
(23.77341671280725 1.928962220498694 0)
(24.97432294013311 0.05319772095876697 0)
(24.99811649493744 -0.002918724296295264 0)
(18.24168513810033 9.771353286358222 0)
(23.59573774844425 2.397532041406545 0)
(24.96892578340985 0.0817978609663539 0)
(24.99636943348003 -0.004407834795637945 0)
(24.99540006324718 -0.00649450329225671 0)
(24.94652002293576 0.1150839061478709 0)
(23.27800292661857 2.975164904285153 0)
(18.64248147721013 10.10839840564091 0)
(24.99193527968542 -0.0100093106624498 0)
(24.945974500448 0.1714313703684648 0)
(23.57750397195304 3.125815520777436 0)
(19.95469563724413 9.752453651374196 0)
(24.99701747239653 -0.01242215760596653 0)
(24.97008557997564 0.1529933931631501 0)
(24.32157321102355 2.54651144862022 0)
(22.33674096402114 8.617884279318284 0)
(24.98715360208382 -0.008907410655935822 0)
(24.98386560207543 0.08859939843201452 0)
(24.96172309527608 1.609340412845176 0)
(24.8611727925328 6.160184210212273 0)
(24.99142037120172 -0.004670806288134851 0)
(25.01402225717845 0.1756102077100827 0)
(25.70228171756149 1.292652178503412 0)
(28.59655975048823 3.39694931127785 0)
(24.99063501914518 -0.00377446488820283 0)
(25.12569273567041 0.09971444266290896 0)
(25.92714454129339 0.5691285407077161 0)
(29.76574596895813 0.9752850357025263 0)
(24.99804086890436 -0.001842561328595975 0)
(25.09049904894798 0.003602850896642781 0)
(25.72868474752682 -0.1755203534704956 0)
(27.74064927713428 -1.787591659842783 0)
(25.00010440364442 -0.001116661977487559 0)
(25.01926539632494 -0.04124172428747969 0)
(25.13980507341189 -0.8595232038659161 0)
(22.52198999249958 -4.216390860687621 0)
(19.1791668156641 -5.67846360843166 0)
(24.61914936816185 -1.09405314210396 0)
(24.98441501735596 -0.05413943661181542 0)
(24.99977050714832 -0.0009972754939277936 0)
(17.23500112112647 -5.876842259128396 0)
(24.19028863428756 -1.121299857911868 0)
(24.96581710843789 -0.05763736371642142 0)
(24.99951909022054 -0.0007394607530445547 0)
(16.43297398842784 -4.847761853825427 0)
(23.95161805992732 -0.8782754044224947 0)
(24.96272939792922 -0.03800971705903641 0)
(24.99984798956537 -0.0002623098799404698 0)
(15.25195360887215 -4.018219596592363 0)
(23.73189729773869 -0.7699206301976891 0)
(24.95816063165919 -0.03278900901811122 0)
(24.99976428573335 -0.0002695377903039588 0)
(16.76864717660375 -1.996273941018393 0)
(24.02497246656912 -0.4426696814887632 0)
(24.97592552187991 -0.01735019617266892 0)
(24.99990019898994 -0.0001197645413649411 0)
(18.9257645291154 -0.2119494507118902 0)
(24.38665839440833 -0.2203013322160476 0)
(24.98992041798837 -0.006580481738514659 0)
(24.99996339461347 -3.589906362176654e-05 0)
(20.90691244794598 0.4029828422400985 0)
(24.66662808013589 -0.1233846155098704 0)
(24.99622540703972 -0.002827419009255355 0)
(24.99998897428959 -1.458671181669949e-05 0)
(22.42730916191217 0.5720472084472078 0)
(24.86379996331802 -0.1264007973434663 0)
(24.99938040226678 -0.001920109983929059 0)
(24.99999751441934 -7.570586265268236e-06 0)
(22.3884968533676 -0.3072090498751635 0)
(24.76975703549945 -0.01336077924169087 0)
(24.9919266055851 -0.0001779484911002918 0)
(24.999910756847 -8.019270165982721e-07 0)
(22.56861718634132 -0.7386005327349955 0)
(24.78454536552354 -0.03186829646302114 0)
(24.99233542090856 -0.0004661966865215818 0)
(24.99991297818612 -2.314134713070751e-06 0)
(22.50042020884904 -1.027457529883476 0)
(24.78179003285936 -0.05760097569340382 0)
(24.99274064917836 -0.0009435776933311192 0)
(24.99991764251853 -5.259357141798332e-06 0)
(22.47550861903549 -1.041921863129759 0)
(24.79621829363679 -0.07202295828861034 0)
(24.99371015344327 -0.001497612987010539 0)
(24.99993091607683 -1.078234218152818e-05 0)
(22.42730916192118 -0.5720472084761056 0)
(24.86379996336996 0.1264007973215241 0)
(24.99938040234452 0.001920109937080313 0)
(24.99999751448129 7.570583839123748e-06 0)
(20.90691244795362 -0.4029828422808971 0)
(24.66662808019059 0.1233846155077796 0)
(24.9962254070853 0.002827419030262704 0)
(24.99998897431428 1.458672946349248e-05 0)
(18.92576452912166 0.2119494507285787 0)
(24.38665839444203 0.2203013322351395 0)
(24.98992041798812 0.006580481777381467 0)
(24.99996339462687 3.589906790429761e-05 0)
(16.76864717658243 1.996273940999127 0)
(24.02497246659597 0.4426696815248461 0)
(24.97592552186029 0.01735019617341613 0)
(24.99990019898513 0.00011976454722926 0)
(24.99977050711863 0.0009972755074486547 0)
(24.98441501733707 0.05413943659907934 0)
(24.61914936812063 1.094053142093129 0)
(19.17916681560591 5.67846360851901 0)
(24.99951909019495 0.0007394607933720494 0)
(24.9658171084435 0.05763736372419211 0)
(24.19028863426137 1.12129985791473 0)
(17.23500112106483 5.876842259175446 0)
(24.99984798955418 0.0002623098761655785 0)
(24.96272939793447 0.03800971705479841 0)
(23.95161805995694 0.8782754044637084 0)
(16.43297398838004 4.847761853847367 0)
(24.99976428572742 0.0002695377882459011 0)
(24.9581606316258 0.03278900899057757 0)
(23.7318972977541 0.7699206302252072 0)
(15.25195360884837 4.018219596590008 0)
(22.52198999245176 4.216390860687196 0)
(25.1398050734011 0.8595232038832532 0)
(25.01926539634487 0.04124172431978602 0)
(25.00010440365747 0.001116661930249523 0)
(27.74064927710194 1.78759165986203 0)
(25.72868474753686 0.175520353468698 0)
(25.09049904893671 -0.00360285091827981 0)
(24.99804086890546 0.001842561332804985 0)
(29.76574596895905 -0.975285035679702 0)
(25.92714454129812 -0.5691285407256987 0)
(25.12569273566374 -0.09971444266172851 0)
(24.99063501912116 0.003774464900821282 0)
(28.59655975048441 -3.396949311265869 0)
(25.70228171759287 -1.292652178493554 0)
(25.0140222572138 -0.1756102076688558 0)
(24.99142037117336 0.004670806282161256 0)
(24.99540006327189 0.006494503308441729 0)
(24.94652002278077 -0.1150839061480285 0)
(23.2780029265438 -2.97516490430862 0)
(18.64248147720858 -10.10839840566639 0)
(24.99193527968369 0.01000931065956473 0)
(24.94597450038055 -0.1714313703113268 0)
(23.5775039718987 -3.125815520811188 0)
(19.95469563722953 -9.752453651389418 0)
(24.99701747232199 0.01242215772319849 0)
(24.97008557993383 -0.1529933931857278 0)
(24.3215732110196 -2.546511448624812 0)
(22.33674096403143 -8.617884279317252 0)
(24.98715360218888 0.008907410512695181 0)
(24.98386560209244 -0.08859939841140421 0)
(24.9617230952779 -1.609340412841109 0)
(24.86117279253173 -6.160184210204453 0)
(18.24168513811141 -9.771353286380727 0)
(23.5957377484658 -2.397532041366563 0)
(24.96892578366384 -0.081797860847505 0)
(24.99636943336207 0.004407834792238584 0)
(18.22843907862444 -9.191321471874208 0)
(23.77341671275067 -1.928962220579427 0)
(24.97432293985494 -0.05319772110753918 0)
(24.99811649496657 0.002918724323388165 0)
(18.25164148239567 -8.495229018606162 0)
(23.99151164620416 -1.451135376119044 0)
(24.98494710879526 -0.03509525502740695 0)
(24.99837230931557 0.001980677769267782 0)
(18.22079643776037 -7.636252247899512 0)
(24.11303941998143 -1.063757728759661 0)
(24.98630290480857 -0.02090951452255578 0)
(24.99936458505117 0.001133840635162936 0)
(24.99999113022601 1.861395835688855e-05 0)
(24.99931880797955 -0.0003603089527878673 0)
(24.83770266441932 -0.05759154893553151 0)
(19.51798148423905 -1.69473980319569 0)
(24.99993523359853 7.942804651022137e-05 0)
(24.99829459795761 -0.001437831165844081 0)
(24.70313728134702 -0.1628816356394115 0)
(19.16943065599399 -3.323048762067062 0)
(24.99989643170338 0.0002621771148862732 0)
(24.99512366155448 -0.004557596670017091 0)
(24.50104917377561 -0.3734120964905582 0)
(18.55637218519296 -4.978099563770671 0)
(24.9995323995757 0.0006083292757361178 0)
(24.99287464366887 -0.01022739937058405 0)
(24.33049757436964 -0.6516106551819829 0)
(18.42071367335599 -6.379242179172707 0)
(24.99999821668336 5.893252248121051e-06 0)
(24.99999978764546 1.391191966180499e-07 0)
(24.99999572309791 1.765823217721442e-06 0)
(24.99996153282099 1.760612539163195e-05 0)
(24.99992610404805 -0.0001287369943251312 0)
(25.00000321910393 -6.752557798784568e-06 0)
(25.00009265166403 -9.650246747885769e-05 0)
(25.00063830754353 -0.0007764295548747121 0)
(24.97562413822113 -0.02011025323752179 0)
(25.00115642721186 -0.002011937018226533 0)
(25.01512204326099 -0.01135869401926119 0)
(25.04587329430094 -0.04699043832523044 0)
(23.56804257536786 -0.6733429658213915 0)
(24.99534125610444 -0.1569634804756113 0)
(25.22646779988528 -0.08121901418816502 0)
(25.38602068423392 -0.2500413434328579 0)
(24.99983348504078 8.326775519443203e-05 0)
(25.00214761775224 -0.003129396184258081 0)
(25.0899317734209 -0.1081695527156722 0)
(25.52264176921286 -0.3640611319923559 0)
(24.99958538405642 0.0002353320860104305 0)
(25.00390703587006 -0.007481153082446634 0)
(25.12590417082189 -0.1875284049545655 0)
(25.64808578049382 -0.5169462101762634 0)
(24.99932401733625 0.0004615744796611674 0)
(25.00434145869134 -0.0122995679782292 0)
(25.14002315517687 -0.2750474929948659 0)
(25.74435466934361 -0.7276308742414731 0)
(24.99918602747575 0.000668480647450275 0)
(25.0031289099761 -0.01553597425398138 0)
(25.12610932547319 -0.3604016642408189 0)
(25.77863739451222 -1.038711406055727 0)
(24.99987916605841 0.0001512790430376128 0)
(24.99801051106229 -0.002724010057971091 0)
(24.86391209263396 -0.2174101437549218 0)
(24.781261085987 -2.758242996353623 0)
(24.99971681723895 0.0004237111556687047 0)
(24.99561846495667 -0.007760149630162329 0)
(24.89193331036321 -0.3899833934098865 0)
(25.23738423310632 -2.492605546931633 0)
(24.99940251797825 0.0007302860679558563 0)
(24.99680673350592 -0.0145760095506592 0)
(24.99852768792382 -0.4551666577000523 0)
(25.46751600634002 -2.012545317402001 0)
(24.99919655224925 0.0007746663681713931 0)
(25.00089316321702 -0.01675359924512024 0)
(25.08684697062741 -0.422032206025353 0)
(25.68878208621579 -1.486258532267063 0)
(23.88277731268999 -2.583685010598052 0)
(24.94006477189647 -0.1046096526553722 0)
(24.99957375169911 -0.0007923889449161181 0)
(24.99995714545457 5.131024999705545e-05 0)
(23.85031367176378 -2.178156861933429 0)
(24.93653611112272 -0.09328467807598852 0)
(24.99959089322783 -0.0008678823364515186 0)
(24.99996179384967 7.594467787452355e-05 0)
(23.76425303667836 -1.973022389331972 0)
(24.94269367733696 -0.0500200202080797 0)
(24.99966924729879 -0.0001971802037107331 0)
(24.99999261684146 -1.064500809812428e-06 0)
(23.84931166051775 -1.621143353699624 0)
(24.96533286369133 -0.01344969188366852 0)
(24.99990029320538 -1.210797844211176e-05 0)
(24.99999913589087 1.852054111557536e-06 0)
(23.85560167232934 -1.291092842411624 0)
(25.00017533556383 0.01744785949058185 0)
(24.9999914819839 3.289568924044468e-06 0)
(24.99999997200071 1.426921766963999e-07 0)
(23.8840503400777 -1.030635130391156 0)
(24.99316313386984 -0.01281413890879964 0)
(25.00000020558382 -5.260773752692866e-07 0)
(24.99999999959171 9.505549491831553e-10 0)
(24.01364878677464 -0.5557373655325905 0)
(24.99531271338168 -0.001154835237212778 0)
(24.9999999785674 4.501600427430385e-09 0)
(24.99999999996918 -4.991854721374725e-11 0)
(24.43804074970557 -0.05812866421437674 0)
(24.99773029169789 1.714832384181322e-05 0)
(25.00000002987084 4.047914471805351e-10 0)
(25 4.627641895508732e-12 0)
(25.00000000000001 2.147234503289462e-15 0)
(24.99999999999308 2.212113235100197e-11 0)
(24.99999705271803 3.616352274937799e-06 0)
(24.99925954251426 0.0004417367031367362 0)
(25 9.818257140271249e-16 0)
(24.99999999997629 2.038762986503604e-10 0)
(24.99998798725444 1.732084622746238e-05 0)
(24.99505997207607 0.0137248828899114 0)
(25 -1.041224298970483e-13 0)
(25.00000000171897 -2.634830420976136e-09 0)
(24.99993691400224 5.470062325552088e-05 0)
(24.98209785668266 0.05003411945053775 0)
(25 1.276930879886205e-12 0)
(24.99999998378258 9.932451671433403e-10 0)
(24.99956585342791 0.0002667308052090774 0)
(24.86296546114198 0.1304859258029386 0)
(24.9976839458381 -2.479452746291423e-11 0)
(24.98914460093134 0.02483105269302047 0)
(24.93133736154858 0.07012812793674493 0)
(24.54429811284403 0.02625549027397034 0)
(24.98914460090686 -0.02483105278072107 0)
(24.94668380375101 -5.228650029178326e-11 0)
(24.71177524133573 -0.01039554427175461 0)
(23.74592701464855 -0.3303030046604992 0)
(24.9313373615403 -0.07012812796080234 0)
(24.71177524133115 0.01039554424491704 0)
(23.8415978170969 3.165819550517589e-11 0)
(21.86410245039313 -0.5124345863437241 0)
(24.54429811285502 -0.02625549033960448 0)
(23.74592701466996 0.3303030045963319 0)
(21.86410245038411 0.5124345863428771 0)
(19.41007040517021 -2.674313125872965e-11 0)
(18.65330221733733 2.672479813970087 0)
(19.37202631487255 3.143073435371612 0)
(21.25438156975677 2.728032590114138 0)
(22.85858692319525 1.744422196769835 0)
(19.5718825222027 4.489494098414444 0)
(19.80031248666418 4.461108346587791 0)
(20.71760762693173 4.421779599077353 0)
(21.96340805010825 4.061376637544492 0)
(20.07134659124495 5.420442909143273 0)
(20.55671651883537 4.711542690695196 0)
(21.34626080642541 4.838087457061224 0)
(22.16305502030598 4.708822404822892 0)
(20.83125136933422 5.688372567383311 0)
(21.18012779339263 5.005368813072073 0)
(21.73997380967502 5.071780727511953 0)
(22.27990970314863 5.010471849646163 0)
(22.55802416845751 5.28399186192725 0)
(22.76715668057433 5.392239214411086 0)
(22.93608786493867 5.415483681718912 0)
(23.23631461701453 5.606678964654686 0)
(22.21984696394225 5.400319674706519 0)
(22.67489708009127 5.518751889382261 0)
(22.90173727884561 5.473850173412703 0)
(23.73511860612541 5.810177155795285 0)
(21.76805204125188 5.297543233605175 0)
(22.44311539236628 5.524010337197733 0)
(22.79189261017335 5.527404012259629 0)
(25.12838097149853 6.205071170243799 0)
(21.06023083021288 6.225663842526732 0)
(21.16474990455393 6.214489079135377 0)
(21.49823737464938 5.863040349724003 0)
(26.7271517425616 7.361764384859849 0)
(27.284685701341 3.383613708566227 0)
(27.25611015399833 0.8917488880559787 0)
(26.41168965626164 0.4637204993874371 0)
(26.17563224688959 0.358951463141362 0)
(29.06445878515698 2.511011648594861 0)
(28.82040003225872 0.3104271887155574 0)
(27.61158842882785 0.3571008063733386 0)
(26.90531342059286 0.3139721602575949 0)
(31.84601197301634 2.09302661480907 0)
(29.87215973986251 0.0806611883935112 0)
(28.26509801338024 0.08512261318370727 0)
(27.32786533519671 0.07720819770697407 0)
(25.16455410318827 1.947103790100759 0)
(23.43893413533499 0.786671620634916 0)
(23.10060375855492 -0.06908875488476797 0)
(23.23376783502212 -0.4531363709388961 0)
(26.07212208036159 0.1908810585793133 0)
(25.92327352863489 0.1065839813590665 0)
(25.76700095309597 0.108916759596039 0)
(25.60993249654347 0.1284824724529069 0)
(26.52983960692788 0.1646451420353225 0)
(26.2284092143036 0.05256376484088006 0)
(25.97713411999166 0.06350680113391038 0)
(25.7836811402746 0.08421087173589051 0)
(26.78601142349873 -0.006661709070286897 0)
(26.41408478382509 -0.06387336554132511 0)
(26.12769601599912 -0.03105351739991246 0)
(25.92482537449722 -0.0006837138199869945 0)
(23.54460499532929 -0.7267362232750473 0)
(23.94473156846485 -0.8802032671233153 0)
(24.30305787419674 -0.8513020793733653 0)
(24.67525322991008 -0.6472695916273452 0)
(25.53273497259362 0.05371955977106956 0)
(25.36147195582352 0.0362840988741349 0)
(24.41108383704077 1.475301350201706 0)
(18.73096918685043 4.45339766171522 0)
(25.67325624869374 0.0346141135949797 0)
(25.44529005361404 0.0128393003497849 0)
(23.56488751136605 2.119406374694019 0)
(15.17461069456815 3.999713554816441 0)
(25.79101438211725 -0.00735894574042103 0)
(25.51943181423069 -0.03400941065031134 0)
(22.02832034514933 2.081205052313186 0)
(11.64894203275055 2.288829298590648 0)
(24.93985443007641 -0.4620339849007763 0)
(25.09206355742779 -0.2481631622357922 0)
(18.78479084244424 -0.2068401299565779 0)
(5.778417280105459 0.6224617649058165 0)
(13.60777832707472 6.540416276550562 0)
(14.75059779043156 7.632961399936587 0)
(15.17585575301882 8.771428035965004 0)
(15.82588771197248 9.698187046030791 0)
(12.11750077880914 6.623182533511516 0)
(14.2069885575053 7.654560568621229 0)
(15.00489000903532 8.934717439959504 0)
(15.76502410554546 9.804184530259018 0)
(9.566100864738653 5.332780910929107 0)
(12.56522832602322 7.178327485137666 0)
(14.1607157463298 8.871332843821948 0)
(15.34934367651604 9.833596295058985 0)
(4.489232583199382 3.033515935297786 0)
(7.934942407478487 4.373731111221123 0)
(11.24048916513389 6.027271817794776 0)
(13.11548869403583 7.997221248069295 0)
(16.0337785070414 10.39329836990195 0)
(16.10640147525423 10.70873340590428 0)
(16.14987273048826 10.83627463136622 0)
(16.33034743416659 10.9627041226307 0)
(15.9828210619287 10.34587847257899 0)
(16.07199640997488 10.61753256375706 0)
(16.1564401008716 10.75081022595826 0)
(16.38001369846313 10.89648465253754 0)
(15.84135452973368 10.33341510853202 0)
(15.99034109775968 10.5691441501009 0)
(16.10086921760458 10.71386427522626 0)
(16.33745263010175 10.86882034186964 0)
(14.3678709761711 9.462047013121497 0)
(14.81635584611066 10.402917337206 0)
(15.10360318833621 10.7746176604797 0)
(15.3907545323334 10.72750211485898 0)
(16.75192826737636 11.1682762386383 0)
(18.0510191623836 11.34527641490066 0)
(20.48709379195302 11.0560452996818 0)
(23.68337836475952 9.423095474717471 0)
(16.83803914005771 11.14599781881467 0)
(17.9888920750107 11.33516691098877 0)
(20.22769422337696 11.20395300897387 0)
(24.18837386857222 11.69345542340446 0)
(16.80276447570356 11.14864627938733 0)
(17.73349189129044 11.31894188800826 0)
(20.41407141075921 11.95214524373327 0)
(30.07572488494142 17.63074768121081 0)
(16.08575394120619 11.08300646801871 0)
(17.45363189839866 10.69848027305616 0)
(21.01101469773437 12.41331789371033 0)
(41.43700947291482 24.25688172848708 0)
(29.19866050783066 4.506862026463867 0)
(31.82331958292266 -4.76957799541768 0)
(9.672480282969714 -3.379376666197902 0)
(4.237407733608887 -1.182404840929704 0)
(30.87854746527255 3.825436477616571 0)
(25.31411338020571 -2.918361294589953 0)
(4.159392138174097 -1.449675271306371 0)
(1.975441050786569 1.801080275318942 0)
(31.34201690127717 2.979127329074607 0)
(15.84692080135082 -5.487892792255205 0)
(2.118569617042211 2.193768780538362 0)
(1.298206034466975 2.683625136809608 0)
(20.73430953936836 -9.003120574913925 0)
(4.673296345450632 -4.668457794434238 0)
(-0.121374310583157 3.52071029589061 0)
(0.1632191042345376 2.435507553255922 0)
(2.11219495631288 -1.687933052962397 0)
(0.7985836097481577 -1.7815475030062 0)
(0.07447561837570109 -1.563797644961332 0)
(-0.8186782508096893 -0.5730543403295428 0)
(0.9117124779510623 1.193772513305278 0)
(0.07630269216369874 0.7195667149618491 0)
(-0.3784993317368834 0.6565402267758162 0)
(-0.5248440665720379 1.302592086267321 0)
(0.7210919496016983 1.921627839272611 0)
(0.4569168171357074 1.67170063116558 0)
(0.2154657663899519 1.971982182499601 0)
(-0.1477617575615667 2.389404870372709 0)
(0.1649326511244323 1.895799209562642 0)
(0.07623645195175378 1.881957600493763 0)
(-0.05683780945644254 2.456374149587072 0)
(-0.5744665038134119 2.512128706230101 0)
(4.921970410341855 -4.665842762291004 0)
(12.02223974626164 -6.366103310343633 0)
(17.10198091881738 -5.872113040169713 0)
(21.33715139972894 -6.259431134694293 0)
(2.07307228677467 -2.096099866739103 0)
(8.985053056629017 -4.277014875537777 0)
(14.78701621582929 -4.814628632475324 0)
(19.78642949166398 -5.981737190880231 0)
(-0.872308959316065 -1.422313192562266 0)
(3.888411614898143 -3.381459035647693 0)
(10.69300416691826 -4.145461691855373 0)
(18.47012625715033 -4.219544128218979 0)
(-1.475491837035109 0.4476970499452995 0)
(1.27763931393416 -0.09325170692546689 0)
(8.732637458234301 0.7804278425217156 0)
(20.44045686435892 -2.323017722458219 0)
(22.65677969657229 -10.9286683698379 0)
(24.8653213775779 -13.23882023210762 0)
(23.85001778452106 -10.79917185410351 0)
(17.18359765397903 -7.086632471271512 0)
(20.61753106048774 -9.929817953483912 0)
(21.6611817921143 -9.249798950307156 0)
(19.31175132249432 -6.028390813605647 0)
(12.11390259876981 -4.37169946636464 0)
(19.35532834292509 -8.66703976109307 0)
(16.12956408364487 -5.444494569980082 0)
(10.62365322255254 -3.409781956237468 0)
(5.267653014547047 -0.9957601174407814 0)
(12.9873684039325 -9.805668176880895 0)
(7.52822508943083 -2.452159365102392 0)
(3.74297838955435 0.9790266716333449 0)
(1.56330155074449 2.212223951385831 0)
(-0.3305893290920091 2.851641279534003 0)
(-1.473773821354893 2.521697701653709 0)
(-1.858471868523243 1.638731118979495 0)
(-1.83718353506053 0.5699196422248698 0)
(1.629715373311405 1.473894051102411 0)
(-1.166979727601833 1.77533333924604 0)
(-2.731226579392276 1.212201591279973 0)
(-3.00014493646841 0.3733663577190043 0)
(3.507679663353402 -1.801586920792282 0)
(-1.153767716419701 -0.9113968485468005 0)
(-2.820405373981137 -0.4369972704055382 0)
(-3.070115082602319 -0.1104148286140132 0)
(9.513740655967164 -4.399510236589739 0)
(5.364354515344639 -3.30978270567395 0)
(3.867948521281968 -1.827957311337976 0)
(3.641414651949964 -0.5303250953077839 0)
(-1.837183535059939 -0.5699196422161017 0)
(-3.000144936469933 -0.3733663577071215 0)
(-3.070115082606714 0.1104148286149499 0)
(3.641414651920183 0.5303250953015733 0)
(-1.858471868521578 -1.638731118970836 0)
(-2.731226579390982 -1.212201591269546 0)
(-2.820405373981933 0.4369972704110824 0)
(3.8679485212908 1.827957311333803 0)
(-1.473773821351399 -2.521697701645142 0)
(-1.1669797275977 -1.775333339239096 0)
(-1.15376771641633 0.9113968485497331 0)
(5.364354515356718 3.309782705681882 0)
(-0.3305893290870714 -2.851641279526598 0)
(1.629715373315558 -1.473894051096224 0)
(3.50767966335644 1.80158692079893 0)
(9.513740655973036 4.39951023660394 0)
(17.18359765396433 7.086632471276222 0)
(23.85001778450499 10.79917185409155 0)
(24.86532137756521 13.23882023210087 0)
(22.6567796965574 10.92866836983104 0)
(12.11390259877067 4.371699466367361 0)
(19.31175132249323 6.028390813607912 0)
(21.66118179211538 9.24979895031108 0)
(20.61753106047825 9.929817953481496 0)
(5.267653014548079 0.9957601174459575 0)
(10.62365322255349 3.409781956241329 0)
(16.12956408364255 5.444494569988618 0)
(19.35532834292431 8.667039761095603 0)
(1.563301550748498 -2.212223951380025 0)
(3.742978389552983 -0.9790266716286516 0)
(7.528225089426217 2.452159365107783 0)
(12.98736840393471 9.805668176887018 0)
(20.44045686435798 2.323017722458875 0)
(8.732637458236248 -0.7804278425179469 0)
(1.27763931393791 0.09325170692971811 0)
(-1.475491837034452 -0.4476970499424785 0)
(18.47012625714713 4.219544128215254 0)
(10.69300416692014 4.14546169185187 0)
(3.888411614900979 3.381459035654671 0)
(-0.8723089593204645 1.422313192564569 0)
(19.78642949165064 5.981737190875636 0)
(14.78701621582423 4.814628632470654 0)
(8.985053056624093 4.277014875545778 0)
(2.073072286759143 2.096099866745802 0)
(21.33715139971243 6.259431134683871 0)
(17.10198091881229 5.872113040155751 0)
(12.02223974625082 6.366103310353899 0)
(4.921970410313053 4.665842762300078 0)
(-0.8186782508365155 0.573054340325466 0)
(0.0744756183300604 1.563797644954575 0)
(0.7985836097336457 1.781547502983496 0)
(2.112194956316673 1.687933052995304 0)
(-0.5248440665905466 -1.302592086257056 0)
(-0.3784993317608861 -0.6565402267782845 0)
(0.07630269217721689 -0.719566714987091 0)
(0.9117124779913702 -1.1937725132978 0)
(-0.147761757571048 -2.389404870366822 0)
(0.2154657663727482 -1.971982182506205 0)
(0.4569168171403752 -1.671700631185054 0)
(0.7210919496224184 -1.921627839274161 0)
(-0.5744665038170143 -2.512128706227467 0)
(-0.05683780946403857 -2.456374149597792 0)
(0.07623645195070647 -1.881957600507645 0)
(0.1649326511232812 -1.895799209562281 0)
(4.237407733577346 1.182404840939325 0)
(9.672480282854044 3.379376666160191 0)
(31.82331958283098 4.769577995469699 0)
(29.19866050781506 -4.506862026450741 0)
(1.97544105079535 -1.801080275299402 0)
(4.15939213814038 1.449675271264305 0)
(25.31411338014789 2.918361294580491 0)
(30.87854746526619 -3.825436477605586 0)
(1.298206034470843 -2.683625136790945 0)
(2.11856961703563 -2.19376878055215 0)
(15.84692080131146 5.487892792253849 0)
(31.34201690127063 -2.979127329075726 0)
(0.1632191042374291 -2.435507553240619 0)
(-0.121374310574427 -3.52071029589885 0)
(4.67329634545526 4.668457794389234 0)
(20.73430953939238 9.003120574898736 0)
(23.68337836476511 -9.423095474709568 0)