/*--------------------------------*- C++ -*----------------------------------*\
  =========                 |
  \\      /  F ield         | OpenFOAM: The Open Source CFD Toolbox
   \\    /   O peration     | Website:  https://openfoam.org
    \\  /    A nd           | Version:  11
     \\/     M anipulation  |
\*---------------------------------------------------------------------------*/
FoamFile
{
    format      ascii;
    class       surfaceScalarField;
    location    "0.2";
    object      phi;
}
// * * * * * * * * * * * * * * * * * * * * * * * * * * * * * * * * * * * * * //

dimensions      [0 3 -1 0 0 0 0];

internalField   nonuniform List<scalar> 
1652
(
1.706212168242967
0.5337381654508384
0
1.172474002834411
0.533738164852904
5.080380560684716e-13
0.638738014698747
0.5337220116698163
1.052491427344648e-13
0.5308825734785529
-3.714584195790849e-12
0.1051990577823533
1.706212168246045
1.06747633089766
1.172474002722748
1.067476331135549
0.6387408462839
1.067426651758821
1.057972597900197
0.1066540782332408
1.706212168254437
1.601214496347337
1.172474003558475
1.601214496822689
0.6387480936848456
1.60107948284618
1.580429624154225
0.1082276237853558
1.706212168255744
2.134952661793029
1.172474003057855
2.134952657992092
0.6387630914687776
2.134596573613638
2.101130524201008
0.106093681232405
2.651191215332395
1.723711780224864
3.167429769046958
1.723711780169491
3.683668333903476
1.723711779819439
1.723711846908143
4.199906042799022
2.651191181189131
1.207473238883441
3.16742946383255
1.20747317264052
3.683658134072225
1.20747344703101
1.207477491952332
4.199891361457161
2.650902790635898
0.6906656048825532
3.16744484057049
0.6899231818203534
3.684270372188509
0.6890840914453862
0.6896463552601615
4.199285419515681
2.646592345844584
0.123736930583743
3.261476226043689
0.04823520960291389
3.89105338125944
0.02358627062454854
4.525751303477562
0.01462133950473604
4.164906591427814
0.03499781630243082
4.129904621641002
0.03499982319337192
4.094909114826434
0.03500237592431932
0.03492118760637442
4.059895998922819
4.164945672636378
0.06988111206327341
4.130065079730682
0.06967824048725874
4.095433625038933
0.06922019942942226
0.06879871134744603
4.060810435850753
4.17268697778983
0.0911755701707761
4.148966094988417
0.08423976258677657
4.129353943629552
0.07740079474063538
0.07113389034462536
4.111186358212843
4.573882785167325
0.008932952721274479
4.616214429407797
0.006733750758879165
4.657526526782698
0.007400920803982414
4.696342633905546
0.007244646754140327
4.672558764902737
0.088668070847435
-0.06784058211211472
4.610835152284835
0.08203691743549302
-0.01649850496913488
4.556649466598451
0.075191027941021
-0.009203369702360242
0.06662039928304669
4.510266467178198
-0.008728527111879214
4.171619048880241
0.005244307576657892
4.218013070063866
0.01032368392848437
4.252781392079574
0.01589834012727109
0.02069919287535915
4.2751091515739
4.062964025380285
0.0003225637074012466
4.067449787007368
0.0009276499059588383
4.074347034289126
0.001949438365041134
0.003151967253704147
4.082845024436552
4.059885549788757
4.059958591947619
4.060185580976753
4.060207254209583
4.060241030986684
-0.004175267959189544
4.059948279655814
-0.004553813671900331
4.059621062783563
-0.004281536795295304
-0.003735794930514125
4.059383807251611
4.091238318050179
-0.02326244603075384
4.095449302215473
-0.02347978761753838
4.094401095280832
-0.02094114672490016
-0.01747448713780519
4.090887059674342
4.289012241405877
-0.05665460340808681
4.291338026455024
-0.0463125741313683
4.281309186717809
-0.03658473930412381
-0.02770394496223094
4.263077690391246
4.474006373617319
-0.00684286335123685
4.458323271726231
-0.003583012699929389
4.454208074243237
-0.0006343606286562387
4.438789781961602
0.002597371142082361
0.02310124411344527
4.412879034610715
0.002410831945348524
0.01410272466989537
4.237873597753903
0.002952078851795381
4.085202541696209
4.059298648830637
0.01795085756166276
4.379265473802727
-0.003732079153916934
0.01089931416511558
4.206649119831363
0.002119556881244544
4.078363390766672
4.059351468143318
0.01151431710409412
4.397121453903626
-0.1019657705142678
0.004612778898355652
4.168758282907356
0.001017781722748023
4.069863986004988
4.059501296423266
0.04010572469101559
4.263067267312231
-0.1356222351540396
0.002698647672503052
4.136506437020754
0.000343612055185516
4.063484228766826
4.059669481687082
0.09309477922226056
3.966515874434071
0.1838378710456756
3.968381527520949
0.2009960336110414
4.021763079542013
4.048838473840913
0.1346180480867947
0.09296438099631271
3.873289794453457
0.1814478655897049
3.874990975109669
0.1650106123688577
3.924433654378368
3.853335694608837
0.09947573419699751
0.092271174319003
3.780239313253464
0.1747262639802398
3.783239617749769
0.1055135101458458
3.840282802139598
3.655025071869499
0.06205909246079822
0.09083475668909102
3.687345425258408
0.1619035239891947
3.693162871887782
0.04404969261989966
3.762671101935251
3.462390598983352
0.0425116413061809
0.02700186509153479
3.247043259754782
0.04959977169233731
-0.1381212099215043
3.679285009345944
-0.08756916671570697
3.605012897423276
3.59519863730894
0.09271175839471091
3.034859233244988
0.03421232883410963
-0.1001978356710568
3.58547557774271
-0.08209544877826713
3.5186863262745
3.503719363690565
0.1258636722261821
2.852834963730733
0.01145967672269887
-0.04696568819162916
3.450668400098368
-0.07248038707749882
3.433316434873125
3.413860505201618
0.1536512567809128
2.688393415322837
-0.00873696760738929
0.01049167164174314
3.3364217143401
-0.05806020791780331
3.341904578889061
3.325657531904996
0.06174080612068189
3.21467216142607
-0.02823225486652903
3.233529772294056
-0.09633501843105963
3.225768745521148
2.67587072331722
-0.02620629769059157
0.05568404424072837
3.100803637695029
0.01278573122773607
3.110400189359509
-0.005755074967504603
3.155522641062452
2.714087042368253
0.01409785046098477
0.06865240604594769
2.978933394005579
0.07102350061803819
2.987620052033856
0.09423121424311298
3.073520290695255
2.772715690100004
0.09663283355860786
0.08592362205697812
2.851603172428729
0.1329652116650675
2.860863041536178
0.2005248617991596
2.954310440666797
2.798758162386944
0.2336680256072574
-0.239258908934691
3.051526962866624
-0.5146659014284336
3.082970143038391
-0.7305898717627628
3.178412929703274
2.931038227370401
-0.7927939092571678
-0.2299077981770677
3.253266222995659
-0.4808935264336663
3.305100605556202
-0.6592751495115273
3.38274649197812
2.664787025114534
-0.2667667825924074
-0.2183206333498268
3.452447065024835
-0.4377732318007896
3.506599617253087
-0.5825799541808082
3.564394001741343
2.28888312151344
-0.04216334591520703
-0.2097317231651063
3.650567077878391
-0.4088543465758914
3.697158459244361
-0.495826719643902
3.69445211106889
1.972776274355691
-0.02571510317461269
0.2037319186410675
1.87368352211822
-0.01179546511544351
0.1966514885090348
3.752700030883098
0.09943896209892078
3.790519088199721
3.748318861758213
0.170142141257335
1.8056299799712
-0.007637950628650157
0.1857130191696551
3.806295394463639
0.1035246618821699
3.872951802726952
3.851160711782053
0.1392380391567027
1.803970567579572
-0.005225952574651103
0.1808672059161864
3.839520052593955
0.1035571562338553
3.956820963918866
3.955326997323979
0.1061720434550147
1.836044574230964
-0.004570885788350389
0.1754037914934548
3.863262340809774
0.1032619055982783
4.045173491112227
4.059661927666483
-0.2431999929077596
2.271422281691348
0.0292970849775384
-0.05555969560216834
3.81318553011444
-0.002819211620664008
4.040008073706847
4.059488927579154
-0.1897393596934629
2.530091013437126
0.09326852210473666
-0.03750439469115074
3.799820892059546
-0.001406424560381314
4.04452426157566
4.059724495074318
-0.1305520038012222
2.6235854448814
0.1073642888444106
-0.02213587664097483
3.832720276337374
-0.0006178104196723488
4.05298343228345
4.05985320747004
-0.1033546835727691
0.1261109727835975
2.657681737239089
-0.01395417857560022
3.878607818254496
-0.0002546893303299047
4.052851526591493
4.059881633055868
0.5212535699218149
-0.115312531121528
-0.007970299899748578
-1.162181462177614e-12
1.164753238640154
-0.4897214934556495
-1.524114168205415e-12
1.713394886485643
-0.5237458787289451
1.035438401686406e-11
-0.5249446078399389
-8.768541448489486e-12
0.5067307741437632
-0.3109006479431171
-0.009236694686146251
1.163414731200682
-0.9693624533869833
1.713513561695275
-1.046120777927687
-1.049887601494868
0.4894359367867392
-0.5889264439438171
-0.01195433439228694
1.16006630402905
-1.442613710964373
1.713595939168596
-1.568484991198024
-1.574840264574219
0.4748774189838568
-0.01619799486536035
-0.9459433938851469
1.15695385010262
-1.921665423499205
1.713660091795235
-2.090641973390027
-2.099802192684795
-0.1033546835712099
-2.623585444879204
0.1261109727834079
2.657681737236597
-0.01395417857149306
-3.832720276340967
3.87860781825169
-0.0002546893284560703
-4.052983432280046
4.05285152658433
-4.059853207471676
4.059881633052542
-0.1305520038003704
-2.530091013433842
0.1073642888444179
-0.02213587664226413
-3.799820892065821
-0.0006178104239404902
-4.044524261579015
-4.059724495076734
-0.1897393596941657
-2.271422281688787
0.09326852210449731
-0.03750439469475886
-3.813185530121419
-0.001406424561614772
-4.040008073710729
-4.059488927579938
-0.2431999929071927
-1.836044574226357
0.02929708497745867
-0.05555969560488694
-3.863262340817418
-0.002819211622646201
-4.045173491111408
-4.059661927666704
-0.09943896209370234
3.748318861782454
-3.650567077909419
-0.1966514884970141
3.790519088221073
-3.697158459270574
-0.2037319186354218
3.752700030857854
-3.694452111036269
1.873683522098488
-1.972776274332956
-0.01179546511557959
-0.1035246618746583
3.8511607117969
-0.1857130191563419
3.872951802742874
-0.17014214125171
3.806295394449298
1.805629979955851
-0.007637950628648679
-0.1035571562267465
3.955326997332825
-0.1808672059015421
3.956820963925072
-0.1392380391509616
3.839520052589852
1.803970567569567
-0.005225952574482516
-0.1032619055914682
-0.1754037914780751
-0.1061720434497412
-0.004570885788159625
0.4958267196471928
-2.288883121494741
-0.02571510317449484
0.4088543465899493
-3.564394001719058
0.2097317231700548
-3.506599617269095
-3.452447065054248
0.5825799541855976
-2.664787025101067
-0.04216334591461878
0.4377732318150733
-3.382746491965637
0.2183206333560279
-3.305100605562001
-3.253266223021836
0.6592751495193204
-2.931038227366029
-0.2667667825912279
0.4808935264476304
-3.178412929697369
0.2299077981807733
-3.082970143036703
-3.051526962893314
0.7305898717702096
-2.798758162388261
-0.7927939092594216
0.5146659014390299
-2.954310440667731
0.2392589089418728
-2.860863041534943
-2.851603172404287
0.06174080612543209
3.214672161435735
-3.325657531920763
-0.02823225485904279
3.233529772302079
-3.341904578897807
-0.09633501842828684
3.225768745507692
-3.33642171431816
2.675870723311526
-2.688393415317206
-0.02620629768891392
0.05568404424601414
3.100803637699771
0.01278573123647442
3.110400189366987
-0.005755074963345042
3.155522641059002
2.714087042366159
0.01409785046204959
0.06865240605498124
2.978933393977417
0.07102350062375595
2.987620052042149
0.09423121424746728
3.073520290692605
2.772715690099039
0.09663283355939989
0.08592362205865567
0.132965211672517
0.2005248618025144
0.2336680256075873
0.1536512567852317
-2.852834963726812
-0.008736967605508905
0.01049167165615306
-3.450668400095779
-0.05806020791507249
-3.433316434903785
-3.413860505208023
0.1258636722262797
-3.034859233236449
0.01145967672363457
-0.04696568818869007
-3.58547557774736
-0.07248038707125282
-3.518686326317618
-3.50371936369302
0.09271175839834478
-3.247043259747989
0.03421232883357073
-0.1001978356693278
-3.679285009328614
-0.08209544877886621
-3.605012897413304
-3.595198637317536
0.02700186509830738
-3.462390598992034
0.04959977169443475
-0.1381212098989268
-3.762671101942217
-0.08756916670522574
-3.693162871896603
-3.687345425253834
0.09309477922232773
3.966515874434458
-4.059669481687081
0.1838378710458525
3.968381527523995
-4.063484228765681
0.2009960336096286
4.02176307954097
-4.13650643702163
4.048838473840432
-4.263067267312796
0.134618048086757
0.09296438099708526
3.873289794454985
0.1814478655912931
3.874990975104013
0.1650106123670767
3.924433654372976
3.853335694603425
0.09947573419597977
0.09227117431715187
3.780239313256952
0.1747262639764428
3.783239617753597
0.1055135101452409
3.840282802143872
3.65502507187021
0.06205909246037866
0.09083475669237151
0.1619035239964325
0.0440496926232351
0.04251164130282437
-4.059501296423957
-0.0003436120536646214
-4.059351468144629
-0.001017781722871702
-4.059298648831921
-0.002119556880442186
-0.002952078852697659
-4.0593838072521
-4.069863986003483
-0.002698647670925258
-4.078363390766416
-0.004612778899625303
-4.085202541696695
-0.01089931416561812
-0.01410272467097168
-4.090887059674761
-4.168758282907664
-0.04010572469034851
-4.206649119831264
-0.01151431710404399
-4.237873597753105
-0.01795085756221282
-0.02310124411381709
-4.263077690391708
-4.397121453903611
-0.135622235153943
-4.3792654738031
-0.1019657705135997
-4.412879034610395
-0.003732079153848877
-4.438789781960943
0.002410831945128367
-0.003735794930276648
-4.059621062782042
-0.01747448713733302
-4.09440109528194
-0.02770394496102879
-4.281309186719951
-4.454208074242803
0.002597371142661287
-0.004281536795321172
-4.059948279654835
-0.02094114672354236
-4.095449302215838
-0.03658473930361933
-4.291338026456883
-4.458323271723844
-0.0006343606284949233
-0.00455381367169494
-4.060241030985562
-0.02347978761704
-4.091238318049141
-0.04631257413162221
-4.289012241411741
-4.474006373617625
-0.003583012700328625
-0.004175267959579454
-4.060207254209431
-0.02326244603162686
-4.082845024434612
-0.05665460340790851
-4.275109151580581
-4.510266467176582
-0.00684286335110762
-0.0003225637093291489
4.059885549781205
-4.059895998913417
-0.005244307581865559
4.062964025363122
-4.060810435831409
-0.08866807085127909
4.171619048892597
-4.111186358225658
4.672558764910959
-4.696342633916058
-0.06784058211159147
-0.0009276499083906709
4.059958591940847
-0.01032368393333083
4.067449786995303
-0.0820369174390424
4.218013070077225
4.610835152290951
-0.0164985049692849
-0.001949438366992906
4.060185580974076
-0.01589834013527669
4.074347034281839
-0.0751910279455773
4.252781392089914
4.55664946660009
-0.009203369702926151
-0.003151967256273092
-0.02069919288228245
-0.06662039928610003
-0.008728527112243561
-0.07113389034762058
-4.657526526789122
0.007244646754159645
-0.0687987113614818
-4.129353943633743
-0.03492118761115293
-4.095433625027814
-4.094909114823697
-0.07740079474712847
-4.616214429409791
0.007400920803853239
-0.06922019944348723
-4.148966094984173
-0.0350023759247714
-4.130065079731809
-4.129904621638381
-0.08423976259182964
-4.57388278516308
0.00673375075859145
-0.0696782404987949
-4.172686977778498
-0.03499982319319239
-4.164945672651393
-4.164906591425774
-0.09117557017501082
-4.525751303471693
0.008932952720955789
-0.06988111207594022
-4.199285419499778
-0.03499781630573406
-4.199891361484832
-4.199906042797861
-0.6896463552590526
-3.891053381257934
0.01462133950521566
-1.207477491944073
-3.684270372176411
-1.723711846910362
-3.68365813409134
-3.683668333901622
-0.6890840914438081
-3.261476226045368
0.02358627062480345
-1.207473447023963
-3.167444840563507
-1.723711779819547
-3.167429463843442
-3.167429769046136
-0.6899231818199545
-2.64659234584724
0.04823520960275396
-1.207473172635982
-2.650902790632641
-1.723711780170175
-2.651191181194183
-2.651191215334429
-0.6906656048819735
-2.10113052420358
0.1237369305829468
-1.207473238880015
-2.134596573615203
-1.723711780227676
-2.134952657992365
-2.134952661792473
1.706212168246006
0.5337381654477971
1.17247400283858
0.533738164853389
0.6387380147020768
0.5337220116718973
0.5308825734792133
0.105199057781602
1.706212168246561
1.067476330894177
1.172474002722568
1.067476331133639
0.638740846284123
1.067426651760976
1.057972597903999
0.1066540782314394
1.706212168253672
1.601214496344275
1.172474003555959
1.601214496820286
0.63874809368348
1.60107948284749
1.58042962415927
0.1082276237841222
1.706212168252968
1.172474003054794
0.6387630914655612
0.1060936812308973
0.1050184247678488
0.105018424767713
0.1045928239619195
0.1065824979584096
0.104972678758694
0.1072010608183282
0.1041715212399215
0.1060433960589447
0.1065824979595822
0.1045928239623827
0.1062714718661657
0.1062714718662385
0.1065306911512209
0.1061320211450114
0.1002849785566185
0.1094965859863687
0.1072010608197757
0.1049726787589145
0.1061320211461676
0.1065306911515873
0.1056784192179977
0.1056784192169391
0.09681986761868849
0.1082981065798472
0.1041715212414601
0.1060433960591859
0.1002849785578563
0.1094965859870477
0.09681986761992721
0.108298106578807
0.0964973126487991
0.09649731264984704
-0.03957101838165894
0.1348528925772436
-0.06504335721660393
0.1323359318963852
-0.09409321745615362
0.1369381125481375
0.1339944372302881
-0.007937901572895034
0.1414930351890945
-0.01865798457266188
0.1416723890738094
-0.03057524247425669
0.1474013800374581
0.1500163614247898
-0.003674589138696838
0.1437305720087222
-0.01098530999898162
0.1474808960506708
-0.01743353356323918
0.1524062744202112
0.1545880452803141
-0.002066395680389521
0.1449552980874259
-0.007535242411784659
0.1519265307379497
-0.01148551891190092
0.1552279492519948
0.1564231299196931
0.1566163660996485
0.008118733675853473
0.1570969143374795
0.005732114260212806
0.1579474310235557
0.006479623262015954
0.006777022183926285
0.1587148914386248
0.1559825315473449
0.006798447010628372
0.1568252085751836
0.004453520254459331
0.1581149888272866
0.005222697450009528
0.003083600961109267
0.1621105439226193
0.1540604955726593
0.004057113454854711
0.1557014793792018
0.002400326003729192
0.157873273239923
0.00318733487964501
-0.01077071151133019
0.172111726535515
0.1483853982622967
0.1503933891012416
0.1537581401101488
0.1432865880756096
0.1467573932439505
-0.05508221308289721
0.1389251049509972
-0.007829025546864266
0.1383778574555888
-0.007332088886885274
-0.008206201852077738
0.1392596114382859
0.1498133321139814
-0.04207503133708501
0.1456327575738513
-0.002694683785738616
0.1440546456903274
-0.004274024959827316
-0.00547073576215179
0.1427921413421133
0.1559082306239907
-0.02532205905719209
0.151653085908731
0.002681226294084876
0.148876568074948
8.89474894005815e-05
-0.0009904613911807247
0.1458920635028506
0.118528024595294
0.1223568997760327
0.1240896979242377
0.1246006149560336
0.1404463694903904
-0.006578579989800298
0.1420299120880707
-0.003571777050445674
0.1440203167973809
-0.001056033690977981
0.002021260295530458
0.1458059718430809
0.1422732617115275
-0.00452746509164384
0.1423332326353424
-0.002040240504566165
0.1437312347792428
-0.0008524348623471234
0.001556772655697147
0.1453799617757965
0.1435763515666186
-0.000697574939632073
0.142748315210323
0.0002771935434523198
0.1428218110975527
0.0007552774440359178
0.001485722931653249
0.144308539515437
0.1254547935577213
0.1273486731384296
0.1297409475035306
0.132575861267619
0.1466626799382809
0.002326827630460881
0.14820171121271
-0.006283394437074485
0.1529947989649408
-0.1126747999825214
-0.1139578888716296
0.1245291885805695
0.1462517871145849
0.002207936500752461
0.1456960491142149
-0.007684751092774667
0.1345263007094794
-0.1073569801723607
-0.07855990653125478
0.09429184045820985
0.1455161435366224
0.001930096011672711
0.1422485319270429
-0.006763248370330321
0.09121803519508206
-0.06247178042921187
-0.04669551222416735
0.05521953045891605
0.1355579743881843
0.1263275298780308
0.05737471686385506
0.006792958696776957
0.1354435966207107
0.1189650170952478
0.1378206488418356
0.09325205227801625
0.1414046908164555
0.05442841976530677
0.03412784987728446
0.145259874152953
0.1241766901096902
0.08476655286208279
0.1352957024882826
0.07846220049405961
0.1403970165814148
0.0453268140839086
0.02587623907608738
0.1440345349040404
0.09652504468506873
0.03890060747759139
0.1239659366670076
0.04732327119755297
0.134386703699878
0.0311173633939954
0.0164689621570614
0.1396028653876893
0.04137242360051753
0.08479865503143334
0.1121574853310276
0.124472175278678
0.147884498824203
0.0397570694487096
0.1483069957520244
0.03119993965327938
0.1483536644975639
0.009771185555233708
-0.006954195613411263
0.1490712371332326
0.1488768231642738
0.02791469604975372
0.1513941660349516
0.02514326060381289
0.1514843384202964
0.007973710953401381
-0.003307433771495338
0.1501702631819672
0.1458425493888119
0.01539510910029862
0.1511516231084797
0.01554156632968562
0.1523818354727649
0.003563985978808581
-0.00234790585752509
0.1525961378703379
0.1335459899537462
0.1442183665888939
0.1474415938284305
0.1484285538290763
0.1475762440367147
-0.01807932117368249
0.1603026034911101
0.008321596684143229
0.1888842552795425
0.07584348061934454
0.1819285896266942
0.2456692120050579
0.1494691867140654
-0.009452422095452828
0.1603135873145849
0.006618086136861323
0.1859460820489845
0.05902560927300121
0.1233932486923758
0.2508099141937331
0.153711258517248
-0.00278886268507561
0.1584582810901009
0.0115986291168253
0.1865929213082727
0.04027241186095953
0.0307767588745762
0.2866331662602359
0.1538554534549549
0.1750175453129978
0.2257855694229083
0.2661074709985257
0.1234989654007689
-0.6645888539785432
0.01449038086767305
-0.1554205526076057
-0.0008632143732563236
-0.0251604041796691
-0.01898875519668008
-0.004191805646330118
0.08750975207798202
-0.4944829363100311
0.004460811806147668
-0.07079542756909564
-0.005023482521124388
-0.01421348484943284
-0.01231207349649479
-0.008770499488471938
0.04751531795809761
-0.2512609402699337
0.0002281176133019907
-0.02260172966223631
-0.007479926453200833
-0.005016861578605779
-0.005922931602642793
-0.01094151219758218
0.01730534922960768
-0.004570881184017699
-0.0080459035320945
-0.0110933605516761
-0.003002439866934715
-0.01023636759055184
-0.001434411410000291
-0.006494563993775977
-0.0006727648905112613
-0.003100579719194883
-0.002600758053419291
-0.000921534025187222
-0.008036970715832285
-0.007808618952427147
-0.006479014929633325
-0.005175335641740046
-0.004758155931286923
-0.001958101714915721
-0.0006182303723968607
-0.00512584688231189
-0.0105640783689684
-0.00439152322279588
-0.009376669997470102
-0.00313347866670232
-0.007472502213451845
-0.001181652682895232
0.001320248453054285
-0.007885217353292166
-0.01173900030924269
-0.01139083241543267
-0.01021590602798895
-0.007688238269693278
0.022964541039241
0.008636569299499866
0.05016928218652304
0.06753059768816715
0.07255258666297244
0.08511958802599863
0.1054254090480979
0.09282786838398832
0.007982858314598773
-0.001383348982020555
0.03927421299349486
0.03843015822666314
0.06575650426924221
0.0590957283115898
0.07923117361442875
0.09141307704233556
-0.002659103704849619
-0.004016059900644159
0.0241617300820101
0.01391922650290174
0.05353129933549054
0.03057830943145948
0.04831895177530951
0.08365267890920743
-0.009265351486108298
0.007525308599221951
0.03996999199860643
0.08842387663013339
0.07974257460639167
-0.0690312510773252
0.07970206645034549
0.06368759157635565
-0.06076152954177171
0.07316821602028753
0.04629370048497697
-0.05234874154119148
0.06795452281630754
-0.03420527645821501
0.02793015945481035
0.0513436134222716
0.07558929375228629
-0.05363100040836737
0.05899477347742173
-0.04521684058330912
0.04120602292280048
-0.03640567532902424
-0.02081674604828368
0.02654051107717185
0.06571292232483028
-0.03579792431157806
0.04878789612717548
-0.02738726456670255
0.02984748020035844
-0.01777301056863309
-0.007070730211173888
0.0163076516436314
0.05294497871343684
0.02662713440494076
0.00963836955274433
0.002918238293951478
0.001611856378388149
0.0007721836662738062
0.00106905007061367
-0.001145798524111296
0.0006124478703819144
-0.002370486576712103
-0.003020045424124585
-2.138567101184208e-14
0.01124696457662373
0.005519106247763129
0.007394827317775153
0.001098599814060283
0.003951503239022817
-0.001576986548478633
-0.002361616819441456
-2.394612286238385e-14
0.02057317551121474
0.01016822475930309
0.01443476468212978
0.00544802281302021
0.007532365225592912
0.003309104572136984
0.003093217335642533
-2.720046410331634e-14
0.02072405107790887
0.01303593505176146
0.005929551645085046
1.446065489574266e-14
-0.003020045424138453
-0.0006124478704105443
-0.002361616819458977
-0.003951503239074047
0.0030932173356122
-0.007532365225639714
-0.005929551645060302
0.007970299899712267
-0.002370486576721662
-0.001069050070632585
-0.001576986548487098
-0.007394827317808959
0.003309104572143968
-0.01443476468218214
-0.01303593505174834
0.009236694686180991
-0.001145798524111615
-0.001611856378403588
0.001098599814058875
-0.01124696457664712
0.005448022813039806
-0.02057317551127275
-0.02072405107789882
0.01195433439234449
0.0007721836662839196
-0.00291823829397482
0.00551910624776529
-0.01630765164366162
0.0101682247593216
-0.02654051107723325
-0.0279301594548589
0.01619799486548768
-0.04629370048504818
-0.03420527645821991
0.05134361342231742
-0.0636875915764005
-0.0523487415412124
0.06795452281636226
-0.07974257460639814
-0.06076152954182926
0.07316821602037443
-0.06903125107734456
-0.09282786838394767
0.0797020664503596
-0.04120602292285236
-0.02081674604828791
-0.05899477347745685
-0.0364056753290358
-0.07558929375230897
-0.04521684058334852
-0.05363100040840586
-0.0914130770423302
-0.02984748020037898
-0.007070730211181424
-0.04878789612721624
-0.01777301056863629
-0.06571292232487889
-0.02738726456670064
-0.03579792431161669
-0.0836526789092296
-0.009638369552762795
-0.02662713440495686
-0.05294497871344173
-0.08842387663016357
-0.03996999199859508
-0.04831895177528725
-0.007525308599211682
-0.03057830943136862
0.009265351486038506
-0.01391922650276357
0.004016059900643937
0.007688238269664194
-0.05353129933548477
-0.07923117361437766
-0.02416173008195693
-0.05909572831150967
0.002659103704835714
-0.0384301582263928
0.00138334898207873
0.00788521735325436
-0.06575650426924987
-0.1054254090480027
-0.03927421299342326
-0.08511958802595143
-0.007982858314521488
-0.06753059768785769
-0.008636569299368846
0.005125846882338907
-0.07255258666299498
-0.05016928218646732
-0.02296454103914167
0.0009215340253927798
0.0006727648906333025
-0.00260075805316122
0.001434411410101557
-0.00310057971901595
0.003002439867012893
-0.006494563993759229
-0.01023636759063756
0.004191805646346835
0.004758155931378721
-0.0006182303722132992
0.006479014929719615
-0.001958101714739896
0.008036970715904274
-0.005175335641708793
-0.007808618952493847
0.008770499488515826
0.007472502213526109
0.001320248453103592
0.009376669997550973
-0.001181652682776195
0.0105640783690358
-0.003133478666682663
-0.004391523222838978
0.01094151219763015
0.01021590602802349
0.01139083241553568
0.01173900030937106
0.01109336055171058
0.0008632143733313053
-0.01898875519663889
-0.01449038086715849
-0.02516040417949942
-0.1234989653997753
-0.1554205526068739
-0.664588853979571
-0.2456692120052567
0.005023482521182778
-0.01231207349652365
-0.004460811805951872
-0.01421348484940385
-0.08750975207729511
-0.07079542756882626
-0.4944829363102388
-0.2508099141937985
0.007479926453246254
-0.005922931602708119
-0.0002281176132215368
-0.005016861578613439
-0.04751531795779109
-0.02260172966218198
-0.2512609402699107
-0.2866331662601737
0.008045903532126586
0.004570881184062282
-0.01730534922952632
-0.2661074709984096
-0.1888842552797462
0.1819285896269044
-0.1603026034912957
0.07584348061983304
-0.1475762440369761
0.008321596685142874
-0.01807932117195832
-0.1490712371334361
-0.1859460820490752
0.1233932486925265
-0.1603135873147321
0.05902560927334788
-0.1494691867143353
0.006618086137849866
-0.009452422093987556
-0.150170263182305
-0.1865929213083074
0.03077675887470249
-0.1584582810902644
0.040272411861137
-0.153711258517422
0.01159862911747311
-0.002788862684139914
-0.1525961378705239
-0.2257855694227685
-0.1750175453129998
-0.1538554534551151
-0.1484285538292613
-0.1483536644978867
-0.006954195611427405
-0.1483069957519666
0.009771185556090689
-0.1478844988242919
0.03119993965302426
0.03975706945062851
-0.1452598741523863
-0.1514843384205963
-0.003307433769795365
-0.1513941660351325
0.007973710954371827
-0.1488768231644304
0.02514326060375183
0.02791469605125485
-0.1440345349034378
-0.1523818354729621
-0.002347905856468935
-0.1511516231086467
0.003563985979376239
-0.145842549389085
0.01554156632986103
0.01539510910113817
-0.1396028653870759
-0.1474415938284989
-0.1442183665889067
-0.1335459899536724
-0.1244721752775637
-0.1414046908163368
0.03412784987466067
-0.1378206488416784
0.05442841976485235
-0.1354435966207784
0.09325205227719857
0.1189650170952847
-0.1245291885806945
-0.1403970165813094
0.02587623907415093
-0.135295702488121
0.04532681408354244
-0.1241766901097835
0.07846220049349695
0.08476655286216805
-0.09429184045839316
-0.1343867036996776
0.01646896215597249
-0.1239659366668908
0.03111736339366855
-0.09652504468527756
0.04732327119736368
0.03890060747775237
-0.05521953045914187
-0.1121574853307414
-0.08479865503144164
-0.04137242360074964
-0.00679295869685452
-0.1529947989649587
-0.1139578888716415
-0.1482017112127183
-0.1126747999818225
-0.1466626799383201
-0.006283394436976952
0.002326827630274919
-0.1458059718431917
-0.1345263007098017
-0.07855990653115785
-0.1456960491142917
-0.1073569801720098
-0.1462517871146189
-0.007684751092736364
0.002207936500641272
-0.1453799617759277
-0.09121803519542036
-0.04669551222399809
-0.1422485319270974
-0.06247178042924467
-0.1455161435366309
-0.006763248370344366
0.0019300960116993
-0.1443085395155337
-0.05737471686378898
-0.1263275298780996
-0.1355579743882503
-0.1325758612676651
-0.1440203167973778
0.002021260295948679
-0.1420299120879975
-0.001056033690824104
-0.1404463694904517
-0.003571777050684233
-0.006578579989793831
-0.1392596114381368
-0.1437312347792123
0.001556772655957717
-0.1423332326352457
-0.0008524348622426792
-0.1422732617115007
-0.00204024050471166
-0.004527465091667071
-0.1427921413420213
-0.1428218110975246
0.00148572293184307
-0.1427483152102513
0.0007552774440889309