/*--------------------------------*- C++ -*----------------------------------*\
  =========                 |
  \\      /  F ield         | OpenFOAM: The Open Source CFD Toolbox
   \\    /   O peration     | Website:  https://openfoam.org
    \\  /    A nd           | Version:  11
     \\/     M anipulation  |
\*---------------------------------------------------------------------------*/
FoamFile
{
    format      ascii;
    class       volScalarField;
    location    "0.148";
    object      Ma;
}
// * * * * * * * * * * * * * * * * * * * * * * * * * * * * * * * * * * * * * //

dimensions      [0 0 0 0 0 0 0];

internalField   nonuniform List<scalar> 
880
(
1.443353270571932
1.443353270571932
1.443353270569002
1.443349833474884
1.443353270571932
1.443353270571932
1.443353270537545
1.443329879424947
1.443353270571932
1.443353270571933
1.443353270368657
1.443314003378617
1.443353270571932
1.443353270571932
1.443353269422951
1.443060490005795
1.443353270571932
1.443353270571932
1.443353270571933
1.443353270497063
1.443353270571932
1.443353270571932
1.443353270571935
1.443353270571932
1.44335465552073
1.443349139341758
1.443121124399387
1.444035325382665
1.429145528165527
1.393314276389125
1.373459525061522
1.36758132623097
1.443353213348407
1.443353154991573
1.443351728622397
1.443351766064885
1.443350586728983
1.443344689863341
1.443337583100873
1.44333899948935
1.441941257433025
1.440830699652568
1.440215557879524
1.439818339623721
1.364532942379939
1.355311034368153
1.359065879448881
1.343373829477772
1.375275927900006
1.407235504326669
1.434594184753512
1.45116790260016
1.437481319989637
1.43203764451185
1.434276360829373
1.439689445910331
1.443311185131556
1.443181354363571
1.443061493652583
1.443137582305985
1.443349561121203
1.443343063826996
1.44332953759137
1.44331537061852
1.443312871623459
1.443317144096523
1.443328439632076
1.443342003959319
1.44326526627013
1.443351016644131
1.443410229194672
1.443408407900299
1.442748555659802
1.445254378310777
1.446283337059207
1.446044902605542
1.462068874765766
1.465749153871965
1.465407955263554
1.462237435485655
1.457485097870023
1.444962352987815
1.443375800812169
1.443350450238178
1.452264980350027
1.443903081295124
1.443356818672971
1.443352944018333
1.446355441275126
1.443431029875
1.44335339938122
1.443353248806372
1.413075335574642
1.443090109453576
1.443354587720806
1.443353979248094
1.443353307349672
1.443353345551836
1.441603887214805
1.2171482737413
1.443352186029411
1.443334920095603
1.435142216228888
1.094096375354288
1.443351295088555
1.443264502566347
1.424811901643504
1.043929753335606
1.443340762209161
1.443186934301314
1.414322902720042
1.034937499760911
1.029932481653207
1.399700092426114
1.442993146152899
1.443334914100429
1.03806046279214
1.38685620351464
1.442830512772727
1.443303711148769
1.042944688606781
1.373518215319441
1.442538395705689
1.443291385766186
1.047631615109723
1.357354404854898
1.442144938555299
1.443243483145792
1.443197212183043
1.441766619007445
1.339443929929006
1.045875422419242
1.443128681540202
1.440526677559647
1.321560911133241
1.076082864557118
1.443142115824742
1.4404889614138
1.341101438430842
1.143996283588376
1.442852983099855
1.441046969984265
1.374965115325136
1.24470714450504
1.442902428613612
1.440477011593273
1.42479261822571
1.440423994053747
1.442460159010618
1.446298115877121
1.473495258370601
1.607175079199912
1.443002578577203
1.447757818536999
1.473989652235813
1.627898561117831
1.443412326209982
1.444984967736089
1.448126224447799
1.429351225523907
1.238366108697337
1.429948212066842
1.443563613508083
1.443394790522393
1.126380300534597
1.412785612402651
1.44270233951587
1.443367313455292
1.061027281631999
1.401065661536651
1.442481340898162
1.443355910870066
0.9858627018766951
1.388925814399441
1.441944145725182
1.443348247713695
1.043846497977593
1.399690967642114
1.442418701957342
1.443350254083022
1.162445864605489
1.417242714743197
1.442999089668243
1.443352340947875
1.272989437207976
1.430413143796434
1.443238927244134
1.443353052519555
1.366925326501442
1.43950783186698
1.443354278775549
1.443353245485331
1.314705385285494
1.433042717338297
1.443048490622129
1.443349965852791
1.325923859769377
1.433643973309566
1.443063667930242
1.443350014245666
1.323328766170669
1.433073358113531
1.443064983498861
1.443350122328336
1.318970058928286
1.433593578805326
1.443117940771983
1.443350659614962
1.366925326506792
1.439507831872156
1.443354278786088
1.443353245466706
1.272989437209708
1.430413143801562
1.443238927265481
1.443353052518989
1.162445864604265
1.417242714733818
1.44299908966631
1.44335234094718
1.043846497969175
1.399690967624662
1.442418701953847
1.443350254089079
1.443394790509725
1.443563613498865
1.429948212063529
1.238366108693992
1.443367313432137
1.442702339509228
1.412785612397881
1.126380300527824
1.443355910888507
1.442481340882161
1.401065661539123
1.061027281628298
1.443348247710044
1.441944145718201
1.388925814381847
0.9858627018808862
1.429351225540162
1.448126224461396
1.444984967753258
1.443412326226383
1.627898561135474
1.473989652250227
1.447757818552541
1.443002578607588
1.607175079197344
1.473495258384946
1.446298115883379
1.442460159008851
1.440423994053073
1.4247926182323
1.440477011596151
1.44290242856536
1.443197212188284
1.441766619004285
1.3394439299173
1.045875422411007
1.443128681540884
1.440526677538114
1.32156091112604
1.076082864553857
1.443142115767885
1.440488961412308
1.341101438434401
1.143996283588283
1.442852983138174
1.441046969975438
1.374965115325557
1.244707144506249
1.047631615096958
1.357354404842273
1.442144938511159
1.443243483145202
1.042944688593208
1.3735182153035
1.442538395729446
1.443291385759786
1.038060462791119
1.386856203516378
1.442830512735047
1.443303711157047
1.029932481646551
1.39970009244035
1.442993146175386
1.443334914108272
1.443353307342155
1.443353345543776
1.441603887217752
1.217148273746828
1.44335218603608
1.443334920109446
1.435142216215415
1.094096375366424
1.4433512951015
1.443264502576986
1.424811901639802
1.043929753327344
1.44334076222707
1.443186934269688
1.414322902721647
1.034937499761598
1.443353979240056
1.443353248798227
1.443352944018213
1.443350450241875
1.443354587732664
1.443353399376888
1.443356818655952
1.443375800824593
1.443090109449412
1.443431029869757
1.443903081311118
1.444962352984922
1.413075335574544
1.446355441272026
1.452264980348885
1.457485097871177
1.443342003978848
1.443408407899488
1.446044902590875
1.462237435479502
1.443328439634327
1.44341022919924
1.446283337046492
1.46540795526234
1.443317144082912
1.443351016644638
1.445254378315659
1.465749153874921
1.443312871621838
1.443265266265406
1.442748555654166
1.46206887477377
1.443349561140596
1.44331118514405
1.437481319973103
1.375275927899985
1.44334306384706
1.443181354369085
1.432037644506042
1.407235504335361
1.443329537601813
1.443061493637204
1.434276360826615
1.434594184761113
1.443315370626651
1.443137582293756
1.439689445911828
1.451167902608159
1.343373829475213
1.439818339603461
1.443338999500351
1.443351766077921
1.359065879441445
1.440215557875907
1.443337583104783
1.443351728592413
1.355311034356249
1.440830699681178
1.443344689861934
1.443353155013431
1.36453294237513
1.441941257458463
1.44335058673237
1.443353213342231
1.367581326226544
1.44403532534371
1.443353270571932
1.443353270492319
1.373459525067219
1.44312112444386
1.443353270571932
1.443353270571933
1.393314276386697
1.443349139347266
1.443353270571932
1.443353270571933
1.429145528150627
1.443354655525362
1.443353270571932
1.443353270571934
1.443353270571932
1.443353270571933
1.443353270565184
1.443349833581348
1.443353270571931
1.443353270571932
1.443353270535765
1.443329879493329
1.443353270571932
1.443353270571932
1.443353270367749
1.443314003391568
1.443353270571932
1.443353270571932
1.443353269434081
1.443060490015776
1.443342787428137
1.443316835262451
1.443209479985508
1.440534080762336
1.443316835051503
1.443288999010146
1.443011302644383
1.432356284812627
1.443209479637091
1.44301130247541
1.438232028668012
1.37718315030177
1.440534080488196
1.432356285338322
1.377183151317107
1.188205617546841
1.021470337557395
1.110138233492942
1.264695821557131
1.360280869802483
1.076403399919267
1.095625886674693
1.152730591302349
1.227849997547272
1.103455132828976
1.141644335465691
1.188515905183933
1.2383479121285
1.143393133034972
1.178238952459032
1.211705740216829
1.242871569689696
1.250557085265102
1.260246164204829
1.268434110530293
1.267074799902026
1.232006655780309
1.253077220680584
1.263330820905939
1.295574569785348
1.203516623208779
1.238621830332589
1.254660773452828
1.37959292515601
1.160003762874346
1.170390449351954
1.17766677970349
1.497511299487656
1.398211859906936
1.528551721310351
1.521213532678905
1.504853433304228
1.488842943390942
1.63513124019838
1.591610683673735
1.551365372852608
1.66724701755579
1.734656243824681
1.635262312138299
1.570085298729947
1.278807340849787
1.304750748941724
1.297692436264176
1.287719626582858
1.492392306812723
1.486724336370403
1.479483451857359
1.471903327474547
1.520123925927024
1.504581646429084
1.492942141587902
1.481855013277189
1.531855851498464
1.512302701014591
1.499746806277642
1.48877780619746
1.296346333932932
1.32232695389955
1.356452789339731
1.386556922958538
1.464514207301024
1.460420300400976
1.450392812894627
1.199737951546204
1.472504592965066
1.467211590749746
1.45423961483841
1.028787466300522
1.479121868998347
1.472170877247164
1.452854843520113
0.857188933093415
1.41137485501205
1.427827036425486
1.399507765332484
0.5719767548904872
0.8100600640939513
0.8114991375033976
0.8325801719709154
0.8788569422961078
0.7217600117608373
0.7778216410749665
0.8270589276569696
0.8809926955530535
0.5881871940726023
0.694429240681225
0.7904006052650057
0.8667401948995939
0.3320885797226434
0.4573205605713931
0.6153477748236765
0.7489668637467241
0.9171194515998339
0.9356355381164732
0.949950581642907
0.9527520864899626
0.9202736305352514
0.9363739305020092
0.9481036291012532
0.9518831089125096
0.9142523793340436
0.934589279028667
0.947000177174796
0.9515426970217586
0.8499916141821432
0.893373646310289
0.9130127971933224
0.9136615982990357
0.9697446170908859
1.001802021804184
1.078835847313878
1.17831135747182
0.9688924556230654
1.001283667699736
1.069982757989036
1.221193455555598
0.9677194116143562
0.9947683016159115
1.085912094146853
1.548649295745194
0.9398608856834711
0.9693529090475596
1.10454071155901
2.170790023020221
1.433925150346546
1.768549297797084
0.7272113841878721
0.4555725214569137
1.500620034183801
1.581618709908023
0.4777571279337028
0.3021453793249947
1.546229415353405
1.29685889945004
0.1761814526834528
0.2385219794021616
1.207601900780076
0.8162370138969842
0.1425991921247993
0.1436018763543662
0.2401011966191142
0.09748329630312222
0.06169284188819656
0.09668474921947165
0.2273569345238705
0.1232008026881991
0.1199969897983308
0.1652139838585997
0.181729984294979
0.1784972348694576
0.2104414061744763
0.2314698612294053
0.1201691178190832
0.1823525700732219
0.2567314790745965
0.2458266209902535
0.4171449111519268
0.8267294906487961
1.111870146180496
1.363845491073127
0.1706405140679047
0.5947030073298748
0.9422206229931229
1.246613065272016
0.1177009883635552
0.2981081284758623
0.6829764967229154
1.139068606178416
0.1261196291354593
0.07760369306821614
0.5270399618308768
1.238384690990484
1.557483673698601
1.899700545249567
2.00603726089591
1.598367215170263
1.460330519812842
1.718446429375985
1.421927290322184
1.002844623761743
1.454974047288619
1.283920038203171
0.7984540303970178
0.3979028709805001
1.159766122443567
0.4464889182748597
0.245512765532612
0.1984435256889192
0.2205958619421378
0.2140372909022834
0.202400553046064
0.1690340629532886
0.2040836656373987
0.168785751842902
0.2537129960302674
0.2917790307887713
0.4764831965401932
0.04990681546608502
0.1860720427618423
0.2377763076802233
0.971513368638912
0.5443541338673222
0.3473381841895944
0.281311026857343
0.169034062952712
0.291779030788771
0.2377763076796477
0.2813110268476811
0.2024005530447779
0.2537129960302977
0.1860720427613153
0.3473381841859309
0.2140372909030082
0.1687857518436835
0.04990681545945335
0.544354133864854
0.2205958619437277
0.2040836656378894
0.4764831965342185
0.9715133686332107
1.598367215167837
2.00603726089792
1.899700545257253
1.557483673707719
1.002844623759964
1.421927290320413
1.718446429373757
1.460330519817466
0.3979028709789934
0.798454030395514
1.283920038200694
1.454974047288879
0.1984435256905085
0.2455127655321039
0.4464889182741152
1.159766122441531
1.238384690990167
0.5270399618301229
0.07760369306702693
0.1261196291339298
1.139068606178159
0.68297649671927
0.2981081284686874
0.1177009883622806
1.24661306527382
0.9422206229890039
0.594703007320598
0.1706405140633606
1.363845491077113
1.111870146175509
0.8267294906409735
0.4171449111457348
0.09668474921280366
0.06169284189027122
0.09748329629254625
0.2401011966160495
0.1652139838532143
0.1199969897944712
0.1232008026922544
0.2273569345347202
0.2314698612260196
0.2104414061692148
0.1784972348715719
0.1817299843087346
0.2458266209868619
0.2567314790692171
0.1823525700760391
0.1201691178295996
0.4555725214621795
0.7272113841748339
1.768549297799378
1.433925150349363
0.3021453793379894
0.4777571279372966
1.581618709913334
1.500620034191148
0.2385219794148551
0.1761814526806182
1.296858899454997
1.546229415359776
0.1436018763664856
0.1425991921323719
0.8162370139064379
1.207601900785117
1.178311357472134
1.078835847311344
1.001802021800587
0.9697446170853669
1.221193455556793
1.069982757987522
1.001283667696523
0.9688924556177505
1.548649295751256
1.085912094148003
0.9947683016124685
0.9677194116097741
2.17079002303149
1.104540711564184
0.9693529090529768
0.9398608856892251
0.9527520864841511
0.9499505816413585
0.935635538116655
0.9171194515886351
0.9518831089078277
0.9481036291013093
0.936373930503375
0.9202736305267732
0.9515426970179612
0.9470001771763044
0.9345892790305339
0.9142523793270348
0.9136615983010344
0.9130127971974633
0.8933736463132771
0.8499916141713036
0.8788569422907222
0.8325801719699414
0.8114991375103304
0.8100600640979945
0.8809926955450558
0.8270589276554312
0.7778216410773571
0.7217600117640056
0.8667401948911265
0.7904006052616409
0.6944292406787583
0.5881871940748109
0.7489668637284602
0.6153477748243478
0.4573205605611018
0.3320885797176797
1.199737951557349
1.4503928128971
1.460420300392091
1.464514207303104
1.028787466317757
1.454239614847883
1.467211590740792
1.47250459296383
0.8571889331134314
1.452854843535254
1.472170877233781
1.479121868994366
0.5719767549141354
1.399507765365822
1.427827036421358
1.411374854999133
1.471903327469329
1.479483451855298
1.486724336373578
1.492392306817871
1.481855013273179
1.492942141585247
1.504581646431109
1.520123925932218
1.488777806196219
1.499746806273669
1.512302701016575
1.531855851503261
1.386556922956648
1.356452789342213
1.322326953896787
1.296346333936305
1.504853433313297
1.52121353268681
1.528551721319093
1.398211859911459
1.551365372861998
1.591610683681418
1.635131240208647
1.488842943396358
1.570085298739377
1.635262312146581
1.734656243839112
1.667247017560231
1.287719626589215
1.297692436264769
1.304750748948207
1.278807340848015
1.267074799907322
1.268434110531654
1.260246164188479
1.2505570852438
1.295574569792458
1.263330820907142
1.25307722066754
1.232006655772651
1.379592925169851
1.254660773459199
1.238621830330619
1.203516623209439
1.497511299512358
1.177666779716018
1.170390449336734
1.160003762846097
1.242871569679731
1.238347912130599
1.227849997564447
1.360280869682597
1.211705740224479
1.188515905190318
1.152730591238943
1.264695821355062
1.178238952467229
1.141644335465302
1.09562588657429
1.110138233120264
1.143393132989192
1.103455132751614
1.076403399861596
1.021470337417229
1.399923745096339
1.437705980696169
1.443271475608015
1.443352929749105
1.4020860117109
1.438511463180454
1.443260620379838
1.443352652280023
1.372602381230323
1.43757328114065
1.443237440347635
1.443352338105095
1.327731432974382
1.435174827431338
1.443183969225962
1.443351663433359
1.443349965845072
1.44304849062292
1.433042717336717
1.314705385255062
1.443350014235925
1.44306366791946
1.433643973327052
1.325923859788679
1.443350122338933
1.443064983485089
1.433073358129662
1.323328766184788
1.443350659643185
1.443117940757367
1.433593578830643
1.318970058939104
1.443351663441929
1.443352338117471
1.443352652316819
1.443352929782333
1.443183969220742
1.443237440349447
1.443260620386915
1.443271475626624
1.435174827436727
1.437573281149818
1.438511463170025
1.437705980709675
1.327731432982754
1.37260238124609
1.402086011712668
1.399923745097887
)
;

boundaryField
{
    back
    {
        type            empty;
    }
    inlet
    {
        type            calculated;
        value           nonuniform List<scalar> 
16
(
1.443353270571932
1.443353270571932
1.443353270571932
1.443353270571932
1.443353270571932
1.443353270571932
1.443353270571932
1.443353270577925
1.443353270576112
1.443353270571932
1.443353270571932
1.443353270571933
1.443353270571932
1.443353270571932
1.443353270571932
1.443353270571932
)
;
    }
    front
    {
        type            empty;
    }
    top
    {
        type            calculated;
        value           uniform 0;
    }
    outlet
    {
        type            calculated;
        value           nonuniform List<scalar> 
16
(
1.443348512115012
1.443348434123163
1.443348335210636
1.443348196726793
1.443352761054671
1.443352396343519
1.443351917059043
1.443350250158937
1.443348512109555
1.443348434116374
1.443348335216076
1.443348196744185
1.443350250163099
1.443351917063788
1.443352396364397
1.443352761075327
)
;
    }
    bottom
    {
        type            calculated;
        value           uniform 0;
    }
    wall
    {
        type            calculated;
        value           uniform 0;
    }
}


// ************************************************************************* //
