/*--------------------------------*- C++ -*----------------------------------*\
  =========                 |
  \\      /  F ield         | OpenFOAM: The Open Source CFD Toolbox
   \\    /   O peration     | Website:  https://openfoam.org
    \\  /    A nd           | Version:  11
     \\/     M anipulation  |
\*---------------------------------------------------------------------------*/
FoamFile
{
    format      ascii;
    class       surfaceScalarField;
    location    "0.148";
    object      phi;
}
// * * * * * * * * * * * * * * * * * * * * * * * * * * * * * * * * * * * * * //

dimensions      [0 3 -1 0 0 0 0];

internalField   nonuniform List<scalar> 
1652
(
2.843686947071611
0.8895636090847481
0
1.954123337988149
0.8895636090834615
-2.220446049250313e-16
1.06455972892843
0.8895636088179018
-5.46229728115577e-13
0.8895540566173439
1.857847209407737e-11
0.1749975851017535
2.843686947076741
1.779127218162428
1.954123337998014
1.779127218162188
1.06455972905825
1.779127216496186
1.779037124581075
0.1750239489485863
2.843686947090741
2.668690827246526
1.954123338008367
2.668690827244562
1.064559730192681
2.668690813671244
2.668247370435036
0.1751393339007382
2.843686947092868
3.558254436328659
1.954123338013008
3.55825443632442
1.064559749505542
3.558254211913947
3.556501173489017
0.1753397522032872
4.418652025448567
2.872852967045247
5.279049614570379
2.872852967043177
6.139447203696346
2.872852967042475
2.87285296704036
6.999844792416184
4.418652025437515
2.012455377932159
5.279049614550996
2.012455377929711
6.139447203662616
2.012455377929175
2.012455377926367
6.99984479277631
4.418652315531302
1.152059351619701
5.279050587489216
1.152053214627252
6.139266894562349
1.15202596927655
1.152576852408479
6.998527231321241
4.438324766482987
0.2488822726639736
5.428917527936834
0.1085577767043249
6.467266058087196
0.04483770493729433
7.517266525303183
0.03234163480851104
6.941512723100855
0.05833196441782262
6.88317455227321
0.05833147151083062
6.824846190371376
0.05831761994839602
0.05831944138118261
6.766514364800474
6.941520128311752
0.1166438762901647
6.883234947262578
0.1165880877953753
6.824998231313993
0.1164679307925007
0.116415643198745
6.766784232572949
6.946150278520189
0.1657251295090602
6.897248974108464
0.1606394166237869
6.851308523344897
0.1563633768054498
0.1508102285236384
6.805052625154923
7.599144579332221
0.01960728825444702
7.671141281483504
0.01344129556861356
7.726328898509574
0.01410236956032901
7.78714305841646
0.003313378392487243
7.851804255154821
0.05363312929816988
-0.1762837392697186
7.743416428508941
0.1110404460414527
-0.05534196960735099
7.632081779630193
0.094147365460375
-0.0122413556789065
0.07675568035477975
7.55006832618994
-0.009029410455006714
6.834738494801094
0.0007405389343514424
6.902585184355312
0.002874226115237577
6.93725045206306
0.00562485466835283
0.006481631370996443
6.942622411682491
6.767107335275695
3.715475241028443e-05
6.768309731429153
0.0001258692937736727
6.770263240219588
0.000311470485570231
0.0004469561187679938
6.771467522728995
6.766516372024332
6.766523274245805
6.76651870650119
6.766504928842359
6.766479722255727
-0.0004367168290446699
6.766465494487404
-0.0003858440535748908
6.766472325326806
-0.000270695144554467
-0.0001355938092101328
6.766493581760753
6.771532777705028
-0.005917174795064595
6.77091015848596
-0.004925890726133031
6.769535897542996
-0.00357348561303561
-0.002092868580173102
6.767841519085315
6.930118791013217
-0.05868489408860184
6.904851499554877
-0.04313028677559311
6.870182872506436
-0.03127432416756509
-0.02233855192975792
6.830190164581281
7.453668118039417
-0.006649373268802772
7.340846030613354
-0.003198288603366795
7.221979539854548
-0.001809946581239175
7.101687662608092
-0.002140463034374374
0.0152112248089315
6.985721256231517
-0.002676160928524907
0.0008105743012266631
6.792755850657819
3.886811098929854e-05
6.766778559999419
6.766511875073264
0.007426608343584329
6.879367177414019
-0.0004329837665150715
0.0001519447240300176
6.771587927045908
5.268781073208828e-06
6.766532406310286
6.766516214456844
0.0008776255254960286
6.821235222850922
-0.002475943859565288
7.733594278636069e-06
6.76799905373739
7.96050502183121e-08
6.766519336186006
6.766517230209923
0.002591167005738082
6.894923561247776
-0.1623697143972205
1.562926892706429e-05
6.767921442174002
-3.37048932541606e-07
6.766515024942948
6.766512336959127
0.1555532935595652
6.610960447600615
0.3110679368265137
6.610991415782398
0.4539300630213396
6.619154722426489
6.974990980201337
0.1242457181753385
0.1555448142105115
6.455409079649418
0.3108413794814884
6.455514999614133
0.4275476857985501
6.477751508433371
6.906560489180317
0.1461292456395287
0.1555132506385517
6.299871373111726
0.310288243355927
6.300245378260906
0.3910786237691371
6.341248254534609
6.80126865820598
0.1017086610077093
0.1554428505291783
6.144330970751394
0.3092572129272464
6.144993243618548
0.3477330744364535
6.208373766102332
6.613625464040952
0.07560557924918954
-0.2883477508620085
6.387819939351415
0.03530649055321544
-0.3072901227567811
6.078994793451735
-0.1552996314737344
5.990265740863179
5.988821002696953
-0.2298563970710269
6.169767814113029
0.01185890051244975
-0.3043192933024215
5.959502450648011
-0.1550351405630845
5.835813152000201
5.833308126808028
-0.1598496272997302
5.938402568533048
-0.001271765825836657
-0.3001546031905637
5.826582642921982
-0.1548025068523813
5.681013943196775
5.677805321231921
-0.07813883842867742
5.666054208549176
-0.0003984514485763091
-0.2943641942069522
5.693712980109337
-0.1542309580763518
5.527225564513257
5.522384729092441
0.197610277489227
5.323136073857694
0.3744698990359716
5.328287200503095
0.0989095157904516
5.494526869679225
5.382251892192395
0.02554431868567075
0.1964176348430918
5.124154416043287
0.3621396793051
5.130744476113765
0.06155380751476347
5.251667789952543
5.069260782291868
0.06712767826071975
0.1954644790261332
4.922529575172311
0.3596971404313558
4.93072589877096
0.1820450980668733
5.045795611756451
4.908954543156172
0.1839201952555176
0.1970430672005681
4.72688925848878
0.3734408034935801
4.731838852026339
0.3438012698937709
4.81226207228054
4.780623314913019
0.3665049856356778
-0.342355997894714
5.062672544001773
-0.7421564640044123
5.080393194204127
-1.29004902989057
5.188731326292046
4.872834395790028
-1.430312543815217
-0.3446587637263388
5.397624208955162
-0.7418249920406785
5.430698120432891
-1.060633760787227
5.472388097971049
4.322394704727988
-0.445341859264982
-0.340346372656017
5.732208423147973
-0.6875399720490087
5.752249151868445
-0.9465015449144835
5.750175094505409
3.657054997328251
-0.05423082393358961
-0.3349633464654667
6.066883818703828
-0.6659310330043238
6.071493349408626
-0.7966408575673359
5.944092731535382
3.270146681789157
-0.03761891725635929
0.3405620984311792
3.191783894104576
-0.01561423465798119
0.3381039851766057
6.01714509106822
0.1747664766771122
6.236084007218664
6.241672703944559
0.3028476860473587
3.093969159284427
-0.008723086926297884
0.3340438094223693
6.071668671475016
0.1746867522130306
6.40659429262148
6.416450343365339
0.297358447913198
2.990167383942898
-0.001870898554439553
0.3336775390750452
6.145032021988095
0.1747617005049599
6.579959708437682
6.591447954521465
0.2778056900753002
2.873308713424581
0.01034077295908298
0.3319718044075107
6.244582637809355
0.1747622557190146
6.753797416390327
6.766458979001614
-0.1942815701928146
3.238726901824803
0.08049666268366001
-0.01723903409631267
6.397699657732824
-0.0002058009489243062
6.761424982750205
6.766500024246706
-0.1350316654526402
3.668401030880591
0.1070405531713044
-0.007403685875622346
6.561332783550043
-6.150091415602077e-05
6.764942569812738
6.766512710770987
-0.09503118071596017
4.23914078884709
0.1117873922396339
-0.003234910241193711
6.686019888191195
-2.145489765670305e-05
6.766343254628018
6.766516111548752
-0.06725518504671935
0.1153700607181578
4.819758823894313
-0.001380174405879231
6.705778097582485
-7.987096358297308e-06
6.765651257936543
6.766516241888378
1.007290502928497
-0.9436531433183761
-0.009047732649373582
5.49955636586219e-11
1.973858063250678
-0.868645100722758
2.896793915851958e-11
2.858061395688112
-0.8744849828430294
6.17035311734071e-11
-0.8749740478937711
-3.944045090520376e-11
1.011254656403492
-1.768724366395287
-0.01116891657996961
1.974511357871346
-1.734117564857591
2.858065051110771
-1.748924366155069
-1.749947622681548
1.004529023061515
-2.512116807429193
-0.01986910435294834
1.974670739009201
-2.605252470273239
2.858071292933633
-2.623728475010584
-2.624922820617989
1.006486530303112
-0.03880149967273136
-3.194901476485514
1.975821716566978
-3.480339167282249
2.8580982989337
-3.499178862393688
-3.499910757098306
-0.06725518504685313
-4.239140788861565
0.1153700607171073
4.819758823907925
-0.001380174418435631
-6.686019888210639
6.705778097582405
-7.987151667609993e-06
-6.766343254645856
6.765651257970898
-6.766516111597058
6.766516241994283
-0.09503118072275962
-3.668401030903782
0.1117873922419306
-0.003234910252824852
-6.561332783571803
-2.145487113902611e-05
-6.764942569840533
-6.766512710718722
-0.1350316654725864
-3.238726901821141
0.1070405531694747
-0.007403685903790258
-6.397699657713423
-6.150092148793362e-05
-6.76142498275723
-6.766500024265635
-0.1942815701937411
-2.873308713412358
0.08049666268121741
-0.01723903407959382
-6.24458263779826
-0.0002058009435350616
-6.753797416377067
-6.766458978999086
-0.1747664766787259
6.241672703982839
-6.066883818761974
-0.3381039851699157
6.236084007259005
-6.071493349439145
-0.3405620984242175
6.01714509101929
-5.944092731479149
3.19178389406844
-3.270146681746828
-0.01561423465809521
-0.1746867521874932
6.416450343390345
-0.3340438094031626
6.406594292667515
-0.3028476860429015
6.071668671448927
3.093969159257068
-0.008723086925550599
-0.1747617004984421
6.591447954536664
-0.333677539054503
6.579959708455694
-0.2973584479071433
6.145032021976035
2.990167383927319
-0.001870898553698083
-0.1747622557068591
-0.3319718043829675
-0.277805690065786
0.01034077295747297
0.79664085756907
-3.65705499728689
-0.03761891725704691
0.6659310330340882
-5.750175094477067
0.3349633464876105
-5.752249151925359
-5.732208423181854
0.9465015449199922
-4.322394704699378
-0.05423082393119544
0.6875399720695552
-5.472388097952903
0.3403463726622178
-5.430698120495186
-5.397624208955397
1.060633760798686
-4.872834395781423
-0.4453418592624594
0.7418249920651594
-5.188731326290906
0.3446587637343517
-5.080393194249191
-5.062672543970668
1.290049029905411
-4.780623314914902
-1.430312543818889
0.7421564640243066
-4.81226207228924
0.3423559978848939
-4.731838852011968
-4.726889258486246
0.1976102775035516
5.323136073884708
-5.522384729151474
0.3744698990740345
5.32828720050835
-5.527225564539351
0.09890951579291518
5.494526869627313
-5.693712979964189
5.382251892161078
-5.66605420849181
0.02554431868949547
0.1964176348362578
5.124154416072349
0.3621396792989204
5.1307444760803
0.06155380753228845
5.251667789916998
5.069260782280432
0.06712767826374932
0.1954644790308637
4.922529575545743
0.3596971404489536
4.930725898753889
0.1820450980730584
5.045795611726711
4.908954543153569
0.1839201952561563
0.1970430672142806
0.3734408035159832
0.3438012698965039
0.3665049856362597
-0.07813883838780622
-5.938402568550332
-0.0003984514420318774
-0.2943641941575863
-5.826582642947442
-0.1542309580453111
-5.681013943171634
-5.677805321246914
-0.1598496273258342
-6.169767814136401
-0.0012717658266308
-0.3001546032034823
-5.959502450791218
-0.1548025068595763
-5.835813152240225
-5.833308126827777
-0.2298563970848899
-6.387819939318788
0.01185890051531813
-0.304319293261906
-6.078994793389739
-0.1550351405370051
-5.990265740877421
-5.988821002711741
-0.2883477508165734
-6.613625464005647
0.03530649055757007
-0.3072901227492968
-6.208373766031343
-0.1552996314692133
-6.144993243604672
-6.144330970765009
0.1555532935568938
6.610960447670586
-6.76651233702966
0.3110679368265516
6.610991415790917
-6.766515024916076
0.4539300630294247
6.619154722433915
-6.767921442180056
6.974990980194898
-6.894923561242373
0.1242457181684175
0.1555448142135439
6.455409079651202
0.3108413794849379
6.455514999629446
0.4275476857920114
6.477751508434893
6.906560489221336
0.1461292456505622
0.1555132506452911
6.299871373108837
0.310288243367482
6.300245378260529
0.3910786237733348
6.341248254573397
6.801268658228588
0.1017086610142591
0.1554428505196372
0.3092572129068431
0.3477330744388178
0.07560557924968825
-6.766517230211218
3.370518790735133e-07
-6.766516214457372
-7.960542824925199e-08
-6.766511875069237
-5.268780825073982e-06
-3.886810681241748e-05
-6.766493581760736
-6.766519336195588
-1.562926993059488e-05
-6.766532406324155
-7.733594941328192e-06
-6.766778560001423
-0.0001519447197344537
-0.0008105742996088461
-6.767841519094765
-6.767999053742852
-0.002591167006010031
-6.771587927044668
-0.0008776255232453845
-6.792755850638396
-0.007426608352637254
-0.01521122481001064
-6.830190164564133
-6.821235222842535
-0.1623697143896802
-6.879367177404095
-0.0024759438582172
-6.985721256226164
-0.0004329837673890946
-7.101687662610662
-0.002676160923614668
-0.0001355938156200054
-6.766472325322987
-0.00209286858798774
-6.769535897536142
-0.02233855192693096
-6.870182872529536
-7.221979539868551
-0.002140463033095008
-0.0002706951453989026
-6.766465494481363
-0.003573485615137484
-6.770910158486516
-0.03127432415270803
-6.904851499561213
-7.340846030620457
-0.001809946577882748
-0.0003858440535198238
-6.766479722267125
-0.004925890728568416
-6.771532777707693
-0.04313028677992148
-6.930118791022409
-7.453668118048662
-0.003198288604521815
-0.0004367168327300552
-6.766504928835855
-0.005917174805336822
-6.771467522749363
-0.05868489408116095
-6.942622411687897
-7.550068326200816
-0.006649373267539949
-3.715476640830939e-05
6.766516372019166
-6.766514364798831
-0.0007405389527305184
6.76710733525747
-6.766784232551132
-0.05363312932033482
6.83473849472387
-6.805052625194207
7.851804255182265
-7.787143058466064
-0.1762837392700868
-0.0001258692987516907
6.766523274248732
-0.002874226118351975
6.76830973143324
-0.1110404460542275
6.902585184294304
7.743416428526979
-0.05534196961234944
-0.000311470485465204
6.766518706500507
-0.005624854666807066
6.770263240230689
-0.09414736547205377
6.937250452052773
7.632081779646949
-0.01224135568065543
-0.0004469561242972375
-0.006481631379618435
-0.07675568035954783
-0.009029410457022047
-0.1508102285344962
-7.726328898553243
0.003313378398852929
-0.1164156432126738
-6.851308523547231
-0.05831944138116341
-6.824998231309332
-6.824846190375117
-0.156363376835492
-7.671141281506583
0.01410236956010685
-0.1164679308072508
-6.897248974353567
-0.05831761995871754
-6.883234947249372
-6.883174551864016
-0.1606394166593568
-7.599144579295645
0.01344129557909507
-0.1165880878182733
-6.946150278668151
-0.05833147149769224
-6.941520128329122
-6.941512723095375
-0.1657251294949625
-7.517266525220209
0.01960728825168934
-0.1166438763127616
-6.998527231219517
-0.05833196442317923
-6.999844792819418
-6.999844792414037
-1.152576852340038
-6.467266058065367
0.0323416348218708
-2.012455377911125
-6.1392668943822
-2.87285296704034
-6.139447203690559
-6.139447203693425
-1.152025969302975
-5.428917527923041
0.04483770495762052
-2.012455377916408
-5.279050587478025
-2.872852967042232
-5.279049614566465
-5.279049614567275
-1.152053214627455
-4.438324766446481
0.1085577767079484
-2.012455377921992
-4.418652315523605
-2.872852967044603
-4.418652025443838
-4.418652025446893
-1.152059351617049
-3.55650117326248
0.24888227252892
-2.012455377927508
-3.55825421191831
-2.872852967046921
-3.558254436324423
-3.558254436328661
2.843686947076677
0.8895636090796828
1.954123337995112
0.889563609081564
1.064559728934203
0.8895636088200227
0.8895540566288194
0.1749975850889139
2.843686947077599
1.7791272181565
1.954123337999196
1.779127218159969
1.064559729059241
1.779127216499858
1.779037124605124
0.1750239488371029
2.843686947089469
2.668690827241873
1.95412333800662
2.668690827242819
1.064559730190576
2.66869081368229
2.668247370373702
0.1751393337750413
2.843686947088214
1.954123338006611
1.06455974949832
0.1753397524617476
0.1749964486886138
0.1749964486217335
0.1749892013241338
0.1750233361933279
0.1749927857671866
0.1751179418207403
0.1753491371053159
0.1748943505321906
0.1750233363819066
0.1749892011889292
0.175017078938723
0.1750170787058677
0.175014999949174
0.175083439544926
0.1745519740711193
0.1756195709261782
0.1751179419736735
0.1749927856575594
0.1750834396498972
0.1750149996856953
0.1750277259150104
0.1750277263416015
0.1718997113381343
0.1771333098888972
0.1753491368877582
0.1748943504416336
0.1745519738294655
0.1756195707574023
0.1718997112045157
0.1771333105057894
0.1715341034589542
0.1715341036777314
-0.07296385264681965
0.2431644317312846
-0.1351085192449776
0.2375479686398911
-0.2012483447769336
0.239957523273114
0.2209647300500193
-0.01298701688309023
0.2547691275210308
-0.032408699039158
0.2556902868742676
-0.06093022704171935
0.2665641079666202
0.2663593284580749
-0.005423598867744572
0.2587287148395513
-0.01805943796492127
0.2665632879226103
-0.02957542761478826
0.2762084392407516
0.2794197034144086
-0.007198148931904846
0.2632572317273993
-0.01801530749747227
0.2750489139887382
-0.02539952491778386
0.2819038229124803
0.2843839293426917
0.286910761399071
0.01600911083644085
0.2886091403162305
0.01098841230657527
0.290792441446765
0.0117236609496027
0.003013291311061983
0.2917899489157809
0.286166508999909
0.01053431389391235
0.2888998987345722
0.007914343050982708
0.2925852113313964
0.008310358309456423
-0.003059208625293297
0.3000887640340034
0.2820963161612411
0.002619962734658865
0.2876254847682342
0.002292308820622369
0.2925839200219835
0.003588453928292268
-0.02873019101168228
0.319527689383142
0.2654005889536316
0.2674930569376748
0.27117242884687
0.2452760323851094
0.2701899457283473
-0.1530069521779215
0.2438750164154518
-0.02732670816007177
0.2379956007459923
-0.003545604484762321
-0.007433249844793099
0.2401182378767235
0.2640257931086456
-0.1152437900513238
0.2458284594856069
-0.008023782098550092
0.2436840815197744
0.001467989928595592
-0.00549018328708073
0.2456857420723603
0.2701384397518604
-0.06436572378691474
0.2547767507807468
0.008185251030368546
0.2510131361192914
0.008087776136204539
0.0002538182330838468
0.2496577107001114
0.1813652338611661
0.1907470219446998
0.2016583088780646
0.2063570748886329
0.243267521427615
-0.006426122616638719
0.2439239060656536
-0.002357321362705445
0.2434453848978592
-0.0002200297133806983
-0.0003719094891589947
0.2420422863545118
0.2459358217363972
-0.003325535503396815
0.2454971341123102
-0.0001611953784971254
0.2440386904903342
0.002503483158635467
0.001813313633719449
0.2426568200982909
0.2481455109419761
0.001687344610784236
0.2465190851989879
0.003830989877745938
0.2450786776403986
0.005283224572795231
0.004228795252846362
0.2439384937804145
0.2115950126300783
0.2180631630191395
0.2242650091502567
0.2291656414702919
0.2407933744049138
-0.001247578764861201
0.239949614035516
0.0001326106520627701
0.2377554774762217
-0.002854001506457204
-0.1784974535078037
0.2451009572857266
0.2418855745162261
0.0008069361213979831
0.2407249282886891
0.001006271425695038
0.2393336362548431
-0.004988027909373693
-0.1629380293692127
0.2140838727313745
0.2432085596223201
0.002830177906387898
0.2419963075435779
0.001966626459336929
0.2394154246681281
-0.006067264445260789
-0.1043406366105862
0.1707896766814327
0.2335659141000005
0.2349172893167122
0.2246367516534966
0.1088104255359827
0.2659751773797844
0.09287599374464561
0.2689643181132545
0.1354037284259164
0.2729884493457435
0.09230166773649284
0.06293536243768749
0.2779849771186647
0.2409145067790806
0.0583353988600398
0.2640229602758658
0.1068767994037407
0.2730163985560417
0.0795432288964828
0.05027574770036958
0.2801583116697877
0.1979751953747932
0.02355870603650045
0.2382857538708968
0.05937878585291911
0.2646976463127005
0.04929028667684232
0.03249888927480293
0.2785448976561764
0.1267690972629305
0.1805305333759482
0.2253511660672938
0.2546064803924403
0.2765925122416574
0.02814897060624977
0.2779218586390237
0.007656327174223598
0.2809164888909512
-0.002814568949210172
-0.001489197819540378
0.2877374124213343
0.2793708686322827
0.02205950096214282
0.2800633247364875
0.005368650036911782
0.2819885737423086
-0.00234640166797162
-0.002013406834824316
0.2890003204380741
0.2795123331397884
0.01496310847648208
0.28103844556465
0.003684993805641357
0.2835415803937135
-0.001264313143818474
-0.001354394412421467
0.2900208717871224
0.2630835099173589
0.2666333758429045
0.2691008615326885
0.2754350233520029
0.3038615673571998
0.01990814841869226
0.323317514561847
0.05321307529695729
0.3580434297045101
0.15605780210605
0.3010618436945858
0.4270057287371249
0.3066625447702864
0.0132718198304409
0.3256094773601748
0.04060479871549838
0.3586744046099002
0.1283175409711619
0.2003879147560683
0.4620183895821489
0.3068294943715258
0.007861110432876295
0.3268357696592989
0.02871770430396658
0.3678955196901214
0.09168375055406464
0.0479630896268407
0.52422871264879
0.2945134545236318
0.3330274476713651
0.4299676264830795
0.4809170145394274
0.2175223007679807
-1.215425533393685
0.02217422762935859
-0.2482543375591041
0.003434318481500507
-0.0301431325359731
-0.02720097523862305
-0.0005861316871965437
0.1527068372452863
-0.9036804678643999
0.01106475127256204
-0.1055770765234227
0.00165362746517572
-0.01497349162165233
-0.01557534552679342
-0.003619698697999543
0.07688599295243016
-0.4545876024283521
0.003709919122061193
-0.03100200886858869
-0.002477381029952389
-0.004094454084026301
-0.007168542531015218
-0.003948414984877148
0.02699964039652069
-0.002158030260520128
-0.00224783694594951
-0.003090681884144495
0.001044848471144676
-0.01361989490852729
0.001101034271890308
-0.006308042967766464
-0.0002900025921698419
0.0004135380366887542
0.006126781281875736
0.003863346764543297
-0.00311626604925056
-0.01047077759992623
-0.003449223625770669
-0.004972828147564036
-0.003646471052827428
3.639602761090766e-05
0.004254259306751246
-0.003267998728879083
-0.00446780219616206
-0.00564693628976555
-0.0048423755266317
-0.003299978144879569
-0.00509770943341141
6.781932989405326e-06
0.003219229240067331
-0.00689255880938552
-0.004770478949801265
-0.006715592581359897
-0.007520224299459356
-0.007139482006749798
0.04432748765857825
0.04218231135332905
0.08228125162908463
0.07657589912960082
0.1188929450576128
0.08847931491964446
0.1024794790976572
0.1509977142737895
0.02181982687241102
0.0167987721073557
0.05933806693974363
0.04422177592393731
0.0973399654937023
0.06090456711944595
0.0780445960837127
0.1381387901477934
0.005140979327611837
0.003164331015885313
0.03605882694733821
0.0159986134846908
0.07369805466676255
0.03131860377644698
0.04803159624561873
0.1169521968724723
-0.007280135610183612
0.00820671063931603
0.04464589349108523
0.1023471538224873
0.1191748379949266
-0.1349062075202656
0.1764959082901811
0.09458152854538077
-0.08840528267792161
0.1245219921674345
0.07456975067844018
-0.08118220234012578
0.0966137800131719
-0.06277646972180488
0.04156630706497634
0.09161799320105542
0.1045821172283651
-0.09422745152531499
0.08277936828576948
-0.06577251315269204
0.0491441389051698
-0.05702556845288947
-0.0313603067852016
0.01755935014357309
0.08563896369080466
-0.05820842832230556
0.04701160230101288
-0.03603383951896498
0.01611131921578968
-0.02300827487768097
-0.009783005965397287
-0.003710288091195977
0.04347330197523781
0.007245074188165945
-0.009163932767158385
-0.01419256570702388
-0.01319881602880723
0.001953853026009797
-0.01029265958300891
-0.001835007879869588
-0.005395834593127403
-0.004832013862202299
-0.006918201202442239
-7.314981953499e-14
-0.008791141558110217
0.007588383711274601
-0.007510737255789671
-0.001075862907579798
-0.003617059119385396
-0.006490464636458384
-0.008677951456568436
2.876171523169546e-15
0.006103126981497686
0.01952669378883198
0.0009708206809042191
0.00580811196203385
0.000263852090152436
-0.000919500977088334
-0.00256727885922314
1.583316810993551e-13
0.02257259682083745
0.01256484932752654
0.006263490669870107
5.153308335614781e-13
-0.006918201202446083
0.005395834592999568
-0.00867795145658507
0.003617059119405894
-0.002567278859293858
-0.0002638520898073579
-0.006263490668629003
0.009047732648849168
-0.004832013862246035
0.01029265958302981
-0.006490464636485088
0.007510737255810244
-0.0009195009770922406
-0.0009708206805084524
-0.01256484932691644
0.01116891658046136
-0.001835007879898466
0.01319881602889702
-0.001075862907613318
0.008791141558207552
0.005808111962000798
-0.006103126981144402
-0.02257259682038471
0.01986910435308371
0.001953853025971307
0.01419256570714165
0.007588383711199829
0.003710288091368984
0.01952669378872346
-0.01755935014327074
-0.04156630706448632
0.03880149967261291
-0.07456975067795689
-0.06277646972173506
0.09161799320099409
-0.09458152854480165
-0.08118220234004617
0.09661378001299697
-0.1191748379943386
-0.08840528267777602
0.1245219921671783
-0.1349062075198899
-0.1509977142733749
0.176495908289788
-0.04914413890510179
-0.03136030678511106
-0.08277936828569492
-0.05702556845281975
-0.1045821172279789
-0.06577251315260724
-0.09422745152506207
-0.1381387901474455
-0.01611131921563207
-0.009783005965349926
-0.04701160230080118
-0.02300827487763605
-0.08563896369054498
-0.03603383951894047
-0.05820842832213331
-0.1169521968721068
0.009163932767242006
-0.007245074188072527
-0.04347330197501625
-0.1023471538220705
-0.0446458934906727
-0.04803159624546996
-0.008206710638913518
-0.03131860377622903
0.007280135609965273
-0.01599861348383919
-0.003164331015819519
0.007139482006532843
-0.07369805466647386
-0.07804459608339119
-0.03605882694635727
-0.06090456711982137
-0.005140979327284346
-0.04422177592225368
-0.01679877210671965
0.006892558809167726
-0.09733996549365732
-0.1024794790969455
-0.05933806693867309
-0.08847931492124141
-0.02181982687152244
-0.07657589912759337
-0.04218231135167146
0.003267998728699685
-0.1188929450574124
-0.0822812516282298
-0.04432748765745977
-0.003863346764228701
0.0002900025917730413
0.00612678128107777
-0.001101034271785709
0.0004135380369535424
-0.001044848470883659
-0.006308042967163335
-0.01361989490845111
0.0005861316871580572
0.003646471052463136
0.004254259306292141
0.003449223625794851
3.639602758734317e-05
0.003116266049516888
-0.004972828147072096
-0.01047077759985329
0.003619698698230864
0.005097709433272
0.003219229239897779
0.004842375526552985
6.781932933408452e-06
0.004467802196448146
-0.003299978144605732
-0.005646936289789919
0.003948414985213831
0.007520224299193112
0.006715592581201501
0.004770478950034938
0.00309068188438799
-0.003434318483490243
-0.02720097523877879
-0.02217422762826043
-0.03014313253539506
-0.2175223007660233
-0.2482543375573501
-1.215425533395619
-0.4270057287368837
-0.001653627465139639
-0.01557534552695774
-0.01106475127222091
-0.01497349162157044
-0.1527068372439253
-0.1055770765226677
-0.9036804678657764
-0.4620183895818047
0.002477381030002718
-0.007168542531060029
-0.00370991912188775
-0.00409445408407242
-0.07688599295173734
-0.03100200886830444
-0.4545876024287974
-0.5242287126492676
0.002247836946106766
0.002158030260556588
-0.02699964039624365
-0.4809170145395307
-0.358043429705097
0.3010618436954984
-0.3233175145618273
0.156057802107418
-0.3038615673575331
0.05321307529965735
0.0199081484223409
-0.2877374124232775
-0.3586744046103367
0.2003879147562637
-0.325609477360435
0.1283175409730165
-0.3066625447707884
0.04060479871807376
0.0132718198338545
-0.2890003204402422
-0.3678955196915115
0.04796308962645668
-0.3268357696596533
0.0916837505535788
-0.3068294943721921
0.02871770430627607
0.007861110435204322
-0.2900208717891914
-0.4299676264846574
-0.3330274476749907
-0.294513454526898
-0.2754350233553006
-0.2809164888928357
-0.001489197814037335
-0.2779218586400494
-0.00281456895019494
-0.2765925122414824
0.007656327175630029
0.02814897061137711
-0.2779849771164215
-0.2819885737442773
-0.00201340683068485
-0.2800633247379589
-0.002346401668716136
-0.2793708686328129
0.005368650038675593
0.02205950096737408
-0.2801583116679838
-0.2835415803958199
-0.001354394409853299
-0.2810384455664151
-0.001264313144401341
-0.2795123331403286
0.00368499380719145
0.01496310848153815
-0.2785448976543248
-0.2691008615353139
-0.2666333758464257
-0.2630835099180225
-0.2546064803854164
-0.2729884493459758
0.06293536243893805
-0.2689643181148045
0.09230166774154902
-0.2659751773808225
0.1354037284371926
0.09287599373768907
-0.2451009572871165
-0.2730163985556521
0.05027574770141041
-0.2640229602762713
0.07954322889942544
-0.2409145067745872
0.106876799408882
0.05833539885931449
-0.2140838727329653
-0.2646976463115553
0.03249888927412303
-0.2382857538704112
0.04929028667747937
-0.197975195373566
0.0593787858558561
0.02355870603452015
-0.1707896766806218
-0.225351166063969
-0.180530533374035
-0.1267690972594621
-0.1088104255390548
-0.2377554774755873
-0.1784974534988878
-0.239949614034999
-0.002854001504689951
-0.2407933744059488
0.0001326106515536774
-0.001247578760016743
-0.2420422863553106
-0.2393336362539775
-0.162938029359966
-0.2407249282887213
-0.004988027906977222
-0.2418855745183497
0.001006271425735283
0.0008069361246043072
-0.2426568200994686
-0.2394154246661804
-0.1043406366040481
-0.2419963075436494
-0.00606726444292055
-0.243208559623794
0.001966626459946497
0.002830177907772069
-0.2439384937813297
-0.2246367516562679
-0.2349172893192311
-0.2335659141009346
-0.229165641471345
-0.2434453848987701
-0.0003719094887312813
-0.2439239060661126
-0.0002200297106718652
-0.2432675214281729
-0.00235732136363187
-0.006426122615890539
-0.2401182378761555
-0.2440386904907505
0.001813313634037195
-0.2454971341127286
0.002503483160842812
-0.2459358217365013
-0.0001611953794431464
-0.003325535502638477
-0.245685742071831
-0.2450786776404302
0.004228795253412909
-0.2465190851991998
0.005283224574473222
-0.2481455109420027
0.003830989876876412
0.001687344611328578
-0.249657710699526
-0.2242650091509643