/*--------------------------------*- C++ -*----------------------------------*\
  =========                 |
  \\      /  F ield         | OpenFOAM: The Open Source CFD Toolbox
   \\    /   O peration     | Website:  https://openfoam.org
    \\  /    A nd           | Version:  11
     \\/     M anipulation  |
\*---------------------------------------------------------------------------*/
FoamFile
{
    format      ascii;
    class       volVectorField;
    location    "0.315";
    object      U;
}
// * * * * * * * * * * * * * * * * * * * * * * * * * * * * * * * * * * * * * //

dimensions      [0 1 -1 0 0 0 0];

internalField   nonuniform List<vector> 
880
(
(25 -2.043777962807772e-13 0)
(24.99999999351347 4.868116334544375e-09 0)
(24.99918007618971 -0.00044483314852312 0)
(24.80306706888067 0.003304935605414073 0)
(25.00000000001386 -1.880792006283922e-12 0)
(24.99999998559851 -1.785389149938791e-08 0)
(24.99862658570687 -0.001067827348496589 0)
(24.73462350394348 -0.1512214184274307 0)
(24.9999999998903 -6.61987936026617e-11 0)
(24.99999995382517 -9.531373287149158e-08 0)
(24.99702400077398 -0.002400911182315268 0)
(24.6395554938649 -0.2572169654826398 0)
(24.99999999930787 3.95766629716738e-10 0)
(24.99999976756259 -5.004028643279208e-07 0)
(24.99263338696161 -0.004930273163307843 0)
(24.29351816678882 -0.4098686664735459 0)
(25.00000000534916 -4.771769046972638e-09 0)
(24.99999998381755 2.043557968595763e-08 0)
(24.99999953336 -1.870861780570468e-07 0)
(24.99999625908906 2.903148537314097e-06 0)
(24.99999820561937 -2.064193132076073e-06 0)
(24.9999740702358 -1.333372180061548e-05 0)
(24.99988999330492 6.471525084717445e-05 0)
(25.00015165836339 -0.0008090335249178068 0)
(24.97949764104072 -0.007842644572075837 0)
(24.96351567639495 -0.003528238341547771 0)
(24.94282290322986 0.013105687050724 0)
(24.94064886455535 -0.05399889396403753 0)
(23.58885977408235 -0.1128192953143923 0)
(22.90417286911095 0.5948430599845728 0)
(22.5255018094529 1.264706961685031 0)
(22.47645064022544 1.679000578549074 0)
(24.99992768000178 -3.025974471651358e-05 0)
(24.99981130519239 -0.0002805737559487603 0)
(24.99968401614996 -0.0007501865757130549 0)
(24.99856472521294 -0.002969498440446479 0)
(24.99866694741266 -0.0003324108790142038 0)
(24.99323487538997 0.0004505001911908489 0)
(24.98471048637303 0.004730524568956346 0)
(24.97014486477336 0.008083766994409417 0)
(24.80407193504358 -0.004985583029784655 0)
(24.69929403602331 0.08795581593298663 0)
(24.5598703182173 0.2505089588558396 0)
(24.44412596759894 0.3582051334687797 0)
(22.23931672313611 2.253274204539164 0)
(22.23978821668615 2.65413995573766 0)
(22.12755871707595 3.204100033444258 0)
(22.54575840791834 3.592768585990679 0)
(23.55854354944567 4.162351900170475 0)
(24.23234679410835 3.990506757560599 0)
(24.5726582163065 3.583146783582167 0)
(24.84282832170882 3.16764991780447 0)
(24.21826711614871 0.6845494236488092 0)
(24.23066721563138 1.045241726578977 0)
(24.35051094584123 1.25921415237327 0)
(24.50901602502632 1.401281353428746 0)
(24.91230380098579 0.02931719155083124 0)
(24.83957941461808 0.09563016040814351 0)
(24.76956498630392 0.2013968051337316 0)
(24.73428881887068 0.331272610469218 0)
(24.99251911612907 -0.00698216404863658 0)
(24.9825178226336 -0.01746388783488587 0)
(24.96827299759619 -0.03464011403039488 0)
(24.95259452537977 -0.05695487235824963 0)
(24.93954538934816 -0.08129157515431082 0)
(24.93211541269883 -0.09725340891827051 0)
(24.92782301903523 -0.0956230901049597 0)
(24.92405021558573 -0.08736631668360742 0)
(24.73969579526178 0.4698595516117449 0)
(24.7885983266772 0.5876380708729683 0)
(24.87429626033251 0.6676637978465664 0)
(24.97394267423029 0.6920546773058784 0)
(24.68602230994164 1.493380690597249 0)
(24.88470371587638 1.509501347181836 0)
(25.03965697223529 1.45490032392094 0)
(25.1883577975858 1.364337632533623 0)
(25.03935241061613 2.752365368719137 0)
(25.25574557662716 2.359833731034894 0)
(25.32121766850644 1.968406710399262 0)
(25.46171762042019 1.656577604916059 0)
(25.49454160975182 1.265473101109309 0)
(25.33670926895399 1.227321567914878 0)
(25.08139065022062 0.6879983465061851 0)
(24.9213782313344 -0.07538368914970277 0)
(25.26794433496759 1.234322875722104 0)
(25.41712555746687 1.069735802408042 0)
(25.19175948724443 0.6204798770746002 0)
(24.92249401699388 -0.05644384929956305 0)
(22.07280574119718 1.60570068073984 0)
(25.38099388318226 1.015247197599779 0)
(25.2509451226073 0.5427595646153403 0)
(24.92976492388692 -0.04821831684988215 0)
(16.08888499928061 1.804326276174798 0)
(24.44453719983476 1.230948315348421 0)
(25.28799302265613 0.499463000924791 0)
(24.96296369155662 -0.04569610960333118 0)
(24.9209104693899 -0.03143954716828103 0)
(25.21808439574086 0.4058455080908187 0)
(23.07714948908778 1.697476912346252 0)
(13.59981081670669 3.455148669648791 0)
(24.91560747166811 -0.03929146908722379 0)
(25.05530366705252 0.4138954517546445 0)
(21.91951407422736 2.505047128469277 0)
(13.7247158222305 5.31425294271367 0)
(24.90906599311315 -0.05461226751765436 0)
(24.73210829258459 0.5821892015672964 0)
(20.39448735432437 3.668444621036679 0)
(13.50669662037384 6.89867274847796 0)
(24.87593712298546 -0.08981307352644492 0)
(24.22708087055366 1.011001791336952 0)
(19.04594734076677 5.0886338223673 0)
(13.61451562178498 8.214736977221596 0)
(14.12194979997649 9.148723977718456 0)
(17.98210175651517 6.513360838801216 0)
(23.43812595183604 1.829037519742411 0)
(24.79608725332423 -0.1421097575822199 0)
(14.91222254952098 9.780906941397227 0)
(17.74801170879893 7.659273334928433 0)
(22.52706047876557 3.029171938688288 0)
(24.62616156868168 -0.1732964447630534 0)
(15.96183216942567 10.07640998067227 0)
(18.01238752617818 8.634971841918061 0)
(21.78917747989304 4.412225786735267 0)
(24.36068653498404 -0.1120051873423935 0)
(17.12770307994093 10.13648504488319 0)
(19.07516207144037 8.981251376146414 0)
(21.43709407735538 5.784187179255118 0)
(24.01452859217314 0.09489551822054977 0)
(23.66844250320374 0.2471282929000707 0)
(22.37734818160944 6.474920327171981 0)
(20.84730280393467 8.854981164928164 0)
(18.64974947802111 10.14521735288267 0)
(23.89708763161858 0.08873009135269566 0)
(23.60321709977523 6.074524074289795 0)
(22.9103305480099 8.412084280315046 0)
(20.71396105668819 9.897997752267003 0)
(24.28888725707011 -0.06230016700780065 0)
(24.94448963864499 5.396901610496083 0)
(25.09176727199554 7.557812328970219 0)
(23.27288491082303 9.189055833470153 0)
(24.5120558232556 -0.4830587363983796 0)
(25.80681057456984 4.276886982615136 0)
(27.00032302052962 6.132510434613323 0)
(26.20529375174855 7.489915066165008 0)
(24.75064103486183 -0.3689632749365732 0)
(26.56551940513042 3.414651225085305 0)
(28.5705694560743 4.670818444654545 0)
(30.37492219177921 4.551156156394842 0)
(25.06176425117688 -0.4130776328363557 0)
(27.03956708802675 2.391115072224579 0)
(29.44031331497512 3.084080710576157 0)
(33.60119376806978 0.5051952357116442 0)
(25.26777874012703 -0.3686197906206499 0)
(26.99321825427764 1.460297206842912 0)
(29.83220987539357 1.09124937765626 0)
(36.66741702376835 -4.442992912405627 0)
(25.35627262997696 -0.3212050095451068 0)
(26.69291253852386 0.8503586325787446 0)
(29.15972236067735 -0.1720405089287856 0)
(34.20748437514852 -6.852531407515244 0)
(28.06276123911975 -3.350194670963933 0)
(28.42696580185745 -1.1750152223021 0)
(26.45801072104494 0.2473521296195263 0)
(25.37607095636311 -0.2939639498411296 0)
(23.96867089569251 -2.034641202914945 0)
(27.80372694240262 -1.865891255111363 0)
(26.15595471869035 -0.1139906034761833 0)
(25.32182659004092 -0.2269596103103982 0)
(22.13563859134145 -3.725158300962487 0)
(27.22359511432048 -2.702734476830852 0)
(25.91101427903808 -0.514061301018138 0)
(25.22551910041917 -0.1383009329758205 0)
(18.97772722865699 -3.907707153210862 0)
(26.29456275970073 -3.441446398694772 0)
(25.58471116884874 -0.8602485608717035 0)
(25.13755186507434 -0.1007385356151084 0)
(16.20926072621206 -5.873481077361412 0)
(24.74794304985671 -4.287832295668495 0)
(25.11252445362401 -0.978619516537878 0)
(25.03780185968943 -0.07986643106364515 0)
(14.4483047106792 -7.873368988014341 0)
(23.59811177193703 -4.111550156828859 0)
(24.76593153247192 -0.73034748597122 0)
(24.98489240987528 -0.04318508343683486 0)
(14.30667694869359 -7.617945014504572 0)
(22.82152819288206 -3.374995056503824 0)
(24.68025626298792 -0.4245411845385368 0)
(24.98064655523466 -0.02088132192859234 0)
(15.22491454878682 -6.221066826710601 0)
(23.07962463857628 -2.68974383428906 0)
(24.76160609985351 -0.3476642118089728 0)
(24.9891755068196 -0.01367501909896937 0)
(15.4184612015808 -0.8376641510399075 0)
(21.42874700445707 0.03952832872152733 0)
(24.28817405025971 0.01696435351327822 0)
(24.95022155385092 0.0005059278608530276 0)
(15.57266977665275 -2.301595505691275 0)
(21.41504248714098 0.008354609123443444 0)
(24.26816629849899 0.04078116435374582 0)
(24.94748323965998 0.001956446811716221 0)
(15.79484595910259 -3.218490930196737 0)
(21.38826794375021 -0.1742200881947046 0)
(24.25174312380186 0.02448113998674623 0)
(24.94409207844185 0.001236465085351147 0)
(15.9027913769713 -3.430708435435486 0)
(21.50920679111698 -0.4791431231822065 0)
(24.27012477850391 -0.0381197651150253 0)
(24.94334379881461 -0.001511755512796309 0)
(15.22491454880874 6.221066826702003 0)
(23.07962463863129 2.689743834286227 0)
(24.76160609995456 0.3476642117485177 0)
(24.98917550693223 0.01367501907376792 0)
(14.30667694871638 7.617945014492227 0)
(22.82152819293061 3.374995056544904 0)
(24.68025626301038 0.4245411845321832 0)
(24.98064655528073 0.02088132198542219 0)
(14.44830471070499 7.873368988032814 0)
(23.5981117719766 4.111550156870294 0)
(24.7659315324777 0.7303474860258876 0)
(24.98489240991718 0.04318508347789018 0)
(16.20926072620147 5.873481077362618 0)
(24.74794304990791 4.287832295714991 0)
(25.11252445363551 0.9786195165671326 0)
(25.03780185970375 0.07986643111136273 0)
(25.37607095633978 0.2939639497731204 0)
(26.45801072102899 -0.2473521296254652 0)
(28.4269658018473 1.175015222295873 0)
(28.0627612391731 3.350194671064812 0)
(25.32182659001707 0.2269596102711919 0)
(26.15595471866882 0.1139906034873058 0)
(27.80372694240986 1.865891255107063 0)
(23.96867089569103 2.03464120300523 0)
(25.22551910037428 0.1383009329521392 0)
(25.91101427901485 0.5140613010369433 0)
(27.22359511439348 2.702734476948298 0)
(22.13563859132916 3.725158301020324 0)
(25.1375518650457 0.1007385356215906 0)
(25.58471116880183 0.8602485608369008 0)
(26.29456275974887 3.441446398754602 0)
(18.9777272286438 3.907707153251577 0)
(34.20748437518868 6.852531407607472 0)
(29.15972236067279 0.1720405089123208 0)
(26.69291253855821 -0.8503586325679956 0)
(25.35627262998821 0.3212050094482984 0)
(36.66741702379421 4.442992912456611 0)
(29.83220987542187 -1.091249377648386 0)
(26.99321825428257 -1.460297206870633 0)
(25.2677787401457 0.3686197905461626 0)
(33.6011937680868 -0.5051952356671727 0)
(29.44031331499319 -3.084080710580231 0)
(27.03956708805995 -2.391115072200882 0)
(25.0617642511143 0.4130776328332336 0)
(30.37492219178126 -4.551156156362555 0)
(28.57056945611915 -4.670818444614834 0)
(26.56551940517469 -3.414651225026104 0)
(24.75064103473571 0.3689632750308505 0)
(23.66844250314436 -0.2471282928777563 0)
(22.37734818154293 -6.474920327186124 0)
(20.84730280386644 -8.854981164940751 0)
(18.64974947801803 -10.14521735287867 0)
(23.89708763160413 -0.08873009132277029 0)
(23.60321709980453 -6.074524074295379 0)
(22.91033054797357 -8.412084280297984 0)
(20.7139610566707 -9.897997752262221 0)
(24.28888725714194 0.06230016705590938 0)
(24.94448963866524 -5.396901610490757 0)
(25.09176727198478 -7.557812328924207 0)
(23.27288491082338 -9.189055833457047 0)
(24.51205582316243 0.4830587365509981 0)
(25.80681057460368 -4.27688698254886 0)
(27.00032302053644 -6.13251043455492 0)
(26.20529375174388 -7.48991506614181 0)
(17.12770307994615 -10.13648504488492 0)
(19.07516207142928 -8.981251376163112 0)
(21.43709407731198 -5.78418717926753 0)
(24.01452859201499 -0.09489551824158672 0)
(15.96183216943374 -10.07640998068231 0)
(18.01238752618027 -8.634971841932661 0)
(21.78917747990817 -4.412225786761247 0)
(24.36068653496271 0.1120051873434954 0)
(14.91222254953145 -9.780906941410684 0)
(17.74801170882105 -7.659273334919924 0)
(22.52706047880933 -3.02917193867936 0)
(24.62616156863262 0.1732964447681462 0)
(14.12194979999636 -9.148723977725123 0)
(17.98210175649819 -6.513360838785204 0)
(23.43812595174951 -1.829037519729918 0)
(24.79608725329117 0.142109757588513 0)
(24.92091046939353 0.031439547172753 0)
(25.21808439576071 -0.4058455080541733 0)
(23.07714948911179 -1.697476912367775 0)
(13.59981081673859 -3.455148669656165 0)
(24.91560747155944 0.03929146908148026 0)
(25.05530366701678 -0.4138954517019198 0)
(21.91951407425277 -2.505047128465407 0)
(13.72471582223251 -5.314252942726771 0)
(24.9090659929709 0.05461226751778595 0)
(24.73210829246766 -0.5821892015147522 0)
(20.39448735434451 -3.668444621003993 0)
(13.50669662040766 -6.898672748487732 0)
(24.87593712292755 0.08981307353474147 0)
(24.22708087058403 -1.011001791283979 0)
(19.04594734079992 -5.088633822366067 0)
(13.61451562178898 -8.214736977234951 0)
(24.96296369156213 0.04569610961232774 0)
(24.92976492389864 0.04821831686465756 0)
(24.92249401694281 0.05644384933599264 0)
(24.9213782313253 0.07538368914708186 0)
(25.28799302275371 -0.499463000926651 0)
(25.2509451226313 -0.5427595646244581 0)
(25.191759487274 -0.6204798770634498 0)
(25.0813906502383 -0.6879983465243815 0)
(24.44453719991125 -1.230948315373606 0)
(25.38099388320557 -1.01524719760433 0)
(25.41712555753972 -1.069735802426532 0)
(25.33670926899693 -1.227321567915112 0)
(16.08888499933238 -1.804326276175582 0)
(22.07280574123517 -1.60570068073616 0)
(25.26794433495434 -1.234322875708459 0)
(25.49454160975814 -1.265473101089197 0)
(24.92405021554497 0.08736631668887526 0)
(24.97394267417947 -0.6920546772949473 0)
(25.18835779755667 -1.364337632507215 0)
(25.46171762039462 -1.656577604871643 0)
(24.92782301906183 0.09562309009558632 0)
(24.87429626028124 -0.6676637978492416 0)
(25.03965697220875 -1.454900323896293 0)
(25.3212176685041 -1.968406710365358 0)
(24.93211541270212 0.09725340891768385 0)
(24.78859832665623 -0.5876380708258144 0)
(24.88470371592345 -1.50950134719023 0)
(25.25574557670028 -2.35983373104639 0)
(24.93954538939327 0.0812915751086659 0)
(24.73969579526465 -0.4698595515982815 0)
(24.6860223099443 -1.493380690598066 0)
(25.03935241063881 -2.752365368708923 0)
(24.99251911613196 0.006982163977146461 0)
(24.91230380108462 -0.02931719145451201 0)
(24.21826711611055 -0.6845494236581001 0)
(23.55854354942658 -4.162351900153717 0)
(24.98251782269626 0.01746388772834955 0)
(24.83957941467137 -0.09563016033231919 0)
(24.23066721562035 -1.04524172653826 0)
(24.23234679410244 -3.990506757563299 0)
(24.96827299754978 0.03464011400634766 0)
(24.76956498634054 -0.2013968050587796 0)
(24.35051094588933 -1.25921415238872 0)
(24.57265821637995 -3.583146783635848 0)
(24.95259452541 0.05695487229884348 0)
(24.73428881889907 -0.3312726104099069 0)
(24.50901602502607 -1.401281353408494 0)
(24.84282832176748 -3.167649917824299 0)
(22.54575840794072 -3.592768585985683 0)
(24.44412596759988 -0.3582051334748033 0)
(24.97014486488139 -0.00808376690037815 0)
(24.99856472516225 0.002969498431770828 0)
(22.12755871710239 -3.204100033431908 0)
(24.55987031819863 -0.250508958869714 0)
(24.98471048644983 -0.004730524539773485 0)
(24.99968401616182 0.0007501865436462797 0)
(22.23978821668249 -2.654139955713398 0)
(24.69929403603319 -0.08795581594081053 0)
(24.99323487551324 -0.0004505002032338443 0)
(24.99981130522951 0.0002805736560328196 0)
(22.23931672316317 -2.253274204505348 0)
(24.80407193508815 0.004985583029957944 0)
(24.99866694748341 0.0003324108813974798 0)
(24.99992767994701 3.025974462943192e-05 0)
(22.47645064025063 -1.679000578538766 0)
(24.94064886456321 0.05399889398081647 0)
(25.00015165837679 0.0008090335454164306 0)
(24.99999625905691 -2.903103279164017e-06 0)
(22.52550180947326 -1.26470696171132 0)
(24.94282290324835 -0.01310568704908633 0)
(24.99988999337031 -6.471524904820816e-05 0)
(24.99999953335152 1.870982954737527e-07 0)
(22.90417286909212 -0.594843060072578 0)
(24.9635156764208 0.003528238333291638 0)
(24.99997407027592 1.333371135769045e-05 0)
(24.9999999838445 -2.044388476056419e-08 0)
(23.58885977392873 0.1128192951837099 0)
(24.97949764107895 0.007842644567960777 0)
(24.99999820567123 2.064209885310988e-06 0)
(25.00000000528544 4.750508861923243e-09 0)
(25.00000000000001 -5.474986060864771e-13 0)
(24.99999999350221 -4.891094323293308e-09 0)
(24.99918007618743 0.0004448331329829482 0)
(24.80306706874687 -0.003304935712527876 0)
(24.99999999999998 1.222579077194238e-11 0)
(24.99999998566214 1.782619162901652e-08 0)
(24.99862658571065 0.001067827326697841 0)
(24.73462350323381 0.1512214189829888 0)
(24.99999999987928 7.645157953684184e-11 0)
(24.99999995387624 9.532188099788418e-08 0)
(24.9970240007834 0.002400911168185878 0)
(24.63955549322479 0.257216965512591 0)
(24.99999999927705 -3.800594061037605e-10 0)
(24.9999997676164 5.004145419620713e-07 0)
(24.99263338698185 0.004930273152136214 0)
(24.29351816642356 0.4098686665438235 0)
(24.6671084912697 -4.135172632964257e-10 0)
(24.53295457360053 0.1492377778615046 0)
(24.20982685686471 0.1826214141201975 0)
(23.33329389775189 0.04636383899672456 0)
(24.53295457508482 -0.1492377788574126 0)
(24.30240484678638 -4.177822562704995e-10 0)
(23.69143062360546 -0.04617172956418047 0)
(22.2984052089183 -0.460822534596207 0)
(24.20982685903123 -0.1826214147088382 0)
(23.69143062499876 0.04617172889734241 0)
(22.45063242881926 -1.071016175056697e-10 0)
(20.37450398685082 -0.5772703781366574 0)
(23.33329389841598 -0.04636383960684056 0)
(22.29840520975086 0.4608225341114279 0)
(20.37450398738721 0.5772703777574448 0)
(18.09956461062671 -2.920060980778292e-10 0)
(17.52260382348163 2.54971648539725 0)
(18.18298934261782 2.960852691677779 0)
(19.86298111178311 2.673316426769214 0)
(21.40451804721204 1.857907824452181 0)
(18.50996834506126 4.291243533883698 0)
(18.57845629978474 4.255861272759198 0)
(19.32240504107554 4.169450145921129 0)
(20.37518248944091 3.976733268242937 0)
(17.99430475037224 5.285273068446837 0)
(19.10938920971354 4.527300981332368 0)
(19.81104963003861 4.730451534352051 0)
(20.36436346163408 4.588818103539544 0)
(18.6308457319216 5.814818325577489 0)
(19.94366047729924 4.762608256104204 0)
(20.45017304414393 4.93217517301543 0)
(20.7454504439326 4.845337427466355 0)
(21.03539256412005 4.990002128274996 0)
(21.23929275012365 5.07792931547394 0)
(21.5806289551742 5.165224921346529 0)
(22.27049096305628 5.305533976537304 0)
(20.94327993327564 5.05776759837992 0)
(21.22331137241273 5.141254907826622 0)
(21.67862113873087 5.168806125145798 0)
(22.75849503628281 5.535177667844658 0)
(20.66910081171535 4.976104785782641 0)
(21.11794888069961 5.142344073730241 0)
(21.68564355440889 5.211735357259698 0)
(24.19982890841486 5.961559723614494 0)
(19.28382016483031 5.934864451163509 0)
(19.81492185186689 6.020498209923089 0)
(20.62437733059291 5.869939607507048 0)
(25.89082389085226 7.172642367941702 0)
(25.94365147448582 3.191623314069602 0)
(26.50406952187674 0.7970129611615392 0)
(25.77606809714131 0.4433204888609675 0)
(25.60668272842858 0.4083571176876228 0)
(28.47470772386462 2.198054241764317 0)
(28.70756865477268 0.3368339560141039 0)
(27.54393131319275 0.2606867919580265 0)
(26.8572603594541 0.3417788952888202 0)
(31.66771387099564 1.896983088927166 0)
(30.09259586247128 0.04641664670819856 0)
(28.67219394903722 0.03476174444730378 0)
(27.70781578288329 0.1134050402350124 0)
(25.14699439725616 1.937796419021742 0)
(24.14688065151162 0.6061531192737707 0)
(24.02878047911545 0.1364036011954816 0)
(24.07794703507726 -0.2397186741356339 0)
(25.53632552466372 0.365135037574873 0)
(25.57886288598066 0.2982976406310348 0)
(25.57952214108279 0.2604092165996901 0)
(25.56294333186783 0.2178691789556242 0)
(26.38964102306312 0.3327541619070795 0)
(26.05813670582477 0.284791916048764 0)
(25.79161437275556 0.2288248328676925 0)
(25.54302235242448 0.188779703975702 0)
(26.97551927495286 0.1357885186232383 0)
(26.3812603758708 0.1297891199199309 0)
(25.92003400915362 0.1258528568204146 0)
(25.47074369198605 0.1037677157910834 0)
(23.90275115862605 -0.4440095525834567 0)
(23.67625297538402 -0.6146155485295004 0)
(23.4588582014132 -0.638373969244856 0)
(23.12056994730709 -0.5628584037298164 0)
(25.55250143781387 0.2249595484042687 0)
(22.74876977056828 3.284074831394338 0)
(16.22206566124333 4.95328323150195 0)
(10.91089175566117 1.747063269485223 0)
(25.38939705190427 0.3718145716296797 0)
(20.15549982568345 3.677439643159009 0)
(11.69917200884262 4.025289869922591 0)
(5.969124692582089 0.3563757242771199 0)
(24.91408608911246 0.4867014870467467 0)
(16.74153148890648 2.980747725944667 0)
(6.394672053400212 2.894867862061113 0)
(0.5125567317783377 0.5194756587323858 0)
(21.84937261803581 -0.5397845111033455 0)
(11.62376698445636 -1.113505200165718 0)
(2.633772503350385 -0.08159049482828135 0)
(-1.530479357765094 0.4505960551447827 0)
(9.558148458071237 3.056647047755671 0)
(11.01587165570341 4.602537376222374 0)
(11.75461416405201 6.065335632319207 0)
(12.56416748318441 7.454326990664738 0)
(7.460604170767853 2.516626225466062 0)
(10.38018366090118 4.761434472330964 0)
(11.556872337603 6.3029869276462 0)
(12.50199266148935 7.562039509811862 0)
(4.265662878599987 0.6605119531161738 0)
(8.675143836661046 4.08380683162877 0)
(10.80098887222599 6.371408891578912 0)
(12.11366974299229 7.614479471718851 0)
(0.7866698438321099 0.5405118103720216 0)
(4.50441557488148 3.013597337617374 0)
(8.124867605861533 4.477789275611541 0)
(10.31635962828113 5.751293436403747 0)
(13.51049648906568 8.581497939580174 0)
(14.48832981618455 9.469887973040539 0)
(15.65838961856947 10.51255630935041 0)
(16.77959057781812 11.10244976915515 0)
(13.53088028991484 8.625019813392299 0)
(14.50437508097326 9.50386254022928 0)
(15.57345903972345 10.47618227383201 0)
(16.74920004562258 11.13981459104685 0)
(13.37637851937811 8.594311081876903 0)
(14.39868536301314 9.462557105168978 0)
(15.47412097395799 10.39159554213873 0)
(16.69578849484224 11.15077944094731 0)
(12.46136544231532 6.893302517176108 0)
(14.65111735489145 8.179563131313227 0)
(15.52605408368366 10.07793939633653 0)
(16.76243582019737 11.02483162183708 0)
(17.9481456481577 11.48949036480775 0)
(19.61424279128871 11.78096493956325 0)
(21.85991940314596 11.45404337362869 0)
(24.75221812089522 10.11145822010075 0)
(17.80312205379168 11.53216170739918 0)
(19.22323909855618 11.80328916798386 0)
(21.31304266652944 11.62583273417047 0)
(24.91203095331773 12.18978341917118 0)
(17.70561307843968 11.61941510650079 0)
(18.85380373658932 11.86112160050331 0)
(21.40300517497461 12.54219783460672 0)
(31.16613788662779 18.11219090809162 0)
(17.70056813121349 11.569170092798 0)
(18.77715775158945 11.83336944610649 0)
(22.10088622480488 13.1725113076538 0)
(42.75398584297094 25.13520703087124 0)
(30.32280232556269 4.990650579590494 0)
(31.71846160318653 -3.690250515454991 0)
(12.27197559611175 8.552339950426438 0)
(9.627763689958751 26.82889702874203 0)
(32.04192166941661 4.635665749870794 0)
(25.85063382266563 -1.638316958010949 0)
(9.341145777164703 16.54979724893202 0)
(8.635934474895494 26.4682019563427 0)
(31.76148318132779 3.162952966077798 0)
(16.34656496296219 -3.565330008691883 0)
(4.179387513485524 19.35980455505623 0)
(4.353246602855877 26.49964077592751 0)
(20.2076095087713 -8.371079322844928 0)
(6.595956129989373 0.05322126549226006 0)
(2.484159841534366 21.8011693830848 0)
(2.361147355490623 26.17662791941862 0)
(5.930429615211785 18.20152733539717 0)
(1.487196915013242 13.87999064430819 0)
(-0.8361758650189283 12.23388830167929 0)
(-2.248959317963026 8.548194679595341 0)
(4.508481909570199 21.20784663255315 0)
(1.157090940060076 16.93887984003756 0)
(-0.716453229061458 13.21947784719334 0)
(-1.119183885543997 6.839436818075812 0)
(2.827936682390481 21.08710650521387 0)
(1.348584714770836 16.98253073885725 0)
(-0.3590699891674901 11.51502825287269 0)
(-0.7014771655430867 4.612873016854003 0)
(0.6948292711416264 20.52338736998864 0)
(-0.2587148813490057 16.5186904139689 0)
(-1.63775214637353 10.4529315988973 0)
(-1.434576363844803 3.314454122770873 0)
(-4.080180290059655 2.888769342699434 0)
(0.7672201307950358 -0.7312343023877604 0)
(4.757937495304279 -4.065897307759217 0)
(6.602897516013397 -8.032445653972831 0)
(-5.055818855268472 2.58518142296738 0)
(-3.019817527315977 -0.04395579494244953 0)
(2.073605819698686 -1.937867265898932 0)
(5.631954731622748 -7.041391074222958 0)
(-4.59093502345412 1.740323686988612 0)
(-5.101672096206124 0.4251615846343677 0)
(-0.9120106299886503 -0.7871037082888185 0)
(4.259174973656183 -5.192559509254767 0)
(-3.377608436676454 1.938606717232526 0)
(-5.219775184817645 1.441904435114242 0)
(-1.364301546039795 2.155562315662539 0)
(4.885745918889412 -2.71077700161926 0)
(5.19805370019686 -7.67521298922567 0)
(5.05960811214013 -7.963547691677371 0)
(5.356408519120874 -7.944959487103912 0)
(5.712498809871104 -7.494578007474419 0)
(4.619114747960018 -8.234593904251396 0)
(4.48705867939502 -8.248349236796876 0)
(4.695740346295779 -8.338947761573298 0)
(4.606462499844199 -8.050388097086307 0)
(4.048026864237565 -7.536887760035884 0)
(3.719783864484677 -6.28038167641938 0)
(3.751876800766376 -5.390133012269789 0)
(2.774387425391165 -4.492920695143598 0)
(6.762350011759449 -6.667579310320425 0)
(5.808931493082182 -3.371908065543189 0)
(4.458479998767386 -0.9658760655870343 0)
(2.075542599069806 0.2556118437639362 0)
(0.2782290197296458 1.166477384505532 0)
(-0.8108564518015596 1.393509911509825 0)
(-1.495253145666232 1.083684978850533 0)
(-1.78286816501924 0.3432612786833699 0)
(1.681276330372526 -2.530779776403024 0)
(-0.1032134911431689 -1.494577497298143 0)
(-1.26728208392718 -0.481155444220333 0)
(-1.861531733995759 -0.2034520836169575 0)
(4.009242279037466 -6.70787562217362 0)
(2.90824795365714 -5.174337859328916 0)
(1.570832283773945 -3.244778914833251 0)
(0.5812924522282165 -1.179550498611947 0)
(6.209466665284796 -6.53428016563227 0)
(6.290559049700108 -5.007362846335854 0)
(5.688126469586639 -3.157732927996103 0)
(5.060718201827512 -1.159895797586583 0)
(-1.782868165024476 -0.3432612786842835 0)
(-1.861531733995542 0.2034520835956737 0)
(0.5812924522266301 1.179550498560049 0)
(5.060718201827436 1.159895797535541 0)
(-1.495253145673682 -1.083684978854535 0)
(-1.267282083928641 0.4811554441964604 0)
(1.570832283773319 3.244778914787645 0)
(5.688126469611946 3.157732927947157 0)
(-0.8108564518081516 -1.393509911517894 0)
(-0.1032134911510902 1.494577497271982 0)
(2.908247953662252 5.174337859290971 0)
(6.290559049730301 5.007362846303196 0)
(0.2782290197248187 -1.166477384516184 0)
(1.681276330367012 2.530779776376991 0)
(4.009242279038959 6.707875622148767 0)
(6.209466665298376 6.534280165615444 0)
(5.71249880986985 7.494578007470716 0)
(5.356408519109038 7.944959487099396 0)
(5.059608112124415 7.963547691666549 0)
(5.198053700187698 7.675212989219363 0)
(4.606462499847733 8.050388097068963 0)
(4.695740346298874 8.33894776155906 0)
(4.487058679395721 8.248349236780236 0)
(4.619114747955754 8.234593904241745 0)
(2.774387425399251 4.492920695117951 0)
(3.751876800776871 5.390133012254086 0)
(3.719783864492445 6.280381676405901 0)
(4.048026864242357 7.536887760021384 0)
(2.075542599063301 -0.2556118437734541 0)
(4.458479998765221 0.9658760655770606 0)
(5.808931493081509 3.371908065538598 0)
(6.76235001175795 6.667579310321831 0)
(4.885745918892471 2.710777001624226 0)
(-1.364301546023177 -2.155562315634058 0)
(-5.219775184783638 -1.441904435101715 0)
(-3.377608436653786 -1.938606717221832 0)
(4.259174973656729 5.192559509242376 0)
(-0.9120106299736905 0.7871037083020928 0)
(-5.101672096168509 -0.4251615846264115 0)
(-4.590935023419385 -1.740323686968291 0)
(5.631954731614258 7.041391074211673 0)
(2.073605819703999 1.937867265900823 0)
(-3.019817527275293 0.04395579493760902 0)
(-5.055818855233942 -2.585181422932788 0)
(6.602897516001905 8.032445653966478 0)
(4.75793749529246 4.065897307771378 0)
(0.7672201308348007 0.7312343023942132 0)
(-4.08018029002857 -2.888769342653097 0)
(-2.248959317982218 -8.548194679503181 0)
(-0.8361758650890848 -12.23388830167398 0)
(1.487196915009661 -13.87999064447714 0)
(5.930429615286415 -18.2015273356864 0)
(-1.119183885554375 -6.839436818022667 0)
(-0.7164532290975085 -13.21947784717636 0)
(1.157090940091892 -16.93887984010818 0)
(4.508481909675648 -21.20784663265272 0)
(-0.7014771655520556 -4.612873016829472 0)
(-0.3590699891894882 -11.515028252859 0)
(1.348584714779693 -16.98253073886707 0)
(2.827936682413311 -21.08710650525257 0)
(-1.434576363840909 -3.314454122758757 0)
(-1.637752146388719 -10.45293159888189 0)
(-0.2587148813608648 -16.51869041395802 0)
(0.6948292711449136 -20.52338737001631 0)
(9.627763689960803 -26.82889702892899 0)
(12.27197559594426 -8.552339950750731 0)
(31.71846160310216 3.690250515503722 0)
(30.32280232554983 -4.990650579557532 0)
(8.635934474926033 -26.46820195642761 0)
(9.341145777170697 -16.54979724907933 0)
(25.8506338226191 1.638316957986436 0)
(32.04192166939939 -4.6356657498535 0)
(4.353246602867105 -26.49964077599173 0)
(4.179387513473186 -19.35980455516501 0)
(16.34656496295074 3.565330008644234 0)
(31.7614831813208 -3.162952966074028 0)
(2.361147355500247 -26.17662791949544 0)
(2.484159841532568 -21.80116938318594 0)
(6.595956130016548 -0.05322126554802408 0)
(20.20760950879882 8.371079322833431 0)
(24.75221812090416 -10.11145822008577 0)
(21.85991940315931 -11.4540433736319 0)
(19.6142427912961 -11.78096493956425 0)
(17.94814564816411 -11.48949036483135 0)
(24.91203095332314 -12.18978341916466 0)
(21.31304266653832 -11.62583273417304 0)
(19.2232390985585 -11.80328916799159 0)
(17.80312205378203 -11.5321617074079 0)
(31.16613788662148 -18.11219090808244 0)
(21.40300517498047 -12.54219783460805 0)