/*--------------------------------*- C++ -*----------------------------------*\
  =========                 |
  \\      /  F ield         | OpenFOAM: The Open Source CFD Toolbox
   \\    /   O peration     | Website:  https://openfoam.org
    \\  /    A nd           | Version:  11
     \\/     M anipulation  |
\*---------------------------------------------------------------------------*/
FoamFile
{
    format      ascii;
    class       volVectorField;
    location    "0.6";
    object      U;
}
// * * * * * * * * * * * * * * * * * * * * * * * * * * * * * * * * * * * * * //

dimensions      [0 1 -1 0 0 0 0];

internalField   nonuniform List<vector> 
4455
(
(9.9984443 0.0022692989 0)
(9.9882527 0.003401627 -1.5456086e-19)
(9.9735469 0.006578122 5.3042153e-19)
(9.952057 0.0044843713 9.4163804e-22)
(9.9137655 0.014237048 4.9716702e-19)
(9.8592413 0.0072785842 -1.8681583e-18)
(9.7471084 0.032318757 8.3004117e-19)
(9.6376108 0.0013116474 0)
(9.4835205 0.061739661 -4.9797605e-18)
(9.9992693 0.0058913786 -1.0105164e-18)
(9.9874681 0.011775792 9.8444839e-19)
(9.9757482 0.020382371 -1.2095633e-18)
(9.9544279 0.020348258 2.0120606e-18)
(9.9185925 0.03562402 -3.8516108e-18)
(9.8709318 0.037216591 4.1916245e-18)
(9.7699525 0.050911521 -3.9739214e-19)
(9.6458581 0.024261883 5.7971993e-19)
(9.4459514 0.007942996 2.1597417e-17)
(10.000386 0.0094983219 -1.0581875e-18)
(9.9876684 0.019467195 1.3361114e-18)
(9.974201 0.032099582 1.18368e-18)
(9.9485995 0.03208396 -1.1762399e-18)
(9.9098808 0.053944655 5.1390418e-18)
(9.8563764 0.053177329 -2.8881234e-18)
(9.7635107 0.090189328 3.7349188e-19)
(9.6385186 0.034239886 -8.1528466e-18)
(9.4256307 0.059344087 -1.5262338e-17)
(10.001422 0.012553471 2.0945824e-21)
(9.9887367 0.027094377 -1.4780407e-19)
(9.975243 0.044828751 2.8103168e-18)
(9.9479428 0.045147836 3.8313477e-19)
(9.9082092 0.071821123 1.7932352e-22)
(9.8477662 0.072164927 -5.5584485e-19)
(9.7408888 0.11770717 6.1266439e-18)
(9.6124365 0.047636633 1.6297627e-17)
(9.4082756 0.11689036 1.2651773e-17)
(10.002909 0.015164774 2.0469077e-18)
(9.9892953 0.033867142 -2.2879483e-18)
(9.9794438 0.058210496 2.9098697e-18)
(9.9511702 0.063669618 1.0718616e-21)
(9.9118771 0.10012943 -3.5249794e-18)
(9.852322 0.10738682 -1.0765277e-18)
(9.7408701 0.15618904 -4.8284799e-18)
(9.6039279 0.072693199 -7.6699023e-18)
(9.3513366 0.1394071 -3.7313582e-17)
(10.004213 0.017064074 0)
(9.991716 0.040573198 0)
(9.9824922 0.068244433 -5.0719678e-18)
(9.9520377 0.07510224 -5.8240493e-18)
(9.9136458 0.11797623 0)
(9.8485874 0.13336674 -7.7978066e-18)
(9.7255839 0.20083393 -6.5887752e-19)
(9.5895801 0.11304845 -4.5567269e-19)
(9.3276474 0.2043597 4.6049345e-17)
(10.005758 0.017912404 0)
(9.9930096 0.04555932 -1.3769667e-19)
(9.9875888 0.077926809 1.5498349e-19)
(9.9582212 0.089006887 5.6929056e-18)
(9.9181548 0.13707474 -4.1789625e-19)
(9.8496104 0.15464494 1.6608067e-17)
(9.715921 0.22546799 0)
(9.5540867 0.13455281 0)
(9.2688538 0.24149429 2.1086306e-17)
(10.006673 0.018160681 3.8813285e-18)
(9.9954016 0.050343825 0)
(9.9926139 0.084050093 0)
(9.9617165 0.10202661 0)
(9.9257833 0.16494154 0)
(9.8565027 0.19205367 -8.2917997e-18)
(9.7201145 0.27883623 -8.8409524e-18)
(9.5453953 0.18171592 1.2649487e-17)
(9.2235047 0.31927878 1.1024853e-19)
(10.007946 0.018285761 -3.8189463e-18)
(9.9963763 0.051535518 -1.3265912e-19)
(9.9976102 0.08856732 -1.4937777e-19)
(9.9678641 0.10775187 3.3894021e-19)
(9.9323074 0.1751417 1.3023709e-17)
(9.8590195 0.20836543 1.4636583e-17)
(9.7166716 0.30305761 2.8174005e-17)
(9.5184516 0.21444437 -1.2426575e-17)
(9.1657253 0.37770399 -3.6330543e-17)
(10.008049 0.01772879 0)
(10.007745 0.01685666 7.1151533e-18)
(10.006614 0.015004849 -7.0577532e-18)
(10.003377 0.012379708 6.7734081e-18)
(10.001395 0.0089470108 -6.6204949e-18)
(9.9984558 0.0026053161 1.3239203e-17)
(9.9996228 -0.0088014197 -1.285136e-17)
(9.990994 -0.031790265 0)
(10.0061 -0.044682469 0)
(9.9992121 0.053626712 0)
(10.000996 0.052676634 1.2302252e-19)
(10.005055 0.052071744 0)
(10.007007 0.047728254 3.499974e-19)
(10.014873 0.044473385 7.1519881e-18)
(10.026643 0.030837852 -2.1356403e-17)
(10.038833 0.030936598 1.3827538e-17)
(10.052115 0.032975722 -2.108757e-19)
(10.062366 0.017791033 1.3326509e-17)
(10.004864 0.094523432 8.9078733e-18)
(10.008175 0.093541316 -1.7557323e-17)
(10.016525 0.094583989 1.6776095e-17)
(10.020094 0.088233351 -5.2096938e-19)
(10.028357 0.076789123 -7.9272692e-18)
(10.023224 0.067652212 -2.4099724e-19)
(10.023673 0.054291537 0)
(10.021649 0.044038096 4.5615419e-19)
(10.019608 0.014655502 -2.2226363e-19)
(9.9781602 0.12195841 9.2763454e-18)
(9.9864041 0.12778636 -1.8849769e-17)
(9.9970044 0.13466026 1.7948661e-17)
(10.011619 0.13985348 -8.7001246e-18)
(10.029661 0.13874041 -5.445638e-19)
(10.051403 0.15009072 2.6337296e-19)
(10.065681 0.13757417 0)
(10.09854 0.1430343 -2.4819106e-19)
(10.10875 0.1163065 1.4901184e-17)
(9.9468768 0.20280618 -1.0459319e-17)
(9.9554887 0.22362756 0)
(9.9710829 0.24293913 -9.6932307e-18)
(9.9842531 0.26042223 9.9958583e-18)
(9.9948449 0.26924803 -9.042051e-18)
(10.011868 0.28476743 9.3444484e-18)
(10.020099 0.28193209 0)
(10.041686 0.28514907 0)
(10.052328 0.26446919 5.287048e-19)
(9.8731601 0.24276244 -1.276887e-17)
(9.8794896 0.27617973 -1.2221029e-17)
(9.8963336 0.30416047 1.1747888e-17)
(9.9108462 0.33387637 1.1269802e-17)
(9.9255324 0.3510685 -1.0864541e-17)
(9.9538597 0.3872817 0)
(9.9798033 0.3923175 2.0124512e-17)
(10.009402 0.42736768 -5.0725247e-20)
(10.036963 0.41341541 -3.7568085e-17)
(9.7210906 0.3539216 -1.4926241e-17)
(9.7293023 0.4075653 0)
(9.7447302 0.44199666 0)
(9.7682472 0.49536623 4.0881335e-19)
(9.7917077 0.51585935 0)
(9.8166626 0.57617813 0)
(9.8566844 0.58325144 0)
(9.882511 0.63487151 0)
(9.9221032 0.62696904 0)
(9.5092745 0.26501849 5.6982833e-19)
(9.4806423 0.36027796 0)
(9.486286 0.41985468 5.1097081e-19)
(9.4824548 0.51904298 -9.5950578e-19)
(9.5155442 0.56868201 -1.4549132e-17)
(9.5331427 0.65663265 -1.381087e-17)
(9.5807319 0.69515544 2.6514927e-17)
(9.616508 0.76352285 2.5639065e-17)
(9.6816458 0.78645026 -2.4251373e-17)
(9.0920251 0.46903173 6.802951e-17)
(9.022548 0.67706807 -4.2175744e-17)
(9.0110943 0.81279702 3.9157006e-17)
(9.0615615 1.0293315 -3.6980588e-17)
(9.1249731 1.1327562 -5.2625527e-17)
(9.2333059 1.2932964 9.9071585e-17)
(9.3159872 1.3556333 -6.2603018e-17)
(9.4446245 1.4682697 -2.9858908e-17)
(9.5121695 1.5061963 2.8072252e-17)
(9.9927765 -0.081973383 -1.7709599e-20)
(10.000771 -0.12690428 1.8299653e-17)
(10.024199 -0.15671305 -2.618194e-20)
(10.042078 -0.19240683 -1.8420782e-17)
(10.05904 -0.24372097 1.7934274e-20)
(10.061944 -0.29959775 1.8523509e-17)
(10.034676 -0.31407339 -1.8605946e-17)
(9.9537935 -0.24248872 -1.8068153e-20)
(9.7394214 0.050835312 -9.3606473e-18)
(10.09298 0.021372115 -1.914485e-17)
(10.110868 0.030693266 1.924792e-17)
(10.136392 0.037318073 -1.9250833e-17)
(10.157584 0.045354101 0)
(10.178091 0.069970212 1.9415528e-17)
(10.208481 0.12190068 9.3597623e-21)
(10.235798 0.17793285 2.3910623e-20)
(10.279371 0.23407059 -1.9518924e-17)
(10.340908 0.25652206 9.8100993e-18)
(10.011189 0.010765058 2.0565656e-17)
(10.012178 0.015536564 -2.0618601e-17)
(10.01794 0.027324639 -2.0800632e-17)
(10.029303 0.046923538 2.0856311e-17)
(10.021228 0.082730522 -2.1027292e-17)
(10.012118 0.13704063 2.0960681e-17)
(9.9806836 0.19440965 -2.1177253e-17)
(9.9544541 0.25262995 -1.8403257e-20)
(9.9120038 0.33117124 2.1220953e-17)
(10.135643 0.14254731 -2.1788569e-17)
(10.162895 0.16398885 -8.6131197e-20)
(10.174625 0.19428465 8.6421771e-20)
(10.191377 0.23790069 0)
(10.204594 0.27413107 -1.5000063e-23)
(10.228067 0.32406415 -2.2118198e-17)
(10.245897 0.36324303 2.2486566e-17)
(10.262736 0.39234525 8.7969578e-20)
(10.289234 0.40950838 8.826225e-20)
(10.055936 0.30232849 -9.2194736e-20)
(10.06906 0.34421433 -2.3819863e-17)
(10.061568 0.37925347 -8.2091548e-20)
(10.057288 0.42834242 2.4049369e-17)
(10.056235 0.46729949 2.4232194e-17)
(10.061461 0.49799555 -2.4355596e-17)
(10.067965 0.53231605 -9.4496891e-20)
(10.067228 0.57103383 -9.48578e-20)
(10.056154 0.61350464 -9.5211225e-20)
(10.058436 0.45431072 2.5695008e-17)
(10.074607 0.49591273 0)
(10.082674 0.5191191 0)
(10.089221 0.55527074 2.5862601e-17)
(10.097786 0.58211382 -2.6209864e-17)
(10.116016 0.6070953 -2.6258135e-17)
(10.143297 0.624994 5.2544441e-17)
(10.171553 0.65038257 -5.417744e-20)
(10.188434 0.66054561 -5.2919973e-17)
(9.9414158 0.67099293 -1.1089574e-19)
(9.9491773 0.71657855 0)
(9.9646644 0.74469087 1.1172052e-19)
(9.9790157 0.76284589 2.8744354e-17)
(10.000315 0.7871497 -2.8917981e-17)
(10.009648 0.83096258 2.9003654e-17)
(10.020153 0.85379551 -2.9066605e-17)
(10.048829 0.88981975 -1.1361542e-19)
(10.076671 0.90515314 2.9263204e-17)
(9.7173931 0.83611001 -3.1163902e-17)
(9.7584376 0.89145488 3.1597121e-17)
(9.8011445 0.929796 -3.1718544e-17)
(9.8504122 0.96409085 3.1555906e-17)
(9.8913655 1.0012902 -3.141323e-17)
(9.937502 1.0435035 2.3673446e-21)
(9.9859795 1.079351 3.1833481e-17)
(10.041042 1.0934081 2.4959717e-19)
(10.101497 1.090153 1.5885647e-17)
(9.5959893 1.5863639 0)
(9.6694994 1.6349172 -3.48964e-17)
(9.7322038 1.6903051 1.943946e-19)
(9.8051019 1.7402498 3.2844779e-19)
(9.8827133 1.7460284 7.0081433e-17)
(9.9780123 1.7503938 -3.506574e-17)
(10.081953 1.7151805 -3.511615e-17)
(10.184 1.5719574 3.5247769e-17)
(10.336197 1.4464623 1.7694944e-17)
(10.407189 1.26783 -2.0685434e-17)
(10.450546 1.1203098 0)
(10.489479 1.0041892 2.0586546e-17)
(10.50963 0.91592933 -2.0586534e-17)
(10.484961 0.841377 0)
(10.446832 0.82330542 0)
(10.418172 0.83062747 0)
(10.368233 0.86916597 -2.1083719e-17)
(10.318181 0.87534013 2.1089209e-17)
(10.14425 1.0900727 -1.8096475e-17)
(10.164573 1.082914 0)
(10.189938 1.0728674 0)
(10.204076 1.0613614 0)
(10.213781 1.046533 0)
(10.208619 1.0171996 0)
(10.208583 0.99330381 0)
(10.202925 0.96142593 1.7910609e-17)
(10.195103 0.94927878 -3.5844161e-17)
(10.094989 0.93154774 -5.1437404e-20)
(10.102833 0.96039553 -3.2135188e-17)
(10.11706 0.99653405 0)
(10.118041 1.022617 -1.5991087e-17)
(10.14658 1.051924 1.5991054e-17)
(10.150967 1.0787282 0)
(10.182497 1.1045565 0)
(10.174213 1.1345943 0)
(10.199977 1.1688594 0)
(10.207722 0.67946432 2.8447262e-17)
(10.236822 0.69301344 0)
(10.274509 0.69179315 1.4127494e-17)
(10.316155 0.67673551 -2.8223747e-17)
(10.364601 0.66426773 1.4096398e-17)
(10.397491 0.65099156 0)
(10.4352 0.65062846 0)
(10.455341 0.6538647 0)
(10.485301 0.66616713 1.3956314e-17)
(10.055995 0.65909915 0)
(10.060731 0.68929387 2.5859968e-17)
(10.07491 0.71547304 -3.877218e-17)
(10.096169 0.74935846 1.2912206e-17)
(10.115814 0.78803961 1.2869419e-17)
(10.133946 0.82638107 -2.4220134e-20)
(10.157279 0.86891819 -2.5663944e-17)
(10.180689 0.91018755 2.5609782e-17)
(10.206165 0.95807176 -1.2790979e-17)
(10.33539 0.41054698 0)
(10.395944 0.37497609 1.1611626e-17)
(10.460751 0.32455664 -1.1611632e-17)
(10.517195 0.28415091 0)
(10.556899 0.25712121 -2.3062344e-17)
(10.589364 0.23878045 2.3062309e-17)
(10.617001 0.22529559 1.1475276e-17)
(10.642282 0.21174079 -2.2921516e-17)
(10.664211 0.20059426 1.1446234e-17)
(9.8752777 0.40833006 0)
(9.8481516 0.47720509 0)
(9.8398315 0.53948151 0)
(9.8505466 0.59379187 -1.0835022e-17)
(9.879309 0.64449023 2.164949e-17)
(9.9248855 0.69491612 -2.1605409e-17)
(9.9810368 0.7441781 1.0790942e-17)
(10.046674 0.79259239 -1.0736518e-17)
(10.11617 0.83866563 2.1441905e-17)
(10.392211 0.21963385 -1.9877192e-17)
(10.446405 0.12577582 2.0239061e-20)
(10.493476 0.0059531559 9.9079044e-18)
(10.52746 -0.12094496 -9.8682764e-18)
(10.544806 -0.23701637 9.8683166e-18)
(10.546393 -0.32977608 0)
(10.538397 -0.39768998 9.8039428e-18)
(10.528756 -0.44716943 -1.9583436e-17)
(10.518521 -0.4807711 9.779485e-18)
(9.5561737 0.40212841 1.011076e-20)
(9.4866342 0.66993231 9.3962902e-18)
(9.5082161 0.84762171 9.3659653e-18)
(9.5902963 0.95183302 -9.3659733e-18)
(9.7059701 1.0021363 0)
(9.83414 1.0140471 0)
(9.9625602 1.0016992 -9.27096e-18)
(10.08562 0.97721988 1.8514991e-17)
(10.200001 0.94714081 -9.2440254e-18)
(10.305369 0.91464652 0)
(10.403218 0.88132256 -9.1566416e-18)
(10.495125 0.84844458 3.2029686e-20)
(10.582403 0.81335094 3.3804486e-20)
(10.666017 0.78101002 3.5740407e-20)
(10.74893 0.74730617 9.0550779e-18)
(10.828371 0.72043046 8.9760475e-18)
(10.910003 0.69020627 -8.9760432e-18)
(10.989034 0.66799207 0)
(10.50823 -0.49487694 0)
(10.503913 -0.49495581 0)
(10.506147 -0.49054745 -9.6367968e-18)
(10.511748 -0.47211 3.4854088e-20)
(10.5298 -0.44113635 3.6756745e-20)
(10.545911 -0.40445147 9.5946147e-18)
(10.581361 -0.37284687 9.5152583e-18)
(10.613462 -0.32437204 -9.5152318e-18)
(10.662059 -0.29591061 0)
(10.195581 0.88268018 -1.0705382e-17)
(10.270315 0.9223346 0)
(10.358459 0.95872112 0)
(10.43163 0.99279847 -1.0554605e-17)
(10.527428 1.0214349 2.1065281e-17)
(10.595296 1.0489337 -4.6225771e-20)
(10.69373 1.0674601 -4.8539088e-20)
(10.76117 1.0880025 -1.0415837e-17)
(10.855178 1.1013181 0)
(10.691127 0.18849037 -1.1384459e-17)
(10.708217 0.1865632 1.1384426e-17)
(10.734183 0.18231755 0)
(10.743455 0.19513483 0)
(10.768458 0.20087336 1.124615e-17)
(10.774146 0.2252772 -1.1247759e-17)
(10.802071 0.237585 1.1172467e-17)
(10.815813 0.27968947 -5.6069777e-18)
(10.841432 0.30062543 -5.5660538e-18)
(10.233257 1.0024254 -1.2730725e-17)
(10.267149 1.0577162 1.2730673e-17)
(10.304423 1.096877 0)
(10.347294 1.1542945 0)
(10.392584 1.1872933 0)
(10.441964 1.2499744 0)
(10.49162 1.2835629 0)
(10.547487 1.3516684 0)
(10.59978 1.388182 0)
(10.492745 0.67943374 -1.395344e-17)
(10.513835 0.70340823 1.3906729e-17)
(10.519144 0.72369324 -1.390949e-17)
(10.534391 0.76021852 1.3866179e-17)
(10.546661 0.78024111 -1.3865034e-17)
(10.551059 0.82357083 0)
(10.575151 0.85115535 0)
(10.570976 0.90399975 0)
(10.598353 0.93921049 0)
(10.181715 1.203561 0)
(10.202367 1.2493663 -1.5874727e-17)
(10.177186 1.2935704 1.5876451e-17)
(10.190137 1.3573754 0)
(10.17061 1.3960586 1.5856519e-17)
(10.172803 1.4708393 -1.58567e-17)
(10.164195 1.5169094 0)
(10.166497 1.5916622 7.9231556e-18)
(10.154868 1.6549889 -1.584396e-17)
(10.173359 0.94002421 1.7933299e-17)
(10.157036 0.94848435 1.7996282e-17)
(10.118166 0.96251452 -1.799603e-17)
(10.091507 0.97765217 1.8104174e-17)
(10.036692 1.0108608 -3.6267012e-17)
(10.004949 1.0442381 3.6393134e-17)
(9.9294923 1.0966416 -3.6523872e-17)
(9.8928374 1.1548297 1.8296525e-17)
(9.8074321 1.2356998 0)
(10.224083 0.92066622 -2.1362031e-17)
(10.141096 0.91345333 2.1369702e-17)
(10.027489 0.96833234 0)
(9.936722 0.94974293 0)
(9.8198812 1.003256 0)
(9.7243597 0.99831062 0)
(9.5654112 1.0729301 0)
(9.4576947 1.1347688 -1.1214962e-17)
(9.2593606 1.2398608 1.1214881e-17)
(9.1616122 1.3149142 1.1379145e-17)
(9.7799912 1.2978082 0)
(10.179427 1.7363357 7.9207884e-18)
(10.598575 1.0121476 0)
(10.661623 1.4582928 0)
(10.870281 0.35803592 0)
(10.931546 1.115428 5.1266858e-18)
(10.714078 -0.23975069 4.687551e-18)
(11.07136 0.6447221 4.417317e-18)
(8.9585458 1.4176525 -1.1379052e-17)
(9.6923921 1.3841758 0)
(10.148537 1.8111061 0)
(10.617435 1.0554694 6.8512927e-18)
(10.718935 1.4985314 0)
(10.897147 0.38901425 -5.4956265e-18)
(11.01723 1.1270061 -1.0222957e-17)
(10.765944 -0.2107422 -9.3484759e-18)
(11.154205 0.62437751 -8.8073908e-18)
(8.8553992 1.4931617 0)
(9.6698827 1.4727525 0)
(10.190664 1.9224019 7.9071793e-18)
(10.633802 1.1496018 -6.851215e-18)
(10.786348 1.5673211 0)
(10.938725 0.46230339 5.4955885e-18)
(11.102315 1.1398777 5.096261e-18)
(10.841139 -0.1549297 4.6609165e-18)
(11.240099 0.60838295 4.3900689e-18)
(8.6435184 1.6531385 1.1628557e-17)
(9.5651113 1.6022094 0)
(10.152946 2.0173982 -1.5805875e-17)
(10.648879 1.2062067 0)
(10.850384 1.6137582 0)
(10.979333 0.49643825 -5.4390678e-18)
(11.190764 1.1479026 -5.0297767e-18)
(10.896584 -0.12388525 0)
(11.328061 0.59296086 -4.3291825e-18)
(8.5124795 1.758362 -1.1628259e-17)
(9.5505505 1.709587 -9.3780627e-18)
(10.209766 2.1270801 7.898602e-18)
(10.681933 1.3219981 0)
(10.926189 1.6813625 0)
(11.028693 0.58719286 5.4390237e-18)
(11.274482 1.1622682 5.0297477e-18)
(10.982746 -0.064000601 0)
(11.421293 0.57881895 4.329176e-18)
(8.272435 2.0119158 0)
(9.4443886 1.9031697 9.3780558e-18)
(10.174933 2.2729415 -7.8691802e-18)
(10.699224 1.3959974 0)
(10.994998 1.7328753 0)
(11.084847 0.62309861 -5.3727493e-18)
(11.375781 1.1733034 -4.9538824e-18)
(11.054854 -0.039586588 0)
(11.516952 0.56978649 -4.2588623e-18)
(8.130428 2.1674205 0)
(9.4370783 2.0364298 0)
(10.250637 2.3811917 7.8692678e-18)
(10.762747 1.515632 -3.3659408e-18)
(11.08935 1.7978517 -2.9869843e-18)
(11.151544 0.72023421 8.0402503e-18)
(11.461377 1.1810103 7.4098469e-18)
(11.141775 0.023929381 0)
(11.615745 0.55999011 6.3689555e-18)
(7.8824156 2.5148198 0)
(9.3550823 2.2589482 -4.706602e-18)
(10.231915 2.5481245 0)
(10.782187 1.6168831 3.3659475e-18)
(11.155374 1.8596783 2.98696e-18)
(11.215126 0.76388053 -2.0611368e-20)
(11.567986 1.1980814 -4.8895149e-18)
(11.22717 0.051039827 0)
(11.720361 0.55311556 -2.110099e-18)
(7.781112 2.7397514 -5.9451201e-18)
(9.3723053 2.4074051 4.7044664e-18)
(10.333812 2.6671774 0)
(10.877104 1.7411196 0)
(11.275984 1.9160985 0)
(11.308372 0.86701453 -5.2714017e-18)
(11.668284 1.2045654 2.3794767e-20)
(11.3246 0.10824477 0)
(11.823866 0.54510594 0)
(11.965237 0.53913053 0)
(11.413803 0.13083851 0)
(11.775131 1.2201779 -1.2354549e-19)
(11.379481 0.90982318 2.7549326e-18)
(11.353403 1.9952057 0)
(10.907745 1.8609937 -4.1244421e-19)
(10.34345 2.8615697 -2.6437659e-20)
(9.3199597 2.6928671 -3.8974289e-18)
(7.5649334 3.2541048 1.1074371e-17)
(12.084036 0.53020406 -1.0235259e-18)
(11.512334 0.15028656 -1.3809633e-19)
(11.906964 1.2290624 1.2123369e-18)
(11.494498 0.94441235 -2.0331798e-21)
(11.504148 2.0251579 -1.2531426e-18)
(11.060289 1.9286115 1.6110482e-18)
(10.50801 2.9476864 -4.8656729e-19)
(9.5012985 2.7933893 5.0727874e-18)
(7.8370427 3.5179121 -5.6371525e-18)
(12.20506 0.52137658 2.0553239e-18)
(11.614823 0.16319189 0)
(12.019697 1.2468136 2.3865133e-18)
(11.587092 0.99270387 -1.2896913e-18)
(11.6036 2.1074176 1.269658e-18)
(11.133527 2.042444 -3.0524989e-18)
(10.598194 3.1522558 -2.363847e-18)
(9.5726267 3.0769587 1.1408074e-18)
(7.9427263 3.8334945 6.519592e-20)
(12.335337 0.51186588 -1.0324003e-18)
(11.723175 0.17480849 -1.3801926e-19)
(12.161237 1.2388959 -1.0522761e-18)
(11.726904 1.017143 1.4713506e-18)
(11.783332 2.1283145 5.3843156e-19)
(11.32823 2.1103193 1.6426921e-18)
(10.819924 3.1909419 1.9091837e-18)
(9.8260237 3.1800058 5.9408953e-19)
(8.1794721 4.1841394 -6.8012581e-19)
(12.467145 0.50046335 2.5360347e-19)
(11.839212 0.18559571 -2.7291924e-19)
(12.276255 1.2527239 -1.4939332e-19)
(11.831669 1.0527135 4.8463552e-19)
(11.899758 2.1879318 -5.4533566e-19)
(11.431221 2.2098329 -6.0683783e-19)
(10.939605 3.4249709 -4.9116666e-19)
(9.9611614 3.3743111 5.5470302e-19)
(8.3250411 4.3332096 -7.4685466e-19)
(12.598385 0.48639506 -2.5643166e-19)
(11.959064 0.19644109 2.7620023e-19)
(12.436047 1.2292539 -1.4914212e-19)
(11.990202 1.0700568 -1.357121e-21)
(12.094805 2.1956723 -1.7916318e-19)
(11.648359 2.2496957 4.1194902e-19)
(11.178394 3.4455215 -4.9200364e-19)
(10.190841 3.6098709 5.5691256e-19)
(8.5141487 4.6489142 0)
(12.728903 0.46944612 -2.5139231e-19)
(12.076559 0.20319166 -1.3716625e-19)
(12.550643 1.2279947 -1.4657243e-19)
(12.114596 1.0863444 -1.6333358e-19)
(12.236054 2.2479298 -1.7830783e-19)
(11.776227 2.3501706 4.1663153e-19)
(11.316658 3.6145862 -9.5820919e-19)
(10.3716 3.6642255 1.1592111e-18)
(8.6875922 4.8369894 -6.9462367e-19)
(12.858104 0.44930661 7.5449445e-19)
(12.19831 0.20906813 5.415927e-19)
(12.71068 1.1989431 7.3812156e-19)
(12.27225 1.0909184 8.0329835e-19)
(12.445195 2.2126555 5.4490445e-19)
(12.008834 2.3628969 -2.0154819e-19)
(11.592936 3.7002987 -4.9133874e-19)
(10.62917 3.9082779 -4.3168785e-20)
(8.9768316 4.9592753 -7.3853101e-19)
(12.984772 0.42567873 -1.5010004e-18)
(12.319792 0.209483 -5.4834441e-19)
(12.830085 1.1742454 -1.9150552e-18)
(12.407399 1.0959316 -4.8995509e-19)
(12.591123 2.267092 1.238337e-18)
(12.176814 2.4270552 6.1465367e-19)
(11.74784 3.7576942 -2.8219605e-18)
(10.833432 3.9786767 5.5894611e-19)
(9.1018797 5.1891911 1.4755923e-18)
(9.4490332 5.3720453 -1.4679141e-18)
(11.135097 4.2310261 6.030046e-19)
(12.060537 3.8446035 4.2247694e-18)
(12.412477 2.4508162 -6.115071e-19)
(12.81768 2.1885065 3.2760371e-19)
(12.583795 1.0679278 9.5221866e-19)
(12.995049 1.1289436 1.3347146e-18)
(12.440074 0.20513641 -6.7645364e-20)
(13.107019 0.39867449 2.0584157e-18)
(9.6210915 5.4742985 5.8403187e-18)
(11.374383 4.2506096 5.5575595e-19)
(12.245388 3.8627184 -6.06191e-18)
(12.606426 2.4269847 -1.9939707e-19)
(12.968128 2.1982635 -1.2571787e-18)
(12.714914 1.0683435 -1.133588e-18)
(13.105893 1.0929448 -2.4707033e-18)
(12.557044 0.199774 0)
(13.223108 0.36849 -1.0010084e-18)
(9.902072 5.7124532 -7.4906374e-18)
(11.697554 4.4960028 5.6478305e-18)
(12.587629 3.9433995 3.2816398e-18)
(12.856713 2.4577611 -1.9830787e-19)
(13.203169 2.1062864 2.7929028e-18)
(12.896309 1.008438 6.7960148e-23)
(13.26801 1.0090095 3.3416195e-19)
(12.670556 0.18596405 2.000032e-18)
(13.33128 0.33524986 1.9562028e-18)
(10.191541 5.7056539 -1.4843801e-18)
(11.980805 4.4735702 9.877806e-19)
(12.792592 3.8685618 -4.7465705e-19)
(13.071283 2.3707951 0)
(13.351498 2.0722155 -2.839869e-18)
(13.020731 0.98701681 0)
(13.361383 0.96431698 2.2020217e-18)
(12.775862 0.17839354 -4.1554316e-18)
(13.430287 0.29908663 -3.3964989e-20)
(10.411623 5.9903164 -7.0785611e-19)
(12.334013 4.7221096 -4.5115636e-18)
(13.16961 3.9312286 4.6822992e-19)
(13.333977 2.3670041 0)
(13.576533 1.9400174 -2.9301838e-18)
(13.195877 0.90568859 2.5044796e-18)
(13.516335 0.85962237 1.4447417e-19)
(12.879499 0.15298351 4.2750218e-18)
(13.518325 0.26036299 -1.9697842e-18)
(10.804706 5.9320633 -6.6620059e-18)
(12.676249 4.6430512 -3.778184e-18)
(13.378203 3.8040742 -1.5983451e-20)
(13.537868 2.2426534 -3.896436e-19)
(13.714095 1.8652442 -1.0733321e-19)
(13.313285 0.86388809 -5.0429232e-18)
(13.588345 0.78968183 1.4386263e-19)
(12.969399 0.14224778 -2.1484979e-18)
(13.593978 0.21928638 0)
(11.087828 6.2644958 4.5917732e-18)
(13.037787 4.8333068 5.5424002e-18)
(13.79874 3.7891134 -1.2360182e-20)
(13.806893 2.1782117 -3.8393646e-19)
(13.926693 1.7083831 2.6147066e-18)
(13.469363 0.75540293 2.6927249e-18)
(13.715208 0.67432494 1.4453304e-19)
(13.053061 0.10701691 -1.3244212e-19)
(13.655698 0.17657023 0)
(11.482924 6.1578068 0)
(13.453978 4.7323537 -5.1762178e-19)
(13.985893 3.6013112 4.4119882e-19)
(14.002537 2.0219695 -5.8019629e-18)
(14.029556 1.5783445 -1.6988281e-19)
(13.569225 0.69403489 4.8099938e-18)
(13.769429 0.58770292 -4.4257975e-18)
(13.121928 0.089905857 4.2183809e-18)
(13.702242 0.1325723 3.8441283e-18)
(11.854664 6.4789217 1.0828253e-17)
(13.857992 4.8807125 9.0264165e-18)
(14.432781 3.5094414 -4.2984655e-19)
(14.250388 1.909216 6.1210878e-18)
(14.21979 1.3898881 -1.7257753e-19)
(13.703165 0.56606707 -4.8967551e-18)
(13.859203 0.4588591 4.7832625e-18)
(13.180961 0.049067834 -4.4096268e-18)
(13.733201 0.092003563 -4.8252144e-20)
(13.747234 0.051511857 -3.8256702e-18)
(13.221004 0.024799534 4.113308e-18)
(13.881794 0.36246401 0)
(13.768538 0.48678786 -2.9747603e-19)
(14.287583 1.205419 5.4393977e-18)
(14.427536 1.6793961 5.4690855e-18)
(14.585328 3.2179275 0)
(14.351362 4.7048323 -5.4439393e-19)
(12.325171 6.2679271 -1.0580628e-17)
(13.763719 0.034600121 0)
(13.252681 -0.016927209 -4.2555901e-18)
(13.936184 0.21519768 0)
(13.870375 0.33033007 -2.9870237e-19)
(14.42055 0.98199809 -1.0044452e-17)
(14.657188 1.4901065 -5.9523083e-18)
(15.07929 2.9569456 6.1497357e-18)
(14.846398 4.7049626 -6.8497558e-18)
(12.982786 6.6316887 8.2755601e-18)
(13.731695 -0.019641603 0)
(13.250702 -0.042284382 0)
(13.913559 0.1229443 -4.5614038e-18)
(13.901552 0.23541226 0)
(14.448594 0.72960977 5.2648135e-18)
(14.751038 1.2008938 -5.4954465e-18)
(15.176477 2.5461311 -5.6011883e-18)
(15.434386 4.3583052 -4.024408e-19)
(13.544736 6.2699225 -1.553151e-18)
(13.716373 -0.045786671 0)
(13.242101 -0.090256378 0)
(13.929097 -0.020540468 4.6560345e-18)
(13.93122 0.08821814 4.6510153e-18)
(14.510473 0.53618388 5.263459e-18)
(14.923125 0.96520955 6.0101906e-18)
(15.569593 2.1808012 0)
(15.901504 4.216566 5.5222957e-18)
(14.492027 6.470505 -9.3294356e-18)
(13.65841 -0.084824476 6.319864e-20)
(13.20667 -0.10872152 -6.8401169e-20)
(13.86945 -0.11711783 0)
(13.929438 -0.037078743 -2.7165597e-20)
(14.481798 0.27095619 -1.1039733e-17)
(14.90895 0.66090865 3.653509e-19)
(15.585433 1.652512 5.7699232e-18)
(16.437856 3.6771076 -6.0969612e-18)
(15.148298 5.9625327 7.4791142e-18)
(13.622234 -0.092693449 -6.4126609e-20)
(13.164313 -0.16106424 6.9486407e-20)
(13.84414 -0.22790961 0)
(13.899497 -0.14298741 -5.4776099e-18)
(14.49159 0.088941129 6.1533862e-18)
(14.990521 0.41811986 -3.7319906e-19)
(15.821215 1.2451977 -5.9677622e-18)
(16.756275 3.330752 0)
(16.417836 5.933293 -7.3459609e-18)
(13.52851 -0.14255308 6.5190437e-20)
(13.098784 -0.15716218 4.450396e-18)
(13.755188 -0.33011591 -1.5064422e-19)
(13.857958 -0.27707991 5.1217021e-18)
(14.398953 -0.15734169 5.9197856e-18)
(14.881799 0.13342646 0)
(15.707194 0.71284404 0)
(17.05993 2.5337419 -5.1968194e-18)
(17.152638 5.2995127 0)
(13.465682 -0.15804203 0)
(13.034178 -0.21072948 -4.6150748e-18)
(13.702664 -0.39645758 0)
(13.779671 -0.35001563 -5.7360838e-18)
(14.376147 -0.30567379 -5.3485294e-18)
(14.892361 -0.061610515 6.1421071e-18)
(15.7673 0.37763802 0)
(17.080367 1.9765692 5.622736e-18)
(18.723621 4.9200357 -8.0277015e-19)
(13.337563 -0.21757448 0)
(12.929744 -0.19984081 0)
(13.598744 -0.48435935 -1.5763757e-19)
(13.70402 -0.4636024 -1.6205936e-19)
(14.224075 -0.55627432 3.7825658e-19)
(14.694801 -0.33764185 -6.3425048e-18)
(15.511777 -0.16819645 0)
(16.937199 0.63712819 0)
(18.636625 3.6556393 5.8130567e-19)
(13.174115 -0.26227596 -1.3352708e-19)
(12.850973 -0.26993244 2.0130946e-21)
(13.526343 -0.53409547 5.0195837e-18)
(13.583696 -0.51837977 0)
(14.221649 -0.64487623 0)
(14.750897 -0.38504217 -3.4641909e-19)
(15.600467 -0.14467805 -5.6941555e-18)
(16.991012 0.91247167 1.9068748e-19)
(20.046531 3.9265798 0)
(13.038487 -0.28098828 -1.2944228e-19)
(12.739556 -0.29530228 2.2252786e-21)
(13.482245 -0.63684737 -4.5409077e-18)
(13.497039 -0.60211366 0)
(14.179872 -0.85970909 0)
(14.77674 -0.51004481 3.2250972e-19)
(15.753097 -0.28819912 1.6133008e-17)
(17.587123 1.0202068 -1.6360461e-19)
(19.727387 3.7495177 -7.4598892e-18)
(12.895803 -0.28541869 0)
(12.661139 -0.3455954 8.6767299e-18)
(13.408555 -0.68261308 0)
(13.415698 -0.69628718 2.930981e-19)
(14.229829 -0.97504839 -3.2000341e-19)
(14.932124 -0.64176251 -2.9629471e-19)
(16.118812 -0.42048657 -1.9637374e-17)
(17.924091 0.91379186 1.3084842e-19)
(18.339409 3.8288902 7.0227616e-18)
(12.752241 -0.27758794 7.7531837e-18)
(12.524332 -0.41440912 -8.272763e-18)
(13.351419 -0.78518129 8.6998656e-18)
(13.339091 -0.80825917 9.4398841e-18)
(14.206317 -1.1853455 -9.5778613e-18)
(14.998242 -0.76901157 9.3660813e-18)
(16.255574 -0.67627602 9.571975e-18)
(18.17291 0.58408594 2.3429655e-18)
(16.469249 5.0589343 0)
(12.613741 -0.25816676 -1.5334646e-17)
(12.41457 -0.46550572 8.2074907e-18)
(13.2528 -0.82328899 -8.417692e-18)
(13.234429 -0.88638653 1.4030253e-20)
(14.212238 -1.3323085 9.2087142e-18)
(15.149084 -0.99746176 -4.627469e-19)
(16.436238 -0.95594312 0)
(18.030081 0.53609803 -2.3074301e-18)
(12.658725 7.1475761 0)
(12.484562 -0.22873991 1.4854213e-17)
(12.265891 -0.51592358 -7.8401962e-18)
(13.177936 -0.93272873 8.4164317e-18)
(13.12123 -0.99961632 -9.0868904e-18)
(14.152656 -1.5776842 -2.531456e-19)
(15.137403 -1.1642331 -8.1445201e-18)
(16.410088 -1.139445 7.1133867e-18)
(17.853253 0.54061869 -1.2903274e-18)
(11.030943 8.0448758 2.6759824e-18)
(12.368154 -0.1909381 -7.4127619e-18)
(12.130818 -0.54346467 2.4070406e-19)
(13.065593 -0.96420415 -8.0378214e-18)
(13.008705 -1.0535582 2.5261264e-19)
(14.140768 -1.686382 -2.7255526e-19)
(15.232757 -1.3838477 -7.8436631e-18)
(16.403456 -1.6359975 -1.3224545e-17)
(17.370934 0.65763374 1.288893e-18)
(6.9952392 8.0769255 -2.5373287e-18)
(12.263724 -0.14551312 -1.1160987e-19)
(11.943919 -0.60818806 1.1905654e-19)
(12.994139 -1.0607495 7.7030681e-18)
(12.875879 -1.1728707 8.3251298e-18)
(14.075599 -1.9301265 -7.9408892e-18)
(15.214988 -1.560307 1.5053827e-17)
(16.21192 -1.7841742 1.1613733e-17)
(16.067906 0.078711057 -2.2617741e-18)
(-3.2807137 -2.8571458 4.3743404e-18)
(12.171636 -0.095093773 6.9982701e-18)
(11.807446 -0.60437033 -1.1317595e-19)
(12.881961 -1.07182 1.4259756e-19)
(12.761646 -1.2039708 -8.0699861e-18)
(14.031317 -2.0301451 7.4536595e-18)
(15.23543 -1.8155194 -7.1825082e-18)
(15.94234 -2.2766877 -5.1387666e-18)
(13.834905 0.13267002 2.206307e-18)
(-3.7837637 0.61106999 -4.1613854e-18)
(-3.3604099 1.1730413 -6.6489095e-18)
(12.386531 0.36490335 -2.9762066e-20)
(15.567976 -2.4360899 -1.3077764e-19)
(15.009415 -2.0209939 1.1158891e-19)
(13.925229 -2.2802143 0)
(12.630231 -1.2926101 -1.3951059e-19)
(12.805087 -1.152726 -1.570392e-17)
(11.614783 -0.65334905 -7.8681565e-18)
(12.09759 -0.037950299 -1.3886866e-17)
(-4.0568444 1.7043074 6.4392838e-18)
(11.632644 -0.041456073 0)
(15.33932 -2.9011988 0)
(14.926776 -2.261427 -1.768639e-17)
(13.799934 -2.3431867 0)
(12.495807 -1.2855494 1.762185e-17)
(12.696734 -1.1414097 2.3939571e-17)
(11.439664 -0.62647863 7.466123e-18)
(12.031747 0.015081149 -6.924507e-18)
(-4.3083618 1.6349041 3.5539776e-20)
(10.53924 0.033485211 -2.8652587e-20)
(14.910129 -2.9587426 0)
(14.667727 -2.4309175 1.7297394e-17)
(13.676393 -2.5255721 0)
(12.374358 -1.3260487 -1.7454322e-17)
(12.615812 -1.1945193 -1.5449975e-17)
(11.26731 -0.65505541 -1.727929e-19)
(11.971003 0.060000812 1.3689346e-17)
(-4.9158965 2.0853804 1.2655515e-17)
(9.7104995 -0.560299 -3.8862485e-18)
(14.631272 -3.3654765 -3.0437662e-20)
(14.512034 -2.6869641 0)
(13.515232 -2.5279573 1.7410517e-17)
(12.211381 -1.332821 0)
(12.482681 -1.1976198 1.2412985e-19)
(11.120294 -0.57248839 -1.7106123e-19)
(11.911683 0.091627445 5.2970895e-20)
(-4.8862029 2.1565653 -1.2142749e-17)
(8.5893037 -0.36739234 2.4196205e-19)
(14.152599 -3.4187619 -1.1714129e-17)