/*--------------------------------*- C++ -*----------------------------------*\
  =========                 |
  \\      /  F ield         | OpenFOAM: The Open Source CFD Toolbox
   \\    /   O peration     | Website:  https://openfoam.org
    \\  /    A nd           | Version:  11
     \\/     M anipulation  |
\*---------------------------------------------------------------------------*/
FoamFile
{
    format      ascii;
    class       volScalarField;
    location    "0.194";
    object      rho;
}
// * * * * * * * * * * * * * * * * * * * * * * * * * * * * * * * * * * * * * //

dimensions      [0 0 0 0 0 0 0];

internalField   nonuniform List<scalar> 
880
(
0.3733250556165154
0.3733250556165155
0.3733250557675206
0.3733318161120182
0.3733250556165155
0.3733250556164323
0.3733250562695516
0.3733431710184941
0.3733250556165155
0.3733250556164365
0.3733250604167641
0.3733938369335056
0.3733250556165154
0.3733250555684087
0.3733251125374063
0.3736847367442797
0.3733250556165155
0.3733250556165155
0.3733250556136185
0.3733250615579485
0.3733250576195671
0.3733250455913945
0.3733251715137739
0.3733245502793033
0.3733246666426601
0.3733256822172852
0.3734371771553024
0.373154236097593
0.38016459351249
0.3923273390674203
0.3997371065330649
0.4022344309039453
0.3733250942480146
0.373326068257158
0.3733262188377811
0.3733263949396103
0.3733272534618756
0.3733298762315661
0.3733376476169043
0.373341298591144
0.3739471890685871
0.3743677246426176
0.3749541842217682
0.3756008901145392
0.40610495213793
0.4113303321542383
0.4167521881827851
0.4237084105714756
0.4202336632553849
0.4098603814925095
0.4004156587919588
0.3953682154092903
0.3777556509092255
0.381468643238999
0.3830835805416155
0.3840097692860581
0.3733781099096392
0.3735206867860815
0.3737474912776886
0.3739775756896573
0.3733293814974806
0.3733392986155605
0.3733647536364185
0.3733929203324859
0.3734027571516783
0.3733965220023345
0.3733819397200467
0.3733622932270984
0.3741443916749629
0.3741458659030034
0.3740631191796785
0.3739460804086255
0.3843941870238398
0.3837440317768395
0.3827399075916758
0.3815407434447338
0.3934973453867556
0.3937818607797183
0.3939429308107585
0.3927099684938295
0.3906930434927474
0.3800868702288925
0.3737914037963556
0.3733439904780211
0.388476932221873
0.378473471648637
0.373617225633656
0.3733318155378442
0.3841551081448753
0.3765318453344456
0.3734541032904348
0.3733257716780073
0.397140446478555
0.3749068373591212
0.3733540889470761
0.3733255078016916
0.3733249220393165
0.3733295729581491
0.3748961813119987
0.4687968658047285
0.373325811479746
0.373350340560629
0.3784808928592626
0.5308716056190366
0.3733291327642117
0.373409144909105
0.3845084423865726
0.5588181444513074
0.37333956085305
0.3735634231372089
0.3926625682037451
0.5827458896156844
0.6029816094465903
0.4038357888103266
0.3738642463438039
0.3733588626452756
0.6198809509963376
0.4166745081318223
0.3743341223805857
0.3734049690197632
0.6355138334519062
0.4336879879027249
0.3752823111318515
0.3734654604983179
0.6469462083290196
0.4535849390590067
0.3766056193426675
0.3735866870987033
0.3737359454521005
0.378737920400901
0.475461580663111
0.6499836890772691
0.374022660191657
0.3819626686423456
0.4929972549978274
0.6356341308435551
0.3750542492021697
0.3824751459887733
0.4744470637098555
0.5867729053913437
0.3732250238694981
0.3795742361778757
0.4436953975491573
0.5222897031815962
0.374503040130339
0.3843217463688045
0.4188927744301524
0.415818358551073
0.3751091643204094
0.3806689660367929
0.3809458589036449
0.2949579912906167
0.3744508223191922
0.376826230380078
0.3638480415443689
0.2076252746834708
0.3737098717776003
0.3745014287603385
0.3501869370906273
0.158971768298385
0.1585797208241507
0.3448717817295444
0.3733421717047202
0.3733439171410539
0.1563594044658427
0.3410885489316587
0.3721723224713864
0.3733210018682109
0.1644913470314797
0.3392802087810592
0.3714558615132801
0.3733028880884827
0.161301022887355
0.3350279112128011
0.3709579436881925
0.3732966491998519
0.1925001785200174
0.341783913585463
0.3717397704022087
0.3733067388225381
0.2208656098123737
0.3497103589226511
0.3724923036417019
0.3733181471789406
0.2384473727004296
0.3559695690482615
0.3729018232212745
0.373322544103982
0.2585418876946508
0.3643027177259686
0.3732475883763542
0.373324292094292
0.3133236019196282
0.3632768183165371
0.3726946249279091
0.373312100414712
0.3076762375977493
0.3630973991145585
0.3727210653654772
0.3733127161776265
0.2953107600264796
0.3625907330601678
0.3727494843893661
0.3733137885978848
0.2818080069267965
0.3621980864595379
0.3728301105759589
0.3733164655315254
0.2585418876944213
0.3643027177247076
0.373247588375314
0.3733242920911632
0.2384473726998477
0.3559695690464606
0.372901823213512
0.3733225441016733
0.2208656098100476
0.3497103589213451
0.3724923036386762
0.3733181471825734
0.1925001785200752
0.3417839135883344
0.3717397704018204
0.3733067388200875
0.3733439171484025
0.373342171710523
0.3448717817297325
0.1585797208226864
0.3733210018692595
0.3721723224752597
0.3410885489339904
0.1563594044657059
0.3733028880848343
0.3714558615171139
0.3392802087815297
0.1644913470313483
0.3732966492006597
0.3709579436904989
0.3350279112201278
0.1613010228872176
0.1589717682949725
0.3501869370864374
0.3745014287619811
0.3737098717763097
0.2076252746809329
0.3638480415401341
0.3768262303760556
0.3744508223127159
0.2949579912906712
0.3809458589002769
0.3806689660348521
0.375109164316571
0.4158183585515533
0.4188927744294812
0.3843217463625344
0.3745030401653524
0.3737359454504402
0.3787379204088291
0.4754615806674566
0.649983689083681
0.3740226601924687
0.3819626686446143
0.4929972549942423
0.6356341308442285
0.3750542491664141
0.3824751459866321
0.4744470636998775
0.5867729053918306
0.373225023886549
0.3795742361749287
0.4436953975496324
0.5222897031818814
0.6469462083373604
0.4535849390676939
0.3766056193524449
0.3735866870999807
0.6355138334582742
0.4336879879152495
0.3752823111404609
0.3734654605009895
0.6198809509931139
0.4166745081175854
0.3743341223745811
0.3734049690203957
0.6029816094500766
0.403835788815697
0.373864246354729
0.3733588626437445
0.3733249220447675
0.3733295729603238
0.3748961813122274
0.4687968658017436
0.373325811481695
0.3733503405545432
0.3784808928606241
0.5308716056154933
0.3733291327622136
0.3734091449123639
0.3845084423884243
0.558818144453288
0.3733395608497811
0.37356342312923
0.3926625682027763
0.5827458896194049
0.3733255077909062
0.3733257716818179
0.3733318155374665
0.3733439904774484
0.373354088941881
0.3734541032929012
0.3736172256375344
0.3737914037940042
0.3749068373603013
0.3765318453347862
0.3784734716452642
0.3800868702281857
0.3971404464779605
0.3841551081446368
0.3884769322210434
0.3906930434947302
0.373362293221593
0.3739460804080068
0.381540743448626
0.392709968497224
0.3733819397191312
0.3740631191790254
0.382739907594319
0.3939429308126677
0.3733965220063022
0.3741458659032829
0.3837440317741725
0.3937818607790911
0.37340275715337
0.3741443916750166
0.3843941870243151
0.3934973453865807
0.3733293814756731
0.373378109907913
0.3777556509137767
0.4202336632547247
0.3733392986058888
0.3735206867868657
0.3814686432421385
0.4098603814882584
0.3733647536333847
0.3737474912828243
0.3830835805438056
0.4004156587890168
0.3733929203314313
0.3739775756934921
0.3840097692865379
0.3953682154058734
0.4237084105731583
0.3756008901241437
0.3733412985881156
0.3733263949221124
0.4167521881837175
0.3749541842281447
0.3733376476091135
0.3733262188550912
0.411330332156447
0.3743677246363729
0.3733298762337341
0.3733260682768993
0.4061049521309296
0.3739471890424176
0.3733272534614698
0.3733250942493166
0.4022344309019924
0.3731542361042582
0.3733245502799817
0.3733250615601294
0.3997371065294346
0.3734371771533658
0.3733251715143283
0.3733250556135816
0.3923273390679491
0.3733256822160266
0.3733250455916946
0.3733250556165152
0.3801645935189935
0.3733246666416126
0.3733250576197063
0.3733250556165152
0.3733250556165155
0.3733250556165154
0.3733250557685726
0.3733318161140086
0.3733250556165152
0.3733250556163887
0.3733250562699098
0.3733431710168482
0.3733250556165154
0.3733250556164001
0.3733250604164854
0.3733938369455907
0.3733250556165154
0.3733250555683299
0.3733251125346786
0.3736847367320749
0.3733413219791484
0.3733740658235358
0.3734907692203586
0.3749329686929273
0.3733740658319431
0.373411329320614
0.3736187074785872
0.3781062104334599
0.3734907692318378
0.3736187074743202
0.3754192880103744
0.396972395333827
0.3749329686747689
0.378106210454157
0.3969723950829852
0.4539356810864126
0.5341902897494426
0.478783580761084
0.4483354590427154
0.4129712565421078
0.5208194484994957
0.5089973495572282
0.5095881450002455
0.4850544659336008
0.5153178194654091
0.5127997987671762
0.5140115827557424
0.5045610364531612
0.5177823338101096
0.5159650041601717
0.5163755719728793
0.5100707104878813
0.5094795884164701
0.5070271866301065
0.5065957199389901
0.5082993326281329
0.5142819157599579
0.510143540519123
0.5096812711595815
0.5108042333120396
0.5146296975394845
0.5114555649979841
0.5114670849003964
0.5122744920237575
0.5156138729212413
0.5118672333632113
0.5118662160247355
0.5036482428982684
0.442595803939466
0.372943739963643
0.3524849275755193
0.353964793810741
0.4140012653308295
0.3508119138649395
0.3452963164558757
0.3510694566031247
0.3855627799964593
0.3456297148170716
0.3483261214376074
0.3534608701575006
0.333071955075595
0.3327209849012985
0.3439980680563627
0.3511087395995586
0.3595245960860435
0.3655253045390528
0.3710791791912458
0.3749096099926162
0.3573695111249137
0.3629236956974564
0.368290784951943
0.3729445682585647
0.3582661940812048
0.3624277633593617
0.366311966098805
0.3712709920421974
0.3556302526942473
0.3603549186820604
0.3660146311999057
0.3712635817639288
0.3774922466313697
0.3788447182936747
0.3854384053777546
0.5025998797083052
0.3762265417717332
0.3779704530611203
0.3894775076835481
0.5399075829384743
0.3747594323925591
0.377188353547074
0.3928073726655295
0.5547978959124419
0.3747563530613797
0.3773353532234093
0.398753449260941
0.5643233660334374
0.7441835673779595
0.7609280620239108
0.746787062493163
0.7325096038087304
0.7738507081582882
0.7688405648445525
0.750712531985711
0.7348945104178037
0.7585357057639988
0.7615992928952914
0.7512236100850621
0.7375047619420967
0.7693178962570313
0.7657187723714561
0.7548301538203773
0.7399977044548266
0.7195345875793323
0.7116983968074265
0.6974356610192147
0.6916246156671272
0.7212588490881457
0.7136895748491686
0.7005924898021715
0.694099923269588
0.7239663277360477
0.7159494781614592
0.7051137381722898
0.6985618079707042
0.7279916160723294
0.7197320200336452
0.7081682257202608
0.7011445700150617
0.6996237979287792
0.6873723842497315
0.6343765901589266
0.5538934431213031
0.6975101107379531
0.6871190561383667
0.6398045661132075
0.5647873756664696
0.698582850775663
0.6881812858634607
0.6408700576271469
0.5703257518273039
0.7000845324928409
0.689786057264981
0.6352623379018596
0.6590875344433241
0.3499064084270765
0.08300611860999466
0.01595012774963051
0.02324419357229306
0.2834872528090264
0.05430069070073357
0.0226629220705964
0.03127162088572298
0.2153547998551443
0.03279664334943602
0.02263764171223474
0.03812806551353694
0.1551604131007508
0.01636736555034559
0.02645045195139813
0.04104192480886062
0.03382161605441193
0.04448193190279608
0.05548405953188876
0.06107698356357574
0.04486128333233777
0.05702496203033793
0.06480590268127417
0.06795304989196725
0.05551926990750228
0.06820902907159901
0.07173288985908216
0.07559242342874313
0.0598700926062773
0.07331630393062455
0.07717716101956854
0.083619637067463
0.09632294519421444
0.1197283159736596
0.1396096205500669
0.1620768626138626
0.0985305540159654
0.1222120537125799
0.1377467031386938
0.1602041084569084
0.09887422119399665
0.123044024904418
0.1345342462695371
0.1476189335925993
0.09483403651591461
0.1205512038470944
0.1318493288901605
0.1487254952120756
0.1271965763034184
0.1017513308641261
0.08757664499973439
0.08906814509459342
0.1213678295104237
0.1031937150939709
0.09182136005407922
0.08507042342007234
0.1008888216720355
0.08911910184399355
0.0885623589560811
0.09493610159047534
0.07903363067910833
0.08211855633265422
0.09140070936917734
0.09960852321347015
0.1032060851684031
0.1017004563532653
0.1000435502802992
0.0989018638172644
0.0953272956094202
0.09173926235702383
0.08943387850090967
0.0882357579305362
0.08630336057179784
0.08549736962016866
0.08295021161601265
0.08124889147024852
0.09841261080823917
0.09520830725753958
0.09073914688721327
0.0889526787032399
0.09890186381725187
0.0882357579305063
0.08124889147023874
0.08895267870341012
0.1000435502802815
0.08943387850097301
0.08295021161613686
0.09073914688748512
0.1017004563532417
0.09173926235712224
0.08549736962029283
0.09520830725745923
0.1032060851683436
0.09532729560937814
0.08630336057184688
0.09841261080788309
0.08906814509420392
0.08757664499927006
0.1017513308636694
0.1271965763026006
0.08507042342007497
0.09182136005386138
0.1031937150936906
0.1213678295099399
0.09493610159040329
0.08856235895606024
0.08911910184406774
0.1008888216718155
0.09960852321339131
0.09140070936908161
0.08211855633274504
0.07903363067904177
0.1487254952116553
0.1318493288892764
0.1205512038450344
0.09483403651504094
0.1476189335921848
0.1345342462690852
0.1230440249025499
0.09887422119289584
0.1602041084563801
0.137746703138497
0.1222120537108846
0.09853055401471021
0.162076862613205
0.1396096205499472
0.1197283159720718
0.09632294519291944
0.06107698356234611
0.05548405953171066
0.04448193190249183
0.03382161605390666
0.06795304989079341
0.06480590268090468
0.05702496203007722
0.0448612833317825
0.0755924234277473
0.07173288985852189
0.06820902907146877
0.05551926990689363
0.08361963706649918
0.07717716101883405
0.07331630393050981
0.05987009260596279
0.02324419357198806
0.01595012774944104
0.08300611860906336
0.3499064084265464
0.03127162088550772
0.02266292207038656
0.05430069070036738
0.2834872528089179
0.03812806551308295
0.02263764171192311
0.03279664334920408
0.2153547998550576
0.04104192480872017
0.02645045195109577
0.01636736555022172
0.1551604131008467
0.553893443121075
0.634376590159565
0.6873723842507385
0.6996237979336296
0.5647873756663778
0.6398045661128495
0.6871190561378139
0.6975101107417874
0.5703257518267943
0.6408700576258624
0.6881812858628648
0.6985828507787507
0.6590875344431359
0.6352623379017145
0.6897860572644222
0.7000845324948914
0.6916246156718169
0.6974356610199149
0.7116983968081884
0.7195345875806474
0.6940999232741071
0.7005924898027674
0.7136895748500599
0.7212588490905086
0.69856180797442
0.7051137381724504
0.7159494781629984
0.7239663277397279
0.7011445700185073
0.7081682257203696
0.7197320200354667
0.7279916160751639
0.7325096038149616
0.7467870624957461
0.7609280620229412
0.7441835673755889
0.7348945104238227
0.7507125319874237
0.7688405648441758
0.7738507081572839
0.7375047619478772
0.7512236100861518
0.7615992928944514
0.7585357057618582
0.7399977044602063
0.7548301538217065
0.7657187723709777
0.7693178962558281
0.5025998797046667
0.3854384053755601
0.3788447182952582
0.3774922466355605
0.5399075829349318
0.3894775076802326
0.3779704530633852
0.3762265417762707
0.5547978959080671
0.3928073726615613
0.3771883535489204
0.3747594323971142
0.5643233660314237
0.3987534492563352
0.3773353532252003
0.3747563530646356
0.3749096099951902
0.3710791791929596
0.3655253045379095
0.3595245960843505
0.3729445682611339
0.3682907849545954
0.3629236956960482
0.3573695111231845
0.3712709920453152
0.3663119660998814
0.3624277633580232
0.3582661940797284
0.3712635817652286
0.3660146312013435
0.3603549186804723
0.3556302526930212
0.3539647938077701
0.3524849275734325
0.3729437399613459
0.4425958039422112
0.3510694566003965
0.3452963164534962
0.3508119138630431
0.4140012653344036
0.35346087015504
0.3483261214354583
0.3456297148156885
0.3855627800014403
0.3511087395965223
0.3439980680534086
0.332720984899204
0.3330719550818246
0.5082993326280895
0.5065957199356083
0.5070271866312732
0.5094795884069141
0.5108042333121059
0.5096812711564332
0.510143540517711
0.5142819157475593
0.5122744920233026
0.5114670848969205
0.5114555649937141
0.5146296975235263
0.5036482428988988
0.5118662160209678
0.5118672333569922
0.5156138729062776
0.5100707104742042
0.5045610364277084
0.4850544659132188
0.4129712565582072
0.5163755719645103
0.5140115827382775
0.5095881449802657
0.4483354590429027
0.5159650041520295
0.5127997987519523
0.5089973495361881
0.478783580782601
0.5177823338038475
0.5153178194491793
0.5208194485110054
0.534190289813762
0.2646335222261996
0.3636324572996647
0.3730402164927697
0.3733225003018515
0.261859356666764
0.3617805287758753
0.3729439542769434
0.3733211276776857
0.2668031498787939
0.361712260161517
0.3729240240770693
0.3733204353789709
0.2703808756846996
0.3616430892250448
0.3728855620567461
0.3733190117124427
0.3733121004124961
0.3726946249351394
0.3632768183173001
0.3133236019211706
0.3733127161767072
0.372721065369782
0.3630973991151195
0.3076762375996274
0.3733137885952172
0.372749484389758
0.3625907330625153
0.2953107600263173
0.3733164655251205
0.3728301105780598
0.362198086457165
0.2818080069248771
0.3733190117053433
0.3733204353756294
0.373321127671463
0.3733225002934882
0.3728855620597162
0.372924024077111
0.3729439542762988
0.373040216493475
0.3616430892235148
0.3617122601530592
0.3617805287776513
0.363632457300433
0.2703808756840242
0.2668031498782033
0.2618593566657199
0.2646335222253635
)
;

boundaryField
{
    back
    {
        type            empty;
    }
    inlet
    {
        type            calculated;
        value           nonuniform List<scalar> 
16
(
0.3733250556165154
0.3733250556165155
0.3733250556165155
0.3733250556165154
0.3733250556165155
0.3733250556165155
0.3733250556136185
0.3733250615579485
0.3733250615601294
0.3733250556135816
0.3733250556165152
0.3733250556165152
0.3733250556165155
0.3733250556165152
0.3733250556165154
0.3733250556165154
)
;
    }
    front
    {
        type            empty;
    }
    top
    {
        type            calculated;
        value           nonuniform List<scalar> 
40
(
0.3733250942480146
0.373326068257158
0.3733262188377811
0.3733263949396103
0.3733293814974806
0.3733392986155605
0.3733647536364185
0.3733929203324859
0.3734027571516783
0.3733965220023345
0.3733819397200467
0.3733622932270984
0.3733439904780211
0.3733318155378442
0.3733257716780073
0.3733255078016916
0.3733249220393165
0.373325811479746
0.3733291327642117
0.37333956085305
0.3733588626452757
0.3734049690197632
0.3734654604983179
0.3735866870987033
0.3737359454521005
0.374022660191657
0.3750542492021697
0.3732250238694981
0.374503040130339
0.3751091643204095
0.3744508223191922
0.3737098717776003
0.3733439171410539
0.3733210018682109
0.3733028880884827
0.3732966491998519
0.3733067388225381
0.3733181471789406
0.373322544103982
0.373324292094292
)
;
    }
    outlet
    {
        type            calculated;
        value           uniform 0.3733250556165154;
    }
    bottom
    {
        type            calculated;
        value           nonuniform List<scalar> 
40
(
0.3733242920911632
0.3733225441016733
0.3733181471825734
0.3733067388200874
0.3733439171484025
0.3733210018692594
0.3733028880848344
0.3732966492006597
0.3737098717763097
0.3744508223127159
0.375109164316571
0.3745030401653524
0.3737359454504402
0.3740226601924687
0.3750542491664141
0.373225023886549
0.3735866870999807
0.3734654605009895
0.3734049690203957
0.3733588626437445
0.3733249220447675
0.3733258114816951
0.3733291327622136
0.3733395608497811
0.3733255077909061
0.3733257716818178
0.3733318155374665
0.3733439904774484
0.373362293221593
0.3733819397191312
0.3733965220063022
0.3734027571533701
0.3733293814756731
0.3733392986058888
0.3733647536333847
0.3733929203314313
0.3733263949221124
0.3733262188550912
0.3733260682768993
0.3733250942493166
)
;
    }
    wall
    {
        type            calculated;
        value           nonuniform List<scalar> 
104
(
0.5341902897494426
0.5208194484994957
0.5153178194654091
0.5177823338101096
0.5156138729212413
0.5118672333632113
0.5118662160247355
0.5036482428982684
0.333071955075595
0.3327209849012985
0.3439980680563627
0.3511087395995586
0.3556302526942473
0.3603549186820604
0.3660146311999057
0.3712635817639288
0.3747563530613797
0.3773353532234093
0.398753449260941
0.5643233660334374
0.7693178962570313
0.7657187723714561
0.7548301538203773
0.7399977044548266
0.7279916160723294
0.7197320200336452
0.7081682257202608
0.7011445700150617
0.7000845324928409
0.689786057264981
0.6352623379018596
0.6590875344433241
0.1551604131007508
0.01636736555034559
0.02645045195139812
0.04104192480886062
0.0598700926062773
0.07331630393062456
0.07717716101956854
0.083619637067463
0.09483403651591463
0.1205512038470944
0.1318493288901605
0.1487254952120756
0.07903363067910833
0.08211855633265422
0.09140070936917734
0.09960852321347015
0.1032060851684031
0.1017004563532653
0.1000435502802992
0.0989018638172644
0.09890186381725187
0.1000435502802815
0.1017004563532417
0.1032060851683436
0.09960852321339131
0.09140070936908161
0.08211855633274504
0.07903363067904177
0.1487254952116553
0.1318493288892764
0.1205512038450344
0.09483403651504094
0.08361963706649918
0.07717716101883405
0.07331630393050981
0.05987009260596279
0.04104192480872017
0.02645045195109577
0.01636736555022172
0.1551604131008467
0.6590875344431359
0.6352623379017145
0.6897860572644222
0.7000845324948914
0.7011445700185073
0.7081682257203696
0.7197320200354667
0.7279916160751639
0.7399977044602063
0.7548301538217065
0.7657187723709777
0.7693178962558281
0.5643233660314237
0.3987534492563352
0.3773353532252003
0.3747563530646356
0.3712635817652286
0.3660146312013435
0.3603549186804723
0.3556302526930212
0.3511087395965224
0.3439980680534086
0.332720984899204
0.3330719550818246
0.5036482428988988
0.5118662160209678
0.5118672333569922
0.5156138729062776
0.5177823338038475
0.5153178194491793
0.5208194485110054
0.534190289813762
)
;
    }
}


// ************************************************************************* //
