/*--------------------------------*- C++ -*----------------------------------*\
  =========                 |
  \\      /  F ield         | OpenFOAM: The Open Source CFD Toolbox
   \\    /   O peration     | Website:  https://openfoam.org
    \\  /    A nd           | Version:  11
     \\/     M anipulation  |
\*---------------------------------------------------------------------------*/
FoamFile
{
    format      ascii;
    class       volScalarField;
    location    "0.194";
    object      T;
}
// * * * * * * * * * * * * * * * * * * * * * * * * * * * * * * * * * * * * * //

dimensions      [0 0 0 1 0 0 0];

internalField   nonuniform List<scalar> 
880
(
300
300
300.0000000491879
300.0021520333422
300.0000000000001
299.9999999999944
300.0000002063639
300.0059250630553
300.0000000000002
299.9999999999021
300.0000013918025
300.0230612583628
300.0000000000002
299.9999999852988
300.0000143933995
300.1074158598209
300
300
299.9999999988988
300.0000019098032
300.0000006453927
299.999996779347
300.000039502912
299.9998356044661
299.9998863063087
300.0005355637711
300.065132573029
299.8994089930116
302.2827467822893
307.037835272024
310.8941366370403
312.5326275053835
300.0000123886302
300.0003250197661
300.0003767287752
300.0004317964146
300.0007114524738
300.0016668591624
300.0054641902992
300.0062434206282
300.2309341705898
300.4464479448262
300.7329229853923
300.9990532603821
314.6136786392033
316.6675531420423
318.5057719650393
320.8574199170755
319.7557982832992
316.5576547854407
313.5991661720803
311.9334668182697
301.819325842968
303.4233145286069
304.3060741677187
304.510182892916
300.0198567981166
300.0719051773803
300.1555214726168
300.2259483192228
300.001395707568
300.0045915908766
300.0127732052806
300.0217624473618
300.0248348322381
300.0228279181039
300.0181573323176
300.0118756158878
300.2751747722017
300.2746564930397
300.2435159906073
300.2008392361577
304.4896852081839
304.1044348578989
303.5092139612302
302.8694661480689
310.7837907126877
309.9797267961557
309.0497535934836
307.5864700124288
306.1258268835097
302.2367274625858
300.1487544232455
300.0060359754682
304.9866173221375
301.6530381017165
300.092969775946
300.0021557028646
303.4167487757286
301.0084195269431
300.0410510578091
300.0002271921454
308.7824682901081
300.5124014812508
300.0093401827029
300.0001450562271
299.9999570133824
300.0013264551638
300.538033161699
337.3792819511482
300.000242047197
300.0085990709943
301.9516882630913
360.2203171545755
300.0013091329139
300.0278416467621
304.4628675430874
370.4501397080755
300.0046586201404
300.0863202606698
307.9618702119131
378.3274885158807
385.1540106004558
312.7773028786927
300.1981689262742
300.0108436324992
391.6807680352699
318.5514411450899
300.3966436170496
300.0257788959969
398.3170241535641
326.0552413927788
300.7783339501863
300.0450946526664
403.8376370494369
334.694576633767
301.3700113785908
300.0844092578809
300.1316888037933
302.2620547696382
343.531760507134
406.2653489286881
300.2215835656285
303.7646470348272
349.8793169403115
402.9008883797464
300.5551510693535
303.945607324962
343.4705530717806
389.4897935363852
299.9659345343769
302.6851360141784
330.7068165629917
367.370977100849
300.3788633138595
304.0656966803715
324.4844867635559
342.8659808824494
300.4978185267476
303.3663703375612
313.3932888422241
319.2348840640473
300.2941260354576
302.3327403536198
308.5080827571778
307.5573688800049
300.0966869503868
301.7586658398428
309.839050735443
313.1072385224099
333.1628198929799
309.5055043111662
300.8487798502354
300.0011820264926
329.5173600781073
307.6203349201953
300.1168698319071
299.9819559515595
326.9348140569323
304.7192940810929
299.7080094251697
299.95939580281
320.5585387472447
301.3712652310278
299.4715005235619
299.9594949333373
309.9365572291002
298.8429937063942
299.5611439079992
299.9875778550849
293.8175009902291
297.6737437082209
299.7950663966495
299.9978364362636
280.0904899575388
297.2402538983957
299.9050850865032
299.9993340941171
276.4855958215974
298.1508335622401
299.9843638528368
299.9997713411424
302.9674703656548
299.0327136894836
299.7675698821158
299.9927639867096
300.662319133071
298.8518315694765
299.7666324931124
299.9931562857165
295.65765230126
298.5376825458792
299.8054242145014
299.9944493291228
289.7682157225908
298.3416848634604
299.8333086606821
299.9950287788387
276.485595821479
298.1508335619265
299.9843638511726
299.9997713442219
280.0904899577437
297.2402538987794
299.9050850833685
299.9993340922271
293.8175009892423
297.6737437092064
299.7950663971018
299.997836437733
309.9365572286747
298.8429937079698
299.5611439082797
299.9875778537058
300.0011820266537
300.8487798512004
309.5055043110896
333.1628198917283
299.9819559525515
300.1168698322173
307.620334920686
329.5173600791946
299.9593958018831
299.7080094268481
304.7192940800526
326.9348140569341
299.9594949336667
299.4715005246015
301.3712652332287
320.5585387469611
313.1072385192113
309.8390507336616
301.7586658388494
300.0966869490133
307.5573688793742
308.5080827556731
302.3327403526624
300.2941260318731
319.2348840643409
313.3932888411105
303.3663703371572
300.4978185294127
342.8659808827373
324.4844867638568
304.0656966785214
300.3788633277551
300.1316888032019
302.2620547716302
343.5317605080951
406.2653489301227
300.2215835656474
303.7646470378215
349.8793169407631
402.9008883800325
300.5551510580103
303.9456073254381
343.4705530707972
389.489793536915
299.9659345409773
302.6851360145836
330.7068165646896
367.370977101451
403.8376370506493
334.6945766354433
301.3700113819298
300.0844092584387
398.3170241550457
326.0552413967412
300.7783339534353
300.0450946527451
391.6807680353105
318.5514411416052
300.3966436143104
300.0257788951972
385.1540106016486
312.7773028799963
300.1981689278799
300.0108436312279
299.9999570156806
300.0013264553303
300.5380331617407
337.3792819503022
300.0002420482563
300.0085990735156
301.9516882639787
360.2203171541192
300.001309132383
300.0278416420267
304.4628675439532
370.4501397087976
300.0046586185766
300.0863202635919
307.9618702121949
378.3274885154723
300.0001450530082
300.0002271935982
300.0021557017737
300.0060359742757
300.0093401806947
300.0410510595573
300.0929697767124
300.1487544223045
300.5124014817179
301.0084195272216
301.6530381009927
302.2367274629801
308.7824682899995
303.4167487757689
304.986617321816
306.1258268839391
300.0118756139317
300.2008392362977
302.8694661497231
307.5864700131366
300.0181573325621
300.2435159906382
303.5092139622691
309.049753593676
300.0228279191638
300.2746564934256
304.1044348571716
309.9797267956098
300.0248348320847
300.2751747724832
304.4896852086594
310.7837907126026
300.0013956999873
300.0198567974226
301.8193258438048
319.7557982832143
300.0045915866619
300.0719051773377
303.423314530373
316.5576547844764
300.0127732028814
300.1555214740951
304.3060741701046
313.5991661716014
300.0217624455498
300.2259483205266
304.5101828935902
311.9334668178793
320.8574199176352
300.9990532622296
300.0062434196631
300.0004317908238
318.5057719653772
300.7329229866926
300.0054641874949
300.0003767350402
316.6675531426862
300.4464479434754
300.0016668597386
300.0003250264008
314.6136786362321
300.2309341633355
300.0007114524351
300.0000123895686
312.5326275040331
299.8994089942431
299.9998356050901
300.0000019108638
310.8941366350464
300.0651325706048
300.0000395031136
299.9999999987858
307.0378352715643
300.0005355631068
299.9999967795383
300
302.282746784176
299.9998863056682
300.0000006454596
299.9999999999999
300
299.9999999999999
300.0000000498316
300.0021520340838
300.0000000000001
299.9999999999679
300.0000002066481
300.005925062855
300
299.9999999998809
300.0000013917768
300.0230612626992
300
299.9999999852394
300.0000143919752
300.1074158560124
300.0052441092242
300.0159521960474
300.0533661652743
300.5255447745652
300.0159521986067
300.0279270581794
300.0943114378892
301.6147210740529
300.0533661685469
300.0943114363183
300.6837325716893
308.2642353271989
300.5255447682734
301.6147210811033
308.2642352582538
328.8361561608459
357.1168556797944
338.8327889390887
325.7803394235034
313.2489348952134
354.4478719437303
349.0637646992944
344.0985867630924
335.4077009418795
352.2385586679237
350.2996891027332
348.0257540170636
344.3429950604312
352.0333636992391
350.9393505282387
349.8758544782924
347.7057796030257
348.4829678012962
348.0653045241107
347.7050535377716
348.6052430499507
349.5539649726553
348.279513765251
347.232012716214
347.967504171572
350.1267307235474
348.3747577139138
346.9908399774275
347.2304115302465
350.6035543148708
348.3764761737075
347.0941596403493
341.9470112806527
330.3919064661096
310.0351288391435
300.4063974373584
300.2188466120749
321.6181577319815
302.9818138979593
298.5579934887148
300.3361269420591
311.2372440259362
298.0712563021203
299.3462012426398
301.4744269241695
288.5377403373598
291.6621537620802
298.2373019409911
301.2545804343737
301.2172994473152
302.2638896019887
302.8050051787635
302.7599767434976
302.3134718285315
303.3090497584612
303.5729805131861
303.5526173973254
303.716907281466
304.4930310287141
304.3929800264108
304.3235739844687
303.2721299982859
304.2815998641538
304.868489231028
304.7302851802409
302.6202429903346
302.3744714171517
304.1283627041422
350.0124033068705
303.2910889433326
302.7340033783948
305.8903880823979
367.4729841543208
303.7928795085717
303.0284115247795
308.8237388598342
378.1090038736262
304.0989066378026
303.2494582200505
314.5877806053688
385.7939681004921
423.8712475603833
431.6805643396608
429.6521962365129
427.5636283783339
434.1636194249917
435.0547969285702
431.6932706199997
428.3515860378672
434.4749474296839
434.7952108304983
432.9340526369966
429.2600019369701
439.1295278315639
436.8316971321362
434.4665795033779
430.075044496731
425.5889428074051
425.3148945786333
424.2816337003076
425.1179771738547
425.3431147792343
424.105834942906
422.504300251913
422.681218608838
425.2172727701242
422.8469921987003
420.6046316633008
419.9074684320583
425.8092139300898
423.0319873869165
420.0019937783068
418.7585700135621
428.4011393316519
424.540573338183
409.3686584447299
389.6393551226236
424.9372664672555
422.0354551351911
409.335709978386
407.3769227663558
420.6833667127576
418.8093904126949
412.8766964441828
425.8766155861661
418.8572044208132
418.1850557746745
418.8045129639823
409.2320889666743
356.3117933310722
300.4898980128812
208.1266016406184
176.4826624742481
348.149198899293
265.9324721315366
169.0515357274488
130.8483696047834
316.4331576206374
208.9718981750226
140.1809406725563
123.1512020516496
242.0446897692783
134.4296291026691
135.1719943369338
123.2058366532333
194.2139262229857
230.0639406693403
260.3057968173143
272.4588282819499
148.3335454348693
191.6860358433817
233.471733653765
261.791622643539
136.6344957390345
174.1229005863516
217.3612353008113
256.8677207666207
135.4099583257064
171.6148311042409
219.1636299864398
261.0279930358971
300.2429968418292
281.7388659603316
260.4056215411975
250.1489717903968
299.6030929740169
289.5130900337466
268.3438348542577
258.4628342160572
289.109055413997
294.2469337893746
281.3850818187985
274.5220835266442
276.6058634089776
293.3729178125724
290.6723223663088
295.1870067656387
227.9906405309726
216.6989499472443
215.3218693474051
217.7313160030638
239.2075839907085
234.5598770118872
227.2146352808131
208.90833232463
245.3787952770151
237.1688474423118
223.1960021104488
201.1600539173188
232.772439604217
226.8923127785029
214.4793583687712
190.1600917879209
175.9848095039597
173.6460412516026
174.6721111182291
175.0609032741444
181.4896821850886
176.9460310381236
180.6565968362058
183.0384764152114
195.955618055624
198.1140356834643
204.4398566451623
208.2221846875267
227.7786285770329
229.2800514049031
231.455919851328
232.9601969921368
175.0609032742122
183.0384764151902
208.2221846874329
232.9601969920747
174.6721111184238
180.6565968363477
204.4398566452677
231.4559198515148
173.6460412518368
176.9460310384103
198.1140356837341
229.2800514049411
175.9848095041074
181.4896821851923
195.9556180558385
227.7786285765392
217.7313160026533
215.3218693469516
216.6989499466287
227.9906405301303
208.908332324737
227.2146352806422
234.5598770115247
239.2075839899435
201.1600539173014
223.1960021104444
237.168847442133
245.378795276399
190.1600917879095
214.4793583688066
226.8923127787264
232.772439603848
295.1870067649785
290.6723223652152
293.3729178102658
276.605863407804
274.5220835259395
281.3850818178925
294.2469337873833
289.1090554129515
258.462834215431
268.3438348535936
289.5130900322836
299.6030929733943
250.1489717899314
260.405621540778
281.7388659592812
300.2429968417769
272.4588282817219
260.3057968179247
230.0639406710818
194.213926223054
261.7916226424084
233.4717336537458
191.686035844705
148.3335454350208
256.867720765065
217.3612352999896
174.1229005868429
136.6344957389196
261.0279930341869
219.1636299851863
171.6148311043108
135.4099583258433
176.4826624723776
208.1266016396555
300.4898980125358
356.31179333092
130.8483696038905
169.0515357263714
265.9324721313073
348.1491988995583
123.1512020507846
140.1809406714269
208.9718981744196
316.4331576205843
123.2058366531381
135.1719943358506
134.4296291022333
242.0446897688572
389.6393551225568
409.368658444376
424.5405733379461
428.4011393327725
407.3769227665487
409.335709977799
422.035455134633
424.937266468175
425.8766155861255
412.8766964436746
418.8093904124615
420.683366713588
409.2320889663059
418.8045129640406
418.1850557745248
418.8572044214989
425.1179771746551
424.2816337006215
425.314894579293
425.5889428078059
422.6812186097373
422.5043002522508
424.1058349433058
425.3431147797097
419.907468433153
420.6046316635195
422.8469921990558
425.2172727707907
418.7585700147849
420.0019937785253
423.0319873873004
425.809213930467
427.5636283786509
429.6521962369858
431.6805643398429
423.8712475609318
428.3515860388378
431.6932706202112
435.0547969287045
434.1636194259277
429.2600019380915
432.9340526372029
434.795210830505
434.4749474296617
430.0750444977533
434.4665795037142
436.8316971322067
439.1295278315988
350.0124033062329
304.1283627035749
302.3744714173002
302.6202429913057
367.4729841538814
305.8903880813139
302.7340033786506
303.2910889443246
378.1090038725366
308.8237388580808
303.0284115249177
303.7928795096817
385.7939680997311
314.5877806026295
303.2494582201841
304.0989066384118
302.7599767439812
302.8050051791022
302.2638896012373
301.217299446834
303.552617398014
303.5729805141048
303.3090497575449
302.3134718279155
304.3235739851496
304.3929800264729
304.4930310280027
303.7169072808081
304.7302851801712
304.8684892309398
304.2815998632571
303.2721299978013
300.2188466113801
300.4063974370739
310.0351288389861
330.3919064675884
300.336126941196
298.5579934881335
302.9818138977882
321.6181577334901
301.4744269231143
299.3462012420506
298.0712563019287
311.2372440272798
301.2545804329651
298.2373019399964
291.6621537620081
288.5377403387895
348.6052430508582
347.7050535374364
348.0653045229579
348.4829677967708
347.9675041723126
347.2320127154787
348.2795137636575
349.5539649689028
347.2304115304908
346.9908399763279
348.3747577121069
350.1267307201999
341.9470112812384
347.0941596391166
348.3764761713369
350.6035543114784
347.7057795982663
344.3429950509869
335.4077009269014
313.2489348965283
349.875854476396
348.0257540137309
344.0985867535973
325.7803394143131
350.9393505295313
350.2996891104937
349.0637647137123
338.8327889470765
352.0333637038947
352.2385586825212
354.4478719787507
357.1168557186915
271.7684310778782
297.5567243666205
299.9168350027464
299.9992014923055
268.5114267646749
296.9511541672948
299.8914691861716
299.9988157551268
272.997762826255
297.2074012892666
299.8907882650767
299.9985827593794
282.0618881669403
297.8266263432914
299.8723483939229
299.9973788670595
299.9927639869417
299.7675698838328
299.0327136899634
302.9674703662416
299.9931562864215
299.766632494403
298.8518315691115
300.6623191337474
299.9944493264962
299.8054242161593
298.5376825448233
295.6576523005569
299.995028774151
299.8333086626599
298.3416848604907
289.7682157207875
299.9973788633552
299.9985827541414
299.9988157473354
299.9992014868945
299.8723483957436
299.8907882659888
299.8914691863849
299.9168350012427
297.8266263423765
297.2074012866458
296.9511541675689
297.5567243659772
282.0618881658319
272.9977628257396
268.5114267639846
271.7684310770543
)
;

boundaryField
{
    back
    {
        type            empty;
    }
    inlet
    {
        type            zeroGradient;
    }
    front
    {
        type            empty;
    }
    top
    {
        type            zeroGradient;
    }
    outlet
    {
        type            fixedValue;
        value           uniform 300;
    }
    bottom
    {
        type            zeroGradient;
    }
    wall
    {
        type            zeroGradient;
    }
}


// ************************************************************************* //
