/*--------------------------------*- C++ -*----------------------------------*\
  =========                 |
  \\      /  F ield         | OpenFOAM: The Open Source CFD Toolbox
   \\    /   O peration     | Website:  https://openfoam.org
    \\  /    A nd           | Version:  11
     \\/     M anipulation  |
\*---------------------------------------------------------------------------*/
FoamFile
{
    format      ascii;
    class       volVectorField;
    location    "0.194";
    object      U;
}
// * * * * * * * * * * * * * * * * * * * * * * * * * * * * * * * * * * * * * //

dimensions      [0 1 -1 0 0 0 0];

internalField   nonuniform List<vector> 
880
(
(25 -9.164472319135001e-16 0)
(24.99999999999999 -1.999651821545442e-13 0)
(24.99999999744263 -4.584634867563743e-09 0)
(24.99989799284308 -1.469085819415823e-06 0)
(24.99999999999999 8.881824575080049e-16 0)
(25.00000000000129 -9.708249670665522e-12 0)
(24.99999998224125 -2.509511023735762e-08 0)
(24.99950235583087 -0.0009501376671961808 0)
(24.99999999999999 -6.192538604938447e-16 0)
(24.99999999990697 1.770772203542926e-10 0)
(24.99999979677449 -1.346525928503937e-07 0)
(24.99973816108394 -0.00158503155227958 0)
(24.99999999999999 -2.337473770878021e-16 0)
(25.00000000387993 -1.082525381607613e-10 0)
(24.99999735349224 6.665361613177199e-07 0)
(24.99135507738583 -0.02934607344597664 0)
(24.99999999999999 3.855780372802419e-15 0)
(25 -3.023330728156096e-13 0)
(25.00000000008742 -2.21732731523064e-10 0)
(25.00000016087929 2.476480400810942e-07 0)
(25.00000014874904 2.742574778456227e-09 0)
(24.99999933815283 -7.392933535744275e-08 0)
(25.00000414014634 3.644931187814139e-06 0)
(24.99996489293774 -1.001719089561916e-06 0)
(25.00009394070851 -7.988287151456847e-05 0)
(24.99981265266906 0.0001274330475159056 0)
(24.99311720992458 0.01247499902521487 0)
(25.01496858922533 -0.01998959424990464 0)
(24.76971112974457 -0.06858688854943645 0)
(24.17999557286429 0.276652576578877 0)
(23.86323724514112 0.7939062091684147 0)
(23.78518584847928 1.118440813456772 0)
(24.99999524893433 -2.112169683137533e-06 0)
(25.00000520188409 5.916589811672707e-05 0)
(24.99995562648179 -0.0001199395474198205 0)
(24.99994379420283 -8.043952495500815e-05 0)
(24.99996973658151 4.512090573070871e-07 0)
(24.99975675126311 5.372314603491441e-05 0)
(24.99942564759484 0.0006678451670931812 0)
(24.99939046673839 0.0006960832087846052 0)
(24.97691228740887 -0.0009272761807930442 0)
(24.94502499339058 0.02944419122300243 0)
(24.92292513109531 0.07446498001037717 0)
(24.90961575550081 0.09672480759071532 0)
(23.77133290919909 1.42727112195372 0)
(23.58900031293285 1.874052030405535 0)
(23.69256169225114 2.0965437024646 0)
(23.45281749103855 2.412492769461855 0)
(23.92729333310615 2.850759822728008 0)
(24.45945081526501 2.80989310178281 0)
(24.94953729984589 2.597412315309995 0)
(25.25719207282087 2.25389526965347 0)
(24.85783381010697 0.1790101726624038 0)
(24.77813521905412 0.3618911010135546 0)
(24.81152447988216 0.5802508020438699 0)
(24.93590429094726 0.6604148784883366 0)
(24.99811489831993 0.002234316088234125 0)
(24.99301352763485 0.007363265103903416 0)
(24.98623685401574 0.02086818218441328 0)
(24.98619650798819 0.03920474896255888 0)
(24.99983778781104 -0.0001675138410405545 0)
(24.99944811161549 -0.0005306573094990875 0)
(24.99873556990149 -0.00139643528285926 0)
(24.9975805425442 -0.002570348861774995 0)
(24.99661912894768 -0.002846879149049844 0)
(24.99631380045988 -0.002666463160263627 0)
(24.99643213672317 -0.002240781737178285 0)
(24.99695531499185 -0.001607570444515027 0)
(24.99658091977673 0.04913623116663395 0)
(25.00604631211332 0.04663187892466274 0)
(25.01084427320704 0.04162269039876713 0)
(25.01355134488323 0.03289725645285758 0)
(25.07302674918727 0.6311923301505643 0)
(25.14176253864129 0.5786064719120614 0)
(25.19370401035696 0.4971530971683223 0)
(25.21299770895041 0.394388773484609 0)
(25.43539389463239 1.853287336706623 0)
(25.63464882758898 1.438212915871774 0)
(25.77156792481336 1.030673819431538 0)
(25.78549226669433 0.7295934679530901 0)
(25.73462624887373 0.5289276009167992 0)
(25.20192507098927 0.2901198483072383 0)
(25.01275745064673 0.02251099651577383 0)
(24.99786324227097 -0.0009494255435980389 0)
(25.65831246083102 0.3643099876292013 0)
(25.16875024396354 0.2018715184721853 0)
(25.00912530650986 0.01273986236372574 0)
(24.99883969457668 -0.0004740265038185368 0)
(25.46158898315743 0.2583494286935637 0)
(25.12296285297473 0.1008999593533717 0)
(25.0046657466115 0.004960581971296089 0)
(24.9995595306755 -0.0001485404420604292 0)
(24.76612935795837 0.6015260722616179 0)
(25.04893414924836 0.03779210956506277 0)
(25.00119644654331 0.0009633627222652139 0)
(24.99996796673277 -3.00302849474649e-05 0)
(24.99997358244683 -9.202618998061032e-06 0)
(25.00006506665443 0.0001849612946456625 0)
(24.96605088753309 0.04259875365730489 0)
(21.40846327072877 1.347123602916318 0)
(24.99991695922337 -3.547377771030783e-05 0)
(24.99956096538795 0.0004547505789882807 0)
(24.78564827852265 0.08902215160666661 0)
(18.93028495220901 2.843051845950477 0)
(24.99987468824916 -0.0001870426206969237 0)
(24.99603448329459 0.003102407582142995 0)
(24.49180221141715 0.2888903844447615 0)
(17.81148541427558 4.497321072141141 0)
(24.99936639756159 -0.0005321304914313663 0)
(24.9920774446642 0.008128103373485032 0)
(24.19137999291598 0.5936607202400574 0)
(17.51040190171075 5.87936115476847 0)
(17.25531880461933 7.204105231293358 0)
(23.84066859041724 1.065564723701061 0)
(24.98213199941293 0.02150015158308555 0)
(24.99872982638966 -0.001391441716165661 0)
(17.22750645739204 8.350543640463712 0)
(23.44502592807532 1.719535500104637 0)
(24.96610762309257 0.04994188171618055 0)
(24.99710749980483 -0.003151747040132573 0)
(17.12990389032608 9.321127366605104 0)
(23.09483222434748 2.451108613711337 0)
(24.9508601787482 0.08840640034173716 0)
(24.994096852477 -0.005600449722723744 0)
(17.16874114274161 10.06547774138699 0)
(22.67375445727303 3.395087563634876 0)
(24.913884730005 0.1758833841985322 0)
(24.98985693680867 -0.01043269991200646 0)
(24.98213415525311 -0.01646692394968076 0)
(24.88252801352179 0.2650771593141739 0)
(22.32576367336525 4.339604161938495 0)
(17.45741624702373 10.5956204089608 0)
(24.97246337459391 -0.02693535313367212 0)
(24.80740836811018 0.4624302476208048 0)
(22.44060946848813 5.144728520333396 0)
(18.39233203722148 10.62560849607409 0)
(25.02831520002315 -0.03144528763059692 0)
(24.86811486366654 0.5204696572568642 0)
(23.21778281385926 4.698056874169743 0)
(20.45388443694614 9.866027454498935 0)
(24.87598847469607 -0.05585470535254514 0)
(24.92095651653217 0.3584237660732627 0)
(24.17993743446584 3.60152303477219 0)
(22.92569196402947 8.090963339211099 0)
(24.96938627984835 -0.007815926818888274 0)
(24.95732246370108 0.6556014190457818 0)
(25.3366366311244 3.073559817619485 0)
(26.51107270632365 5.350525615496633 0)
(24.94698720367618 0.003700828209012597 0)
(25.22342792399696 0.5218424596654991 0)
(26.37704742383686 1.913723702845895 0)
(29.19896021852297 2.260869638883677 0)
(24.96830824708036 -0.005362492273435742 0)
(25.33474976842956 0.2859387583660594 0)
(26.64493313391477 0.7591412215836479 0)
(30.44322306751983 -0.4711692178646915 0)
(25.00358621659831 -0.004424623431283124 0)
(25.2499659306761 0.08380766112207153 0)
(26.36017808849229 -0.1117851228157812 0)
(29.48978372043644 -1.341780555400953 0)
(25.43920792682171 -1.941898935425261 0)
(25.79575633050386 -0.782589921878416 0)
(25.12752560050657 -0.04647071755038406 0)
(25.00748996311684 -0.002885461343552234 0)
(22.32785155802429 -3.099151256677042 0)
(25.1826777321702 -1.398380413779936 0)
(25.03461558068291 -0.1088446028716825 0)
(25.00215059064038 -0.002389615181947674 0)
(19.26358916196457 -5.198367850991748 0)
(24.57557693556438 -1.575680870329907 0)
(24.97554052245833 -0.1050146231674205 0)
(25.00004149450129 -0.002757227046857722 0)
(16.29464504630138 -5.777268300852039 0)
(23.93641274748586 -1.66790400694668 0)
(24.92910625345524 -0.1148942039907639 0)
(24.99887795904933 -0.002752886726956976 0)
(16.44943647731841 -4.787271353059215 0)
(23.74506497408952 -1.059812269772746 0)
(24.93189077052793 -0.06104220867446045 0)
(24.99925889787211 -0.0008157102759035411 0)
(18.00587124080649 -3.006539683142662 0)
(23.97114360573769 -0.5651010544116244 0)
(24.96021724849336 -0.02532398656406613 0)
(24.99974134803938 -0.0002306819793525826 0)
(19.50679903843478 -1.012837667368332 0)
(24.28095831368017 -0.24450419944943 0)
(24.98118239650229 -0.01001312507394246 0)
(24.99991392397886 -7.841905011823924e-05 0)
(21.24056199463829 -0.5652512181431674 0)
(24.63523647318281 -0.245300077094873 0)
(24.99760259937902 -0.008173983856140975 0)
(24.99997362264706 -4.347208598385612e-05 0)
(21.71690471563386 -0.1887025346954326 0)
(24.55194246275668 -0.02892504963987134 0)
(24.96987043026293 -0.001066690599596008 0)
(24.99932093489942 -1.018322326035336e-05 0)
(21.61683632763515 -0.2891099985269336 0)
(24.5511016856127 -0.07253446653019993 0)
(24.97078475132498 -0.002724933228611287 0)
(24.99935207871929 -3.060850206966079e-05 0)
(21.5157350317481 -0.492195312743764 0)
(24.5230747751501 -0.1123887982725813 0)
(24.97198593808664 -0.005115680474526421 0)
(24.99942414549145 -5.35017628139027e-05 0)
(21.25874938382059 -0.03655316687784822 0)
(24.51744741249735 -0.119994175786307 0)
(24.97583267307077 -0.007236098481293687 0)
(24.99953144244432 -0.0001096763682031074 0)
(21.24056199464199 0.5652512180599234 0)
(24.63523647322373 0.2453000771185198 0)
(24.99760259945969 0.008173983956364915 0)
(24.99997362245088 4.347251610626501e-05 0)
(19.50679903839076 1.012837667674717 0)
(24.28095831369173 0.2445041995265494 0)
(24.98118239673363 0.01001312528554592 0)
(24.99991392394662 7.84187101646002e-05 0)
(18.00587124075198 3.006539683315291 0)
(23.97114360565046 0.5651010545726536 0)
(24.96021724849946 0.02532398688551423 0)
(24.99974134811075 0.0002306821504410185 0)
(16.44943647723554 4.787271353019006 0)
(23.74506497392689 1.059812269527615 0)
(24.93189077045962 0.0610422085318863 0)
(24.99925889790351 0.0008157101663195374 0)
(25.00748996282142 0.002885461170849017 0)
(25.12752560049469 0.04647071711977546 0)
(25.79575633058998 0.7825899218175557 0)
(25.43920792678746 1.941898935340054 0)
(25.00215059049705 0.002389615276212005 0)
(25.03461558059819 0.1088446027548585 0)
(25.18267773209127 1.398380413614839 0)
(22.32785155787785 3.099151256567999 0)
(25.0000414946013 0.002757227157882096 0)
(24.9755405222638 0.1050146229748888 0)
(24.57557693552427 1.575680870359404 0)
(19.26358916188625 5.198367850923414 0)
(24.99887795904467 0.002752886649253593 0)
(24.92910625339344 0.1148942040674893 0)
(23.93641274722273 1.667904006729869 0)
(16.29464504630683 5.777268300875853 0)
(29.48978372089231 1.341780555443836 0)
(26.36017808873924 0.1117851229030042 0)
(25.24996593097838 -0.08380766095513768 0)
(25.00358621684404 0.004424623276264254 0)
(30.44322306765704 0.4711692179978681 0)
(26.64493313417668 -0.7591412216088076 0)
(25.33474976871505 -0.2859387582099689 0)
(24.96830824732528 0.005362492587184504 0)
(29.1989602185037 -2.2608696389381 0)
(26.37704742399669 -1.913723702788985 0)
(25.22342792387675 -0.5218424593184039 0)
(24.94698720360531 -0.003700827438003441 0)
(26.51107270630389 -5.350525615483398 0)
(25.3366366310554 -3.073559817400099 0)
(24.95732246324061 -0.6556014185915909 0)
(24.96938628108781 0.007815926547990066 0)
(24.9821341552914 0.01646692400207816 0)
(24.88252801346902 -0.2650771592966444 0)
(22.32576367325875 -4.339604161947628 0)
(17.4574162469882 -10.59562040889865 0)
(24.97246337456365 0.02693535321637739 0)
(24.80740836766653 -0.4624302478259845 0)
(22.44060946839512 -5.144728520229941 0)
(18.39233203723533 -10.62560849594406 0)
(25.02831519493986 0.03144528909505249 0)
(24.86811486405974 -0.5204696573623319 0)
(23.21778281397489 -4.698056874255393 0)
(20.45388443694094 -9.866027454446945 0)
(24.87598847820673 0.05585470331001575 0)
(24.92095651643244 -0.3584237660482547 0)
(24.1799374342995 -3.601523034543087 0)
(22.92569196401002 -8.090963339135078 0)
(17.16874114263596 -10.0654777412023 0)
(22.67375445713209 -3.395087563614842 0)
(24.9138847294996 -0.1758833848492406 0)
(24.98985693673463 0.01043269990067662 0)
(17.12990388999177 -9.321127366593206 0)
(23.0948322242488 -2.451108613438101 0)
(24.95086017958332 -0.08840639965936051 0)
(24.99409685231338 0.005600449681869735 0)
(17.22750645713738 -8.350543640665146 0)
(23.4450259276035 -1.719535500947099 0)
(24.96610762174821 -0.0499418833608013 0)
(24.9971075000339 0.003151747124527326 0)
(17.25531880475917 -7.204105231315472 0)
(23.84066859081263 -1.065564723510803 0)
(24.98213200043278 -0.0215001508763891 0)
(24.99872982654341 0.00139144168725382 0)
(24.99997358280402 9.202767276230415e-06 0)
(25.00006506652683 -0.0001849612590089503 0)
(24.96605088753868 -0.04259875360870783 0)
(21.40846327081365 -1.347123602892421 0)
(24.99991695945241 3.547383575467488e-05 0)
(24.99956096545665 -0.0004547504701113217 0)
(24.78564827844672 -0.08902215159438752 0)
(18.93028495234531 -2.843051845891448 0)
(24.99987468850914 0.0001870426192819207 0)
(24.99603448339175 -0.003102407223157189 0)
(24.4918022112322 -0.2888903845337343 0)
(17.81148541401955 -4.497321072146239 0)
(24.99936639794106 0.0005321305102785782 0)
(24.99207744396358 -0.008128103839124054 0)
(24.19137999298017 -0.5936607201510494 0)
(17.51040190177544 -5.879361154660947 0)
(24.99996796561397 3.002999493661168e-05 0)
(24.99955953070492 0.000148540590525445 0)
(24.99883969456829 0.0004740264722271227 0)
(24.99786324241528 0.0009494255995849521 0)
(25.00119644700431 -0.000963362783042995 0)
(25.00466574645136 -0.004960581972191656 0)
(25.00912530637014 -0.01273986228647803 0)
(25.01275745077425 -0.02251099659985862 0)
(25.04893414919711 -0.03779210963723836 0)
(25.12296285296862 -0.1008999592103835 0)
(25.16875024406662 -0.2018715186015755 0)
(25.20192507089764 -0.2901198485419058 0)
(24.76612935797345 -0.6015260722676702 0)
(25.46158898314518 -0.2583494287183669 0)
(25.65831246085652 -0.3643099876591705 0)
(25.73462624885713 -0.5289276007371178 0)
(24.99695531523165 0.001607570341358648 0)
(25.01355134488622 -0.03289725657179847 0)
(25.21299770883785 -0.3943887733350282 0)
(25.78549226659709 -0.7295934679309913 0)
(24.99643213666963 0.002240781736677892 0)
(25.0108442732527 -0.04162269045185812 0)
(25.19370401030643 -0.4971530970631203 0)
(25.77156792488141 -1.030673819329772 0)
(24.99631380032168 0.002666463293302543 0)
(25.00604631207022 -0.0466318790404173 0)
(25.14176253856225 -0.5786064719930119 0)
(25.6346488275942 -1.438212915927216 0)
(24.99661912891641 0.00284687923716312 0)
(24.99658091970392 -0.0491362312868393 0)
(25.07302674919451 -0.6311923299751836 0)
(25.4353938947513 -1.853287336749229 0)
(24.99983778830425 0.0001675150159210476 0)
(24.9981148985432 -0.00223431646212329 0)
(24.85783381001325 -0.1790101731679929 0)
(23.92729333302985 -2.850759822738938 0)
(24.99944811188721 0.0005306576100304452 0)
(24.99301352779628 -0.00736326519223877 0)
(24.77813521909665 -0.3618911014292939 0)
(24.45945081532667 -2.809893101884085 0)
(24.99873556988358 0.001396435203953158 0)
(24.98623685392454 -0.02086818202269278 0)
(24.81152447992481 -0.5802508021747794 0)
(24.94953729995702 -2.597412315409413 0)
(24.99758054267123 0.002570348873629717 0)
(24.98619650777034 -0.0392047489285615 0)
(24.93590429089637 -0.660414878509234 0)
(25.25719207296393 -2.253895269732711 0)
(23.45281749103999 -2.412492769206684 0)
(24.90961575549086 -0.09672480738707331 0)
(24.99939046701695 -0.0006960833918727696 0)
(24.99994379374153 8.044016771484464e-05 0)
(23.69256169199925 -2.096543702353491 0)
(24.92292513101267 -0.07446497950015701 0)
(24.99942564776684 -0.0006678449009279383 0)
(24.99995562368472 0.0001199357518775013 0)
(23.58900031267366 -1.874052030229562 0)
(24.94502499331458 -0.02944419088624686 0)
(24.9997567512894 -5.372300184848278e-05 0)
(25.00000520482146 -5.916441151177746e-05 0)
(23.77133290894661 -1.427271122189562 0)
(24.97691228696842 0.0009272761844688089 0)
(24.9999697366374 -4.511955637129071e-07 0)
(24.99999524883194 2.112192073456347e-06 0)
(23.78518584855319 -1.118440813234258 0)
(25.01496858941101 0.01998959424368515 0)
(24.99996489284559 1.00172422186878e-06 0)
(25.00000016082949 -2.476159232026877e-07 0)
(23.8632372452439 -0.7939062090820938 0)
(24.99311721044864 -0.012474999045017 0)
(25.0000041401309 -3.644927610118561e-06 0)
(25.00000000009457 2.189792015023646e-10 0)
(24.1799955726415 -0.276652576668195 0)
(24.99981265275421 -0.0001274330238947652 0)
(24.99999933813313 7.393203629169369e-08 0)
(25.00000000000002 2.90102793564401e-13 0)
(24.76971112956084 0.06858688853840196 0)
(25.00009394074662 7.988283888731314e-05 0)
(25.00000014874178 -2.74017833045854e-09 0)
(25 -7.176706196733671e-15 0)
(25 1.281274345218469e-15 0)
(25 1.003076864259819e-13 0)
(24.99999999736967 4.61255785378697e-09 0)
(24.99989799325828 1.469659430057174e-06 0)
(24.99999999999999 -3.643231785871552e-16 0)
(25.00000000000372 9.67104683216035e-12 0)
(24.99999998220311 2.508065147995052e-08 0)
(24.99950235595751 0.0009501377103451146 0)
(25 -1.370736288926528e-15 0)
(24.99999999990901 -1.775519433026308e-10 0)
(24.99999979677427 1.34618521993891e-07 0)
(24.99973816107763 0.001585031774395396 0)
(25 -1.054042825367961e-15 0)
(25.00000000388494 1.081666104995331e-10 0)
(24.99999735363926 -6.665862544885196e-07 0)
(24.99135507805639 0.02934607197151533 0)
(24.99971822667536 3.080425813509951e-10 0)
(24.99921232894902 0.001236839445801298 0)
(24.99806670050782 0.005654201692685926 0)
(24.95289778612516 0.02951271625918218 0)
(24.99921232848237 -0.001236839213796998 0)
(24.99819055490447 -5.663693041705832e-10 0)
(24.99166308467449 0.001200594648916027 0)
(24.83310527338488 -0.02628595715251184 0)
(24.99806669934637 -0.005654202654976488 0)
(24.99166308448062 -0.001200597812277873 0)
(24.90847958873848 -3.192237651693423e-09 0)
(24.01086517410243 -0.1913526636006376 0)
(24.95289778457193 -0.02951271556247406 0)
(24.83310526896089 0.02628595342611899 0)
(24.01086516241049 0.1913526610701008 0)
(21.21827733896809 6.421437422144054e-09 0)
(18.84422570974805 2.420102493204827 0)
(19.91504057866927 3.077745871038434 0)
(22.44960959943874 2.297625765158178 0)
(23.87244719902654 1.054766418512039 0)
(19.6741189687202 4.460868877759362 0)
(19.78275580022667 4.549994002607939 0)
(20.65076177854169 4.323496842735348 0)
(21.91717556772496 3.633731365880427 0)
(19.3467835611359 5.648705290020716 0)
(20.50613918506705 4.850409988883811 0)
(21.26544415160354 5.090638911318578 0)
(22.04859765499505 4.799166466340773 0)
(19.61375374372562 6.039873597888526 0)
(21.03818498360407 4.993877543055785 0)
(21.62876289582376 5.191766871911169 0)
(22.09213749217967 4.990943324248223 0)
(22.24480072279577 5.154043902674792 0)
(22.35326598310912 5.321510091343443 0)
(22.52480275881916 5.371606347453623 0)
(22.56973000693654 5.467623451472403 0)
(21.92656738929816 5.26880340657515 0)
(22.16288443699618 5.421841139533396 0)
(22.33180266078049 5.474507156208856 0)
(22.99962570230654 5.759711926565588 0)
(21.51179128818206 5.10306001196874 0)
(21.88283224140925 5.320939003384159 0)
(22.08208568196214 5.418616059323925 0)
(24.327445128806 6.125267395000041 0)
(20.08031079129753 6.192618513843385 0)
(20.61857127427562 6.336097508436414 0)
(20.71980913089429 6.204661335322184 0)
(25.93566117807691 7.487096945101748 0)
(24.79546939074636 3.942698568883383 0)
(26.5887719003275 1.50337135119332 0)
(26.2090061562271 0.2869753322879382 0)
(26.0186329702463 0.2548963372278513 0)
(26.15115662034665 3.093031788005806 0)
(28.202040584654 0.4253615760709722 0)
(27.48605692307532 0.02719108639092355 0)
(27.00991714031301 0.1192037225840915 0)
(28.87937171104284 2.407831504848046 0)
(29.68602075065066 -0.08685332953307129 0)
(28.33911717300095 -0.1396981715370065 0)
(27.52648855771757 0.02697967879200442 0)
(21.6032356040636 1.398891556157325 0)
(22.26660708607153 0.5752124064814326 0)
(22.72139360616899 0.2529230178259199 0)
(22.9205370787855 0.04558355056909306 0)
(25.8467646310608 0.2872921632829485 0)
(25.80290924330449 0.1891476526707778 0)
(25.81572844748023 0.0423581624278449 0)
(25.82628017145984 -0.05632307154597491 0)
(26.51682120767527 0.2743293186340047 0)
(26.17373896564126 0.1952177336673684 0)
(26.02365412660247 0.01749365747729156 0)
(25.97607199933129 -0.09497402901618332 0)
(26.8490328330442 0.1091043251830003 0)
(26.35189285635401 0.0415812193846689 0)
(26.09315003605241 -0.05051144703849547 0)
(25.93479079396199 -0.0851840812588847 0)
(22.79433432507994 -0.1954445116588197 0)
(22.81433557527585 -0.2665760944455404 0)
(22.97413132313253 -0.3017443902701507 0)
(23.28033259039857 -0.4007349728990509 0)
(25.76049580312745 -0.06828033417804938 0)
(25.66158877629772 -0.062022985766389 0)
(25.51315603469406 0.06273608977938823 0)
(20.86401808657022 3.799650256642191 0)
(25.86039083554667 -0.08881439705472736 0)
(25.72806295322809 -0.07436162868849418 0)
(25.53255634037052 0.2711354093517529 0)
(17.48463106531297 3.968864522102894 0)
(25.84046924222759 -0.1035743710605388 0)
(25.73689047828103 -0.08685688129462588 0)
(25.20987110486699 0.586866886295548 0)
(14.05449151653886 2.482548084534975 0)
(23.71761916038677 -0.5384570141345343 0)
(24.3685985229497 -0.450283254620193 0)
(22.65035056005236 -0.02605349196442137 0)
(8.1586814083334 0.6448776751831451 0)
(13.9579160613971 7.240047450567155 0)
(13.92270979006408 7.308610306049563 0)
(14.08493893541836 7.974352215870235 0)
(14.61737541284503 8.697265435957542 0)
(12.25977479604648 7.381933584136277 0)
(13.29615908654334 7.422308202971004 0)
(13.90471518318876 8.099403974583728 0)
(14.53116056846951 8.834820991264543 0)
(9.636174829674932 5.99484174669598 0)
(11.55103805692398 6.792050945633798 0)
(12.98903225786303 7.946116711564838 0)
(14.02920593162752 8.864140750962353 0)
(4.957492766522559 2.501771658626601 0)
(7.009323968125637 3.80198479253396 0)
(9.730269999580186 5.24871927314968 0)
(12.08206617088032 6.679521701751822 0)
(15.24179159275858 9.426017448666519 0)
(15.81556883792616 10.10294593010935 0)
(16.02018178684095 10.52560525962224 0)
(15.72583797890632 10.50768039108638 0)
(15.21430143887983 9.539162598787819 0)
(15.79479599829174 10.17388755540041 0)
(16.00429142049109 10.49324369870147 0)
(15.89896578004027 10.52061340791245 0)
(14.95493301737699 9.597425021467441 0)
(15.62901531550599 10.21881192325335 0)
(15.88511178400675 10.50884288628386 0)
(15.89971380975107 10.58594048382609 0)
(14.022342505144 8.229888057440979 0)
(15.15360947216367 9.596504613133055 0)
(15.47086231396102 10.42791249420486 0)
(15.34729824656208 10.56958116697316 0)
(15.83202348000225 9.910188504188413 0)
(16.85472911100297 9.821724465425063 0)
(18.40112084943363 10.09074396099578 0)
(20.98019815545139 9.633950408974762 0)
(16.02221799421286 10.17739886333339 0)
(16.92603535317002 10.07066472384791 0)
(18.49813670002061 10.17298723027959 0)
(21.62007844828556 11.24128511041866 0)
(16.08903637808926 10.51831341304387 0)
(16.8558869069377 10.49216801216604 0)
(18.8579586124836 10.91792778785904 0)
(27.39769638077814 16.41903636206361 0)
(15.44662139633972 10.90456854882894 0)
(16.09590377957239 10.89624615595141 0)
(19.23010185637101 11.51765014980365 0)
(37.97130553830191 22.62287142446742 0)
(26.74804093524715 5.417660022656306 0)
(30.59933614085579 -2.727753101098549 0)
(10.49222626204626 -4.052643311812156 0)
(7.729773681683607 3.224961971801008 0)
(27.86995589432521 4.937345555422048 0)
(26.19927174699663 -2.570856656325469 0)
(6.503081609331002 0.1000748881472796 0)
(4.766270219828694 6.235386484711371 0)
(27.4063283304007 3.607384711454943 0)
(19.00126173510412 -7.025588049481517 0)
(2.747055146323137 2.350261949009751 0)
(2.608883529704996 6.533340480197832 0)
(17.17836980802982 -6.436106683090369 0)
(7.489563746779528 -6.816900271146244 0)
(0.5340337877123986 4.76125415117702 0)
(0.2526628076505739 5.781983969033725 0)
(5.460660809003916 4.349370757301854 0)
(2.769583338708371 3.363122066413299 0)
(0.7848547922400644 0.5454049165207508 0)
(-1.299104758934168 0.6308864558541701 0)
(3.826387185950535 6.253948887244455 0)
(2.262058106341518 5.294455436590784 0)
(0.7488570794675764 3.219088682169169 0)
(-0.5238769597873451 1.960072175600104 0)
(2.146045176658306 6.214568301952063 0)
(1.426798507676446 5.502710849918706 0)
(0.9633958207973424 4.661071430968089 0)
(-0.2925806629766991 2.72917237385276 0)
(0.3072031569587405 5.718565429435944 0)
(0.4157488628557332 5.265584990884064 0)
(-0.1449509826358409 4.907062419522783 0)
(-1.045529808096565 2.678493879411738 0)
(2.690535717010377 -3.777918476683159 0)
(8.777715806425775 -8.25036305687518 0)
(13.31999615748197 -7.22441260543284 0)
(17.89364623173218 -6.606653663246332 0)
(0.2259431592668981 -1.261815191530075 0)
(6.639801093351218 -5.587040792867997 0)
(11.7878182070568 -5.678025088655729 0)
(16.55157549390896 -5.727012332033985 0)
(-2.016345818610666 -0.6239900673033747 0)
(2.81198257448294 -3.418103038360838 0)
(8.725691657576226 -4.581743043940538 0)
(15.56425482834197 -4.137826656379087 0)
(-2.498262465468398 0.8136073495949225 0)
(0.5318356672085436 -0.5846611178792468 0)
(6.928111106875306 -0.5260365819126883 0)
(16.80247862708206 -2.734189157312037 0)
(19.07824653091611 -9.582770761709943 0)
(19.56468236348223 -12.51178593413648 0)
(19.35387779835303 -12.2980955495624 0)
(14.39008235175609 -10.11256522840668 0)
(17.64392233703364 -9.379599529121251 0)
(17.51715799708184 -10.13291030489005 0)
(15.4143338041679 -8.776258246077154 0)
(11.0161053155582 -6.020690515914566 0)
(17.08784782046894 -9.801337949114263 0)
(14.75247574575802 -9.485382769636493 0)
(9.440485722589194 -7.052079272164661 0)
(4.90888318045592 -3.855012913441824 0)
(13.13025712591033 -11.92802113065267 0)
(7.197004479870181 -7.126730670479705 0)
(3.231812678901767 -2.142053786427707 0)
(1.692349569425545 -0.1232304276016568 0)
(0.657491841862592 0.7875347925527989 0)
(-0.3271037703480923 0.887269096826837 0)
(-1.04112736482452 0.5740786452046848 0)
(-1.325731713449925 0.2097924768740637 0)
(2.883644663797881 -0.7614902377564815 0)
(0.9165296229251572 -0.2097390212515023 0)
(-0.6799201535583319 -0.2007841256599305 0)
(-1.326395514329668 -0.06154581139455956 0)
(5.239621489886646 -3.331007638336507 0)
(1.155039515207184 -2.244776920776013 0)
(-1.228202341601559 -1.646064818277293 0)
(-1.949090102789113 -0.5256334817633967 0)
(9.54801708352112 -4.949559869363636 0)
(6.093048942303899 -3.368894597339931 0)
(4.606524488711274 -1.898368295106549 0)
(4.414546873702907 -0.5618777418220978 0)
(-1.325731713458309 -0.2097924768640819 0)
(-1.326395514351494 0.06154581139583956 0)
(-1.949090102847496 0.52563348169067 0)
(4.414546873589961 0.5618777417044515 0)
(-1.041127364841958 -0.5740786452063301 0)
(-0.6799201536098549 0.200784125621328 0)
(-1.228202341647294 1.646064818178531 0)
(4.606524488702681 1.898368294848164 0)
(-0.3271037703657008 -0.8872690968271738 0)
(0.9165296228652479 0.2097390212233223 0)
(1.155039515168893 2.244776920663583 0)
(6.093048942324071 3.368894597127769 0)
(0.6574918418467804 -0.7875347925689965 0)
(2.883644663747587 0.7614902377136583 0)
(5.239621489840792 3.331007638264912 0)
(9.548017083522058 4.949559869266815 0)
(14.39008235172511 10.11256522829882 0)
(19.35387779832186 12.2980955494739 0)
(19.5646823634616 12.51178593406951 0)
(19.07824653092145 9.582770761730153 0)
(11.01610531550783 6.020690515847135 0)
(15.41433380412143 8.776258246036027 0)
(17.51715799704204 10.13291030482738 0)
(17.64392233697835 9.379599529123706 0)
(4.908883180426514 3.85501291338301 0)
(9.440485722544897 7.052079272107794 0)
(14.75247574566525 9.485382769567794 0)
(17.08784782035843 9.801337949103635 0)
(1.692349569413777 0.1232304275695833 0)
(3.231812678896775 2.142053786382631 0)
(7.19700447987484 7.126730670354887 0)
(13.13025712582709 11.92802113059182 0)
(16.80247862696724 2.734189157326386 0)
(6.928111106794462 0.5260365818984268 0)
(0.5318356671544913 0.584661117818022 0)
(-2.498262465448886 -0.8136073495422144 0)
(15.56425482824378 4.137826656399627 0)
(8.725691657430444 4.581743043989651 0)
(2.811982574340224 3.418103038224504 0)
(-2.016345818610239 0.6239900673219408 0)
(16.55157549385604 5.727012332060774 0)
(11.78781820691038 5.678025088764473 0)
(6.639801093187146 5.587040792719272 0)
(0.225943159197432 1.26181519153271 0)
(17.89364623172192 6.606653663264365 0)
(13.31999615732029 7.22441260559463 0)
(8.777715806269672 8.250363056755811 0)
(2.690535716905691 3.777918476650342 0)
(-1.299104758846569 -0.6308864558347314 0)
(0.7848547921701911 -0.5454049164210875 0)
(2.769583338523739 -3.363122066443624 0)
(5.460660808897077 -4.349370757528613 0)
(-0.5238769597125168 -1.960072175545998 0)
(0.7488570793874793 -3.219088682024995 0)
(2.2620581062189 -5.294455436549415 0)
(3.826387185909708 -6.253948887358651 0)
(-0.2925806629293269 -2.729172373793875 0)
(0.9633958207741741 -4.661071430807685 0)
(1.426798507612757 -5.502710849844815 0)
(2.146045176643673 -6.214568302030165 0)
(-1.045529808088184 -2.678493879355738 0)
(-0.1449509826291329 -4.907062419381674 0)
(0.4157488628386845 -5.265584990802698 0)
(0.3072031569514538 -5.71856542949849 0)
(7.729773681727343 -3.224961972068297 0)
(10.49222626181545 4.052643311517132 0)
(30.59933614092847 2.727753101110804 0)
(26.74804093528392 -5.417660022683528 0)
(4.76627021990589 -6.235386484911052 0)
(6.5030816093571 -0.1000748885038424 0)
(26.19927174703468 2.570856656267128 0)
(27.8699558943551 -4.937345555512815 0)
(2.60888352974495 -6.533340480384389 0)
(2.747055146350938 -2.350261949305665 0)
(19.00126173517833 7.025588049433384 0)
(27.40632833044163 -3.607384711538336 0)
(0.2526628076613525 -5.781983969242113 0)
(0.5340337877622289 -4.761254151459317 0)
(7.489563746869144 6.816900271152225 0)
(17.17836980810714 6.43610668306126 0)
(20.98019815543836 -9.633950409003331 0)
(18.40112084935751 -10.09074396105529 0)
(16.8547291108288 -9.821724465450069 0)