/*--------------------------------*- C++ -*----------------------------------*\
  =========                 |
  \\      /  F ield         | OpenFOAM: The Open Source CFD Toolbox
   \\    /   O peration     | Website:  https://openfoam.org
    \\  /    A nd           | Version:  11
     \\/     M anipulation  |
\*---------------------------------------------------------------------------*/
FoamFile
{
    format      ascii;
    class       surfaceScalarField;
    location    "19.9";
    object      phi;
}
// * * * * * * * * * * * * * * * * * * * * * * * * * * * * * * * * * * * * * //

dimensions      [0 3 -1 0 0 0 0];

internalField   nonuniform List<scalar> 
10792
(
0.068359311
-0.041786494
-0.068850051
0.042277234
0.06777701
-0.03962846
0.040210761
0.067244285
-0.037366589
0.037899314
0.06648175
-0.03516831
0.035930845
0.065712082
-0.032649497
0.033419165
0.064985327
-0.030491622
0.031218377
0.06420145
-0.027800756
0.028584633
0.063336087
-0.025395311
0.026260674
0.062537602
-0.022680982
0.023479467
0.061871424
-0.020231557
0.020897734
0.061067814
-0.017451718
0.018255328
0.060501826
-0.014838089
0.015404078
0.059840934
-0.012087572
0.012748464
0.059300619
-0.0093095081
0.0098498241
0.058741053
-0.0064728022
0.007032368
0.058283343
-0.0036501065
0.0041078166
0.05802557
-0.00075825264
0.0010160269
0.057820111
0.0021053294
-0.0018998707
0.0051117626
0.057724275
-0.0050159263
0.072684384
-0.041300755
-0.073170123
0.072081792
-0.039025868
0.071436102
-0.036720899
0.070647522
-0.03437973
0.06995263
-0.031954605
0.06914959
-0.029688583
0.068301389
-0.026952555
0.06752475
-0.024618672
0.066806727
-0.021962959
0.066075356
-0.019500185
0.065330821
-0.016707183
0.064722351
-0.014229619
0.064004762
-0.011369983
0.063463573
-0.0087683184
0.062927728
-0.0059369568
0.062555141
-0.0032775192
0.062233563
-0.00043667441
0.06193543
0.0024034627
0.005240126
0.061807067
0.077098578
-0.040659329
-0.077740004
0.076600186
-0.038527476
0.075947151
-0.036067864
0.075229282
-0.03366186
0.074569341
-0.031294663
0.073697327
-0.02881657
0.07297569
-0.026230917
0.072288051
-0.023931033
0.071509948
-0.021184856
0.070779743
-0.01876998
0.070024182
-0.015951621
0.069296939
-0.013502377
0.06860797
-0.010681014
0.068058259
-0.0082186072
0.067528241
-0.005406939
0.067110316
-0.002859593
0.06673502
-6.1378359e-05
0.066467528
0.0026709544
0.0054164182
0.066291236
0.082141849
-0.040203735
-0.082597443
0.081547641
-0.037933269
0.08076143
-0.035281653
0.080150665
-0.033051095
0.07931111
-0.030455108
0.078462492
-0.027967952
0.0778079
-0.025576325
0.076915734
-0.023038868
0.076125569
-0.020394691
0.075304213
-0.017948624
0.074544553
-0.015191961
0.073895546
-0.01285337
0.073241472
-0.010026939
0.072737141
-0.0077142766
0.072227714
-0.0048975112
0.0718577
-0.0024895792
0.071506593
0.0002897288
0.07130715
0.0028703983
0.0055718279
0.07115174
0.087188149
-0.039573306
-0.087818577
0.086515439
-0.037260559
0.085889696
-0.03465591
0.085162265
-0.032323664
0.084379567
-0.02967241
0.083756839
-0.027345224
0.082929389
-0.024748875
0.082067069
-0.022176548
0.081337228
-0.019664851
0.080536989
-0.017148385
0.079913856
-0.014568829
0.079204478
-0.012143991
0.078598455
-0.0094209159
0.078017557
-0.007133378
0.077543177
-0.0044231311
0.077178611
-0.0021250126
0.076814465
0.00065387532
0.076632798
0.0030520652
0.0057503941
0.076454232
0.092940579
-0.03891983
-0.093594055
0.092251155
-0.036571134
0.091502704
-0.033907459
0.09081256
-0.03163352
0.090096291
-0.028956141
0.0892543
-0.026503233
0.088342365
-0.023836939
0.087619347
-0.02145353
0.086860475
-0.018905979
0.08609178
-0.01637969
0.085354994
-0.013832042
0.084582819
-0.011371817
0.084012077
-0.0088501729
0.083407834
-0.0065291354
0.082979522
-0.0039948185
0.082509023
-0.0016545132
0.082271219
0.00089167957
0.082013918
0.0033093667
0.0058345043
0.081929808
0.098708045
-0.03825344
-0.099374436
0.098044226
-0.035907315
0.097342182
-0.033205415
0.096598757
-0.030890095
0.095771959
-0.028129342
0.095033169
-0.025764443
0.094299401
-0.023103171
0.093597029
-0.020751159
0.092777518
-0.018086468
0.092037269
-0.015639441
0.091329342
-0.013124115
0.090655139
-0.010697614
0.090070758
-0.0082657915
0.089470357
-0.005928734
0.089049524
-0.0035739859
0.08862534
-0.0012303287
0.088354015
0.0011630047
0.088117991
0.0035453914
0.0058440282
0.088108467
0.10557822
-0.037402892
-0.10642877
0.10470507
-0.035034158
0.10394933
-0.032449683
0.10312497
-0.030065732
0.10236151
-0.027365879
0.10162469
-0.025027626
0.10075656
-0.022235038
0.099899769
-0.01989437
0.099012109
-0.017198808
0.098281981
-0.014909313
0.097531581
-0.012373715
0.096848529
-0.010014562
0.096237558
-0.0076548196
0.095636268
-0.0053274438
0.095142051
-0.0030797684
0.094700839
-0.00078911612
0.094434346
0.0014294974
0.094197689
0.003782049
0.0058482987
0.094193418
0.11211112
-0.036717868
-0.11279615
0.11132512
-0.034248151
0.11052084
-0.031645408
0.10970264
-0.029247528
0.10894479
-0.02660803
0.10814056
-0.024223393
0.10741584
-0.021510316
0.10671086
-0.019189393
0.10593213
-0.016420076
0.10521016
-0.014187344
0.10442407
-0.011587631
0.10381659
-0.009407073
0.10313327
-0.0069715031
0.1026087
-0.0048028786
0.10208939
-0.0025604552
0.10170226
-0.00040198026
0.10144187
0.0016898835
0.1013027
0.0039212212
0.0058035854
0.10134741
0.12020251
-0.035894285
-0.12102609
0.11929024
-0.033335883
0.1184325
-0.030787669
0.117484
-0.028299027
0.11658892
-0.025712951
0.11566838
-0.023302849
0.11481113
-0.020653069
0.11388657
-0.018264837
0.11305684
-0.015590341
0.11223455
-0.013365058
0.11142453
-0.010777613
0.11075391
-0.0087364517
0.11006869
-0.0062862749
0.10959739
-0.0043315842
0.10907074
-0.0020338023
0.10878809
-0.00011933213
0.1084397
0.0020382787
0.10838369
0.0039772239
0.0058515244
0.10833575
0.12767994
-0.034916587
-0.12865764
0.1267086
-0.032364541
0.12584415
-0.029923218
0.12491732
-0.0273722
0.12411591
-0.024911538
0.12315841
-0.02234535
0.12234142
-0.019836076
0.12150402
-0.017427441
0.12080552
-0.014891839
0.12003422
-0.012593756
0.11940957
-0.010152964
0.11879977
-0.0081266486
0.11826612
-0.0057526296
0.11778524
-0.0038507042
0.11730135
-0.0015499088
0.1169965
0.00018551963
0.11662076
0.0024140133
0.116565
0.0040329877
0.0059808495
0.11643567
0.13692021
-0.033887169
-0.13794963
0.13590865
-0.03135298
0.13487225
-0.028886814
0.13382237
-0.026322325
0.13284979
-0.023938953
0.13189138
-0.02138694
0.13102013
-0.018964827
0.13004876
-0.016456074
0.12917368
-0.01401675
0.1282611
-0.011681183
0.12755109
-0.00944295
0.12675536
-0.0073309224
0.12622385
-0.0052211113
0.12566959
-0.0032964528
0.12531762
-0.0011979372
0.1249587
0.00054444128
0.12478207
0.0025906468
0.12469876
0.0041162934
0.0060139665
0.12466565
0.14560359
-0.032745332
-0.14674543
0.14461801
-0.030367393
0.14357995
-0.027848752
0.14262386
-0.025366242
0.14164362
-0.022958709
0.14068717
-0.020430488
0.13986255
-0.018140211
0.13904592
-0.01563945
0.1382905
-0.013261325
0.13750801
-0.01089869
0.13677592
-0.008710866
0.13599136
-0.0065463568
0.13542527
-0.0046550186
0.134826
-0.0026971832
0.13449647
-0.00086841511
0.13413066
0.00091025222
0.13406738
0.0026539334
0.13396004
0.004223633
0.0058318138
0.13414219
0.15613005
-0.031430736
-0.15744464
0.15492111
-0.029158457
0.1537643
-0.026691937
0.15274179
-0.024343738
0.15159713
-0.021814048
0.1504929
-0.019326255
0.14934877
-0.016996084
0.14838442
-0.014675096
0.14757224
-0.012449149
0.14686727
-0.010193718
0.14621393
-0.0080575218
0.14555674
-0.0058891739
0.14500334
-0.0041016123
0.14444613
-0.0021399761
0.14408167
-0.0005039505
0.14376182
0.0012300999
0.1436614
0.0027543539
0.14357113
0.0043138959
0.0055989219
0.14380403
0.16622579
-0.030250029
-0.16740649
0.16506408
-0.027996752
0.16397633
-0.02560418
0.16299408
-0.023361497
0.16208038
-0.020900344
0.16121737
-0.018463241
0.16019276
-0.015971477
0.15916261
-0.013644946
0.15812169
-0.011408232
0.15725946
-0.0093314868
0.1564863
-0.007284363
0.15587783
-0.0052806968
0.15529205
-0.0035158413
0.1547564
-0.0016043165
0.1543557
-0.00010325646
0.15405401
0.0015317961
0.15391748
0.0028908761
0.1539315
0.0042998794
0.0053705105
0.15415991
0.17840419
-0.028921643
-0.17973257
0.17687501
-0.026467577
0.17546228
-0.024191446
0.17408485
-0.021984066
0.17294933
-0.019764833
0.17199898
-0.017512882
0.17111994
-0.015092445
0.17025152
-0.012776524
0.16934814
-0.010504851
0.1684932
-0.0084765416
0.16765518
-0.0064463434
0.16696831
-0.0045938267
0.16633324
-0.0028807734
0.16588566
-0.0011567342
0.16549541
0.00028699619
0.16526969
0.001757508
0.16515619
0.0030043832
0.16526426
0.0041918093
0.0051365836
0.16549818
0.19008216
-0.027737313
-0.19126649
0.18884492
-0.025230344
0.1877835
-0.023130024
0.18648253
-0.0206831
0.18527949
-0.018561788
0.18400944
-0.016242834
0.18297319
-0.014056193
0.18200471
-0.011808041
0.18114876
-0.0096489012
0.18030874
-0.0076365249
0.17954365
-0.0056812568
0.17886606
-0.0039162306
0.17823881
-0.002253526
0.17776479
-0.00068271566
0.17733275
0.0007190404
0.17709232
0.0019979361
0.1769577
0.0031390076
0.17703481
0.0041146986
0.004942534
0.17722886
0.2033607
-0.026025858
-0.20507216
0.20181814
-0.023687775
0.20042843
-0.021740317
0.19918008
-0.019434753
0.19804679
-0.017428494
0.19684934
-0.015045383
0.19578523
-0.012992084
0.19472792
-0.010750728
0.19386721
-0.008788197
0.19303423
-0.0068035389
0.19234564
-0.0049926679
0.19167397
-0.0032445674
0.19114479
-0.0017243464
0.19070717
-0.00024508721
0.19036325
0.0010629592
0.19017952
0.0021816608
0.19015687
0.0031616596
0.19030439
0.0039671844
0.0046732284
0.19057369
0.21742374
-0.024303479
-0.21914612
0.21590478
-0.022168815
0.21432931
-0.02016485
0.21295911
-0.018064549
0.21159366
-0.016063042
0.21045932
-0.013911044
0.20939222
-0.011924988
0.20839622
-0.0097547232
0.20753068
-0.0079226542
0.20669035
-0.0059632131
0.20600491
-0.0043072248
0.20534659
-0.0025862482
0.20482358
-0.00120134
0.2044057
0.00017279841
0.20409533
0.0013733215
0.20388969
0.0023873059
0.20383032
0.0032210271
0.20392578
0.0038717245
0.0043968931
0.20420212
0.23266445
-0.022597595
-0.23437033
0.23111237
-0.020616741
0.22961951
-0.018671992
0.22820449
-0.016649525
0.22678782
-0.014646366
0.22552439
-0.012647615
0.22427058
-0.010671186
0.22323902
-0.0087231553
0.22224835
-0.0069319887
0.22144338
-0.0051582454
0.22072057
-0.0035844108
0.22016873
-0.0020344075
0.21971271
-0.00074531755
0.21933885
0.00054665441
0.21913746
0.0015747123
0.21905093
0.002473838
0.21908439
0.0031875622
0.21925852
0.0036975978
0.0040434414
0.21961197
0.24878878
-0.020487594
-0.25089878
0.24688663
-0.018714587
0.24523695
-0.01702231
0.24379724
-0.01520982
0.24250028
-0.0133494
0.24127851
-0.011425851
0.24012214
-0.0095148139
0.23909347
-0.0076944857
0.23811376
-0.0059522798
0.23730406
-0.0043485433
0.23653615
-0.0028164948
0.23594271
-0.0014409758
0.2354219
-0.00022450847
0.23512652
0.00084203881
0.23487734
0.001823893
0.23479173
0.00255945
0.23482474
0.003154548
0.23500666
0.0035156788
0.0036969467
0.23535316
0.26677047
-0.018266096
-0.26899197
0.26471874
-0.016662863
0.26280078
-0.015104346
0.26101825
-0.013427287
0.2594705
-0.011801655
0.25808875
-0.010044099
0.25691675
-0.0083428155
0.25589769
-0.0066754286
0.25500452
-0.0050591023
0.25424249
-0.0035865149
0.25366467
-0.0022386808
0.25319438
-0.00097068648
0.25279659
0.00017328546
0.25257326
0.0010653683
0.25248696
0.0019101946
0.25251444
0.0025319695
0.25263303
0.0030359564
0.25290461
0.0032440999
0.0033493006
0.25325226
0.28597745
-0.015583327
-0.28866022
0.28363532
-0.01432073
0.28152791
-0.012996935
0.27963966
-0.011539042
0.27792181
-0.010083797
0.27643973
-0.0085620263
0.27511911
-0.0070221969
0.27401765
-0.0055739614
0.27308474
-0.0041261982
0.27226128
-0.0027630486
0.27161339
-0.001590794
0.27114261
-0.00049990599
0.27093847
0.00037743033
0.27080539
0.0011984431
0.27085873
0.0018568575
0.27101453
0.0023761645
0.27129903
0.0027514637
0.2716628
0.0028803232
0.0029168508
0.27209525
0.3070281
-0.012366046
-0.31024538
0.30416424
-0.011456862
0.30161979
-0.010452492
0.29945181
-0.0093710572
0.29761743
-0.0082494228
0.29602772
-0.0069723107
0.29475872
-0.0057531951
0.2936701
-0.0044853483
0.29284165
-0.0032977462
0.2922167
-0.0021380973
0.2917067
-0.0010807949
0.29130964
-0.00010283968
0.29103842
0.00064864533
0.2909754
0.0012614678
0.29105614
0.0017761113
0.29128397
0.0021483373
0.29165901
0.002376421
0.29211973
0.002419606
0.0023597046
0.29267688
0.33064044
-0.008728551
-0.33427793
0.32728757
-0.0081039959
0.32423444
-0.0073993659
0.32152688
-0.0066634933
0.31917417
-0.0058967085
0.31716192
-0.004960064
0.31551423
-0.0041055049
0.31419261
-0.0031637304
0.31321085
-0.00231598
0.31255469
-0.0014819435
0.31219091
-0.00071701728
0.31216928
-8.120735e-05
0.31228047
0.00053745536
0.31251783
0.0010241147
0.31286102
0.0014329134
0.3132895
0.0017198605
0.31378103
0.0018848902
0.3143495
0.0018511341
0.0017574847
0.31495172
0.35583808
-0.0046160371
-0.3599506
0.35203866
-0.0043045709
0.34858157
-0.0039422793
0.34549131
-0.0035732331
0.34274908
-0.0031544732
0.34047846
-0.0026894515
0.33859293
-0.0022199711
0.33716106
-0.0017318557
0.33611293
-0.0012678517
0.33545422
-0.00082324044
0.33512842
-0.00039121682
0.33505191
-4.6886004e-06
0.33531325
0.00027611601
0.33577215
0.00056521502
0.33640284
0.00080221527
0.33708207
0.001040639
0.337806
0.0011609548
0.33860245
0.0010546866
0.0011036841
0.33925625
0.38385206
-0.3884681
0.37954749
0.37560521
0.37203198
0.36887751
0.36618805
0.36396808
0.36223623
0.36096838
0.36014513
0.35975392
0.35974923
0.36002535
0.36059056
0.36139278
0.36243342
0.36359437
0.36464906
0.36575274
0.057449806
0.0083514363
-0.008076966
0.057350574
0.011360169
-0.011260937
0.057421684
0.014371822
-0.014442931
0.057559893
0.017496552
-0.017634761
0.057906748
0.020541041
-0.020887896
0.058455068
0.023611708
-0.024160027
0.059119029
0.026902658
-0.027566619
0.059980986
0.030094906
-0.030956863
0.060879099
0.033406767
-0.034304879
0.061913056
0.036715889
-0.037749846
0.063015896
0.039993319
-0.041096158
0.06419282
0.043394713
-0.044571637
0.065429893
0.046743571
-0.047980643
0.06671977
0.050177745
-0.051467622
0.068014506
0.05368254
-0.054977276
0.069298957
0.057327702
-0.058612154
0.070512086
0.061061486
-0.062274614
0.071629218
0.064899204
-0.066016336
0.068755381
0.072641448
-0.069767611
0.061514354
0.0086441498
0.061474933
0.01139959
0.061652813
0.014193941
0.062019356
0.01713001
0.062508408
0.020051989
0.063194467
0.02292565
0.063986888
0.026110238
0.065013375
0.029068419
0.066004907
0.032415236
0.067191207
0.035529589
0.068329721
0.038854805
0.069634348
0.042090087
0.070956466
0.045421454
0.072369051
0.04876516
0.073839321
0.05221227
0.075491714
0.05567531
0.07723968
0.059313519
0.07920226
0.062936625
0.066463468
0.081494173
0.066018391
0.0089169956
0.065929776
0.011488205
0.066116005
0.014007713
0.066489922
0.016756093
0.067063018
0.019478893
0.06775224
0.022236428
0.068664572
0.025197905
0.069736456
0.027996535
0.070918862
0.031232831
0.072326571
0.03412188
0.073798911
0.037382466
0.075418648
0.04047035
0.077155922
0.04368418
0.078948208
0.046972874
0.081026482
0.050133996
0.083149457
0.053552335
0.08578274
0.056680235
0.088790312
0.059929054
0.062912917
0.092340862
0.070940725
0.0091280114
0.070889219
0.011539711
0.071132389
0.013764543
0.071536249
0.016352232
0.072218988
0.018796155
0.072981357
0.02147406
0.074080769
0.024098493
0.075180426
0.026896879
0.076621749
0.029791509
0.07813681
0.03260682
0.079905686
0.035613591
0.081700684
0.038675352
0.083945731
0.041439133
0.086233222
0.044685384
0.089138733
0.047228485
0.092137435
0.050553633
0.09594399
0.05287368
0.1001138
0.05575924
0.057546121
0.1054806
0.076272919
0.0093093243
0.076237329
0.011575302
0.076532201
0.013469671
0.076943115
0.015941319
0.077720561
0.018018709
0.07856022
0.020634401
0.079779537
0.022879176
0.080963753
0.025712663
0.082601346
0.028153916
0.084209691
0.030998476
0.086239372
0.03358391
0.088439135
0.03647559
0.091066425
0.038811843
0.094016388
0.041735421
0.097531556
0.043713317
0.10158679
0.046498403
0.10650649
0.047953976
0.11196754
0.050298185
0.050616115
0.11889755
0.081731537
0.0095075951
0.081819876
0.011486964
0.082139548
0.013149998
0.082712709
0.015368158
0.083540542
0.017190876
0.084570033
0.01960491
0.085872971
0.021576238
0.087309212
0.024276422
0.089130201
0.026332928
0.091037108
0.02909157
0.093441609
0.031179409
0.096035408
0.033881792
0.099139965
0.035707286
0.10273545
0.038139938
0.10687241
0.03957636
0.11180178
0.041569031
0.11739097
0.042364786
0.12386606
0.043823096
0.043278425
0.13120375
0.087840748
0.0097753141
0.088028634
0.011299078
0.088274871
0.012903761
0.089014592
0.014628438
0.089849126
0.016356342
0.091134472
0.018319565
0.092461681
0.020249029
0.09420517
0.022532934
0.096143563
0.024394536
0.098464309
0.026770824
0.10114937
0.028494349
0.10430197
0.03072919
0.10788823
0.03212103
0.11205943
0.033968733
0.11684598
0.034789819
0.12229168
0.036123331
0.12837387
0.036282596
0.1351074
0.037089564
0.036018837
0.14236698
0.094009513
0.0099592195
0.094313483
0.010995108
0.094701399
0.012515846
0.095635971
0.013693866
0.096584403
0.01540791
0.098065951
0.016838017
0.099474533
0.018840446
0.10158588
0.02042159
0.10368945
0.022290965
0.10650748
0.023952795
0.10948336
0.025518462
0.11315857
0.027053987
0.11709839
0.028181211
0.12181001
0.029257108
0.12684935
0.029750483
0.13254978
0.030422898
0.13859719
0.030235186
0.14501611
0.030670649
0.029589553
0.15144539
0.10122463
0.010081999
0.10149515
0.010724589
0.10190529
0.012105709
0.10288417
0.01271499
0.10393634
0.014355741
0.10556242
0.015211938
0.10723756
0.017165306
0.1095885
0.018070645
0.11191856
0.019960909
0.11508357
0.020787787
0.11823875
0.022363279
0.12234225
0.022950487
0.1264779
0.024045558
0.13154673
0.024188286
0.13655947
0.024737738
0.14218805
0.02479432
0.14754129
0.024881946
0.1532322
0.024979742
0.024695367
0.15812638
0.10843389
0.0099838677
0.10870548
0.010452995
0.10938527
0.011425916
0.11038906
0.011711201
0.11164823
0.013096576
0.11339835
0.013461818
0.11540134
0.015162314
0.11795066
0.015521327
0.120676
0.017235568
0.12405196
0.017411827
0.12748448
0.018930762
0.13185337
0.018581594
0.13607189
0.019827045
0.14110333
0.019156839
0.14571035
0.020130723
0.15082618
0.019678486
0.15521397
0.020494164
0.1596885
0.020505205
0.021093581
0.16329029
0.11668551
0.0097340339
0.11688692
0.010251585
0.11787026
0.010442572
0.11882045
0.010761019
0.12039426
0.011522763
0.12216919
0.011686884
0.12449129
0.012840214
0.12706266
0.012949958
0.13005707
0.014241159
0.13345626
0.014012638
0.13720713
0.015179897
0.14138208
0.014406638
0.14545061
0.015758521
0.1499668
0.01464065
0.15370869
0.016388826
0.15787675
0.015510431
0.16078861
0.017582301
0.16377337
0.017520451
0.019451627
0.16541532
0.12487806
0.0095216245
0.12515795
0.0099716949
0.12631906
0.0092814637
0.12731433
0.0097657468
0.12922703
0.0096100586
0.13110249
0.0098114241
0.13370051
0.010242196
0.13632412
0.010326345
0.13955899
0.011006297
0.14294361
0.010628019
0.14676363
0.011359876
0.15055487
0.010615395
0.15440341
0.011909986
0.15795339
0.01109067
0.1609319
0.013410313
0.16379439
0.012647942
0.1652023
0.016174388
0.16651439
0.016208363
0.020364524
0.16560149
0.13424572
0.0094180911
0.13483849
0.0093789324
0.13589524
0.0082247147
0.13707529
0.0085856954
0.139102
0.0075833489
0.14090154
0.0080118771
0.14370725
0.0074364897
0.14629617
0.0077374248
0.14963818
0.0076642864
0.15288733
0.0073788688
0.15645373
0.0077934823
0.15958913
0.0074799942
0.1626657
0.0088334179
0.16501636
0.0087400074
0.16688766
0.011539018
0.1677784
0.0117572
0.16774628
0.016206509
0.16685674
0.0170979
0.023243641
0.16397762
0.14384664
0.0093754802
0.1447532
0.0084723684
0.14563468
0.0073432427
0.14720215
0.0070182205
0.14908264
0.005702859
0.15114462
0.0059498963
0.15401169
0.0045694171
0.15651251
0.0052366071
0.15989844
0.004278354
0.16260547
0.0046718456
0.16572274
0.004676213
0.16813106
0.005071678
0.17045711
0.0065073627
0.17153253
0.0076645841
0.17198501
0.011086541
0.17095345
0.012788759
0.16920813
0.017951832
0.1663018
0.020004233
0.027472804
0.16207263
0.15436872
0.0091666693
0.15531794
0.0075231468
0.15619744
0.0064637476
0.15807224
0.0051434245
0.15973781
0.0040372805
0.16220132
0.0034863906
0.16465305
0.002117686
0.16729835
0.0025913118
0.17024027
0.0013364281
0.17235491
0.0025572066
0.17502851
0.0020026153
0.17634831
0.0037518766
0.17747412
0.005381558
0.17699526
0.0081434399
0.17621425
0.011867553
0.17366348
0.015339533
0.17061948
0.020995832
0.16598751
0.0246362
0.033099154
0.16036116
0.16596436
0.008700499
0.16689516
0.0065923445
0.16799183
0.0053670758
0.16982115
0.0033141067
0.17143744
0.002420986
0.17399161
0.00093222053
0.17604014
6.9162966e-05
0.17879156
-0.00016011553
0.18090402
-0.00077603008
0.18290795
0.00055328373
0.18444852
0.00046204086
0.18438126
0.003819136
0.18418211
0.0055807142
0.18221871
0.010106831
0.18014839
0.013937881
0.17623347
0.019254454
0.17219383
0.025035466
0.16618792
0.030642114
0.039833469
0.1594536
0.17782759
0.0081017699
0.17862997
0.0057899584
0.1799365
0.0040605486
0.18167933
0.0015712803
0.18351344
0.00058686941
0.18583469
-0.0013890301
0.18758636
-0.0016825086
0.18998228
-0.0025560267
0.19131214
-0.0021058939
0.19289436
-0.0010289381
0.19283616
0.00052024468
0.19230839
0.0043469017
0.19095594
0.0069331661
0.18796396
0.013098818
0.18475401
0.017147822
0.17951409
0.024494383
0.17437984
0.030169711
0.16730602
0.037715934
0.046519776
0.16061971
0.19128408
0.0073913837
0.19212119
0.004952846
0.19359745
0.0025842854
0.19518319
-1.4458891e-05
0.19706733
-0.0012972626
0.19887108
-0.0031927809
0.20041816
-0.0032295891
0.20207476
-0.0042126276
0.20259595
-0.0026270885
0.20305823
-0.0014912187
0.20181573
0.0017627468
0.20077959
0.0053830412
0.19784458
0.0098681784
0.19447266
0.016470737
0.19015969
0.021460792
0.18476851
0.029885564
0.18000818
0.034930039
0.17421774
0.043506374
0.048900487
0.17183703
0.20483857
0.0067549291
0.20577154
0.00401988
0.20716913
0.0011866912
0.20846463
-0.0013099555
0.21024527
-0.0030779037
0.21166794
-0.0046154537
0.21311038
-0.0046720273
0.21382034
-0.004922584
0.21379385
-0.0026005975
0.21344279
-0.0011401601
0.21173423
0.0034713025
0.20970412
0.0074131506
0.20570853
0.013863771
0.20227152
0.019907746
0.19759047
0.026141841
0.19412921
0.033346831
0.19156653
0.037492715
0.1909956
0.044077302
0.043945373
0.19595072
0.22040947
0.0059574309
0.22142682
0.0030025344
0.2225402
7.3308362e-05
0.22377378
-0.0025435342
0.22521279
-0.004516918
0.22617476
-0.0055774233
0.22723705
-0.0057343194
0.22710261
-0.004788137
0.22674719
-0.0022451833
0.22530764
0.00029939149
0.22307724
0.0057017063
0.22016281
0.010327577
0.21659769
0.017428891
0.21402765
0.022477789
0.21126484
0.028904646
0.21158418
0.033027498
0.2132987
0.035778186
0.22001628
0.037359724
0.033643638
0.23031802
0.2361722
0.0051383914
0.2372048
0.0019699264
0.23832726
-0.0010491428
0.23941064
-0.0036269148
0.24025058
-0.0053568589
0.24077401
-0.0061008615
0.24085875
-0.0058190556
0.24005675
-0.0039861352
0.23937543
-0.0015638605
0.2370221
0.0026527186
0.23471664
0.0080071654
0.23178206
0.013262161
0.22976934
0.019441612
0.22904334
0.023203782
0.23011305
0.027834943
0.23440796
0.02873258
0.24074617
0.029439975
0.25143998
0.026665915
0.023703364
0.26138026
0.25413591
0.0042547429
0.25498893
0.0011168996
0.25590051
-0.00196072
0.25664707
-0.0043734695
0.25714691
-0.0058567072
0.25731723
-0.0062711753
0.25686749
-0.0053693201
0.2561974
-0.0033160451
0.25470075
-6.7212336e-05
0.25242202
0.004931452
0.25068006
0.0097491249
0.24895263
0.01498959
0.24939406
0.019000179
0.25115211
0.021445732
0.25556723
0.023419828
0.2620248
0.022275004
0.27042793
0.021036853
0.27956174
0.017532098
0.018043583
0.28522152
0.2729375
0.0034124954
0.27370449
0.00034991025
0.27419212
-0.0024483509
0.27435103
-0.0045323823
0.27425422
-0.0057598943
0.27354178
-0.0055587338
0.27238756
-0.0042151039
0.27105864
-0.0019871234
0.26918622
0.0018052018
0.26786305
0.006254629
0.26707929
0.010532886
0.26794136
0.014127512
0.27091542
0.016026118
0.2750923
0.017268855
0.28156642
0.016945712
0.28861604
0.015225377
0.29549139
0.01416151
0.29998895
0.013034533
0.016995731
0.3010368
0.29346649
0.0026228857
0.2940722
-0.0002558006
0.29437766
-0.0027538189
0.29435552
-0.004510237
0.29407284
-0.0054772141
0.29347771
-0.004963603
0.29259354
-0.0033309347
0.2912265
-0.00062009253
0.2900499
0.002981806
0.28971692
0.0065876048
0.29043806
0.0098117452
0.29285183
0.011713743
0.29630555
0.012572396
0.30107843
0.012495984
0.30691625
0.011107891
0.3117686
0.010373019
0.31507964
0.010850476
0.31556759
0.012546583
0.018398029
0.31416529
0.31587335
0.0017012636
0.31613142
-0.0005138779
0.31562251
-0.0022449058
0.31472111
-0.0036088368
0.31323352
-0.003989628
0.31155193
-0.003282011
0.30999156
-0.0017705638
0.30896981
0.00040165561
0.30881551
0.0031361039
0.3099958
0.005407318
0.31289061
0.0069169314
0.31710934
0.0074950094
0.32207542
0.0076063219
0.32747756
0.0070938383
0.33180608
0.006779371
0.33426948
0.0079096235
0.33537129
0.0097486619
0.33503421
0.012883663
0.017289706
0.33614253
0.34024063
0.0007168856
0.34027916
-0.00055241059
0.33946207
-0.0014278155
0.3382321
-0.0023788705
0.33700572
-0.0027632461
0.33599524
-0.0022715363
0.33535346
-0.0011287853
0.33549666
0.00025846162
0.33674188
0.001890877
0.33898351
0.0031656842
0.34178784
0.0041126016
0.3450636
0.0042192494
0.34802871
0.0046412189
0.35061367
0.0045088758
0.35177263
0.005620409
0.35338569
0.0062965664
0.35544846
0.0076858871
0.35959596
0.0087361641
0.009422618
0.36746305
0.36646963
0.36591722
0.3644894
0.36211053
0.35934728
0.35707575
0.35594696
0.35620542
0.3580963
0.36126198
0.36537458
0.36959383
0.37423505
0.37874393
0.38436434
0.3906609
0.39834679
0.40708295
0.41650557
0.068258768
0.077969795
-0.073587114
0.063625957
0.08233713
-0.077704319
0.058696796
0.086789471
-0.081860309
0.053092879
0.092069878
-0.086465961
0.04745314
0.097335783
-0.091696044
0.040564705
0.10355518
-0.096666748
0.031975733
0.1102548
-0.10166583
0.018883669
0.11539085
-0.10229878
-0.000432978
0.1154237
-0.096107051
-0.02215883
0.11256071
-0.090834853
-0.044392304
0.10969671
-0.087463236
-0.068774326
0.10169014
-0.077308118
-0.092368133
0.08702972
-0.063435912
-0.11216789
0.071526259
-0.051726504
-0.12644953
0.056003147
-0.041721509
-0.13491781
0.041704793
-0.033236506
-0.13843639
0.0278391
-0.024320519
-0.13820411
0.014795501
-0.015027781
0.0048722588
-0.13478355
-0.008292823
0.077961107
0.081502862
0.074317232
0.085981004
0.070620901
0.090485802
0.066784846
0.095905933
0.063350219
0.10077041
0.059753956
0.10715145
0.056615588
0.11339317
0.052128841
0.11987759
0.043809975
0.12374256
0.031982725
0.12438796
0.019350288
0.12232915
0.0042041475
0.11683628
-0.01519325
0.10642712
-0.035525294
0.091858303
-0.053948501
0.074426354
-0.068867065
0.056623358
-0.081340486
0.040312521
-0.092578718
0.026033733
0.014097345
-0.1018038
0.089549916
0.084293808
0.087212696
0.088318225
0.084961517
0.092736981
0.083531624
0.097335826
0.082184106
0.10211793
0.082323278
0.10701227
0.083209851
0.1125066
0.08530557
0.11778187
0.086576754
0.12247138
0.086379918
0.12458479
0.084130352
0.12457871
0.079574409
0.12139222
0.071619148
0.11438238
0.059951526
0.10352592
0.045129645
0.089248234
0.027996878
0.073756125
0.010202168
0.058107232
-0.0075338518
0.043769753
0.031702761
-0.025139268
0.10347274
0.086301673
0.1020386
0.089752364
0.10086098
0.093914596
0.100934
0.097262806
0.1014929
0.10155903
0.1033954
0.10510978
0.10631102
0.10959098
0.11080235
0.11329054
0.11631304
0.11696069
0.12213591
0.11876192
0.12660714
0.12010748
0.1291909
0.11880847
0.12927054
0.11430274
0.1253507
0.10744576
0.11734547
0.097253471
0.10525596
0.08584563
0.089677013
0.07368618
0.071703144
0.061743622
0.051060949
0.052344956
0.11738984
0.087809385
0.11659375
0.090548449
0.11634419
0.094164163
0.11650102
0.097105975
0.11813002
0.099930033
0.12021314
0.10302666
0.12367864
0.10612548
0.12838937
0.1085798
0.13441604
0.11093403
0.14093379
0.11224416
0.14765508
0.11338619
0.15373043
0.11273312
0.15778548
0.11024769
0.15867799
0.10655325
0.15558819
0.10034326
0.14917387
0.092259951
0.13854921
0.084310847
0.12466576
0.075627064
0.067762427
0.10796429
0.12993233
0.089080799
0.12933611
0.091144677
0.12928426
0.094216006
0.12959226
0.096797976
0.1310716
0.098450696
0.132999
0.10109926
0.13599442
0.10313006
0.13983131
0.10474292
0.14503752
0.10572781
0.15051698
0.10676471
0.15636053
0.10754263
0.16209807
0.10699558
0.16660451
0.10574125
0.17004713
0.10311063
0.17017306
0.10021734
0.16692955
0.095503457
0.16073423
0.090506166
0.15165277
0.084708525
0.079609695
0.1398055
0.14096038
0.090487409
0.13983803
0.092267022
0.13932187
0.094732163
0.1396463
0.096473554
0.14039412
0.097702875
0.14201106
0.099482312
0.14403092
0.1011102
0.14691845
0.10185538
0.15083809
0.10180817
0.15460922
0.10299358
0.15893002
0.10322183
0.16368656
0.10223904
0.16850396
0.10092385
0.17222127
0.099393323
0.17413144
0.098307169
0.17345075
0.096184146
0.17043389
0.093523022
0.16499311
0.090149305
0.086927339
0.15767546
0.149709
0.092223796
0.14816434
0.093811683
0.14711177
0.095784731
0.14690661
0.096678713
0.14666243
0.097947063
0.14753396
0.098610774
0.14889291
0.099751257
0.15107162
0.099676677
0.15328609
0.0995937
0.15607444
0.10020523
0.15954152
0.099754748
0.16322741
0.098553153
0.16617285
0.097978415
0.16823914
0.097327033
0.17038495
0.096161364
0.17211288
0.094456213
0.17242031
0.093215592
0.16988653
0.092683079
0.092113383
0.16470049
0.15570216
0.094648024
0.1533723
0.096141542
0.15207247
0.097084561
0.15101594
0.097735237
0.15021759
0.098745411
0.15025445
0.098573914
0.15076183
0.099243882
0.15189345
0.098545061
0.15318605
0.098301101
0.15540334
0.097987942
0.15730938
0.097848702
0.15995646
0.095906071
0.16256123
0.095373645
0.16618484
0.093703432
0.16906986
0.093276337
0.17060769
0.09291839
0.17088511
0.092938169
0.17045473
0.093113462
0.093870423
0.16869769
0.15987546
0.098062852
0.15696872
0.099048286
0.15459861
0.099454671
0.15252139
0.09981245
0.1513048
0.099962007
0.15015246
0.099726252
0.15005966
0.099336681
0.15026895
0.09833577
0.15083169
0.09773836
0.15250422
0.096315411
0.15549272