/*--------------------------------*- C++ -*----------------------------------*\
  =========                 |
  \\      /  F ield         | OpenFOAM: The Open Source CFD Toolbox
   \\    /   O peration     | Website:  https://openfoam.org
    \\  /    A nd           | Version:  11
     \\/     M anipulation  |
\*---------------------------------------------------------------------------*/
FoamFile
{
    format      ascii;
    class       volVectorField;
    location    "19.9";
    object      U;
}
// * * * * * * * * * * * * * * * * * * * * * * * * * * * * * * * * * * * * * //

dimensions      [0 1 -1 0 0 0 0];

internalField   nonuniform List<vector> 
5472
(
(10.109546 2.5484106 1.7592617e-18)
(10.297853 2.5583816 -1.8319108e-18)
(10.47539 2.5618455 -1.858887e-18)
(10.685392 2.5327393 -1.897351e-18)
(10.841776 2.4989179 5.8936517e-18)
(11.047082 2.4355862 -3.0934992e-20)
(11.202807 2.3906563 -3.1253627e-18)
(11.399445 2.2940394 1.0876233e-18)
(11.505502 2.2123107 0)
(11.708359 2.1162889 0)
(11.830849 1.9943238 0)
(11.963455 1.886019 -3.4647376e-18)
(12.11712 1.7457491 1.7817311e-18)
(12.193786 1.6062529 -1.9246221e-20)
(12.323696 1.4565138 1.2151717e-18)
(12.386104 1.2954371 -6.2362535e-19)
(12.47311 1.1503451 -9.3883295e-19)
(12.528557 0.98385655 3.2052833e-19)
(12.575606 0.8472549 0)
(10.143029 2.3479622 -1.6065423e-18)
(10.294368 2.3605321 3.3197348e-18)
(10.471609 2.3614601 -1.7154968e-18)
(10.63203 2.3243142 -1.7348462e-18)
(10.809745 2.3288858 2.0792979e-20)
(10.983171 2.2534317 0)
(11.146465 2.2187633 1.8761148e-18)
(11.278934 2.1439885 -3.8377858e-18)
(11.459458 2.0806734 4.9625497e-18)
(11.626236 1.9735609 1.0158857e-18)
(11.733084 1.8948675 0)
(11.909524 1.7615157 2.1211016e-18)
(12.000834 1.6547527 0)
(12.115405 1.5138541 5.4186407e-19)
(12.220945 1.3865738 -5.5819626e-19)
(12.291845 1.2376894 0)
(12.382521 1.1072587 0)
(12.418665 0.96315532 -2.8316198e-19)
(12.495008 0.81396099 0)
(10.096384 2.1873316 0)
(10.254845 2.1976419 1.5088735e-18)
(10.429799 2.2095135 1.549214e-18)
(10.566887 2.218012 0)
(10.752337 2.1961769 -1.6536725e-20)
(10.913619 2.1519682 -2.3049068e-20)
(11.037549 2.1445905 -1.72182e-18)
(11.235759 2.0544654 0)
(11.400963 2.0124439 -1.7819145e-18)
(11.536527 1.91942 -4.571816e-18)
(11.688222 1.839277 1.068177e-20)
(11.810884 1.7279949 -9.3627112e-19)
(11.912924 1.6261879 -9.6555317e-19)
(12.039739 1.4959527 1.9784417e-18)
(12.119241 1.3757278 1.4982992e-18)
(12.224288 1.2424932 5.060121e-19)
(12.281372 1.1073698 2.5391913e-19)
(12.353002 0.96678195 -3.8390706e-19)
(12.399411 0.82577296 1.2812493e-19)
(10.110802 2.0037547 0)
(10.30431 2.0244922 -1.361165e-18)
(10.401729 2.0514329 -1.3967954e-18)
(10.572919 2.0434657 2.8557031e-18)
(10.726619 2.042655 -1.4974106e-18)
(10.822192 2.0242392 0)
(11.021529 1.9753999 -1.5520241e-18)
(11.166775 1.9216546 1.5738359e-18)
(11.297378 1.8881417 -1.6296505e-18)
(11.442276 1.7862472 -1.6299271e-20)
(11.555133 1.7387288 -1.6947479e-18)
(11.694216 1.6190879 0)
(11.808536 1.5413523 0)
(11.924605 1.4007596 -8.8064158e-19)
(12.027505 1.3041732 -8.9193389e-19)
(12.121806 1.1631491 0)
(12.195562 1.0395375 -2.2776045e-19)
(12.268735 0.91140098 1.1516799e-19)
(12.316677 0.76726142 2.2999741e-19)
(10.115521 1.8411438 0)
(10.23772 1.883994 0)
(10.355685 1.9163488 0)
(10.519822 1.9241497 -2.5826163e-18)
(10.607823 1.9264094 1.3420254e-18)
(10.79159 1.8937256 -4.0784443e-18)
(10.948462 1.8807577 5.5939777e-18)
(11.054965 1.8496592 -2.8591156e-18)
(11.217678 1.7983033 2.8883381e-21)
(11.338718 1.741924 1.4829634e-18)
(11.484624 1.6784539 1.5108518e-18)
(11.627026 1.5753843 -3.0897432e-18)
(11.731623 1.5088334 2.3581436e-18)
(11.855592 1.3779228 -7.9890899e-19)
(11.948463 1.2933918 0)
(12.055363 1.1446581 8.1563088e-19)
(12.130392 1.0467437 -4.10519e-19)
(12.201683 0.89953365 2.0497942e-19)
(12.256461 0.77942132 -2.0439771e-19)
(10.11178 1.7110099 0)
(10.270466 1.7420568 -4.4381985e-18)
(10.351903 1.7680373 2.2938312e-18)
(10.501981 1.778757 2.3471354e-18)
(10.607359 1.7697425 1.1981442e-18)
(10.771895 1.7797127 -1.220843e-18)
(10.851428 1.7604496 2.5335436e-18)
(11.012986 1.7248437 1.280096e-18)
(11.147971 1.69156 2.6129663e-18)
(11.284951 1.6305616 -2.6806009e-18)
(11.422494 1.5696706 1.4405766e-20)
(11.521874 1.4903313 2.7743392e-18)
(11.651118 1.4093391 0)
(11.75421 1.2983421 -7.1586391e-19)
(11.865015 1.202039 7.1775746e-19)
(11.949634 1.0758877 -1.8132994e-18)
(12.038408 0.97888847 7.2973652e-19)
(12.091636 0.83862714 -1.8312463e-19)
(12.162106 0.73477849 2.9123046e-22)
(10.110581 1.5519502 3.9178956e-18)
(10.22772 1.602979 4.0041969e-18)
(10.315392 1.6384531 0)
(10.456298 1.6330543 -6.0543335e-21)
(10.537803 1.6654603 -4.3234821e-18)
(10.677254 1.6654787 4.4448844e-18)
(10.785575 1.6492648 0)
(10.963827 1.6363697 -1.1606266e-18)
(11.064087 1.5944684 -4.7084749e-18)
(11.213175 1.5622745 2.4183553e-18)
(11.324347 1.5093128 1.2172746e-18)
(11.456033 1.43581 -1.2487337e-18)
(11.578016 1.3684083 0)
(11.677957 1.2645907 6.3423574e-19)
(11.79956 1.1739401 0)
(11.874313 1.0619945 -6.4661277e-19)
(11.978924 0.94884891 9.7900531e-19)
(12.023017 0.83716978 7.3821496e-22)
(12.110955 0.7103812 -7.2472356e-22)
(10.151148 1.4532187 1.7537431e-18)
(10.24746 1.4627812 -3.5987198e-18)
(10.331154 1.5043732 -3.6786423e-18)
(10.43888 1.5267627 3.79319e-18)
(10.523398 1.5432313 -1.9495936e-18)
(10.677596 1.5304522 -1.9827047e-18)
(10.763196 1.5492133 0)
(10.90946 1.5182214 3.0986175e-18)
(10.98641 1.4998161 -1.1639823e-20)
(11.148446 1.4655129 -3.2211992e-18)
(11.232714 1.4073257 3.299015e-18)
(11.381292 1.3606818 0)
(11.466955 1.271001 0)
(11.601264 1.1978899 1.133376e-18)
(11.677815 1.0992514 -5.8022259e-19)
(11.773266 0.99866049 -1.1562945e-18)
(11.853154 0.89848894 2.9259493e-19)
(11.908863 0.7882718 2.9432486e-19)
(11.980652 0.6640529 7.2299088e-20)
(10.099234 1.3043193 -1.5728808e-18)
(10.192019 1.3474619 4.8312538e-18)
(10.289622 1.3830045 -4.9797142e-18)
(10.393688 1.388116 3.3951705e-18)
(10.479671 1.415595 0)
(10.596396 1.4283628 1.7725147e-18)
(10.684264 1.431034 -1.8274928e-18)
(10.846288 1.4226524 0)
(10.931448 1.4188899 9.3967503e-19)
(11.093316 1.3758928 -1.9400183e-18)
(11.16928 1.3388554 -9.7357807e-19)
(11.328468 1.2790591 -7.8621293e-21)
(11.397109 1.2167864 -3.013106e-18)
(11.542758 1.1449943 5.1669577e-19)
(11.603715 1.0490396 -5.0553004e-19)
(11.725695 0.96595488 1.031529e-18)
(11.77438 0.85189236 -5.1528109e-19)
(11.872847 0.75909307 2.6236389e-19)
(11.916712 0.63228969 2.5848987e-19)
(10.17045 1.1783277 -2.8268119e-18)
(10.244391 1.2183353 0)
(10.326321 1.2684115 1.4811845e-18)
(10.398745 1.2911869 -4.5450255e-18)
(10.483437 1.3180429 1.5642163e-18)
(10.583871 1.3042441 -1.5934917e-18)
(10.672777 1.3309787 1.6183086e-18)
(10.788294 1.3159568 -1.6647203e-18)
(10.869703 1.3167101 0)
(11.004555 1.2830359 8.5531797e-19)
(11.075126 1.2636284 0)
(11.215313 1.2101548 8.7901546e-19)
(11.280498 1.1595279 2.3593057e-23)
(11.429971 1.0821154 -4.4797559e-19)
(11.485621 1.006303 4.520248e-19)
(11.622298 0.91224789 4.5536461e-19)
(11.657804 0.81098926 -2.2542061e-21)
(11.772547 0.71617981 -6.8877232e-19)
(11.78995 0.5866465 0)
(10.117897 1.0605244 0)
(10.182054 1.111977 1.2914446e-18)
(10.26612 1.1492331 0)
(10.331464 1.1704628 1.3474858e-18)
(10.428309 1.1950314 -4.1658228e-18)
(10.503735 1.2163046 4.26526e-18)
(10.602183 1.2243318 -1.4353355e-18)
(10.707823 1.2218215 4.444945e-18)
(10.808355 1.2253764 0)
(10.935762 1.1960028 7.6549459e-19)
(11.028875 1.1761169 0)
(11.175738 1.1101854 -1.5621953e-18)
(11.2563 1.0748367 3.1709191e-18)
(11.399539 0.9966493 -6.5919155e-21)
(11.458821 0.94376259 -4.0395563e-19)
(11.582813 0.85012595 0)
(11.616833 0.77820706 0)
(11.725241 0.66927899 0)
(11.737684 0.56669583 -5.0840301e-20)
(10.154737 0.96060185 4.491683e-18)
(10.226386 1.0153683 -5.7753277e-18)
(10.289442 1.0412207 2.3563051e-18)
(10.345084 1.0736318 -6.2225743e-21)
(10.427642 1.0967106 0)
(10.493479 1.112695 -2.5186919e-18)
(10.592081 1.1338648 1.299729e-18)
(10.672505 1.1349881 -1.310564e-18)
(10.773616 1.1347718 0)
(10.85423 1.1197065 -6.7636073e-19)
(10.959541 1.0990027 1.3696067e-18)
(11.058021 1.0603265 -1.0985229e-20)
(11.147063 1.019879 -1.4108459e-18)
(11.268967 0.95292222 -2.8282053e-18)
(11.34387 0.89780669 2.4965257e-18)
(11.460275 0.80344792 -1.4326818e-18)
(11.510909 0.73732933 9.0033553e-19)
(11.614005 0.61962621 1.8039912e-19)
(11.636309 0.54036088 4.4621693e-20)
(10.124463 0.84942972 -7.0149783e-18)
(10.182909 0.89329849 4.1166957e-18)
(10.23782 0.9324134 0)
(10.302135 0.97113567 -5.3681268e-18)
(10.378618 0.98829048 4.4091631e-18)
(10.446477 1.0155786 1.1236533e-18)
(10.542368 1.0204102 3.4278448e-18)
(10.628369 1.0375254 -2.3382479e-18)
(10.732755 1.0438646 -2.953687e-18)
(10.818553 1.0317178 1.8105432e-18)
(10.936858 1.0107369 2.4265683e-18)
(11.01529 0.9743696 -3.699493e-18)
(11.124011 0.92913268 2.4867464e-18)
(11.211178 0.87819445 -6.3294703e-19)
(11.302752 0.82219786 3.1226657e-19)
(11.388626 0.75186965 -3.5967346e-21)
(11.466663 0.68156671 -7.9395821e-19)
(11.544897 0.58603271 -1.5816592e-19)
(11.594692 0.50111209 -3.9640852e-20)
(10.151674 0.76582078 2.6810045e-18)
(10.199819 0.79724936 3.6477206e-18)
(10.244809 0.84213348 -3.7447759e-18)
(10.304879 0.87633107 9.5564278e-19)
(10.3586 0.90752435 -2.9184261e-18)
(10.421093 0.93340254 2.9979863e-18)
(10.490457 0.94160422 1.0098886e-18)
(10.563189 0.9548075 -5.1623718e-18)
(10.654292 0.95535715 3.6677224e-18)
(10.739074 0.95656938 -1.6036803e-18)
(10.85127 0.94406635 0)
(10.932751 0.9247418 -5.4532205e-19)
(11.049565 0.87690665 -1.644212e-18)
(11.132872 0.83059864 5.615088e-19)
(11.232208 0.76708897 1.6707112e-18)
(11.304891 0.70133928 5.5641521e-19)
(11.395278 0.62528241 -1.1183666e-18)
(11.447141 0.54673357 2.8138707e-19)
(11.522841 0.45364039 3.1377305e-19)
(10.100163 0.66471091 -3.9540104e-18)
(10.164605 0.69815363 3.2501171e-18)
(10.21775 0.73612994 0)
(10.279723 0.76095822 -8.4709545e-19)
(10.339187 0.79970308 3.4521953e-18)
(10.410833 0.83337233 -7.051919e-18)
(10.484141 0.8567352 9.1676904e-19)
(10.563501 0.86573044 3.6652423e-18)
(10.63492 0.8663269 2.7835167e-18)
(10.712757 0.86207433 -4.7027572e-19)
(10.800075 0.84889104 0)
(10.885176 0.83257287 2.3922887e-18)
(10.989968 0.79543098 -9.746388e-19)
(11.067124 0.76496854 9.7359493e-19)
(11.156862 0.70602063 -1.4713443e-18)
(11.229436 0.65209371 -2.4615043e-19)
(11.311189 0.57724101 0)
(11.36293 0.50391087 0)
(11.443669 0.40817627 -3.0709607e-20)
(10.133844 0.57982407 6.8977291e-19)
(10.173294 0.62585296 -6.4808691e-18)
(10.20151 0.66220823 2.9351738e-18)
(10.24572 0.68525393 -3.7551977e-18)
(10.293185 0.71319355 -7.6479128e-19)
(10.356836 0.73914879 0)
(10.426317 0.77363692 -3.9561997e-18)
(10.502946 0.79543669 2.425559e-18)
(10.582148 0.80660449 -8.1815421e-19)
(10.666555 0.79776516 -1.2104353e-21)
(10.745316 0.78778778 0)
(10.831537 0.76920538 0)
(10.918276 0.7383026 -4.2485963e-19)
(11.003934 0.7080468 -4.2735076e-19)
(11.086992 0.65302915 2.1461799e-19)
(11.16582 0.60130961 1.2926559e-18)
(11.240238 0.53142621 -8.6666515e-19)
(11.302551 0.46108601 1.0833546e-19)
(11.37241 0.37184493 2.6829006e-20)
(10.114263 0.47082615 4.3539047e-18)
(10.147938 0.52321096 -4.4628292e-18)
(10.203786 0.55951305 0)
(10.248145 0.59619309 6.6302159e-19)
(10.295137 0.62140536 0)
(10.35017 0.64397563 6.8797203e-19)
(10.404633 0.67243307 6.9952722e-19)
(10.469675 0.69360962 0)
(10.54203 0.71161523 3.590637e-18)
(10.614349 0.71490123 -2.5582729e-18)
(10.69366 0.7128176 1.8371136e-18)
(10.779044 0.69533637 -1.4901128e-18)
(10.861006 0.66924164 1.4919793e-18)
(10.945449 0.63851598 -8.5998106e-21)
(11.016616 0.59541628 -1.5152353e-18)
(11.093965 0.54460589 -1.8890727e-19)
(11.155082 0.48345148 -1.9000851e-19)
(11.223019 0.41254431 -9.4551556e-20)
(11.272367 0.33060848 0)
(10.109402 0.40191719 4.963805e-18)
(10.121603 0.45414438 0)
(10.168667 0.47676103 0)
(10.192599 0.52291783 5.8523802e-19)
(10.256045 0.54386563 0)
(10.298789 0.58459596 -6.057995e-19)
(10.364206 0.60102922 -6.152539e-19)
(10.423315 0.6248997 -2.4927518e-18)
(10.490961 0.63932174 2.5365268e-18)
(10.562067 0.64470429 0)
(10.641681 0.64639526 -2.902489e-18)
(10.721786 0.63569325 2.2888108e-18)
(10.804178 0.61623171 1.3090201e-18)
(10.886443 0.58766347 -2.6389864e-18)
(10.962507 0.54855383 2.6488549e-18)
(11.03878 0.49919011 -1.9929199e-18)
(11.102964 0.44163928 6.6518151e-19)
(11.174651 0.37386958 0)
(11.220791 0.2992746 0)
(10.09537 0.32112822 7.7976361e-18)
(10.12465 0.36286802 -3.9798303e-18)
(10.154905 0.39263142 4.0486292e-18)
(10.18607 0.42587073 -4.6463728e-18)
(10.231154 0.45439632 -4.1923202e-18)
(10.267481 0.48817702 4.2721959e-18)
(10.337497 0.51206487 2.1609999e-18)
(10.38665 0.54011691 -8.3235051e-21)
(10.460258 0.54724263 -2.226411e-18)
(10.524275 0.56146959 0)
(10.598806 0.55881466 0)
(10.67428 0.5589343 2.852832e-19)
(10.751566 0.54123904 0)
(10.827877 0.51967389 1.1523902e-18)
(10.899763 0.48891812 -1.1621633e-18)
(10.968948 0.44535643 -5.7942489e-19)
(11.03242 0.39253951 7.2740928e-19)
(11.090236 0.33064128 -3.6263691e-19)
(11.136717 0.26268305 2.8964616e-19)
(10.069283 0.25737577 0)
(10.106991 0.29626209 0)
(10.128495 0.32909656 3.567067e-18)
(10.171319 0.36495481 -3.6351418e-18)
(10.20406 0.39140795 4.1486115e-18)
(10.252491 0.42189998 -4.221762e-18)
(10.303877 0.44683121 0)
(10.3491 0.47477098 4.8159959e-19)
(10.413651 0.48906345 1.9443458e-18)
(10.471545 0.50272966 -1.9722712e-18)
(10.548454 0.50212887 1.9808112e-18)
(10.620541 0.5007737 -9.790155e-21)
(10.702398 0.48338601 -4.022359e-18)
(10.774 0.46682195 2.0248986e-18)
(10.851346 0.43544124 0)
(10.918651 0.39797322 -1.0124936e-18)
(10.98554 0.35032256 1.587495e-18)
(11.043213 0.29208687 -6.9810775e-19)
(11.089249 0.2268797 2.5294124e-19)
(10.063822 0.18219693 1.1747774e-17)
(10.084165 0.21553231 -6.1820053e-18)
(10.105714 0.24331566 0)
(10.144115 0.27472508 -3.9918403e-19)
(10.174719 0.30851173 -4.0527928e-19)
(10.229261 0.33848781 4.1107725e-19)
(10.271516 0.36808907 0)
(10.331829 0.38859462 -4.2154424e-19)
(10.382156 0.40692086 3.4051353e-18)
(10.446278 0.41925884 -3.4507141e-18)
(10.506232 0.42616599 0)
(10.578004 0.42769847 0)
(10.646835 0.4177942 2.1986445e-19)
(10.715032 0.40348387 1.1036716e-19)
(10.788257 0.3804099 -1.1065987e-19)
(10.847047 0.34811856 0)
(10.911803 0.30819511 -4.9722226e-19)
(10.961833 0.25872718 4.4328456e-19)
(11.007642 0.200415 0)
(10.047332 0.13484163 -1.0676859e-17)
(10.065899 0.16453846 1.1207519e-17)
(10.090591 0.18925709 -6.8516358e-21)
(10.113717 0.21737411 -5.2610298e-18)
(10.145444 0.24233931 0)
(10.185157 0.27441509 2.8798441e-18)
(10.228931 0.30022493 -6.021024e-18)
(10.282015 0.32649807 2.9569059e-18)
(10.33709 0.34520581 0)
(10.400675 0.35641195 -3.0037837e-18)
(10.464182 0.36396408 3.0381407e-18)
(10.540193 0.36315947 1.5219879e-18)
(10.603624 0.35964596 -1.5356115e-18)
(10.683314 0.34214463 1.3422796e-18)
(10.745576 0.32438525 -1.4486812e-18)
(10.817693 0.29374923 0)
(10.873544 0.25739202 -4.8278252e-20)
(10.929379 0.21008145 -1.4411182e-19)
(10.969676 0.15566173 2.0416151e-19)
(10.041489 0.077515408 2.9367882e-19)
(10.058868 0.10105457 -5.9688064e-19)
(10.076389 0.12437186 4.8445077e-18)
(10.098895 0.15149757 3.0047174e-19)
(10.126826 0.17577961 -3.2043307e-19)
(10.161938 0.20184473 -5.0537989e-18)
(10.203761 0.22816584 1.5956702e-19)
(10.246604 0.24844138 2.7391064e-18)
(10.302982 0.26959088 -2.6097661e-18)
(10.353549 0.28625854 -1.6431139e-19)
(10.419872 0.29406123 0)
(10.482409 0.30072251 2.8219908e-18)
(10.549961 0.29645068 -2.8450294e-18)
(10.623555 0.29008621 -1.2535933e-18)
(10.685118 0.27616855 8.9845545e-20)
(10.757132 0.25678179 2.0168284e-18)
(10.811314 0.23187607 -6.3101509e-19)
(10.871801 0.19381667 -6.2835157e-20)
(10.91 0.15390738 -1.0419445e-20)
(10.017374 0.051879723 0)
(10.031778 0.065923332 2.6190249e-19)
(10.043664 0.082115325 4.2483754e-18)
(10.066576 0.10155629 -4.7153256e-18)
(10.09402 0.12238862 4.4964935e-18)
(10.131272 0.14434694 -4.4199074e-18)
(10.172574 0.16543068 1.3957258e-19)
(10.22116 0.18468478 -1.4080702e-19)
(10.272318 0.20184255 2.1277631e-18)
(10.329931 0.21555677 -2.151144e-18)
(10.395296 0.22398996 2.1561211e-18)
(10.459272 0.22695746 -2.3929133e-18)
(10.530046 0.22302343 0)
(10.593002 0.21304268 1.162962e-18)
(10.66021 0.19839323 -1.3155571e-18)
(10.720718 0.17838552 5.8261595e-19)
(10.777595 0.15244799 -5.4814616e-19)
(10.829419 0.12164817 -2.5441459e-19)
(10.869234 0.085347296 2.9507929e-19)
(10.019768 0.02614137 -4.4153537e-21)
(10.031708 0.03325828 -7.3502411e-18)
(10.043885 0.043380269 1.16378e-19)
(10.057981 0.056246841 -5.5875996e-23)
(10.077549 0.06896601 1.1922755e-19)
(10.102794 0.089927877 0)
(10.134748 0.10595881 3.894153e-18)
(10.178156 0.12624366 -4.0614128e-18)
(10.220383 0.14162304 1.2383491e-19)
(10.276644 0.15724994 -1.9315954e-18)
(10.334416 0.16940085 4.0798503e-18)
(10.399485 0.17843652 -4.0352269e-18)
(10.471866 0.18342512 2.0283098e-18)
(10.540285 0.18274137 0)
(10.611778 0.17854717 -9.8097418e-19)
(10.67515 0.16868726 1.0168869e-18)
(10.734696 0.15387615 -1.5797367e-20)
(10.787749 0.13052832 2.344468e-23)
(10.829438 0.10499026 -3.9312867e-21)
(10.006316 0.011824965 6.4021793e-18)
(10.012801 0.017218096 -6.4325429e-18)
(10.022555 0.023572118 6.4168054e-18)
(10.036968 0.028322361 1.0300042e-19)
(10.055117 0.034665459 0)
(10.079475 0.042713856 0)
(10.113206 0.050357509 -5.3023875e-20)
(10.153622 0.058614169 -3.3695467e-18)
(10.202859 0.065311542 3.5106738e-18)
(10.259635 0.070905559 3.4404357e-18)
(10.320017 0.07568838 -1.6723392e-18)
(10.388168 0.076212635 -1.8373417e-18)
(10.456229 0.074180124 0)
(10.526883 0.070055492 2.7529826e-20)
(10.596784 0.064607708 2.7494328e-20)
(10.659647 0.057012355 8.6414837e-19)
(10.718534 0.04630021 -8.9419074e-19)
(10.766133 0.031864032 1.9833699e-19)
(10.805996 0.015557274 -2.1868955e-19)
(10.005321 0.0024051086 -4.3088134e-20)
(10.009483 0.0040706818 5.5663343e-18)
(10.016796 0.0070589237 -3.1367795e-21)
(10.027704 0.011376374 -4.4657688e-21)
(10.042998 0.016427855 -5.7604171e-18)
(10.064144 0.021972396 0)
(10.092432 0.027809834 2.8842094e-18)
(10.12855 0.033588553 -2.9121651e-18)
(10.172587 0.039052404 -4.6420399e-20)
(10.224034 0.0437821 -2.3336915e-20)
(10.282652 0.047698099 -2.3438795e-20)
(10.346125 0.051540194 2.3522713e-20)
(10.41018 0.056290959 0)
(10.476362 0.062061889 1.4922613e-18)
(10.543133 0.065099517 -1.5281164e-18)
(10.607168 0.069888383 -7.4918341e-19)
(10.68131 0.07054617 7.6339871e-19)
(10.72601 0.060524534 3.8528039e-19)
(10.784142 0.062014213 -3.7900021e-19)
(12.631029 0.70191772 -1.5449004e-19)
(12.642641 0.57257019 -6.1863777e-19)
(12.689442 0.44121204 6.0271443e-19)
(12.678988 0.32571186 0)
(12.689329 0.20317904 -1.1353475e-18)
(12.665702 0.10127792 -2.187749e-18)
(12.667876 0.0060957755 0)
(12.64508 -0.08048987 -1.6809819e-20)
(12.621338 -0.17309993 3.7108321e-18)
(12.601038 -0.24554735 1.762936e-18)
(12.57104 -0.32533081 -1.6440692e-18)
(12.557826 -0.37850537 3.1292981e-18)
(12.544075 -0.4337915 -2.9174412e-18)
(12.541013 -0.46966819 0)
(12.548873 -0.50042127 1.3088917e-18)
(12.574274 -0.51091431 -1.2313964e-18)
(12.618549 -0.50857871 -2.352875e-18)
(12.685875 -0.49056603 2.2232224e-18)
(12.73734 -0.45125987 -1.0639703e-18)
(12.504119 0.67074721 -1.3337019e-19)
(12.557611 0.52098741 7.9745183e-19)
(12.558049 0.3803293 -5.2186084e-19)
(12.581878 0.25427779 0)
(12.595484 0.13906533 -9.9125489e-19)
(12.563855 0.020431728 2.8478751e-18)
(12.5929 -0.071057207 0)
(12.555375 -0.16099998 0)
(12.574742 -0.23693308 0)
(12.558317 -0.30201188 0)
(12.548072 -0.36816385 2.9268899e-18)
(12.534348 -0.41250244 -4.1464363e-18)
(12.530612 -0.46588011 -3.9434561e-18)
(12.524861 -0.49777145 2.4606034e-18)
(12.540331 -0.52925925 -2.332388e-18)
(12.570253 -0.54711999 2.2081037e-18)
(12.639761 -0.55615091 5.677902e-21)
(12.729677 -0.56109618 -1.9951904e-18)
(12.843283 -0.58248742 1.8874325e-18)
(12.429768 0.6822989 0)
(12.477734 0.53858311 -4.6167647e-19)
(12.468906 0.38966123 -9.070804e-19)
(12.509949 0.26383824 -4.3214565e-21)
(12.493587 0.13770792 -6.2973167e-21)
(12.491753 0.013686781 1.6748162e-18)
(12.48571 -0.07821785 -3.1934275e-18)
(12.449969 -0.19832979 1.521736e-18)
(12.468634 -0.25777842 1.2650916e-20)
(12.443451 -0.35352073 0)
(12.463468 -0.40694069 3.95535e-18)
(12.459635 -0.48088154 8.80489e-21)
(12.478629 -0.52416579 2.3646593e-18)
(12.496477 -0.57518401 2.2435457e-18)
(12.545697 -0.61393793 3.1743585e-18)
(12.577238 -0.64946933 -3.9838434e-18)
(12.673239 -0.69321393 -5.6768041e-21)
(12.74922 -0.72955059 3.5730347e-18)
(12.88512 -0.83570939 1.6789026e-18)
(12.364509 0.62845168 3.9973486e-19)
(12.394834 0.4804129 -7.9704141e-19)
(12.410909 0.33399767 1.1751045e-18)
(12.42335 0.20338088 0)
(12.419823 0.077989774 2.2434444e-18)
(12.410273 -0.040253322 -3.6180159e-18)
(12.399657 -0.14877869 2.7948971e-18)
(12.374498 -0.24632599 -8.8381592e-22)
(12.387187 -0.32748567 1.13226e-20)
(12.344072 -0.41196883 -1.2314828e-18)
(12.387323 -0.48954173 0)
(12.362652 -0.5422583 -1.1064619e-18)
(12.390579 -0.62049762 1.0615785e-18)
(12.429637 -0.66645315 -1.9937563e-18)
(12.463991 -0.75381827 0)
(12.562692 -0.79858289 0)
(12.625923 -0.90544528 -1.6931994e-18)
(12.714712 -0.99232476 0)
(12.845579 -1.1337391 1.5014245e-18)
(12.303198 0.62748924 3.4498594e-19)
(12.34273 0.48693129 -3.4285735e-19)
(12.365995 0.32803959 2.9287362e-21)
(12.373585 0.20972549 -6.6560814e-19)
(12.369885 0.066225361 6.425369e-19)
(12.366311 -0.041507607 -1.4459803e-22)
(12.344599 -0.16354343 -1.2163772e-18)
(12.341266 -0.25323048 0)
(12.318796 -0.34668705 -2.2591995e-18)
(12.313353 -0.43073706 1.0766888e-18)
(12.314092 -0.50606582 0)
(12.335256 -0.5757957 0)
(12.328715 -0.67217655 -1.8665628e-18)
(12.404292 -0.73334764 -1.7738904e-18)
(12.402216 -0.8534604 1.6780959e-18)
(12.528407 -0.93384013 3.176289e-18)
(12.530909 -1.0883189 1.494732e-18)
(12.685007 -1.2196611 -1.4273163e-18)
(12.66818 -1.4524846 8.3141365e-21)
(12.193663 0.57010439 0)
(12.25719 0.44608114 2.9741893e-19)
(12.261098 0.27591464 -1.4643159e-18)
(12.287879 0.15888586 5.7568193e-19)
(12.26917 0.0041504465 1.6919004e-18)
(12.277065 -0.09236639 -1.1029111e-18)
(12.240818 -0.22883697 -2.1395351e-18)
(12.256449 -0.30020091 2.0486814e-18)
(12.214384 -0.41812112 -1.0020286e-18)
(12.234729 -0.48263144 1.8950814e-18)
(12.216306 -0.58826725 0)
(12.260715 -0.65693531 0)
(12.22897 -0.76634756 -1.6543397e-18)
(12.313977 -0.86325812 4.7140553e-18)
(12.274227 -0.99098296 -5.9457799e-18)
(12.393862 -1.1225341 2.8188411e-18)
(12.339858 -1.2915258 -5.3424979e-18)
(12.467445 -1.4657632 1.2638939e-18)
(12.376809 -1.7398115 2.3866868e-18)
(12.128944 0.56856799 6.447416e-20)
(12.215911 0.42097693 2.5745348e-19)
(12.184371 0.2670708 -5.0555162e-19)
(12.242107 0.13715833 0)
(12.200909 -0.0028419112 -9.8151349e-19)
(12.22954 -0.11839803 2.8682943e-18)
(12.186539 -0.24162978 -1.8512526e-18)
(12.204349 -0.32867644 9.0265337e-19)
(12.154659 -0.44574303 -1.7424558e-18)
(12.189116 -0.52301407 5.0134122e-18)
(12.148406 -0.63949571 -3.1940528e-18)
(12.199235 -0.72685969 0)
(12.157185 -0.85828764 1.4585065e-18)
(12.2196 -0.97069563 2.7817121e-18)
(12.162834 -1.12599 -3.965357e-18)
(12.237653 -1.283597 3.7614004e-18)
(12.140817 -1.4666284 -3.5680966e-18)
(12.198184 -1.671239 -2.2408644e-18)
(12.020932 -1.9277032 -1.0502215e-18)
(12.019591 0.5368494 1.665424e-19)
(12.09545 0.37285702 2.2130326e-19)
(12.078264 0.23373086 -4.3691777e-19)
(12.155453 0.078777446 0)
(12.091542 -0.047031765 1.6950176e-18)
(12.153322 -0.181192 -8.3167322e-19)
(12.069832 -0.28180375 0)
(12.118002 -0.39599169 -1.5692997e-18)
(12.042596 -0.50000868 7.6114687e-19)
(12.094353 -0.60571612 0)
(12.02867 -0.71940069 -1.409192e-18)
(12.082973 -0.83482245 1.3499155e-18)
(12.011325 -0.96726088 1.2900444e-18)
(12.058964 -1.1044064 -2.4575032e-18)
(11.961848 -1.2688262 2.3417209e-18)
(11.982957 -1.4314829 -1.1135455e-18)
(11.841314 -1.6276335 -1.063325e-18)
(11.818028 -1.8033264 -1.0113902e-18)
(11.586618 -2.0466262 -9.644511e-19)
(12.004707 0.51038945 3.8224718e-19)
(12.022502 0.34331523 -1.8993432e-19)
(12.061748 0.21372475 0)
(12.063142 0.04889256 0)
(12.061703 -0.064707952 -1.467807e-18)
(12.06122 -0.21495837 1.4397015e-18)
(12.029224 -0.30239952 0)
(12.042472 -0.44835768 6.8221756e-19)
(11.983457 -0.5329491 -6.6148934e-19)
(12.01053 -0.6762629 0)
(11.922951 -0.77673718 1.2304361e-18)
(11.968777 -0.92479973 3.6661254e-21)
(11.859887 -1.0416307 3.2235156e-21)
(11.879451 -1.2172474 0)
(11.74766 -1.3557709 -4.1506719e-18)
(11.725754 -1.5343005 3.963102e-18)
(11.522441 -1.6916272 4.7300965e-18)
(11.444218 -1.8530019 -6.3366505e-18)
(11.182785 -2.0195092 4.3210022e-18)
(11.90207 0.4795069 0)
(11.900572 0.30395773 1.1737051e-21)
(11.98037 0.17780941 0)
(11.947818 0.0011252228 0)
(11.980618 -0.10315896 6.3327366e-19)
(11.935101 -0.26497452 3.7916056e-21)
(11.946964 -0.3501458 -6.1240628e-19)
(11.913532 -0.50818623 -1.7909115e-18)
(11.90055 -0.58956652 2.3075586e-18)
(11.866081 -0.75357271 0)
(11.822095 -0.83581314 -1.082125e-18)
(11.78763 -1.0176753 -6.243448e-18)
(11.693725 -1.115176 2.9974397e-18)
(11.65385 -1.3082772 0)
(11.479486 -1.4133125 -3.6793461e-18)
(11.415063 -1.5924762 4.4067569e-18)
(11.187253 -1.6819357 -3.3821403e-18)
(11.069248 -1.8277501 4.0488203e-18)
(10.763628 -1.8933466 0)
(11.849445 0.43298203 -2.8455164e-19)
(11.843804 0.28040692 1.4247482e-19)
(11.934108 0.14345436 0)
(11.895076 -0.021148063 -1.1171306e-18)
(11.933705 -0.13933355 1.6487044e-18)
(11.872238 -0.30047339 -5.3928524e-19)
(11.88823 -0.39785566 -1.5971781e-18)
(11.82863 -0.55725385 3.6248202e-18)
(11.81086 -0.64327457 -2.0103804e-18)
(11.743595 -0.80820414 0)
(11.695451 -0.89410559 9.4322422e-19)
(11.609805 -1.0863374 5.4763249e-18)
(11.506473 -1.1554992 -3.5133831e-18)
(11.392006 -1.3577649 0)
(11.21007 -1.4038947 0)
(11.088547 -1.5716186 -1.5656029e-18)
(10.825302 -1.5949678 7.5539744e-19)
(10.672863 -1.7044957 -2.172705e-18)
(10.334119 -1.6994848 0)
(11.741503 0.38618881 -2.4528774e-19)
(11.736942 0.26366355 7.3435033e-19)
(11.821113 0.088546689 -7.290353e-19)
(11.779652 -0.047241818 0)
(11.828177 -0.18587019 1.4325008e-18)
(11.756908 -0.3316779 -1.8685836e-18)
(11.783878 -0.44952573 0)
(11.69841 -0.58844181 9.0125454e-19)
(11.688916 -0.69082606 8.7825036e-19)
(11.583737 -0.84556421 0)
(11.532608 -0.93995273 0)
(11.395574 -1.1099399 -7.9841058e-19)
(11.296085 -1.1710837 -2.3201194e-18)
(11.122869 -1.3410945 -6.6388565e-21)
(10.965844 -1.33733 2.1545754e-18)
(10.762253 -1.4920809 1.3884274e-18)
(10.551957 -1.4236736 -6.6768435e-19)
(10.363449 -1.5172195 1.286177e-18)
(10.056004 -1.4074207 0)
(11.683476 0.35413749 0)
(11.696409 0.23502192 -8.4406574e-19)
(11.762317 0.037878123 1.6754652e-18)
(11.723112 -0.070198741 -1.2458751e-18)
(11.763103 -0.24359982 0)
(11.671779 -0.36271138 0)
(11.690142 -0.49657396 0)
(11.582127 -0.6206307 -7.7887122e-19)
(11.563584 -0.73725011 -7.6085103e-19)
(11.425196 -0.87223834 0)
(11.362643 -0.97369602 -7.2348748e-19)
(11.178674 -1.104589 -7.0214479e-19)
(11.069323 -1.155704 -6.772775e-19)
(10.838831 -1.2665384 2.6324294e-18)
(10.694573 -1.2482925 -2.5428078e-18)
(10.423592 -1.3344906 -6.1306177e-19)
(10.264942 -1.2190163 3.5719511e-18)
(10.027512 -1.2664223 -5.7405476e-18)
(9.8232784 -1.0634875 3.3308691e-18)
(11.5727 0.33530152 -4.5685788e-20)
(11.625173 0.19143103 9.111671e-20)
(11.655495 0.018838134 9.0342148e-19)
(11.64806 -0.093405118 -2.1535353e-18)
(11.652443 -0.27601671 1.0607365e-18)
(11.584749 -0.36693567 0)
(11.570556 -0.53899685 0)
(11.459589 -0.62725886 6.7806976e-19)
(11.426103 -0.76130262 -2.6546469e-18)
(11.258143 -0.86890187 -6.5597494e-19)
(11.176672 -0.96044677 6.2197703e-19)
(10.970894 -1.0481393 3.0617057e-18)
(10.857513 -1.0848603 5.968217e-19)
(10.617816 -1.1430787 0)
(10.483879 -1.0878321 1.6827991e-18)
(10.211904 -1.1063814 0)
(10.049141 -0.96642317 -3.1668893e-18)
(9.8149842 -0.95056277 9.1661424e-18)
(9.6783049 -0.70558919 -7.8846967e-18)
(11.481954 0.30287914 7.8478524e-20)
(11.554735 0.1403953 -7.8064694e-20)
(11.548391 -0.0054634587 0)
(11.569645 -0.14707379 -9.2982323e-19)
(11.530734 -0.30089024 3.0107285e-19)
(11.489446 -0.40696218 1.2079739e-18)
(11.429468 -0.57041665 0)
(11.330039 -0.63556197 -2.9356308e-18)
(11.256096 -0.789522 1.7209049e-18)
(11.08112 -0.83691144 -1.9681511e-21)
(10.975053 -0.93901185 0)
(10.745753 -0.97962221 0)
(10.62319 -0.99884498 -5.2088226e-19)
(10.377858 -0.97872297 0)
(10.265981 -0.9083149 3.6092008e-21)
(10.011542 -0.85368204 9.596491e-19)
(9.9203153 -0.69825916 -2.7926343e-18)
(9.6985339 -0.62844139 7.2057825e-18)
(9.6280772 -0.34929723 -3.4901409e-18)
(11.423647 0.27720087 2.3647716e-19)
(11.492525 0.11200869 -2.0231455e-19)
(11.489503 -0.018362393 0)
(11.51028 -0.17868485 0)
(11.444965 -0.30179328 0)
(11.418447 -0.43150596 0)
(11.31196 -0.55739095 -2.0670026e-18)
(11.233205 -0.63894188 2.0283003e-18)
(11.109578 -0.7575858 2.4975015e-18)
(10.966359 -0.7818528 -9.7566188e-19)
(10.817372 -0.88231271 0)
(10.601891 -0.84552502 3.7491544e-18)
(10.463575 -0.85120838 -6.8487994e-18)
(10.210677 -0.77310366 3.556087e-18)
(10.108972 -0.69747404 -4.3364378e-18)
(9.8812933 -0.57894857 2.5269819e-18)
(9.8502886 -0.42939719 -8.184875e-19)
(9.6656014 -0.29343416 -7.9561597e-19)
(9.6935449 -0.022391235 7.7078794e-19)
(11.337362 0.23341933 2.3255449e-19)
(11.379702 0.078189379 -7.5444303e-19)
(11.386624 -0.048494848 4.6173114e-19)
(11.386769 -0.20701714 -9.1893238e-19)
(11.334008 -0.31458808 9.0933294e-19)
(11.288939 -0.45844791 0)
(11.160374 -0.549913 -4.4636337e-19)
(11.077504 -0.64433643 1.7612204e-18)
(10.913951 -0.71273288 -1.7276326e-18)
(10.790084 -0.74035141 -4.2418288e-19)
(10.605148 -0.77766418 -3.3381945e-18)
(10.449905 -0.7030799 3.2589166e-18)
(10.289714 -0.69563013 -3.9827564e-19)
(10.10928 -0.55728766 2.3396703e-18)
(10.017564 -0.4810047 -2.2749683e-18)
(9.8405387 -0.30527399 0)
(9.8470173 -0.16126531 -5.7669944e-18)
(9.7155754 0.030619149 6.298857e-18)
(9.8363627 0.28832967 0)
(11.292564 0.20188489 -4.0017531e-19)
(11.322495 0.059341027 3.998648e-19)
(11.340427 -0.074874074 -7.9533452e-19)
(11.318933 -0.22376408 7.8958984e-19)