/*--------------------------------*- C++ -*----------------------------------*\
  =========                 |
  \\      /  F ield         | OpenFOAM: The Open Source CFD Toolbox
   \\    /   O peration     | Website:  https://openfoam.org
    \\  /    A nd           | Version:  11
     \\/     M anipulation  |
\*---------------------------------------------------------------------------*/
FoamFile
{
    format      ascii;
    class       volScalarField;
    location    "0.214";
    object      Ma;
}
// * * * * * * * * * * * * * * * * * * * * * * * * * * * * * * * * * * * * * //

dimensions      [0 0 0 0 0 0 0];

internalField   nonuniform List<scalar> 
880
(
1.443353270571932
1.443353270571599
1.443353269667874
1.44333756895072
1.443353270571932
1.443353270574872
1.443353265533383
1.443304587658301
1.443353270571931
1.443353270552541
1.443353227417776
1.443268708192019
1.443353270571931
1.443353271464473
1.443352819187949
1.442284192499254
1.443353270571932
1.443353270571932
1.443353270578323
1.443353305069422
1.443353285304927
1.443353235692778
1.443353182096113
1.443351625952245
1.44336167485485
1.443337100156719
1.442693991610985
1.444488796841366
1.42274662458062
1.375268866232162
1.347291084746303
1.338935359849506
1.443352712111565
1.443352253846812
1.443348871010258
1.443347528353525
1.443349422002135
1.443329804257413
1.443288417580165
1.443278761901958
1.441268112154037
1.438458924549363
1.435855184969326
1.433801820458213
1.334232888744559
1.32017413926277
1.321286869607287
1.306742563319997
1.336740799075204
1.374311649922145
1.408419804954324
1.430209381927083
1.427523687189785
1.418393040163192
1.417621263561543
1.423800418951585
1.443115985005804
1.442530014016501
1.441641451200103
1.441136437008112
1.44333485752535
1.443288391448785
1.443191016101237
1.443057759100472
1.442909190020129
1.442858495196942
1.442864769905246
1.442919841412118
1.441525632170247
1.442532992809289
1.443164827317988
1.443698938604614
1.432408733894639
1.439541046463913
1.444580799344306
1.448727699547514
1.441366404082998
1.450103659404564
1.461292880571681
1.469898790217594
1.472194828087589
1.450889855338167
1.44397663210338
1.443012991332323
1.473379500373127
1.451275785121807
1.443999839409581
1.44312902425537
1.467832096734125
1.451042520346354
1.443878723146576
1.443235704090994
1.409935844175898
1.448443713344335
1.443663081387211
1.443316826218418
1.443344799432336
1.443389530417635
1.439987312568585
1.152838102923094
1.443343404459433
1.443304177276502
1.42194909095738
0.9780680359674755
1.443333979636148
1.442906469021934
1.391998218834066
0.9248031531437583
1.443278930061883
1.44223170699964
1.35933430043134
0.9185921975164453
0.9232338343179483
1.322617842257869
1.440898192339021
1.44316780672548
0.9387558208523323
1.283047010834419
1.43828341225578
1.442951322277357
0.9531872164438158
1.244866000625628
1.43482564918313
1.442503310792452
0.9745471565941848
1.209133525793241
1.427854461683499
1.441789949810519
1.440566044744474
1.419440211332038
1.185456069616972
1.00150693355646
1.438759449680788
1.40574794996183
1.207193527410329
1.052754456166672
1.443106949099366
1.41426057852501
1.266628887958128
1.148803012056975
1.431449274878632
1.42516132309261
1.337096652873457
1.275918385865271
1.435978016640546
1.428026308419984
1.419852937883573
1.465743307639452
1.436711440423053
1.450659157891386
1.50562863659537
1.649357386202463
1.439226977455588
1.462138263876346
1.537802001989148
1.761111960217815
1.443026033675513
1.458813810107753
1.523381423401836
1.770587196950952
1.476269825858581
1.489028406202667
1.453134604218873
1.44421636291595
1.305540834807042
1.458326287145914
1.448214021975787
1.443776714602064
1.152519736048685
1.424587299224369
1.444424149396863
1.443571087269073
0.9771570033373342
1.390597843360484
1.440746314673027
1.443468938000828
0.9584415727121143
1.370376056080391
1.43940126157375
1.443360201453475
1.038710391135864
1.379248642384563
1.440515954597372
1.443332933833932
1.124480951689893
1.397875072834838
1.441773796497354
1.443344568294093
1.248746015229408
1.419485224943365
1.443072972863963
1.443350430759884
1.217779404867274
1.411998595576654
1.441431994690652
1.44331052590521
1.216332322801418
1.411396245890177
1.441489596974513
1.443312141267623
1.211981925912631
1.409691895976997
1.441430758176478
1.443314388565709
1.215436787150062
1.409197511737589
1.441596745589754
1.443323060789141
1.248746015226794
1.419485224945744
1.443072972870069
1.443350430744109
1.124480951685313
1.397875072833734
1.441773796515953
1.443344568299254
1.03871039113684
1.379248642380899
1.440515954598056
1.443332933834769
0.9584415727094503
1.37037605606822
1.439401261568973
1.443360201457435
1.44421636289635
1.45313460421843
1.489028406211776
1.476269825867761
1.443776714594412
1.448214021973286
1.458326287141678
1.30554083480004
1.44357108727646
1.444424149384747
1.424587299224719
1.152519736043345
1.443468938001269
1.440746314667215
1.390597843337898
0.9771570033337046
1.770587196984127
1.523381423421485
1.458813810126185
1.443026033690723
1.761111960223116
1.537802002004746
1.462138263885521
1.439226977466322
1.649357386199683
1.50562863659884
1.450659157874017
1.436711440375333
1.465743307636302
1.41985293787421
1.428026308386542
1.435978016868452
1.440566044745307
1.419440211329785
1.185456069609368
1.001506933550753
1.43875944967878
1.405747949927658
1.207193527407029
1.05275445616382
1.443106948849163
1.41426057855131
1.266628887973433
1.148803012056355
1.431449274911803
1.425161323110003
1.337096652860738
1.275918385862383
0.9745471565822598
1.209133525779634
1.427854461649207
1.441789949801787
0.9531872164290524
1.244866000609166
1.434825649208114
1.442503310787006
0.9387558208504888
1.283047010817335
1.438283412186204
1.442951322293678
0.9232338343259661
1.322617842287094
1.440898192411046
1.443167806737568
1.44334479942589
1.443389530416324
1.43998731256811
1.152838102927458
1.44334340446937
1.443304177265279
1.421949090953608
0.9780680359753713
1.443333979650591
1.442906469047732
1.391998218824013
0.924803153130807
1.443278930090787
1.442231706940739
1.359334300423863
0.9185921975104518
1.443316826179392
1.443235704087793
1.443129024256611
1.443012991346468
1.4436630814194
1.443878723130697
1.443999839405788
1.44397663211016
1.448443713341844
1.451042520347163
1.451275785124723
1.450889855331523
1.409935844176331
1.467832096734704
1.473379500374602
1.472194828084949
1.442919841425433
1.44369893860529
1.448727699539671
1.469898790213055
1.442864769901254
1.44316482731833
1.444580799342265
1.46129288057317
1.44285849518984
1.442532992803128
1.439541046458474
1.450103659406906
1.44290919001828
1.441525632164528
1.432408733896336
1.441366404089351
1.443334857548155
1.443115985022524
1.427523687184688
1.336740799069422
1.443288391489596
1.44253001402823
1.41839304016248
1.374311649926199
1.443191016111196
1.441641451198547
1.417621263559375
1.408419804962086
1.443057759107178
1.441136436996139
1.423800418949729
1.4302093819346
1.306742563318433
1.433801820453563
1.443278761923642
1.443347528279612
1.32128686958607
1.435855184953008
1.443288417601996
1.443348870823385
1.320174139246982
1.438458924533914
1.443329804255459
1.443352254063638
1.334232888741629
1.441268112153852
1.443349422005999
1.443352712102868
1.338935359861772
1.444488796862112
1.443351625944921
1.443353305064839
1.347291084754445
1.4426939916404
1.443353182095292
1.44335327057885
1.375268866217644
1.443337100162741
1.443353235691401
1.443353270571933
1.422746624576644
1.443361674857723
1.443353285304463
1.443353270571932
1.443353270571932
1.443353270571463
1.443353269663014
1.44333756896924
1.443353270571931
1.443353270575474
1.443353265531035
1.44330458768015
1.443353270571932
1.443353270552924
1.443353227418557
1.443268708182937
1.443353270571932
1.443353271465177
1.44335281919856
1.442284192552302
1.443316902103786
1.443252965334334
1.44307779746335
1.438834983681533
1.44325296530871
1.443144712046723
1.442511847936832
1.428903736838162
1.443077797431311
1.442511847940313
1.435810402914163
1.363758805714829
1.438834983618419
1.428903736663552
1.363758805412863
1.162284234737757
0.9986817301872388
1.088308350027514
1.244326353109099
1.34591945298663
1.068605512762116
1.082642295953246
1.133033189583953
1.208210473492245
1.063479372828081
1.119251420496919
1.164518072492047
1.206250082026631
1.080295042506964
1.145742524533276
1.179703450375531
1.203043798657536
1.214302175787059
1.221514954827494
1.230180015325655
1.233175434715311
1.199157372989612
1.213770130735677
1.2231113951035
1.25936541390831
1.174667080886285
1.199720676558042
1.211396349059174
1.33337138059696
1.103224327004324
1.142010072513865
1.153833302585398
1.446982903407679
1.374065800964308
1.504849356403571
1.508943266009329
1.497769120698567
1.460186797984487
1.612375584327827
1.587382741230147
1.558803242086842
1.633132640275558
1.709575715163428
1.631351087740824
1.589289927081068
1.271818388444105
1.300731444625184
1.315954283167458
1.333187248696669
1.488105536619598
1.48255999240063
1.480330921674216
1.48365314833131
1.528619310077557
1.50539714029085
1.490042876631138
1.485539131734135
1.549236510559296
1.513249686107181
1.493959719192523
1.479640819053835
1.320880239433501
1.313064221967185
1.312364158184846
1.316490234181041
1.483930484692398
1.481081482043094
1.467945275239153
1.105070037393601
1.485945248475916
1.483384115184249
1.456939725335282
0.8922766393073575
1.478847946418913
1.480143658516074
1.409336887618938
0.6786849632624493
1.331308527798013
1.376565399712541
1.18952463379082
0.3493919632033081
0.7476671753105747
0.7367736693631227
0.7641277867739577
0.8066259048639635
0.6688364138178069
0.7111989021744051
0.7572323923824215
0.805171189919854
0.5180032116941927
0.6210739274990248
0.713199587138885
0.7823707814068778
0.236126418907931
0.35827165500357
0.5086025242285768
0.6432357713891482
0.8501428292431142
0.8925543527326762
0.923464205847858
0.9159621276810516
0.8508517859703466
0.8920750295458886
0.9226668999316229
0.9222841963765902
0.8394345221361917
0.8866584702764851
0.921701257889291
0.9248890758694496
0.7562025068955678
0.8486360564925429
0.9036354874324376
0.9094459097847397
0.8981279084379027
0.9514129113097625
1.040936048629816
1.176336174680711
0.9057796794425987
0.94562684297472
1.031369764635947
1.2043202581813
0.9180282294882316
0.9531824382410173
1.059100565027629
1.533723652327521
0.909399995695673
0.9449561495286289
1.083131706861416
2.149980915885968
1.442556290258348
1.780222315955289
0.7606499156959026
0.7534522953086946
1.493837017207398
1.628838946899463
0.5357000401071524
0.8769810455775939
1.542502007558224
1.432599748161459
0.4115222387332906
0.8159957047355837
1.184798756791366
0.9171281720533215
0.5646147438046962
0.7126171955039904
0.6638313422404764
0.446282053785062
0.1895917034097337
0.1744826480348864
0.7859928541921252
0.5671074990219607
0.3401455693915171
0.2011572563660462
0.7366301596645485
0.5802063295095604
0.4244304124341968
0.2033894495037241
0.6590209668741552
0.5418977693330582
0.4211642831953356
0.1964372707216284
0.1420063284554864
0.6097864480058603
0.8458155626344631
1.122027477794407
0.04903749007859979
0.3934557495116251
0.7100741094996528
1.023920418352862
0.152935060823461
0.1711031376305367
0.5201634209581467
0.9016690876353476
0.1856115873599444
0.01789860315206527
0.3603982618269576
0.9069125024788292
1.349766276499067
1.510153276619169
1.536789810697075
1.133069770164048
1.235016284475025
1.31678402751441
1.183438283831506
0.8722033222536212
1.216904615978388
1.244318447721866
0.8438446557554089
0.5147775363662106
1.171746661924952
0.7995033432814868
0.3392531332749161
0.1579202669678626
0.06053421931439652
0.03558152136495658
0.06716649500844314
0.07980988161747286
0.2633825029202673
0.09589872648495121
0.03880762950599684
0.07253477497768121
0.4895129846675752
0.2344364389945557
0.1233762608422571
0.08930117840086661
0.6823639431961815
0.4658003895633615
0.3388801400454901
0.300850124032657
0.07980988161756684
0.07253477497868054
0.08930117840050666
0.3008501240272622
0.06716649500886383
0.03880762950942108
0.1233762608369081
0.3388801400383379
0.03558152136565727
0.09589872647954285
0.2344364389863801
0.4658003895554681
0.06053421931289946
0.2633825029144635
0.4895129846600115
0.6823639431919026
1.133069770156219
1.536789810693098
1.51015327661815
1.349766276500128
0.8722033222472566
1.183438283827928
1.316784027509754
1.235016284472352
0.5147775363617475
0.8438446557513843
1.244318447713578
1.216904615972398
0.1579202669650538
0.3392531332723674
0.7995033432757522
1.171746661919604
0.906912502470782
0.3603982618213619
0.01789860315063619
0.1856115873573754
0.901669087629155
0.5201634209504479
0.1711031376192158
0.1529350608237924
1.023920418349926
0.7100741094938219
0.3934557494986456
0.04903749008325158
1.122027477792386
0.8458155626305671
0.6097864479934375
0.1420063284490815
0.1744826480369599
0.1895917034036699
0.4462820537798076
0.6638313422435245
0.201157256362601
0.3401455693791817
0.5671074990106214
0.7859928541943917
0.2033894494992982
0.4244304124209889
0.5802063294979762
0.7366301596674905
0.1964372707184553
0.4211642831852008
0.5418977693229093
0.6590209668764959
0.7534522953142172
0.7606499156719289
1.780222315959367
1.442556290261217
0.876981045593865
0.5357000401121212
1.628838946903842
1.493837017215895
0.8159957047530906
0.4115222387582134
1.432599748162953
1.542502007563916
0.7126171955234124
0.5646147438372029
0.917128172042161
1.184798756787775
1.176336174678824
1.040936048625148
0.9514129113064301
0.8981279084344608
1.204320258179329
1.031369764632935
0.9456268429718113
0.9057796794376345
1.533723652328386
1.059100565028467
0.9531824382401454
0.918028229484753
2.149980915895167
1.083131706866597
0.9449561495321954
0.9093999956978477
0.915962127672163
0.9234642058425336
0.892554352729494
0.8501428292432432
0.9222841963674244
0.9226668999259935
0.8920750295442772
0.8508517859702104
0.9248890758617874
0.9217012578854442
0.8866584702753222
0.8394345221352103
0.9094459097784837
0.9036354874268759
0.8486360564792345
0.7562025068846796
0.8066259048567663
0.7641277867673414
0.7367736693668669
0.7476671753128509
0.8051711899140838
0.7572323923768287
0.7111989021770457
0.6688364138190764
0.7823707814008581
0.7131995871336099
0.6210739274989207
0.5180032116970712
0.6432357713782058
0.5086025242222505
0.3582716550013315
0.2361264189113394
1.105070037405555
1.46794527524668
1.481081482041749
1.4839304846881
0.8922766393211848
1.456939725345068
1.483384115183723
1.485945248474505
0.6786849632758535
1.409336887633647
1.480143658513593
1.478847946414509
0.3493919632253765
1.189524633823468
1.376565399700854
1.331308527774221
1.483653148326719
1.480330921673098
1.482559992406838
1.488105536627206
1.485539131732075
1.490042876629551
1.505397140299135
1.528619310088434
1.479640819052431
1.493959719192467
1.513249686113609
1.549236510572013
1.316490234158453
1.312364158173472
1.313064221968582
1.320880239436611
1.497769120708544
1.508943266021595
1.504849356408215
1.374065800952143
1.5588032421022
1.587382741246483
1.612375584334714
1.460186797972973
1.589289927101013
1.631351087758629
1.709575715174193
1.633132640254802
1.333187248704639
1.31595428318286
1.300731444645115
1.271818388434006
1.233175434712074
1.230180015317127
1.221514954806015
1.214302175773183
1.259365413905545
1.223111395094367
1.213770130717539
1.199157372965195
1.333371380592221
1.211396349044571
1.199720676534435
1.174667080843425
1.446982903391044
1.153833302528375
1.142010072455059
1.103224326951027
1.203043798668028
1.206250081996809
1.208210473506222
1.345919453071302
1.179703450340502
1.16451807244068
1.133033189621219
1.244326353332438
1.145742524453583
1.119251420438919
1.082642295983517
1.088308350267641
1.080295042444628
1.063479372771936
1.06860551276822
0.9986817303066399
1.278687657637677
1.416113926907004
1.442289000329953
1.44334457909823
1.298875355042956
1.413900559396826
1.441938370120439
1.443335963813747
1.279928860426627
1.413740263154531
1.441891955205763
1.443333765313873
1.234565905336715
1.411460938291507
1.44179952416486
1.443330570129588
1.443310525900553
1.441431994694826
1.411998595568787
1.217779404863316
1.443312141260543
1.441489596957655
1.411396245910201
1.216332322798874
1.443314388577548
1.441430758158251
1.409691895998975
1.211981925922693
1.443323060810861
1.441596745575132
1.409197511755674
1.215436787162559
1.443330570146213
1.443333765332042
1.443335963853184
1.443344579125651
1.441799524159189
1.441891955210207
1.441938370129922
1.442289000352457
1.411460938294246
1.413740263170155
1.413900559398347
1.416113926913008
1.234565905348439
1.279928860434232
1.298875355049397
1.278687657643638
)
;

boundaryField
{
    back
    {
        type            empty;
    }
    inlet
    {
        type            calculated;
        value           nonuniform List<scalar> 
16
(
1.443353270571932
1.443353270571932
1.443353270571932
1.443353270571932
1.443353270571932
1.443353270571932
1.443353270573955
1.443353254838266
1.443353254835879
1.443353270574187
1.443353270571932
1.443353270571932
1.443353270571932
1.443353270571932
1.443353270571932
1.443353270571932
)
;
    }
    front
    {
        type            empty;
    }
    top
    {
        type            calculated;
        value           uniform 0;
    }
    outlet
    {
        type            calculated;
        value           nonuniform List<scalar> 
16
(
1.443273273929125
1.443278127975857
1.44328925556757
1.443303290790685
1.443340369152934
1.443328898172471
1.443325623416011
1.443318636513489
1.443273273923155
1.443278127969265
1.443289255573217
1.443303290801507
1.443318636518793
1.443325623419973
1.44332889819353
1.443340369168405
)
;
    }
    bottom
    {
        type            calculated;
        value           uniform 0;
    }
    wall
    {
        type            calculated;
        value           uniform 0;
    }
}


// ************************************************************************* //
