/*--------------------------------*- C++ -*----------------------------------*\
  =========                 |
  \\      /  F ield         | OpenFOAM: The Open Source CFD Toolbox
   \\    /   O peration     | Website:  https://openfoam.org
    \\  /    A nd           | Version:  11
     \\/     M anipulation  |
\*---------------------------------------------------------------------------*/
FoamFile
{
    format      ascii;
    class       volScalarField;
    location    "0.214";
    object      p;
}
// * * * * * * * * * * * * * * * * * * * * * * * * * * * * * * * * * * * * * //

dimensions      [0 2 -2 0 0 0 0];

internalField   nonuniform List<scalar> 
880
(
80
80.00000000003736
80.00000013649763
80.00275265193022
80.00000000000001
79.99999999963636
80.00000057643857
80.00617913857118
80.00000000000007
79.99999999906842
80.000003613808
80.02296030602501
80.00000000000003
79.99999994702286
80.00003234947285
80.15026159225509
80.00000000000001
80.00000000000003
79.99999999931418
80.00000610435534
80.0000011573906
79.99999706780403
80.00003096507936
79.99987558343763
79.99980110949872
80.00044103986392
80.04475451474322
79.9196343451387
82.37323748740869
86.54504122132641
89.34930026107004
90.43189089364859
80.00001466903318
80.00046540860745
80.0004992220922
80.00058580240976
80.00072328953249
80.00213086454289
80.00540151645207
80.007148218455
80.24011296198685
80.42491699785457
80.65415713133389
80.9053594724251
91.98749947302407
93.81555961618494
95.58261074412189
98.09252831703193
96.75399718997478
93.25057240831892
90.00756758020947
88.19999698662495
81.71815401927448
83.09998123628209
83.72637213241946
84.03934855489813
80.02346061664697
80.08407555709273
80.18088254668676
80.27921248393727
80.00195896405711
80.00648273905803
80.01809140361183
80.03495767187361
80.0441284925775
80.04388525916788
80.03766817581904
80.02804305622656
80.36705290404448
80.41155871411911
80.38443000296124
80.33647271879175
84.15913130479261
84.09622201639515
83.74053423257878
83.31728790017067
87.29320029854858
86.77571147979829
86.73708976135451
86.63838236587144
86.05865387477601
82.84681207210456
80.27564444224149
80.01731478512851
85.44515536402085
82.32367900708387
80.20342981069496
80.00865796323426
84.40511240153162
81.71601751252366
80.12544359237606
80.00273267920279
89.51369018204025
81.16868778367365
80.05092392486702
80.00037298169714
79.99981078065835
80.00923949567854
80.93350383766779
117.4934624887634
80.00032013988421
80.01278201610603
82.27103059747439
144.4187591662517
80.00204788345054
80.04183458970665
84.85104211737473
156.0842481680262
80.00727978960923
80.11379097443518
88.31919775375027
164.7650963868077
172.8793758419602
93.40694231868818
80.28541591264997
80.01794667545693
180.1714089711882
99.50124123324666
80.5518753103367
80.04312484453716
186.8405136850033
107.4584060206911
81.09626633976309
80.08214176558631
191.1770219070752
117.1155260623827
81.97347825134693
80.15940487193141
80.26853501535736
83.38682487647955
126.8118319185741
190.4339565193511
80.47154345078505
85.53977615710153
132.7808746264593
178.7898676368503
80.97935979739144
85.59758670752541
123.8084876227406
158.3429904866208
80.26098790070081
83.84310632231309
110.3458072860053
133.9425648635992
80.55883935440689
85.46974040126264
99.73813900609376
100.5071056078802
80.90329333990348
83.59343343811247
86.30244267434394
66.09957252249814
80.59296010390273
81.89679583355918
79.761962336995
43.75158261476264
80.26299850063143
81.02201539411716
76.560861964456
32.13767508609399
35.10415116718519
75.54619004361315
80.48805195603499
80.05472523582543
34.32841679310866
74.29245725758324
79.96502701900569
80.00452690534262
35.67142720643523
73.54442148344516
79.55418469229744
79.98660225253761
34.48563307891045
71.76100966542434
79.21638158634666
79.9740695109239
41.0846215006084
72.61502170883546
79.37388602802004
79.98270151636994
45.69029139676095
73.52058390961817
79.60793562827993
79.99478516322704
47.09456783215074
74.45671070185438
79.78043077815693
79.99819132099772
49.92757498732249
76.42566543563582
79.94892653626526
79.99944558990686
64.78372746952867
76.8712385515982
79.69455847797929
79.99032209599889
62.01239997661742
76.6524639083656
79.69773414565557
79.99099158936257
57.31914163116125
76.18229160668461
79.71966542950832
79.99253401181107
53.45591285403956
75.73271368811973
79.74333016452697
79.99416903239172
49.9275749875036
76.42566543516605
79.94892653561895
79.99944558952561
47.09456783211929
74.45671070156538
79.78043077566024
79.99819131980377
45.69029139607603
73.52058390944724
79.60793562754941
79.99478516462369
41.08462150049701
72.61502170973847
79.3738860280578
79.9827015155672
80.0547252376019
80.48805195779831
75.54619004342646
35.10415116683706
80.00452690562526
79.9650270204299
74.29245725829814
34.32841679316371
79.98660225152378
79.55418469360593
73.54442148335933
35.67142720624203
79.97406951104409
79.21638158698721
71.76100966746888
34.48563307873903
32.13767508508682
76.56086196288994
81.02201539429714
80.26299850010518
43.75158261427399
79.76196233565862
81.89679583175908
80.59296010190194
66.09957252270941
86.30244267367361
83.59343343704568
80.90329333977465
100.507105608219
99.73813900623149
85.46974040016316
80.55883937187237
80.26853501501603
83.38682487937612
126.8118319207954
190.4339565213513
80.47154345090856
85.53977615807423
132.7808746260541
178.7898676377263
80.9793597930453
85.5975867075186
123.8084876194881
158.3429904869575
80.26098789215297
83.84310632191058
110.345807286496
133.9425648639622
191.177021908132
117.115526064737
81.97347825456532
80.15940487264102
186.8405136853541
107.4584060222656
81.09626633915053
80.08214176640963
180.171408972149
99.50124123011153
80.55187531057526
80.04312484461502
172.8793758444759
93.40694232230342
80.28541591587781
80.0179466748211
79.99981077997072
80.00923949654045
80.93350383771904
117.4934624878054
80.00032014023024
80.01278201518257
82.27103059786427
144.4187591657612
80.00204788319286
80.04183459020778
84.85104211875414
156.0842481691019
80.00727978873967
80.11379097227514
88.31919775168076
164.7650963859313
80.00037298076813
80.00273268025501
80.008657962803
80.01731478465831
80.05092392305394
80.12544359345326
80.20342981144536
80.27564444156287
81.16868778391175
81.71601751261053
82.32367900635978
82.84681207220768
89.51369018189077
84.40511240139958
85.44515536401532
86.05865387573925
80.02804305456564
80.33647271861498
83.31728790137598
86.63838236682228
80.03766817602576
80.38443000290107
83.74053423273998
86.73708976156338
80.04388526017098
80.41155871425707
84.09622201568548
86.77571147954542
80.04412849268925
80.36705290421165
84.15913130543355
87.29320029843898
80.00195895800039
80.02346061566405
81.71815401946549
96.75399718972562
80.00648273411886
80.08407555798728
83.09998123710247
93.25057240696114
80.01809140142566
80.1808825488957
83.72637213426643
90.00756757907844
80.03495767070028
80.27921248544521
84.03934855621408
88.19999698543472
98.09252831771568
80.90535947332111
80.00714821605766
80.00058580219765
95.58261074442412
80.65415713157789
80.00540151315998
80.00049922923112
93.81555961652309
80.42491699560394
80.00213086569605
80.00046541114216
91.98749947014591
80.24011295747414
80.00072328932849
80.00001466967053
90.43189089299533
79.91963434727357
79.99987558375577
80.00000610509839
89.34930026027307
80.04475451267115
80.00003096515726
79.99999999927449
86.54504122190102
80.00044103941416
79.99999706790406
79.99999999999996
82.37323748921756
79.99980110923893
80.00000115743251
79.99999999999996
80.00000000000001
80.00000000004862
80.00000013683581
80.00275265208276
80
79.99999999959098
80.00000057652915
80.00617913705142
80
79.99999999903876
80.0000036136427
80.02296030815332
80
79.9999999469695
80.00003234864573
80.15026158688212
80.00608179423061
80.01689158098422
80.06100376811189
80.58918278142121
80.01689158227171
80.03061765578514
80.10568148067594
81.64245192350337
80.06100376868349
80.10568147811617
80.69333540904789
87.98032752480982
80.58918277737638
81.64245193269635
87.98032749480348
107.4687137131872
136.9859314541927
116.6753441483811
105.0689814135418
92.98265100530719
132.8346179936228
127.82148318537
126.2071360477137
117.1368968233365
131.0949417234978
129.5884534832633
128.9011042402805
125.2637988777006
131.4372634795161
130.7409190477648
130.4341480166532
128.1829575368818
127.8056274792388
126.7563446477021
126.3256315978297
127.0611422324358
129.308812669779
127.5646023588173
126.8706282878609
127.3785067045762
129.6905290060526
127.8186922697289
127.1356694801869
127.5199916174834
130.104094770821
127.8468356961477
127.1892539943896
123.2896226781312
104.3405262739984
82.14211521680022
75.10055882977933
74.85516525486423
95.03237709751106
75.66768163729122
73.00965978238816
74.2904335448489
85.6809263439617
73.57884907907643
73.79638581623418
75.04816332941327
68.80121565932336
69.40307962750499
72.67367410479143
74.46926774489191
76.06916455777332
77.43551174026045
78.90776301553716
80.08060139994271
75.79788812754487
77.18243159327439
78.6513168109048
79.89955685020898
76.38067000399069
77.54115408387747
78.40038281717577
79.85483395877581
75.70017845767352
76.9679213037642
78.43790837677702
79.85625116023127
80.93104938729996
81.57971568819387
84.38083833594889
130.7683045132385
80.77815325678722
81.50575864183118
86.99779262051192
146.8434680237105
80.76883031647397
81.51582229106843
90.11505021353548
155.2941268665314
80.79248883967732
81.59159152789465
93.38069792558709
160.3146522627646
232.2888318043188
242.1234081557351
235.5591324215031
227.6079433087321
245.3195729011554
245.6761809033777
237.8631374389652
228.9249666501248
240.5535724731042
243.6476086790748
238.9874694490287
230.4936563338839
244.7077214580215
245.5117910708556
240.7953064151362
232.0017168757485
220.9103455979153
218.9643705914677
217.7349081643324
215.8017505704626
221.473211324289
219.1757490119049
217.2549898295701
214.550782594555
222.1649043055743
218.6793680915352
216.1569358552748
214.0427544745384
223.4525080512531
220.4324639054718
216.7810193246886
214.3069563190663
217.1113744410419
206.9479443042635
179.8718067656853
148.9089322910785
217.8933149280824
211.8937651532704
185.9499762841969
161.3770744035759
218.0893958242474
215.2079978265503
192.9090746368637
172.6174433386439
218.1352402090347
216.2810062249734
199.4932787086196
196.7579774453002
86.92288426415405
17.66844417269325
2.354372958519168
2.314462019330422
71.43532704354688
10.33705766796901
2.486050616077843
2.320043237285828
49.23575638126719
4.818847405811415
1.979778550283608
2.615428568633057
27.80668782515832
1.527671031679203
2.170184675094981
3.083916646285088
3.667977667710045
6.013671475431082
9.190786190991354
12.27913040470725
3.796742988305513
6.530507196430812
9.939558048069042
13.5429952547857
4.378485215916512
7.160233557702347
10.46645021482613
14.84716747413529
4.900987379472471
7.860309149411981
11.77667712897225
16.73142099669742
20.27546213497738
24.55015077409298
26.53482108658488
29.01654757956537
20.54308303975548
26.27350007317734
27.97986302301749
30.70671762783929
19.97936633856219
26.56508610386
28.87035554446885
30.68787582370994
18.18158195394279
24.99527100921086
28.93531244319595
33.50623222216113
20.93172276075986
16.27096333305338
13.66996556258898
15.30713290771063
21.49952801046161
17.01010690490968
15.10506419370675
13.87571709375469
18.42504369321367
13.96364538952946
14.44171649862214
14.33447072059765
13.75058942357956
12.56228838045762
13.81760775702538
13.46204354238843
12.73498836289736
12.4954007488394
12.58655045525293
12.75084553677294
13.63851938561511
12.61264473208248
12.33498538802205
12.37637713317575
13.41930902720762
13.3531346011051
13.2289769633109
13.02427860175815
17.93482774082312
16.98175955209127
15.84860937523994
15.15496902916163
12.75084553677631
12.37637713317028
13.02427860174333
15.154969029106
12.58655045526852
12.33498538804542
13.22897696330685
15.84860937516499
12.4954007488529
12.6126447320805
13.35313460112794
16.98175955207811
12.73498836290818
13.63851938562512
13.41930902724403
17.9348277407651
15.3071329076901
13.66996556255784
16.27096333301169
20.93172276070364
13.87571709377885
15.10506419369159
17.01010690490508
21.49952801042992
14.33447072063479
14.44171649866906
13.96364538960198
18.42504369319978
13.46204354239167
13.81760775703938
12.56228838053956
13.7505894236179
33.50623222212471
28.93531244289542
24.99527100850718
18.18158195365445
30.68787582368147
28.87035554431591
26.56508610326326
19.9793663382224
30.70671762782533
27.97986302290269
26.27350007266907
20.54308303943907
29.01654757959535
26.53482108650273
24.55015077365142
20.27546213467571
12.2791304045546
9.190786191011011
6.013671475460993
3.667977667670892
13.54299525457504
9.939558048037812
6.530507196479013
3.79674298826965
14.84716747387757
10.46645021472506
7.160233557734696
4.378485215880856
16.73142099641244
11.7766771288111
7.860309149388874
4.900987379421085
2.31446201929178
2.354372958441279
17.66844417241972
86.92288426407066
2.320043237243146
2.486050616039075
10.33705766783502
71.43532704294728
2.61542856859477
1.979778550243254
4.818847405766238
49.23575638107996
3.083916646245242
2.170184675047635
1.527671031659136
27.80668782494204
148.9089322915999
179.871806767547
206.9479443058467
217.1113744424593
161.3770744039494
185.9499762855074
211.8937651545248
217.8933149296301
172.6174433391845
192.9090746379647
215.2079978277397
218.089395825669
196.7579774456888
199.4932787094516
216.2810062256473
218.1352402099035
215.8017505730097
217.7349081675245
218.9643705941091
220.9103455980335
214.5507825969251
217.254989832683
219.1757490142087
221.473211324459
214.0427544768083
216.1569358575915
218.6793680935289
222.1649043059261
214.3069563209953
216.781019326649
220.432463907062
223.4525080512155
227.6079433103857
235.5591324222074
242.1234081563625
232.2888318031891
228.9249666517194
237.8631374394056
245.6761809043201
245.3195729004079
230.4936563355524
238.9874694493321
243.6476086796116
240.5535724720492
232.0017168772168
240.7953064153507
245.5117910714366
244.707721457581
130.7683045117836
84.3808383347811
81.57971568869723
80.93104938840648
146.8434680217652
86.99779261875321
81.50575864244422
80.77815325791195
155.2941268643357
90.11505021136078
81.51582229158821
80.7688303177875
160.3146522614816
93.38069792333943
81.59159152848834
80.7924888412965
80.08060140082277
78.90776301597688
77.43551173975193
76.06916455729319
79.89955685090678
78.65131681136705
77.18243159273086
75.79788812696016
79.85483395927207
78.40038281748213
77.54115408344661
76.38067000335793
79.8562511609327
78.43790837710299
76.96792130345156
75.70017845695851
74.85516525395187
75.10055882894044
82.14211521626459
104.34052627523
74.29043354380676
73.00965978162652
75.66768163685721
95.03237709876632
75.04816332835075
73.79638581559868
73.57884907878241
85.68092634544041
74.46926774368616
72.67367410401948
69.40307962717083
68.80121566122077
127.0611422322466
126.3256315948246
126.7563446447053
127.8056274732612
127.3785067040392
126.870628284624
127.564602354811
129.3088126651384
127.5199916164717
127.135669476826
127.8186922653564
129.690529000822
123.2896226765152
127.1892539912726
127.8468356916836
130.1040947654652
128.1829575359016
125.2637988809003
117.1368968301377
92.98265100643714
130.4341480193416
128.9011042472996
126.2071360588986
105.0689814159213
130.7409190508857
129.5884534928232
127.8214832044275
116.6753441616361
131.4372634813227
131.0949417310492
132.8346180157304
136.9859314815926
49.58868792344276
76.26601090426954
79.85503256448828
79.99832224595539
47.92665806644369
75.54307953377179
79.7891142510703
79.99715142074309
49.32233264729935
75.36750537038898
79.77517448037923
79.99671604915393
50.60305584229273
75.43085375125794
79.76135084638676
79.9958358587389
79.99032209486047
79.69455848004462
76.87123855239946
64.78372746940869
79.99099158887674
79.69773414697288
76.65246390930602
62.01239997654541
79.99253401054835
79.71966543013561
76.18229160711823
57.31914163172657
79.99416902980312
79.74333016555272
75.73271368704197
53.45591285382181
79.995835855699
79.99671604678956
79.99715141766394
79.9983222427994
79.76135084772423
79.7751744808255
79.78911425106374
79.85503256455237
75.4308537501272
75.36750536824829
75.54307953405208
76.26601090428453
50.60305584210663
49.3223326470904
47.92665806595111
49.58868792294223
)
;

boundaryField
{
    back
    {
        type            empty;
    }
    inlet
    {
        type            zeroGradient;
    }
    front
    {
        type            empty;
    }
    top
    {
        type            zeroGradient;
    }
    outlet
    {
        type            fixedValue;
        value           uniform 80;
    }
    bottom
    {
        type            zeroGradient;
    }
    wall
    {
        type            zeroGradient;
    }
}


// ************************************************************************* //
