/*--------------------------------*- C++ -*----------------------------------*\
  =========                 |
  \\      /  F ield         | OpenFOAM: The Open Source CFD Toolbox
   \\    /   O peration     | Website:  https://openfoam.org
    \\  /    A nd           | Version:  11
     \\/     M anipulation  |
\*---------------------------------------------------------------------------*/
FoamFile
{
    format      ascii;
    class       volScalarField;
    location    "0.214";
    object      rho;
}
// * * * * * * * * * * * * * * * * * * * * * * * * * * * * * * * * * * * * * //

dimensions      [0 0 0 0 0 0 0];

internalField   nonuniform List<scalar> 
880
(
0.3733250556165154
0.3733250556166509
0.3733250560727708
0.3733342481451094
0.3733250556165155
0.373325055615223
0.3733250575609477
0.3733456205976173
0.3733250556165155
0.3733250556136837
0.373325068028756
0.3734009311840141
0.3733250556165154
0.3733250554382388
0.3733251700690254
0.3738336183674911
0.3733250556165155
0.3733250556165155
0.3733250556143615
0.3733250759638117
0.3733250594739787
0.3733250458195224
0.3733251530910968
0.3733246451548806
0.373324377831185
0.3733261571303109
0.3734453620139909
0.3730976800962204
0.3811136631802863
0.3939338819039782
0.401597316158417
0.4042097515312079
0.37332510453154
0.3733266082341732
0.3733267167157361
0.3733270058718292
0.3733274716725028
0.3733321021113089
0.3733416006845243
0.373347571348891
0.3740981382748974
0.3746334480736634
0.3752995289053922
0.3760648827193311
0.4082910207091828
0.4135808049401872
0.4189490216292727
0.4266480731519096
0.42253424833779
0.4115297538622593
0.4012173781859383
0.3954609528463975
0.3786189577838535
0.3827817448446353
0.3844537762472534
0.3854163934812115
0.3733997949467943
0.3735949701284285
0.3739020302563987
0.3742270105443012
0.3733315776260863
0.3733466453007536
0.3733853228389938
0.373441614290516
0.373472408926377
0.3734716601768471
0.3734509303012897
0.3734187872835537
0.3745291647825447
0.3746800145341763
0.3745923605232528
0.3744396252588703
0.3860023987102086
0.3859193923792336
0.3849843338117704
0.38387102531934
0.3927496388813924
0.3917518352306277
0.3924246358052987
0.3929773949864031
0.3920749573918744
0.3825617964256624
0.3742427748281651
0.3733829399679304
0.3907476078536136
0.3809752695714465
0.374004105466746
0.373353995396829
0.3878321163067706
0.3790449269512425
0.3737441634329443
0.3733341864752975
0.4031341522458618
0.3772296102018982
0.3734953924632027
0.3733263022481956
0.3733244251861034
0.3733559639863606
0.3763880732453233
0.481999268815413
0.3733261238598547
0.3733673102164036
0.380501592117781
0.5524081272436114
0.3733318846895545
0.3734626228834034
0.3883055451847542
0.5809994020877998
0.3733493286892768
0.3736915185976156
0.3985482046419719
0.6024341424160231
0.6221363980580201
0.4133531330509703
0.3742383855695179
0.3733849125476439
0.6387286491752803
0.4305513127463894
0.3750613526871151
0.3734687289411329
0.6524956363063231
0.4524188383272618
0.3767455297654798
0.3735989266368993
0.6597044259337808
0.4782416087562762
0.3793779621092251
0.3738561305444326
0.3742212621142639
0.3836213088990651
0.5033036268734289
0.6553870891020404
0.3749020959584939
0.3898141751293188
0.5188951941936943
0.6253879943671423
0.3765878350325744
0.390084046063448
0.4944488833196604
0.5738834856118735
0.3742021307482744
0.3848745453092802
0.4589086650878264
0.5129868239593354
0.3751937394722668
0.390360900760754
0.4258435213334514
0.4114645635832706
0.3764390494536275
0.3837915050590102
0.3831064849763521
0.2910614197226318
0.3753773706389656
0.3781430428322545
0.3616802328793266
0.201769431953042
0.3742315114281859
0.3748924383072319
0.3458802182399348
0.1474456029375596
0.1477360522200722
0.3406047065479734
0.3736740033782402
0.3735094002946608
0.1441438519397531
0.3358209179728858
0.3723976561467011
0.3733475699298726
0.1499317393515162
0.3343598364034275
0.3712950249414979
0.3733072591945044
0.1473832903797518
0.3298024858725109
0.3703046733174177
0.3732821268017888
0.1814505861952508
0.3380417677104066
0.3710295909643068
0.3732910227242175
0.2129804141305602
0.3453169604232619
0.3719422014189667
0.373309235261867
0.2315676481862836
0.351132205712292
0.3725317157837707
0.373318777452084
0.2512967871261013
0.3597171410659347
0.3731344968801604
0.3733231472164866
0.3006688063997455
0.3601594230144189
0.3723255879819704
0.373299162587969
0.2914127790178632
0.3595557145891026
0.3723513578174223
0.3733006115984381
0.2758002108609269
0.3580799454655525
0.3723786234741688
0.3733032159475272
0.2636283906696456
0.3566537718524855
0.3724447034503243
0.3733080717840803
0.2512967871266818
0.359717141063875
0.3731344968790223
0.3733231472114528
0.2315676481859416
0.3511322057105121
0.3725317157756386
0.3733187774496255
0.212980414128241
0.3453169604217591
0.3719422014153216
0.3733092352659768
0.1814505861951468
0.3380417677132615
0.3710295909640935
0.3732910227219286
0.373509400303012
0.3736740033848733
0.3406047065470042
0.1477360522190321
0.3733475699307659
0.3723976561527068
0.3358209179751762
0.144143851939865
0.373307259190902
0.3712950249460241
0.3343598364039799
0.1499317393509271
0.373282126802053
0.3703046733194506
0.329802485879988
0.1473832903792738
0.147445602933811
0.345880218235157
0.3748924383085259
0.3742315114271281
0.2017694319513531
0.3616802328750792
0.3781430428259233
0.375377370631959
0.2910614197230698
0.3831064849739171
0.3837915050552656
0.3764390494504423
0.4114645635839972
0.4258435213329133
0.3903609007567976
0.3751937395279673
0.3742212621131378
0.3836213089090051
0.503303626880521
0.6553870891072175
0.3749020959589556
0.3898141751313383
0.5188951941915931
0.6253879943694745
0.3765878350183001
0.3900840460625372
0.4944488833087616
0.5738834856124906
0.3742021307191877
0.3848745453066837
0.4589086650875098
0.5129868239596844
0.659704425937063
0.4782416087634712
0.3793779621195466
0.3738561305469502
0.6524956363067692
0.4524188383314561
0.3767455297635763
0.3735989266404643
0.6387286491769079
0.4305513127361523
0.375061352688796
0.3734687289422335
0.6221363980650284
0.4133531330624107
0.374238385579678
0.3733849125460987
0.3733244251833619
0.373355963989621
0.3763880732455044
0.4819992688125513
0.3733261238605582
0.3733673102102629
0.3805015921188474
0.5524081272417689
0.3733318846883935
0.3734626228880742
0.3883055451892261
0.5809994020899066
0.3733493286865847
0.3736915185887303
0.3985482046346174
0.6024341424147935
0.3733263022449516
0.3733341864789325
0.3733539953963829
0.3733829399669447
0.373495392457028
0.3737441634361656
0.3740041054696546
0.3742427748258694
0.3772296102025504
0.3790449269512212
0.3809752695686868
0.3825617964256074
0.4031341522453267
0.3878321163062642
0.3907476078538394
0.3920749573951369
0.3734187872778365
0.3744396252579808
0.3838710253230395
0.3929773949897526
0.3734509303017707
0.3745923605228054
0.3849843338122084
0.39242463580624
0.3734716601806494
0.3746800145344025
0.3859193923767461
0.3917518352298987
0.3734724089275329
0.3745291647829815
0.3860023987116089
0.3927496388807812
0.3733315776061927
0.3733997949435415
0.3786189577854079
0.4225342483370094
0.373346645285119
0.373594970131583
0.3827817448476618
0.4115297538578355
0.3733853228328874
0.3739020302639318
0.3844537762520284
0.4012173781820347
0.3734416142880499
0.3742270105493503
0.3854163934850201
0.3954609528418773
0.4266480731540453
0.376064882723105
0.3733475713408802
0.3733270058708538
0.4189490216303909
0.3752995289061973
0.3733416006739538
0.3733267167387485
0.4135808049417234
0.3746334480654905
0.3733321021152838
0.3733266082424085
0.408291020701201
0.3740981382593858
0.3733274716715949
0.3733251045332708
0.4042097515300587
0.3730976801045006
0.3733246451556038
0.3733250759660441
0.4015973161567012
0.3734453620079958
0.3733251530914536
0.3733250556142964
0.3939338819067275
0.3733261571290227
0.3733250458197998
0.3733250556165152
0.3811136631865925
0.3733243778305625
0.3733250594741125
0.3733250556165152
0.3733250556165155
0.3733250556166789
0.3733250560736868
0.3733342481455524
0.3733250556165152
0.3733250556151058
0.3733250575611262
0.3733456205923275
0.3733250556165154
0.3733250556136063
0.3733250680281718
0.3734009311907475
0.3733250556165154
0.3733250554381048
0.3733251700665888
0.3738336183493941
0.3733453298798675
0.3733812561511594
0.3735284882873323
0.3752778403149767
0.3733812561555886
0.3734270231512454
0.3736774211018617
0.3787002137080715
0.3735284882895982
0.373677421093545
0.3756223768061522
0.3987900182479641
0.3752778403019005
0.3787002137385565
0.3987900181464863
0.4564657698709867
0.5361842191294791
0.4810395442093282
0.4504986380325573
0.41476795180709
0.5235178880485165
0.5116147744566732
0.5123680538232744
0.487693972951926
0.5193399758055293
0.5164357383046664
0.517322187637122
0.5080257290013931
0.5210111356184148
0.5196658689393052
0.520075561969816
0.5141714107511223
0.512176484665008
0.5085866644611794
0.5075865661833227
0.5094447066516375
0.5164884156947854
0.5112647995917816
0.5102391764935981
0.5114794387094134
0.5169175910462555
0.5119635780828619
0.5114779005270051
0.5127773416830986
0.5177971643322545
0.5120144811193719
0.5115142487628133
0.5034954281288504
0.4419418333422503
0.3712814130073972
0.3502264053019019
0.3504208079203499
0.4132861872654505
0.3496704007750587
0.3428003182024145
0.347418132787001
0.3847660842976117
0.3451755905266147
0.3456676313525488
0.3496686082803415
0.3329480051620472
0.3325649589236341
0.3416224234106051
0.3473883603707841
0.3548793430492675
0.3599958836707346
0.3657434571541101
0.3706780511768614
0.3527133465912137
0.3576383929469192
0.3633300255597309
0.3686762386373376
0.3539596173011581
0.3578508449967083
0.3611783136499709
0.3671958967062591
0.3513985179081394
0.3556538258549455
0.3607165891573137
0.3667645389178866
0.3745777873670848
0.3774621953971119
0.3871916865481916
0.5161439073356927
0.3728735521093604
0.3762597742458691
0.3949020446136625
0.5524666582996702
0.3716907129841093
0.3754405940366993
0.4017747090108164
0.5670168035442589
0.3713959736456665
0.3754092372569343
0.407083774929101
0.5745771896693432
0.7610665529551892
0.7785393398528945
0.7620250994401202
0.7423762817083933
0.7863440723864051
0.7842843167605147
0.7656763426400512
0.7443341615682805
0.7705085116807788
0.7780327749300123
0.7666876228498123
0.7470437281294078
0.7772274325862824
0.7809968980167137
0.769908123634562
0.7500101492164318
0.7260158924385778
0.7200414110938775
0.7148829703015646
0.7071423275322022
0.7269913170012001
0.7213608410739331
0.7156033741876572
0.7066267247274104
0.7285115073853076
0.7209354713903351
0.7150588968780157
0.7088004654721666
0.7314827570982517
0.7253160950863973
0.7173273721405914
0.711045280056505
0.7087044843012634
0.6851605053413643
0.6215227946922732
0.5396467484411822
0.712888745194132
0.699211674616386
0.6375424707405658
0.5550285385090888
0.7172174683487221
0.7094926597875681
0.649783331367864
0.5668288778511406
0.7195861533943476
0.7124421774049617
0.6567253878526085
0.666744843148195
0.3445534265004787
0.0828373346723079
0.01558064736431846
0.01956380277925615
0.2849339873373511
0.05427418132832044
0.02108530143856128
0.02710541676300051
0.2165027265497255
0.03227785091035591
0.02082891702771262
0.0326141919856586
0.1573857320989058
0.01579662755252714
0.02398992009975165
0.03715109427547284
0.02800220270412711
0.03727581284492822
0.04824341876531361
0.05966410404840885
0.03806236914528692
0.04866785614975719
0.05821094310745008
0.06882961810431933
0.04667027875952987
0.05785879842719435
0.06576180818590235
0.07802748817394223
0.05161524205745813
0.06318670605111548
0.07268170216155215
0.08675811742390939
0.09156131125980849
0.1173474072080875
0.1371496561717876
0.1582276790595989
0.09506303957741523
0.1223596801085208
0.1393089626506482
0.1609927108204784
0.09695306862496426
0.123212261314012
0.1380175153477148
0.1516979241361398
0.09229633766320489
0.1182202743785301
0.1356193525570809
0.1539542172208692
0.1256937310935555
0.1019815777907723
0.08757268577356141
0.09501553681596173
0.1226769783747802
0.1006356002797761
0.09150749870803324
0.08950733468132621
0.1026891280825491
0.08298877046110832
0.08768637424079501
0.09474435554795092
0.08015233444531218
0.07772102585768317
0.08765789624610083
0.09512570328319463
0.09919666777235024
0.09961429006475465
0.09951720882763515
0.09988506845140477
0.09979700889487041
0.09641857498131191
0.09324470961389532
0.09222833076451432
0.09206887822260111
0.09180584912619771
0.08913996918497759
0.08643712040757205
0.1070913990795794
0.1023216910581583
0.09553040947288202
0.09148718845651056
0.09988506845139258
0.09222833076445475
0.0864371204074888
0.09148718845629025
0.09951720882764202
0.09324470961394181
0.08913996918489182
0.09553040947254018
0.09961429006472475
0.09641857498121016
0.09180584912623331
0.1023216910580418
0.0991966677723473
0.09979700889486849
0.09206887822273079
0.1070913990793338
0.09501553681589515
0.08757268577347052
0.1019815777907289
0.1256937310934491
0.08950733468146198
0.09150749870802347
0.1006356002798716
0.1226769783748292
0.0947443555481234
0.08768637424102549
0.08298877046148526
0.1026891280826472
0.09512570328322227
0.08765789624618017
0.07772102585806508
0.08015233444553704
0.1539542172208712
0.1356193525562131
0.1182202743762947
0.09229633766220723
0.1516979241362164
0.1380175153473875
0.1232122613121241
0.096953068623693
0.1609927108205884
0.1393089626503655
0.1223596801066678
0.09506303957612071
0.1582276790598253
0.1371496561715405
0.1173474072063366
0.09156131125850352
0.05966410404751672
0.04824341876521216
0.03727581284479994
0.0280022027037268
0.0688296181033585
0.05821094310719799
0.04866785614975363
0.03806236914484055
0.07802748817295024
0.06576180818547157
0.05785879842729685
0.0466702787591395
0.0867581174228991
0.07268170216092124
0.06318670605100744
0.05161524205697879
0.0195638027789027
0.01558064736393815
0.08283733467097087
0.3445534264999462
0.02710541676267138
0.02108530143838908
0.05427418132775461
0.2849339873361671
0.03261419198538792
0.02082891702747729
0.0322778509101108
0.2165027265490763
0.03715109427516314
0.02398992009945322
0.0157966275524174
0.1573857320981809
0.53964674844313
0.6215227946972355
0.6851605053454667
0.7087044843046677
0.5550285385110273
0.6375424707441402
0.699211674619584
0.7128887451977446
0.5668288778526064
0.6497833313708481
0.7094926597904483
0.7172174683518376
0.6667448431493099
0.6567253878545666
0.7124421774065858
0.7195861533960789
0.7071423275383191
0.7148829703088089
0.7200414110993182
0.7260158924398014
0.7066267247328438
0.71560337419469
0.7213608410790597
0.7269913170021499
0.7088004654772491
0.7150588968833372
0.7209354713950832
0.7285115073864509
0.7110452800607322
0.7173273721451598
0.7253160950902181
0.7314827570984002
0.7423762817133995
0.7620250994412516
0.778539339853492
0.7610665529512776
0.7443341615725305
0.7656763426409243
0.7842843167618047
0.7863440723835405
0.7470437281334772
0.7666876228503541
0.7780327749307689
0.7705085116782537
0.7500101492199173
0.7699081236348699
0.7809968980179074
0.7772274325856107
0.5161439073316193
0.387191686545011
0.3774621953990661
0.374577787371105
0.5524666582943351
0.3949020446083016
0.3762597742484672
0.3728735521134917
0.5670168035388667
0.4017747090046537
0.3754405940391551
0.3716907129889271
0.5745771896665323
0.4070837749233635
0.3754092372597408
0.3713959736515365
0.3706780511800035
0.3657434571556951
0.3599958836691476
0.3548793430473682
0.3686762386398092
0.3633300255612483
0.3576383929453671
0.3527133465890901
0.3671958967080007
0.3611783136511565
0.357850844995649
0.3539596172990228
0.366764538920298
0.3607165891588252
0.355653825854187
0.3513985179057732
0.3504208079168751
0.3502264052986989
0.3712814130052658
0.4419418333455197
0.3474181327832634
0.3428003181995139
0.3496704007732354
0.4132861872691523
0.3496686082767458
0.3456676313501328
0.3451755905252102
0.384766084302736
0.347388360366807
0.3416224234078149
0.3325649589216608
0.3329480051691979
0.5094447066505857
0.5075865661749521
0.5085866644544829
0.5121764846508636
0.5114794387073254
0.5102391764846689
0.5112647995810911
0.5164884156801892
0.5127773416800798
0.5114779005180883
0.5119635780704699
0.5169175910268473
0.5034954281237791
0.511514248754767
0.5120144811072657
0.5177971643131853
0.5141714107480273
0.5080257290123514
0.4876939729777994
0.4147679518128747
0.5200755619740749
0.5173221876523919
0.5123680538574784
0.45049863804575
0.5196658689387075
0.5164357383139868
0.5116147744968679
0.4810395442504536
0.5210111356099345
0.519339975800274
0.5235178880889997
0.5361842191966026
0.2548627876052091
0.3596502974304037
0.3728215991735948
0.3733194040630161
0.2514169376519629
0.3574685138366517
0.3725988259022825
0.3733154175551052
0.2557739898672002
0.3565965856876719
0.3725425996568761
0.3733139425953305
0.25615528571601
0.3561448187445521
0.3724929829795253
0.3733117965287349
0.3732991625833359
0.372325587989455
0.3601594230169458
0.3006688063993419
0.373300611595918
0.3723513578220584
0.3595557145926835
0.2914127790177833
0.3733032159448371
0.3723786234749202
0.3580799454686435
0.2758002108632381
0.3733080717776376
0.3724447034524795
0.3566537718507433
0.2636283906694565
0.373311796520405
0.3733139425916459
0.3733154175502422
0.3733194040544701
0.3724929829829625
0.3725425996572586
0.3725988259018095
0.3728215991753617
0.3561448187412934
0.3565965856798371
0.3574685138384487
0.3596502974310375
0.2561552857157607
0.255773989866673
0.2514169376503535
0.2548627876034563
)
;

boundaryField
{
    back
    {
        type            empty;
    }
    inlet
    {
        type            calculated;
        value           nonuniform List<scalar> 
16
(
0.3733250556165154
0.3733250556165155
0.3733250556165155
0.3733250556165154
0.3733250556165155
0.3733250556165155
0.3733250556143615
0.3733250759638117
0.3733250759660441
0.3733250556142964
0.3733250556165152
0.3733250556165152
0.3733250556165155
0.3733250556165152
0.3733250556165154
0.3733250556165154
)
;
    }
    front
    {
        type            empty;
    }
    top
    {
        type            calculated;
        value           nonuniform List<scalar> 
40
(
0.37332510453154
0.3733266082341732
0.3733267167157362
0.3733270058718292
0.3733315776260863
0.3733466453007536
0.3733853228389938
0.373441614290516
0.373472408926377
0.3734716601768472
0.3734509303012897
0.3734187872835537
0.3733829399679304
0.373353995396829
0.3733341864752974
0.3733263022481957
0.3733244251861034
0.3733261238598546
0.3733318846895545
0.3733493286892767
0.3733849125476439
0.3734687289411329
0.3735989266368993
0.3738561305444326
0.3742212621142639
0.3749020959584939
0.3765878350325744
0.3742021307482744
0.3751937394722668
0.3764390494536275
0.3753773706389657
0.3742315114281859
0.3735094002946608
0.3733475699298725
0.3733072591945044
0.3732821268017888
0.3732910227242175
0.373309235261867
0.373318777452084
0.3733231472164866
)
;
    }
    outlet
    {
        type            calculated;
        value           uniform 0.3733250556165154;
    }
    bottom
    {
        type            calculated;
        value           nonuniform List<scalar> 
40
(
0.3733231472114529
0.3733187774496255
0.3733092352659768
0.3732910227219286
0.373509400303012
0.3733475699307659
0.373307259190902
0.373282126802053
0.3742315114271281
0.3753773706319589
0.3764390494504423
0.3751937395279673
0.3742212621131378
0.3749020959589556
0.3765878350183001
0.3742021307191877
0.3738561305469502
0.3735989266404643
0.3734687289422335
0.3733849125460987
0.3733244251833619
0.3733261238605582
0.3733318846883936
0.3733493286865847
0.3733263022449516
0.3733341864789325
0.3733539953963829
0.3733829399669447
0.3734187872778365
0.3734509303017707
0.3734716601806494
0.3734724089275329
0.3733315776061927
0.373346645285119
0.3733853228328874
0.3734416142880499
0.3733270058708538
0.3733267167387485
0.3733266082424085
0.3733251045332708
)
;
    }
    wall
    {
        type            calculated;
        value           nonuniform List<scalar> 
104
(
0.5361842191294791
0.5235178880485165
0.5193399758055293
0.5210111356184148
0.5177971643322545
0.5120144811193719
0.5115142487628133
0.5034954281288504
0.3329480051620472
0.3325649589236341
0.3416224234106051
0.3473883603707841
0.3513985179081394
0.3556538258549455
0.3607165891573137
0.3667645389178865
0.3713959736456665
0.3754092372569342
0.407083774929101
0.5745771896693432
0.7772274325862824
0.7809968980167137
0.769908123634562
0.7500101492164318
0.7314827570982517
0.7253160950863973
0.7173273721405914
0.711045280056505
0.7195861533943476
0.7124421774049617
0.6567253878526085
0.666744843148195
0.1573857320989058
0.01579662755252714
0.02398992009975165
0.03715109427547284
0.05161524205745813
0.06318670605111548
0.07268170216155215
0.08675811742390939
0.09229633766320489
0.1182202743785301
0.1356193525570809
0.1539542172208692
0.08015233444531218
0.07772102585768317
0.08765789624610083
0.09512570328319463
0.09919666777235024
0.09961429006475465
0.09951720882763515
0.09988506845140477
0.09988506845139258
0.09951720882764202
0.09961429006472475
0.0991966677723473
0.09512570328322227
0.08765789624618017
0.07772102585806508
0.08015233444553704
0.1539542172208712
0.1356193525562131
0.1182202743762947
0.09229633766220723
0.0867581174228991
0.07268170216092124
0.06318670605100744
0.05161524205697879
0.03715109427516314
0.02398992009945321
0.0157966275524174
0.1573857320981809
0.6667448431493099
0.6567253878545666
0.7124421774065858
0.7195861533960789
0.7110452800607322
0.7173273721451598
0.7253160950902181
0.7314827570984002
0.7500101492199173
0.7699081236348699
0.7809968980179074
0.7772274325856107
0.5745771896665323
0.4070837749233635
0.3754092372597408
0.3713959736515365
0.366764538920298
0.3607165891588252
0.355653825854187
0.3513985179057732
0.347388360366807
0.3416224234078149
0.3325649589216608
0.3329480051691979
0.5034954281237791
0.511514248754767
0.5120144811072657
0.5177971643131853
0.5210111356099345
0.519339975800274
0.5235178880889997
0.5361842191966026
)
;
    }
}


// ************************************************************************* //
