/*--------------------------------*- C++ -*----------------------------------*\
  =========                 |
  \\      /  F ield         | OpenFOAM: The Open Source CFD Toolbox
   \\    /   O peration     | Website:  https://openfoam.org
    \\  /    A nd           | Version:  11
     \\/     M anipulation  |
\*---------------------------------------------------------------------------*/
FoamFile
{
    format      ascii;
    class       surfaceScalarField;
    location    "18.9";
    object      phi;
}
// * * * * * * * * * * * * * * * * * * * * * * * * * * * * * * * * * * * * * //

dimensions      [0 3 -1 0 0 0 0];

internalField   nonuniform List<scalar> 
8667
(
1.5880896
0.19522267
-0.0055344905
1.397833
0.20890681
-0.018650177
1.2054521
0.22079182
-0.028410932
1.0136985
0.23271595
-0.040962331
0.82013138
0.24369706
-0.050129971
0.62770641
0.25873358
-0.066308612
0.43501314
0.26835124
-0.075657982
0.24112382
0.30180482
-0.1079155
0.30796974
-0.12694238
0.060096471
1.588193
0.38480746
1.397646
0.39945379
1.2059254
0.41251245
1.0137165
0.42492487
0.82039437
0.43701919
0.6270583
0.45206965
0.43437736
0.46103218
0.24014304
0.49603915
0.49070455
0.057408224
1.5883539
0.57423133
1.3977813
0.59002645
1.206365
0.6039287
1.0139704
0.61731949
0.82034061
0.63064899
0.62676912
0.64564113
0.43360238
0.65419892
0.23880131
0.69084022
0.67370359
0.055802264
1.5884191
0.76359005
1.3982713
0.78017424
1.2068079
0.79539213
1.014505
0.80962235
0.8203562
0.82479779
0.62690018
0.83909716
0.4323668
0.8487323
0.23625554
0.88695148
0.8562395
0.053719629
1.5884536
0.95291407
1.3989036
0.96972422
1.2073924
0.98690331
1.0153724
1.0016424
0.82097802
1.0191921
0.62682222
1.033253
0.43226972
1.0432848
0.23461263
1.0846086
1.0390692
0.051782936
1.5885935
1.1420984
1.39948
1.1588377
1.2081
1.1782833
1.0160182
1.1937242
0.82187894
1.2133314
0.62680625
1.2283256
0.43093076
1.2391603
0.23241377
1.2831256
1.2213978
0.050085187
1.5888675
1.3310086
1.4000427
1.3476625
1.2090662
1.3692598
1.0168793
1.3859111
0.82258369
1.4076271
0.62742364
1.4234857
0.43100278
1.4355812
0.23045654
1.4836718
1.4048224
0.047031953
1.5891131
1.5196733
1.4003739
1.5364017
1.2100686
1.5595651
1.0180901
1.5778896
0.82344082
1.6022764
0.62731425
1.6196123
0.43024732
1.6326481
0.22857518
1.6853439
1.5912253
0.042172269
1.5893259
1.7081252
1.4009235
1.724804
1.2107523
1.7497363
1.0192306
1.7694113
0.82481122
1.7966958
0.62834245
1.816081
0.43033076
1.8306598
0.22650732
1.8891674
1.7765511
0.041181442
1.8903085
1.5955945
2.0722248
1.5958616
2.2536767
1.5963265
2.4349854
1.5964693
2.6158398
1.5969216
2.7963655
1.5972523
2.9766646
1.5974789
3.1560472
1.5983954
1.598424
3.3354012
1.9071276
1.413271
2.0891304
1.4138587
2.2707426
1.4147143
2.4519077
1.4153041
2.6332456
1.4155837
2.8138502
1.4166477
2.9946928
1.4166363
3.1749889
1.4180993
1.4177038
3.3557092
1.9345282
1.2284791
2.1187543
1.2296327
2.3029265
1.2305421
2.4860834
1.2321472
2.6687874
1.2328797
2.8506204
1.2348147
3.031766
1.2354907
3.2122271
1.2376381
1.238031
3.3918999
1.9563622
1.0415281
2.1428196
1.0431753
2.3291908
1.0441709
2.5152425
1.0460956
2.7010661
1.0470561
2.8868177
1.0490631
3.0726957
1.0496127
3.2583874
1.0519464
1.0524159
3.4440026
1.9876147
0.85060918
2.1784093
0.85238074
2.3692189
0.85336136
2.5598214
0.85549303
2.7499944
0.85688308
2.9396814
0.85937609
3.1283303
0.86096378
3.3165556
0.86372114
0.86527349
3.503698
2.0100945
0.65659566
2.2050508
0.65742445
2.4002744
0.65813775
2.5964195
0.659348
2.7926768
0.66062578
2.9900304
0.66202247
3.18715
0.66384422
3.3851702
0.66570087
0.66755835
3.5828854
2.028466
0.45878943
2.2293278
0.45656268
2.4309945
0.45647096
2.6341541
0.45618848
2.8366327
0.45814715
3.0397744
0.4588808
3.2418204
0.46179813
3.4446858
0.46283551
0.46637299
3.6458712
2.0957947
0.25216214
2.301929
0.25042834
2.5045287
0.25387123
2.7079336
0.25278367
2.9118603
0.25422036
3.1191914
0.25154972
3.3280186
0.25297097
3.5405141
0.25033999
0.25201854
3.7548686
1.9804423
0.048271
2.1873361
0.04353449
2.4407179
0.00048946324
2.6955074
-0.0020058057
2.9541121
-0.0043843599
3.2120066
-0.0063447838
3.4712108
-0.0062332108
3.7244109
-0.0028600989
3.960645
0.015784372
3.3253253
0.010075913
3.3161662
0.0091590641
3.3072001
0.0089660927
3.2993705
0.007829637
3.2916371
0.0077334197
3.2851926
0.0064444736
3.2787109
0.0064817025
3.2736576
0.0050533402
0.0051875169
3.2684701
3.3494009
0.016384134
3.3440449
0.014515129
3.3387577
0.014253277
3.3344801
0.012107269
3.3301819
0.012031557
3.326966
0.0096604331
3.323669
0.0097787162
3.3215528
0.0071695303
0.007541975
3.3191983
3.3876896
0.020594362
3.3840071
0.018197716
3.3805389
0.017721421
3.3774938
0.015152427
3.3747267
0.014798663
3.3723732
0.012013888
3.3703593
0.011792593
3.3687924
0.0087364475
0.0087230376
3.3676113
3.4415364
0.023060474
3.4394506
0.020283568
3.4375453
0.019626664
3.4358782
0.01681953
3.4343915
0.016285452
3.4330856
0.013319738
3.4319643
0.012913851
3.4309856
0.0097151803
0.0095382489
3.4301704
3.502088
0.024670419
3.5006536
0.021718036
3.4992786
0.021001633
3.4979831
0.018115017
3.4967471
0.01752147
3.4955638
0.014503063
3.4944372
0.014040407
3.4932575
0.010894921
0.01054098
3.4922548
3.581317
0.026238825
3.5795814
0.023453556
3.5783377
0.022245428
3.5766412
0.019811458
3.5753087
0.018853947
3.5732953
0.016516452
3.5715911
0.015744687
3.568938
0.013547952
0.012937894
3.5665411
3.6463019
0.025808047
3.6460151
0.023740407
3.6458007
0.022459778
3.644797
0.020815213
3.643718
0.019932962
3.6415207
0.018713702
3.6390754
0.018189962
3.635238
0.01738535
0.017262152
3.6309138
3.7589198
0.021756811
3.7616897
0.020970513
3.7645477
0.019601758
3.765756
0.019606923
3.7665002
0.019188797
3.7649665
0.020247367
3.7620922
0.02106429
3.7559555
0.023522074
0.026056987
3.7471606
3.966122
0.016279867
3.967425
0.019667517
3.9685312
0.018495492
3.9660758
0.022062362
3.9626151
0.022649492
3.9536949
0.029167602
3.940657
0.034102169
3.9179546
0.046224514
3.8889272
0.055084312
3.8668874
0.076485241
-0.054445428
3.8319781
0.072982088
-0.038072815
3.7902786
0.069794891
-0.028095347
3.7469258
0.067390373
-0.02403756
3.700985
0.064810741
-0.018869939
3.6553105
0.062714661
-0.017040124
3.608575
0.060599133
-0.013863726
3.5638318
0.059280873
-0.01453763
0.057900874
3.518573
-0.012642035
3.7499981
0.073647766
3.7487258
0.074254355
3.7440281
0.074492675
3.7366977
0.074720674
3.7267965
0.074711967
3.714637
0.074874174
3.7003073
0.074928798
3.6842545
0.075333752
0.075665468
3.6664899
3.6378548
0.066706705
3.6440085
0.068100656
3.6484654
0.070035851
3.651865
0.071321079
3.6534731
0.073103857
3.6540709
0.074276373
3.6529642
0.076035433
3.6510509
0.077247096
0.07913663
3.6475797
3.5767679
0.056479966
3.5873216
0.057546937
3.5966762
0.060681218
3.6063052
0.061692138
3.614567
0.064842039
3.6229939
0.065849416
3.62997
0.069059317
3.6370676
0.07014949
0.073497173
3.6427071
3.5035045
0.045230253
3.5152513
0.045800136
3.5264143
0.049518222
3.5380902
0.050016173
3.5490672
0.053865061
3.5605794
0.054337229
3.5713127
0.058326034
3.5826247
0.058837494
0.06302109
3.5931008
3.4428142
0.032586502
3.4558056
0.032808717
3.4688911
0.036432711
3.4823651
0.036542178
3.495829
0.040401175
3.5097444
0.040421764
3.523545
0.044525416
3.5378901
0.04449246
0.048885514
3.5520257
3.3794344
0.020763426
3.3918031
0.02044005
3.4044732
0.023762599
3.4177411
0.023274233
3.4312745
0.026867853
3.4455017
0.02619455
3.4599609
0.030066241
3.4752244
0.029228943
0.033446466
3.4906634
3.3309375
0.0090242304
3.3426666
0.0087109099
3.3554399
0.010989386
3.3682034
0.010510652
3.3822355
0.012835817
3.3962322
0.012197848
3.4116462
0.014652217
3.4269502
0.013924944
0.016574529
3.4438221
3.2774943
3.2862052
3.2971946
3.3077052
3.320541
3.3327389
3.3473911
3.3613161
3.3778906
3.3936678
-0.015777213
3.4123181
-0.018650324
3.4301109
-0.017792751
3.4510226
-0.020911683
3.4710277
-0.02000512
3.4944392
-0.023411494
3.5169231
-0.022483903
3.5431524
-0.026229308
-0.025295348
3.5684477
3.4605163
-0.032471379
3.4789617
-0.037095717
3.4971768
-0.036007891
3.5173633
-0.04109812
3.5372791
-0.039920999
3.5594219
-0.04555424
3.5812444
-0.044306411
3.6055964
-0.050581334
-0.049271952
3.629573
3.5070344
-0.048842407
3.5235253
-0.053586542
3.5410989
-0.053581537
3.5587537
-0.058752875
3.5776669
-0.05883426
3.5966417
-0.064528987
3.6170717
-0.064736416
3.6375623
-0.071071941
-0.071428172
3.6597185
3.5668442
-0.06366095
3.5813804
-0.068122691
3.5967672
-0.068968403
3.6118134
-0.073799048
3.6278969
-0.074917794
3.6436076
-0.080239625
3.6605493
-0.081678193
3.6770984
-0.08762098
-0.089440612
3.6951108
3.6042094
-0.0747696
3.6144382
-0.078351521
3.6254005
-0.079930672
3.6354481
-0.083846607
3.6464052
-0.085874928
3.6564357
-0.090270122
3.667598
-0.092840496
3.6778962
-0.097919201
-0.10108141
3.689537
3.6485167
-0.08057921
3.6528756
-0.08271038
3.6575586
-0.084613714
3.6608317
-0.087119742
3.6646015
-0.089644693
3.6670106
-0.092679251
3.6701676
-0.095997495
3.672084
-0.099835528
-0.10400498
3.6750075
3.6435229
-0.076522335
3.6381007
-0.07728827
3.6322638
-0.078776807
3.6253072
-0.080163126
3.6180718
-0.08240925
3.6099985
-0.084605944
3.6016926
-0.087691619
3.5927616
-0.090904552
-0.094919261
3.5836759
3.6474636
-0.057496104
3.6270472
-0.056871804
3.6055772
-0.057306834
3.5828634
-0.05744937
3.559202
-0.058747807
3.5344148
-0.05981874
3.5087161
-0.061992876
3.4819566
-0.064145053
-0.067379165
3.4544165
3.4754779
-0.014401032
3.4312528
-0.012646729
3.3890019
-0.015055938
3.3448062
-0.013253646
3.3025645
-0.016506081
3.2574736
-0.014727904
3.2145193
-0.019038577
3.1676844
-0.017310124
3.1231326
-0.022827376
0.070857966
3.073368
-0.021093305
0.099400587
3.4258738
0.10889472
3.5741818
0.10706994
3.6768323
0.096215757
3.7003912
0.078540326
3.7127862
0.056261409
3.6819974
0.02940179
3.6564327
3.5978495
0.07533644
3.0264445
-0.028412967
0.10433636
3.3968739
0.1138295
3.5646886
0.11083774
3.6798241
0.098428921
3.7128
0.079055995
3.7321592
0.055057722
3.7059957
0.028641151
3.6828492
3.6264907
0.080506773
2.9728159
-0.026878188
0.1105356
3.3668451
0.12022968
3.5549945
0.1179507
3.6821031
0.106228
3.7245227
0.086920975
3.7514662
0.062412644
3.730504
0.032890886
3.712371
3.6593816
0.086559406
2.923344
-0.037087537
0.11640025
3.3370043
0.12586326
3.5455315
0.12229281
3.6856735
0.10880125
3.7380143
0.08796581
3.7723016
0.061951882
3.756518
0.032558373
3.7417645
3.6919399
0.093895937
2.8661574
-0.036709287
0.12459005
3.3063101
0.13400573
3.5361159
0.13074154
3.6889377
0.11779788
3.7509579
0.096389362
3.7937102
0.069326203
3.7835811
0.03689584
3.7741949
3.7288358
0.10189684
2.8163393
-0.052078781
0.13144156
3.2767654
0.14024242
3.527315
0.13548528
3.6936949
0.1206312
3.765812
0.097881488
3.8164599
0.069686616
3.811776
0.037065485
3.806816
3.7659013
0.11202226
2.7584056
-0.054088586
0.14194085
3.2468468
0.15046152
3.5187943
0.14559014
3.6985662
0.13097065
3.7804315
0.10702685
3.8404037
0.077093464
3.8417094
0.041431979
3.8424775
3.8073332
0.12184587
2.7150366
-0.078476868
0.1497466
3.2189461
0.15712304
3.5114179
0.1505334
3.7051559
0.13387784
3.7970871
0.10890288
3.8653786
0.078210542
3.8724017
0.042089682
3.8785983
3.8494229
0.13626251
2.6588819
-0.080107736
0.16344735
3.1917613
0.17030984
3.5045554
0.16325962
3.7122061
0.14651932
3.8138274
0.11908722
3.8928107
0.085586972
3.905902
0.046451605
3.9177337
3.8958745
-0.0078744274
3.9037489
-0.0072008183
3.9170601
-0.0029100052
3.9016112
0.0082319885
3.8816687
0.021028368
3.801031
0.040025911
3.6932086
0.060285643
3.4842956
0.080141109
3.1719058
2.6759433
0.063079713
-0.010562828
3.9143118
-0.011880804
3.9183781
-0.010652235
3.9003826
-0.0027872956
3.8738038
0.0090067038
3.789237
0.026577442
3.6756378
0.043863846
3.4670092
0.060114004
3.1556557
2.6786586
0.057398606
-0.010686108
3.9249979
-0.012823852
3.9205158
-0.010243246
3.897802
-0.00068896514
3.8642495
0.0095538582
3.7789942
0.025842834
3.6593488
0.042506364
3.4503457
0.059158048
3.139004
2.6828197
0.054996981
-0.012864596
3.9378625
-0.016648799
3.9243
-0.018060564
3.8992137
-0.012725919
3.8589149
-0.0030438178
3.7693121
0.012304158
3.6440009
0.027383902
3.435266
0.04096511
3.1254228
2.6877762
0.03600864
-0.013181902
3.9510444
-0.017719644
3.9288378
-0.016920606
3.8984147
-0.0090520473
3.8510463
-0.00077918911
3.7610392
0.013452011
3.6297697
0.027913407
3.4208046
0.041549056
3.1117871
2.6884033
0.040921927
-0.015175454
3.9662198
-0.020812133
3.9344744
-0.024420899
3.9020235
-0.021126064
3.8477515
-0.013169747
3.7530829
0.00011405428
3.6164859
0.013329627
3.407589
0.025689156
3.0994276
2.6856146
0.028477851
-0.015800232
3.9820201
-0.02186604
3.9405402
-0.022587034
3.9027445
-0.016102055
3.8412665
-0.0092746383
3.7462555
0.0028230536
3.6043882
0.015651457
3.3947606
0.028740649
3.0863384
2.6792343
0.035120935
-0.017436777
3.9994568
-0.023944544
3.947048
-0.029184638
3.9079846
-0.027597731
3.8396796
-0.021542379
3.7402001
-0.0103111
3.5931569
0.0019565141
3.382493
0.014957775
3.0733371
2.6699394
0.024252703
-0.017702609
4.0171594
-0.024524538
3.9538699
-0.026794068
3.9102541
-0.021401651
3.8342872
-0.015773574
3.734572
-0.0055074713
3.5828908
0.0062662387
3.3707193
0.019584037
3.0600193
2.6575598
0.031963622
-0.0071726161
2.6427251
0.022007349
0.0063979305
3.0464488
0.017889847
3.3592274
0.027482125
3.5732985
0.031743494
3.7303107
0.03240559
3.8336251
0.025928169
3.9167315
0.018777275
3.9610208
4.0359367
-0.01318859
2.6256515
0.030262164
0.00027294796
3.0329873
0.01092874
3.3485716
0.019627381
3.5645999
0.02412246
3.7258156
0.029219153
3.8285284
0.025845403
3.9201053
0.018617122
3.9682491
4.0545538
-0.0019874149
2.606793
0.020845897
0.011793371
3.0192065
0.022188563
3.3381764
0.030137567
3.5566509
0.033044864
3.7229083
0.033244604
3.8283286
0.026367827
3.926982
0.019173335
3.9754436
4.0737272
-0.0093372553
2.5866659
0.029464351
0.0037130715
3.0061561
0.013093087
3.3287964
0.020455387
3.5492886
0.024263523
3.7191002
0.028896225
3.8236959
0.025350537
3.9305277
0.018464965
3.9823292
4.0921921
0.00065117246
2.5657166
0.020298195
0.013861065
2.9929462
0.022568011
3.3200894
0.028945416
3.5429112
0.031184009
3.7168616
0.031302711
3.8235772
0.024902457
3.936928
0.018453542
3.9887781
4.1106457
-0.008022064
2.5444848
0.029253828
0.0040240011
2.9809002
0.011517007
3.3125964
0.017732317
3.5366959
0.021143485
3.7134504
0.025653971
3.8190667
0.022880712
3.9397012
0.017137745
3.9945211
4.1277834
0.0005044332
2.5238088
0.020171619
0.012213733
2.9691909
0.018848703
3.3059614
0.023774622
3.5317699
0.025914977
3.71131
0.026387409
3.8185943
0.021367852
3.9447208
0.01646098
3.9994279
4.1442444
-0.0098178013
2.5043569
0.029269673
0.00049647608
2.9588766
0.0056471098
3.3008108
0.010803314
3.5266137
0.014405787
3.7077076
0.019314244
3.8136859
0.018379205
3.9456558
0.014511167
4.003296
4.1587556
-0.0028586516
2.4872737
0.019941813
0.006283175
2.9497348
0.01036378
3.2967302
0.014253828
3.5227237
0.017099291
3.7048621
0.018466454
3.8123187
0.015902214
3.9482201
0.013282563
4.0059156
4.1720381
0.0037529383
4.1682852
0.014235587
3.995433
0.026312353
3.9361433
0.040870083
3.797761
0.050401845
3.6953303
0.055880321
3.5172452
0.054166768
3.2984437
0.049402533
2.954499
2.488224
0.048452244
0.0064538841
4.1618313
0.019155519
3.9827313
0.03022238
3.9250764
0.042291901
3.7856914
0.052198381
3.6854239
0.056980846
3.5124627
0.053629534
3.3017951
0.045096831
2.9630317
2.4967292
0.036591608
0.01028379
4.1515475
0.025124107
3.967891
0.041271041
3.9089295
0.059604727
3.7673578
0.072766776
3.6722618
0.080325271
3.5049042
0.077965264
3.3041551
0.069711831
2.9712851
2.5139829
0.052458158
0.013463731
4.1380838
0.030546786
3.950808
0.046090462
3.8933858
0.062736474
3.7507117
0.077460104
3.6575382
0.085652585
3.4967118
0.082988474
3.3068192
0.071192757
2.9830809
2.5421522
0.043023415
0.017410058
4.1206737
0.037054529
3.9311635
0.058230584
3.8722098
0.081249809
3.7276925
0.09971803
3.63907
0.111155
3.4852748
0.110782
3.3071922
0.10233941
2.9915235
2.5897616
0.054730059
0.020616131
4.1000576
0.042545919
3.9092337
0.063299343
3.8514564
0.085191969
3.7057999
0.10621114
3.6180508
0.11983293
3.471653
0.1203664
3.3066587
0.11412647
2.9977634
2.6606178
0.043270243
0.024671707
4.0753859
0.049152181
3.8847532
0.075798783
3.8248098
0.10399188
3.6776068
0.12905709
3.5929856
0.14808449
3.4526256
0.14985204
3.3048912
0.15345544
2.99416
2.7490736
0.064999631
0.028466903
4.046919
0.054473862
3.8587463
0.080458863
3.7988248
0.10754642
3.6505192
0.13585622
3.5646758
0.15907497
3.4294069
0.15954673
3.3044194
0.17288848
2.9808182
2.8435956
0.078366463
0.033451019
4.013468
0.060888881
3.8313084
0.092566559
3.7671471
0.12693988
3.6161459
0.16102388
3.5305918
0.19218503
3.3982457
0.19779315
3.2988113
0.22109328
2.9575181
2.8814989
0.18319
-0.16598175
4.1794497
-0.31932172
3.9846484
-0.46931035
3.9171357
-0.60495443
3.75179
-0.72919224
3.6548296
-0.84160607
3.5106595
-0.94621748
3.4034227
-1.001447
3.0127476
2.8816351
-1.0015831
-0.1656107
4.3450604
-0.32455526
4.1435929
-0.47424042
4.0668209
-0.60919239
3.886742
-0.73640967
3.7820469
-0.85196071
3.6262106
-0.95818749
3.5096495
-0.98377863
3.0383388
2.6690111
-0.77115462
-0.16864005
4.5137005
-0.3245999
4.2995528
-0.47675321
4.2189742
-0.61670816
4.0266969
-0.74403366
3.9093724
-0.86107805
3.743255
-0.9604542
3.6090256
-0.93101646
3.008901
1.988202
-0.2502074
-0.16760332
4.6813038
-0.32912058
4.4610701
-0.48171045
4.371564
-0.6209667
4.1659531
-0.74926004
4.0376657
-0.86792507
3.86192
-0.95508766
3.6961882
-0.86973276
2.9235461
1.1849627
-0.066493465
-0.16966797
4.8509718
-0.32913572
4.6205378
-0.48295292
4.5253812
-0.6273747
4.3103749
-0.75527738
4.1655684
-0.87408642
3.980729
-0.94567584
3.7677776
-0.77148632
2.7493566
0.42990877
-0.016432381
-0.167415
5.0183868
-0.33275601
4.7858788
-0.48708445
4.6797097
-0.63145308
4.4547436
-0.75875679
4.2928721
-0.874072
4.0960442
-0.91521265
3.8089183
-0.52779031
2.3619343
-0.1466361
0.048754564
-0.1686626
5.1870494
-0.33300318
4.9502194
-0.48603968
4.8327462
-0.63664596
4.6053498
-0.76182251
4.4180487
-0.86770335
4.2019251
-0.845493
3.7867079
-0.3745048
1.8909461
-0.57291947
0.051778569
-0.16548663
5.352536
-0.33652394
5.1212567
-0.48980993
4.9860322
-0.64013497
4.7556749
-0.76068063
4.5385943
-0.85546612
4.2967106
-0.77462421
3.705866
-0.31115843
1.4274803
-0.93240018
0.048322275
-0.16554778
5.5180838
-0.3377971
5.293506
-0.48941742
5.1376525
-0.64391758
4.910175
-0.75941319
4.6540899
-0.83356265
4.37086
-0.67190993
3.5442133
-0.215929
0.97149937
-1.2143527
0.06602347
0.096170291
-1.3584938
0.047970848
0.35122618
0.71644348
0.47929075
3.4161487
0.45319316
4.3969576
0.39674136
4.7105417
0.30384322
5.0030732
0.21091191
5.2305838
0.096154332
5.4082636
5.6142381
0.060445321
-1.4719094
0.052970249
0.30466761
0.47222119
0.46911288
3.2517035
0.44905226
4.4170182
0.395906
4.763688
0.300494
5.0984852
0.20870677
5.322371
0.093297474
5.5236729
5.7075356
0.029057967
-1.5596026
0.058635271
0.2583879
0.24289126
0.45231389
3.0577775
0.44484073
4.4244914
0.3969445
4.8115842
0.30230174
5.1931279
0.20764612
5.4170266
0.08839604
5.642923
5.7959316
0.0019766268
-1.6225972
0.061017982
0.21825672
0.026611167
0.43638615
2.839648
0.43958302
4.4212945
0.39587572
4.8552915
0.29874451
5.2902592
0.20453275
5.5112384
0.084863055
5.7625927
5.8807947
-0.013530798
-1.6715746
0.062508196
0.18382054
-0.17074017
0.41253139
2.6109372
0.43456817
4.3992577
0.39616205
4.8936976
0.30013789
5.3862833
0.20207194
5.6093044
0.078977559
5.8856871
5.9597723
-0.0071279443
-1.7261046
0.061657917
0.18374356
-0.36161167
0.3942938
2.4003869
0.42959691
4.3639546
0.39455386
4.9287407
0.29639372
5.4844435
0.19784444
5.7078536
0.074605369
6.0089261
6.0343776
0.0019543768
-1.7821259
0.054066956
0.17941328
-0.53907057
0.36971636
2.2100839
0.42362095
4.31005
0.39537555
4.9569861
0.29735071
5.5824683
0.19398321
5.8112211
0.068097764
6.1348116
6.1024754
0.0056382405
-1.8436058
0.055841642
0.17431794
-0.70775027
0.35267047
2.0317313
0.41888802
4.2438325
0.39412097
4.9817531
0.29309466
5.6834946
0.18857733
5.9157384
0.063238065
6.2601508
6.1657135
0.01033155
-1.8582093
0.004271964
0.15847015
-0.85588887
0.32491038
1.8652911
0.41028997
4.1584529
0.3932521
4.998791
0.29376689
5.7829798
0.18315101
6.0263543
0.056865058
6.3864368
6.2225785
0.24644987
-2.0590431
-0.045616048
0.21106846
-0.82050746
0.20378762
1.8725719
0.30907834
4.0531622
0.3114045
4.9964649
0.18169086
5.9126935
0.063210891
6.1448343
-0.055274225
6.5049219
6.1673043
0.25630453
-2.3177806
0.0024329716
0.15598553
-0.72018846
0.14395141
1.8846061
0.29813453
3.8989791
0.30079304
4.9938064
0.14991752
6.063569
-0.0072898183
6.3020416
-0.10879398
6.6064261
6.0585103
0.26270625
-2.5113261
-0.069160733
0.13353318
-0.59101539
0.11799473
1.9001445
0.30132652
3.7156473
0.27503516
5.0200977
0.092109374
6.2464948
-0.05292109
6.4470721
-0.13069063
6.6841956
5.9278197
0.25466525
-2.6201109
-0.14588054
0.090773884
-0.42712402
0.09269949
1.8982189
0.31266317
3.4956836
0.25365207
5.0791088
0.034931651
6.4652152
-0.14251908
6.6245228
-0.18325143
6.724928
5.7445682
0.25194821
-2.6007954
-0.27126366
0.071429201
-0.24660501
0.074428296
1.8952198
0.31490814
3.2552038
0.20264504
5.1913719
-0.050035229
6.7178954
-0.19559261
6.7700802
-0.1912998
6.7206352
5.5532684
0.22044668
-2.4873124
-0.33392971
0.017983786
-0.044142119
0.058312373
1.8548912
0.32673926
2.9867769
0.15795318
5.360158
-0.12814358
7.0039922
-0.28150873
6.9234454
-0.22445748
6.6635839
5.328811
0.19162993
-2.3197246
-0.35921768
-0.0046305269
0.15211834
0.064773096
1.7854876
0.32367331
2.7278767
0.070176748
5.6136546
-0.23886256
7.3130315
-0.32556266
7.0101454
-0.20641663
6.5444379
5.1223943
0.15246438
-2.1146631
-0.35752596
-0.028236322
0.33281904
0.077362746
1.6798885
0.31112285
2.4941166
0.012927491
5.9118499
-0.31173098
7.63769
-0.38341803
7.0818325
-0.21540983
6.3764297
4.9069845
0.12067764
-0.28874089
-1.9465998
-0.024177338
0.47767403
0.13315369
1.5225575
0.29745419
2.3298161
-0.16056498
6.3698691
-0.47984687
7.9569719
-0.41627265
7.0182583
-0.16991539
6.1300724
4.7370691
-0.24792327
0.48569714
0.036554386
-0.27432826
-0.57946328
-1.4286208
1.7601609
-1.0527016
-2.4671921
2.9404304
-1.5221661
-0.093845639
0.56331016
-1.8718176
1.9564239
-1.6067724
-1.7584587
0.16809739
-0.28145634
-1.2013876
-1.5092854
0.95221435
-0.44196258
0.19527315
-0.95469819
0.48328358
-1.0595454
-0.23847569
0.69223477
0.031938054
-0.554472
-1.1126245
-1.0094649
-2.0121991
-1.481144
0.3778334
-1.7647833
2.2400633
-1.6786987
0.082012778
-1.3110734
-1.8769108
-0.39105334
-0.72474687
-0.34649497
-0.23355257
0.89551498
0.030272363
-0.52516823
-0.82100886
-0.94078339
-1.596584
-1.3762734
0.81332344
-1.5244144
2.3882043
-1.3150537
-0.12734797
-1.0712086
-2.1207558
-0.18773704
-1.6082184
-1.2872128
-0.22423195
1.0891248
0.030622096
-0.48973176
-0.55550905
-0.85411124
-1.2322045
-1.2440705
1.2032827
-1.3806024
2.5247361
-1.0597467
-0.44820365
-0.61655371
-2.5639488
0.10679199
-2.3315641
-1.946571
-0.21177776
1.2663804
0.034522225
-0.44993556
-0.31735126
-0.77891931
-0.90322074
-1.1126555
1.5370188
-1.0871821
2.4992628
-0.68006644
-0.8553193
-0.27626937
-2.9677459
0.41930379
-3.0271373
-2.5191859
-0.19549684
1.4246876
0.037189619
-0.39644058
-0.11640752
-0.66417668
-0.63548464
-0.93207177
1.8049139
-0.79210189
2.3592929
-0.25961256
-1.3878086
0.18771778
-3.4150762
0.77150818
-3.6109277
-2.9490843
-0.1872943
1.5720947
0.03988722
-0.36031396
0.056612132
-0.5685399
-0.42725869
-0.75255095
1.988925
-0.46839792
2.0751399
0.13744792
-1.9936545
0.54582141
-3.8234497
1.0786772
-4.1437835
-3.3356205
-0.16362051
1.6932056
0.042509599
-0.2827455
0.17573712
-0.4457351
-0.26426909
-0.57167199
2.1148619
-0.17012316
1.673591
0.51023292
-2.6740106
0.95719373
-4.2704105
1.4154252
-4.602015
-3.6287619
-0.15028111
0.04664221
1.7968445
-0.23794998
0.263406
-0.35163668
-0.1505824
-0.41162214
2.1748473
0.093778393
1.1681905
0.84864255
-3.4288747
1.2825959
-4.7043639
1.6584943
-4.9779134
-3.883376
0.34141608
2.2104915
-0.088296338
-2.4636112
0.65212386
3.5208625
-3.8315703
0.45711045
1.9290087
-1.7339953
-0.16834114
-4.4264279
5.0518795
-0.56221122
-7.8217038
8.2155739
-0.53985012
-8.1396535
8.1172924
-0.44546417
-7.34171
7.2473241
-0.18424669
-6.5402566
6.2790391
-4.9413425
4.7570958
0.32225981
1.9859252
-0.0976935
0.67859072
3.1645316
0.58263501
2.0249644
0.04791515
-3.891708
-0.35496315
-7.4188255
-0.44789762
-8.046719
-0.43921743
-7.3503902
-0.23486301
-6.744611
-5.1762055
0.29801933
1.8018331
-0.11392729
0.68020896
2.7823419
0.67347918
2.0316942
0.15202159
-3.3702504
-0.29597581
-6.9708281
-0.41936998
-7.9233249
-0.39999948
-7.3697607
-0.22955276
-6.9150577
-5.4057583
0.28512486
1.6246559
-0.1079476
0.68774123
2.3797256
0.7608912
1.9585443
0.31129889
-2.9206581
-0.11764716
-6.5418821
-0.32022844
-7.7207436
-0.37359719
-7.316392
-0.25766041
-7.0309945
-5.6634187
0.25676372
1.4769797
-0.1090875
0.67825341
1.9582359
0.84585721
1.7909405
0.42894002
-2.5037409
-0.020549968
-6.0923921
-0.25966204
-7.4816315
-0.31151277
-7.2645412
-0.23499511
-7.1075121
-5.8984138
0.22884033
1.3810048
-0.13286544
0.63089842
1.5561778
0.86868195
1.5531569
0.54845587
-2.1835148
0.14755234
-5.6914885
-0.1352864
-7.1987928
-0.26144283
-7.1383848
-0.23869869
-7.1302563
-6.1371125
0.20262776
1.3112256
-0.13284864
0.57640311
1.1824024
0.88802258
1.2415374
0.64901396
-1.9445062
0.24913305
-5.2916076
-0.042613441
-6.9070463
-0.17038797
-7.0106103
-0.19461399
-7.1060303
-6.3317265
0.17683535
1.1867684
-0.052378118
0.50529152
0.85394627
0.83921174
0.90761723
0.71428947
-1.819584
0.40532106
-4.9826392
0.094274963
-6.5960002
-0.10023569
-6.8160996
-0.17294832
-7.0333176
-6.5046748
0.13532709
1.0772801
-0.0258388
0.4154483
0.57382506
0.80631502
0.51675051
0.7909078
-1.8041767
0.50437428
-4.6961057
0.18697346
-6.2785994
0.0045720684
-6.6336982
-0.10736093
-6.9213846
-6.6120357
-0.11065643
6.0209483
-5.9102919
-0.25882817
5.7469046
-5.5987328
-0.39191577
5.4873469
-5.3542593
-0.5220148
5.0178906
-4.8877916
-0.57526564
4.2591596
-4.2059088
-0.50239925
3.1736452
-3.2465116
-0.2312205
1.7048728
-1.9760516
-0.018235842
0.52689763
-0.73988228
-0.84969674
0.78660467
0.044856228
-0.1050047
6.125953
-0.25074027
5.8926401
-0.38227638
5.618883
-0.52430833
5.1599226
-0.58351707
4.3183684
-0.48263402
3.0727622
-0.1803579
1.4025967
0.0078094796
0.33873024
-0.88946113
0.047573871
-0.094696405
6.2206494
-0.24637786
6.0443216
-0.38522533
5.7577305
-0.52883685
5.3035341
-0.58261195
4.3721435
-0.45343275
2.943583
-0.13859723
1.0877612
0.025938936
0.17419408
-0.91093796
0.047415763
-0.087760752
6.3084102
-0.23623593
6.1927968
-0.37319767
5.8946922
-0.52680097
5.4571374
-0.58672959
4.4320721
-0.42007826
2.7769316
-0.11616118
0.78384408
0.022257864
0.03577504
-0.93654535
0.047865254
-0.0775876
6.3859978
-0.22890812
6.3441173
-0.37360283
6.0393869
-0.52924893
5.6127835
-0.58505013
4.4878733
-0.38237443
2.5742559
-0.10940105
0.5108707
0.0076870619
-0.081313076
-0.975895
0.047036712
-0.070175381
6.4561731
-0.21734598
6.4912879
-0.35970992
6.1817509
-0.52263565
5.7757092
-0.58260935
4.547847
-0.36568071
2.3573273
-0.10255191
0.24774189
0.005031178
-0.18889616
-1.0188824
0.048018589
-0.059761996
6.5159351
-0.20768131
6.6392072
-0.35772791
6.3317975
-0.52179779
5.9397791
-0.5698336
4.5958828
-0.35347154
2.1409652
-0.10012277
-0.005606885
0.0064143119
-0.29543324
-1.0514374
0.038969324
-0.052753706
6.5686888
-0.19496759
6.7814211
-0.34122122
6.4780511
-0.51066336
6.1092212
-0.56310153
4.648321
-0.37890079
1.9567645
-0.12268843
-0.26181924
0.0056104324
-0.4237321
-1.0864098
0.040582785
-0.043346878
-0.18331043
-0.33895756
-0.50833568
-0.55612041
-0.40353264
-0.14860138
0.0014915858
-0.0076380622
0.097888125
0.6084503
0.080266248
0.48459969
-1.1265938
0.80614454
-2.2975964
0.86667298
-3.3070401
0.77322398
-4.1124598
0.58532512
-4.6998927
0.39489294
-5.1638271
0.18849197
-5.3923319
-5.7217999
0.19189049
0.35980696
0.05675285
0.60952671
-1.5442301
0.84371143
-2.5317811
0.85870129
-3.3220299
0.75992122
-4.0136797
0.58675118
-4.5267227
0.39592447
-4.9730004
0.18949906
-5.1859065
-5.5323008
0.2573794
0.019994852
0.082432713
0.70262833
-1.989479
0.85432898
-2.6834818
0.84680912
-3.3145101
0.74793766
-3.9148083
0.57661792
-4.3554029
0.39181156
-4.788194
0.19594249
-4.9900374
-5.3363583
0.45071275
-0.50646636
0.075748459
0.7844222
-2.3231885
0.86732852
-2.7663881
0.83583319
-3.2830147
0.73290256
-3.8118776
0.57604982
-4.1985502
0.39357873
-4.6057229
0.19530346
-4.7917621
-5.1410549
0.66363502
-1.1623979
-0.0077034942
0.82320626
-2.4827597
0.86225
-2.8054318
0.82043026
-3.241195
0.71931978
-3.7107672
0.56593889
-4.0451693
0.38681077
-4.4265948
0.19958281
-4.6045342
-4.9414721
0.75613323
-1.8703124
-0.04821872
0.84377616
-2.5704026
0.85999066
-2.8216463
0.8085624
-3.1897667
0.70384064
-3.6060454
0.56188282
-3.9032115
0.38745771
-4.2521697
0.1973014
-4.4143779
-4.7441707
0.82491751
-2.4574678
-0.23776207
0.8607091
-2.6061942
0.850489
-2.8114262
0.79256828
-3.131846
0.69116591
-3.504643
0.54940533
-3.7614509
0.37814169
-4.0809061
0.19892044
-4.2351566
-4.5452502
0.88025527
-2.6194861
-0.71823702
0.86367046
-2.5896094
0.84111626
-2.788872
0.78077674
-3.0715065
0.67628139
-3.4001477
0.54322242
-3.628392
0.37782823
-3.9155119
0.19471144
-4.0520398
-4.3505388
0.8999957
-2.5951043
-0.92437746
0.86208138
-2.5516951
0.83076926
-2.7575599
0.76466085
-3.0053981
0.66443458
-3.2999214
0.53169115
-3.4956485
0.36711628
-3.750937
0.19437
-3.8792935
-4.1561688
-0.01640935
4.1171732
-4.1007638
-0.017570843
3.887604
-3.8864425
-0.014163534
3.7913814
-3.7947887
-0.0021293356
3.5739912
-3.5860254
0.0088794307
3.4280294
-3.4390382
0.025390521
3.1988389
-3.21535
0.040327164
2.9944087
-3.0093454
0.040708796
2.7211025
-2.7214841
2.2942656
-2.296799
0.043242236
-0.016031096
4.1332043
-0.016776027
3.888349
-0.017418393
3.7920237
-0.0098261083
3.5663989
0.0076059086
3.4105974
0.027206817
3.179238
0.040330634
2.9812849
0.043068294
2.7183648
2.3033629
0.033970928
-0.013518673
4.1467229
-0.013553035
3.8883833
-0.0087335016
3.7872042
0.0037528882
3.5539125
0.016626965
3.3977234
0.036601563
3.1592634
0.057138302
2.9607482
0.058111559
2.7173915
2.3149841
0.046490376