/*--------------------------------*- C++ -*----------------------------------*\
  =========                 |
  \\      /  F ield         | OpenFOAM: The Open Source CFD Toolbox
   \\    /   O peration     | Website:  https://openfoam.org
    \\  /    A nd           | Version:  11
     \\/     M anipulation  |
\*---------------------------------------------------------------------------*/
FoamFile
{
    format      ascii;
    class       volScalarField;
    location    "0.0705";
    object      Ma;
}
// * * * * * * * * * * * * * * * * * * * * * * * * * * * * * * * * * * * * * //

dimensions      [0 0 0 0 0 0 0];

internalField   nonuniform List<scalar> 
880
(
1.443353270571932
1.443353270571932
1.443353270571932
1.44335327034314
1.443353270571932
1.443353270571932
1.443353270571934
1.443352626174203
1.443353270571932
1.443353270571933
1.44335327057192
1.443347847612723
1.443353270571932
1.443353270571932
1.443353270600374
1.443324879679528
1.443353270571932
1.443353270571932
1.443353270571933
1.443353270573849
1.443353270571932
1.443353270571932
1.443353270571935
1.443353270571932
1.443353273845482
1.443353243262826
1.443359911830396
1.443353585059266
1.439512395103393
1.426150711556925
1.416112043911255
1.413695839477088
1.443353264621955
1.44335325907447
1.44335325528708
1.443353265521664
1.443353116936903
1.443353086104502
1.44335307544193
1.443353070990808
1.443207450762157
1.44318294880899
1.443176127420652
1.443141536203793
1.411852644760837
1.41074049264075
1.41243342947393
1.404683063126734
1.421751465070467
1.439792437185698
1.450509775675165
1.450851113965599
1.443034398662801
1.442947749097308
1.442918148872634
1.443281756101725
1.44335269071488
1.443352620170264
1.443352601870953
1.443353159951988
1.443353229915502
1.443353214467858
1.443353217483027
1.443353239382842
1.443353262306038
1.443353269833988
1.443353270557446
1.443353270571938
1.443353326286974
1.443353281280228
1.44335327091369
1.443353270581094
1.443391642090079
1.443361866424381
1.443353636349782
1.44335327322935
1.447149346849161
1.444267774647022
1.443426617224442
1.443354512537627
1.44335326490189
1.443353270476247
1.443353270568607
1.443353270571932
1.443353274619633
1.443353271086746
1.443353270629632
1.443353270573797
1.443350669474575
1.443353008894679
1.443353254129223
1.443353269138191
1.440220393921464
1.443400800488283
1.443355583318514
1.443353275087335
1.443353289010935
1.443352982314102
1.44322810873086
1.357176358429152
1.443353268011508
1.443352060335897
1.442467077147082
1.274902655369294
1.443353203879578
1.443351319049467
1.441791518297406
1.244089062429687
1.443353162391596
1.44335074322026
1.441406140271442
1.241170884541325
1.235482289916205
1.441030396603216
1.443349974833794
1.443353134012668
1.231366827382773
1.440660402091333
1.443349203770768
1.443353074783197
1.22001862877708
1.440061096937652
1.443347652755423
1.443353043951835
1.211640256603843
1.439379067139856
1.443345903798052
1.443352884784803
1.443352899051596
1.443346001518908
1.438861908914715
1.196967191947655
1.443352803205189
1.44334334710276
1.437971464675561
1.19700261290939
1.443352632548283
1.443341495928188
1.437681662763088
1.21406053484177
1.443352996683302
1.443341833975966
1.439149206073594
1.293126380524046
1.443351696856478
1.443376650620698
1.444110056869361
1.432433471266841
1.443354319100202
1.443360739337806
1.44407800403569
1.45444884474854
1.443353361304673
1.443341731713022
1.439275766710538
1.36653584825722
1.443353181854949
1.44327453217047
1.432322877242199
1.24889936038429
1.213121920189482
1.4332307989472
1.443311085260055
1.443353237737298
1.221311891906687
1.433671812941495
1.443308586166442
1.443353223980623
1.253623940630308
1.437100125628158
1.443334685839966
1.443353259759498
1.23266096917191
1.435918508500822
1.443328012965078
1.443353249430872
1.315995358472239
1.440058130596812
1.443344412032558
1.44335326240406
1.392963681020498
1.442561446194996
1.443351986811623
1.443353269591137
1.432897833597518
1.443275048643659
1.443353226944804
1.443353270622
1.446194596636738
1.44341968015712
1.443353531239479
1.443353270768731
1.412027613670835
1.44256527720808
1.443347617794748
1.443353252365423
1.41220438716081
1.442573121086001
1.443347631251502
1.443353252345285
1.411761324929738
1.44258151920198
1.443347635477542
1.443353252195926
1.409301139301512
1.442574804898725
1.443347672447509
1.443353252204361
1.446194596641843
1.44341968016107
1.443353531245406
1.443353270763115
1.432897833602689
1.443275048648614
1.4433532269567
1.443353270620542
1.392963681019465
1.442561446192332
1.443351986810725
1.443353269590795
1.315995358466139
1.440058130585352
1.443344412031262
1.44335326240718
1.443353237729266
1.443311085241371
1.433230798943898
1.213121920186223
1.443353223973323
1.443308586165821
1.433671812935794
1.221311891902658
1.443353259766281
1.443334685832699
1.437100125627457
1.253623940620045
1.4433532494303
1.443328012961636
1.435918508492088
1.232660969175702
1.248899360392245
1.432322877250344
1.44327453218313
1.443353181860197
1.366535848263809
1.439275766717616
1.443341731724232
1.443353361318107
1.454448844748926
1.444078004044734
1.443360739337989
1.443354319106738
1.432433471264721
1.444110056872411
1.443376650624176
1.443351696841613
1.443352899056396
1.443346001509601
1.438861908910392
1.196967191940904
1.443352803203808
1.443343347097486
1.43797146467321
1.197002612909195
1.443352632540057
1.443341495928086
1.437681662769768
1.214060534842157
1.443352996669482
1.443341833975991
1.439149206078182
1.293126380524972
1.211640256594251
1.439379067148016
1.443345903785455
1.443352884785799
1.220018628769476
1.440061096914894
1.443347652755572
1.443353043949083
1.231366827384647
1.440660402082414
1.443349203755634
1.443353074786009
1.235482289905588
1.441030396623115
1.44334997483791
1.443353134015126
1.443353289004235
1.443352982306205
1.443228108732542
1.357176358436437
1.44335326801752
1.443352060345159
1.442467077140746
1.274902655374159
1.443353203883678
1.443351319049842
1.441791518297405
1.244089062421008
1.443353162396459
1.44335074321621
1.441406140268904
1.241170884548443
1.443353275088557
1.443353269135286
1.443353270574013
1.443353270571932
1.443355583327537
1.44335325413004
1.443353270623264
1.443353270570612
1.443400800486104
1.443353008890934
1.443353271091332
1.443353270478622
1.440220393921311
1.443350669474019
1.443353274619115
1.443353264901502
1.443353270572404
1.44335327058104
1.443353273226404
1.443354512534501
1.443353270558428
1.443353270915807
1.443353636334163
1.443426617224745
1.443353269831583
1.443353281280119
1.443361866434176
1.444267774646206
1.443353262303962
1.443353326288466
1.443391642079875
1.447149346853694
1.44335322992517
1.443352690722907
1.443034398666078
1.42175146507118
1.443353214475722
1.443352620169481
1.442947749098725
1.439792437191613
1.443353217486342
1.443352601861653
1.44291814887487
1.450509775677599
1.443353239385371
1.44335315994546
1.443281756103207
1.4508511139711
1.404683063123904
1.443141536185423
1.443353070995935
1.443353265526225
1.412433429475598
1.443176127400978
1.443353075443978
1.44335325528487
1.41074049263014
1.443182948804148
1.443353086103271
1.443353259077134
1.411852644763982
1.443207450802602
1.443353116938736
1.443353264619353
1.413695839473958
1.443353585047112
1.443353270571932
1.443353270573796
1.416112043912803
1.443359911843529
1.443353270571932
1.443353270571933
1.426150711552758
1.443353243265955
1.443353270571932
1.443353270571933
1.439512395104814
1.443353273845269
1.443353270571932
1.443353270571934
1.443353270571932
1.443353270571933
1.443353270571932
1.44335327031354
1.443353270571931
1.443353270571932
1.443353270571932
1.44335262618204
1.443353270571932
1.443353270571932
1.443353270571865
1.443347847627326
1.443353270571932
1.443353270571932
1.443353270601682
1.443324879689506
1.443353449389954
1.443353548552811
1.443355941444807
1.443004637180707
1.443353548432986
1.443357457986375
1.443382366336788
1.438202783907
1.443355941694862
1.443382366426638
1.44165665710708
1.403790261162171
1.443004637150806
1.438202783915035
1.403790261190082
1.238648782416892
1.070124185689899
1.164899857200497
1.316551410643819
1.393505371214372
1.123632990340079
1.148187308017471
1.214430546841422
1.282460426110802
1.180969161178921
1.21036915389173
1.244367101240371
1.279349688196968
1.208838608746373
1.263597386042602
1.278457001492897
1.29435663285238
1.30260233521482
1.30824383827871
1.310890554767233
1.299270873801205
1.301166487395736
1.313315764486761
1.317227719864679
1.318119897823588
1.29451090250895
1.307740951676805
1.310517877738674
1.388174158701726
1.222886318533238
1.232460126986638
1.234469698313706
1.490967163877256
1.420865867005706
1.5364257683303
1.522237880772303
1.481877449604495
1.512034135427955
1.61532841841395
1.55182975392637
1.499169746122749
1.677030871801787
1.639179929644212
1.557452701046606
1.507765250769766
1.275486638914933
1.263061568119674
1.297030600322972
1.363472156472635
1.457700434590986
1.447143442073697
1.443859570312551
1.443373315146188
1.470957394971728
1.45226260740344
1.444746283467853
1.443418193012257
1.481374186550308
1.458641357087101
1.446215859928886
1.443509964403509
1.408099454147922
1.430235867700161
1.441021312288816
1.443215904719545
1.443353398962924
1.443353278875054
1.443354231597952
1.34372206801719
1.443353799025679
1.44335328004629
1.443353127664614
1.23035082611863
1.443354778473638
1.443353289617033
1.443352857018656
1.121219375483156
1.44335532558646
1.443353273454433
1.443352648000613
0.9458774724676352
0.8946824837047023
0.9478082828432562
0.9760184803674771
0.9968234948438728
0.7554555727468243
0.8888740735077737
0.9649982998412988
0.9980230021514648
0.6467670874680026
0.8289300525588535
0.9425006335941779
0.9942415950630336
0.5423247187450121
0.7386761489236383
0.8299176390526767
0.8892108623141775
1.00608424541581
1.008969761344945
1.006739668305392
1.006415022999103
1.011103497892537
1.015588898917926
1.015556555780328
1.016075400247136
1.010626026995032
1.013970576910325
1.014028515998007
1.014614403184813
0.9207169450490952
0.9304239636108736
0.9315993560424729
0.928121350418062
1.004507779771688
1.013995514517364
1.044424070563804
1.126621698622237
1.015553912675286
1.026133648842994
1.067937513228501
1.171612416143315
1.013342563578287
1.020302817546054
1.088034263158582
1.459073609338237
0.9378810251075091
0.9506243551481887
1.076976305699843
1.989801699441744
1.351792666107815
1.410808457109639
0.5364356576923763
0.1988261291426556
1.395349470051037
1.20778235963427
0.4622489385306177
0.1968886927866819
1.485212018214312
0.8956205006764875
0.3731628305432266
0.1099074693714083
1.111359002097734
0.3607347642651603
0.2724486101098479
0.1318154492656255
0.123368499597844
0.1510865286831135
0.2131192772423356
0.218642364790624
0.2220104195331421
0.2065721297470427
0.2336123389494343
0.3356847781641918
0.03387372628377312
0.1547866237720914
0.3203086221153393
0.4462908169732558
0.08699714906328809
0.1594326831674123
0.324278787293423
0.4975719543378505
1.173919301728006
1.373147923090613
1.463317389201074
1.479496788487613
0.8238532594038139
1.162171202607883
1.370695425610772
1.464115778533674
0.2583657480900261
0.6788087694185029
1.073249100717028
1.50190175634415
0.1074609060286275
0.3556012603206505
0.8294023490071769
1.772252772529616
1.660798232677132
2.092215820006871
1.992950658903556
1.290540508042711
1.789499482743017
2.250224616680919
2.882616107706712
1.686983779488655
1.890097056070957
2.316448673804771
2.785308204953759
1.452704622652506
1.561657630233763
1.573002123265283
1.412004020950977
0.7807541792201427
0.6077253227680761
0.5401011195212636
0.3637632587794703
0.2747787923123798
0.815197816865135
0.7478237068424335
0.5152377341319936
0.2498152328219976
0.964398559562386
0.8951916655184206
0.7093108725847532
0.2986075626218748
0.9650824923380688
0.8496868831517985
0.7149993553085238
0.5082619818694862
0.2747787923123259
0.2498152328212926
0.2986075626206505
0.5082619818677339
0.3637632587799018
0.5152377341324743
0.7093108725822179
0.7149993553066074
0.5401011195218308
0.7478237068435933
0.8951916655210884
0.8496868831523927
0.607725322767372
0.8151978168624875
0.9643985595652191
0.9650824923405636
1.290540508046199
1.992950658909261
2.092215820014212
1.660798232686711
1.686983779492275
2.882616107703242
2.250224616681896
1.789499482748371
1.452704622650224
2.785308204951754
2.316448673808329
1.890097056074324
0.7807541792184114
1.412004020951327
1.573002123265994
1.561657630235718
1.772252772532191
0.8294023490078356
0.3556012603211682
0.1074609060293294
1.501901756347729
1.073249100719743
0.6788087694188369
0.2583657480832701
1.464115778537665
1.370695425616324
1.16217120260756
0.8238532593942822
1.479496788492161
1.463317389205865
1.373147923089411
1.173919301723364
0.2186423647864689
0.2131192772347025
0.1510865286815918
0.1233684995990978
0.335684778168063
0.2336123389450966
0.2065721297480118
0.2220104195300408
0.4462908169771039
0.320308622112884
0.1547866237715674
0.03387372628240527
0.4975719543389093
0.324278787293542
0.1594326831668805
0.08699714906214449
0.1988261291468907
0.5364356576965934
1.410808457103168
1.351792666107412
0.1968886927695029
0.4622489385328414
1.207782359632763
1.395349470056697
0.109907469365039
0.3731628305392266
0.8956205006746347
1.485212018218374
0.1318154492595522
0.2724486101064517
0.3607347642656685
1.11135900210174
1.126621698622597
1.044424070562273
1.013995514516164
1.004507779766243
1.171612416144755
1.067937513227203
1.026133648841214
1.015553912671455
1.459073609341546
1.088034263158839
1.02030281754467
1.013342563576392
1.989801699446317
1.076976305704483
0.950624355153737
0.9378810251138328
1.006415022990449
1.006739668301898
1.008969761347284
1.00608424540912
1.016075400243274
1.015556555777468
1.015588898917947
1.011103497889398
1.014614403183726
1.014028515996039
1.013970576910215
1.010626026994113
0.9281213504233464
0.9315993560444341
0.9304239636109718
0.9207169450541395
0.9968234948434206
0.9760184803642855
0.9478082828466531
0.8946824837061126
0.9980230021527771
0.9649982998384412
0.8888740735100572
0.7554555727475938
0.9942415950644715
0.9425006335922429
0.8289300525598733
0.6467670874683585
0.8892108623129952
0.8299176390534339
0.7386761489244398
0.5423247187431339
1.343722068018153
1.443354231601226
1.443353278875608
1.443353398961697
1.230350826119899
1.443353127664993
1.443353280047004
1.44335379902492
1.121219375484505
1.443352857018195
1.443353289617411
1.44335477847251
0.945877472467108
1.443352648002373
1.443353273455963
1.443355325587806
1.443373315143943
1.44385957031361
1.447143442073461
1.457700434598756
1.443418193009036
1.444746283464658
1.452262607407361
1.470957394972487
1.443509964399827
1.446215859923416
1.458641357093141
1.481374186549013
1.443215904719773
1.44102131228792
1.430235867706255
1.408099454140345
1.481877449609315
1.522237880773296
1.536425768334569
1.42086586700496
1.499169746128444
1.551829753926556
1.615328418417534
1.512034135429281
1.507765250774958
1.557452701046861
1.639179929649098
1.677030871803523
1.363472156474452
1.297030600324308
1.26306156812247
1.275486638915673
1.299270873803563
1.310890554769409
1.308243838272868
1.302602335209911
1.318119897826523
1.317227719862894
1.313315764483875
1.301166487393095
1.388174158707941
1.310517877738371
1.307740951676933
1.294510902507275
1.490967163886726
1.234469698323634
1.232460126994475
1.22288631853064
1.294356632848905
1.279349688199962
1.282460426108165
1.393505371215431
1.278457001490408
1.244367101241223
1.2144305468412
1.316551410658773
1.263597386040525
1.210369153893153
1.148187308019587
1.164899857198793
1.208838608753031
1.180969161188436
1.123632990341355
1.070124185693772
1.442537225356336
1.443273738074689
1.443352762714448
1.443353269254503
1.437756443580042
1.443155544933511
1.443351969996098
1.443353266501354
1.419973340366135
1.442900650694918
1.443350426749053
1.443353261489738
1.401780641701696
1.442550248963087
1.44334809367082
1.44335325422267
1.443353252360691
1.44334761779662
1.442565277207965
1.412027613666331
1.443353252341541
1.443347631246211
1.442573121092914
1.412204387158364
1.443353252200769
1.44334763547078
1.442581519206741
1.411761324937246
1.443353252218577
1.443347672440081
1.442574804920167
1.409301139307694
1.443353254225128
1.443353261492623
1.443353266517347
1.443353269271274
1.443348093669214
1.443350426749314
1.44335196999943
1.443352762722829
1.44255024895952
1.442900650699583
1.443155544926452
1.443273738081485
1.401780641709877
1.41997334037152
1.437756443579213
1.442537225357306
)
;

boundaryField
{
    back
    {
        type            empty;
    }
    inlet
    {
        type            calculated;
        value           nonuniform List<scalar> 
16
(
1.443353270571932
1.443353270571932
1.443353270571932
1.443353270571932
1.443353270571932
1.443353270571932
1.443353270571932
1.443353270571602
1.443353270571574
1.443353270571932
1.443353270571932
1.443353270571933
1.443353270571932
1.443353270571932
1.443353270571932
1.443353270571932
)
;
    }
    front
    {
        type            empty;
    }
    top
    {
        type            calculated;
        value           uniform 0;
    }
    outlet
    {
        type            calculated;
        value           nonuniform List<scalar> 
16
(
1.443353245707244
1.443353245680417
1.443353245460276
1.443353245452153
1.443353268658036
1.443353264910801
1.443353258119283
1.4433532482288
1.443353245704238
1.443353245677934
1.443353245463216
1.443353245461235
1.443353248230339
1.443353258120801
1.443353264920761
1.443353268668847
)
;
    }
    bottom
    {
        type            calculated;
        value           uniform 0;
    }
    wall
    {
        type            calculated;
        value           uniform 0;
    }
}


// ************************************************************************* //
