/*--------------------------------*- C++ -*----------------------------------*\
  =========                 |
  \\      /  F ield         | OpenFOAM: The Open Source CFD Toolbox
   \\    /   O peration     | Website:  https://openfoam.org
    \\  /    A nd           | Version:  11
     \\/     M anipulation  |
\*---------------------------------------------------------------------------*/
FoamFile
{
    format      ascii;
    class       volScalarField;
    location    "14.8";
    object      p;
}
// * * * * * * * * * * * * * * * * * * * * * * * * * * * * * * * * * * * * * //

dimensions      [0 2 -2 0 0 0 0];

internalField   nonuniform List<scalar> 
4455
(
142.30897
142.40735
142.60291
142.91876
143.33269
143.91301
144.58507
145.87593
146.24638
142.25929
142.37001
142.58377
142.9113
143.36149
143.97341
144.77961
146.06206
146.96185
142.15727
142.29132
142.52747
142.87507
143.34556
143.9901
144.82534
146.20926
147.20052
142.00737
142.17371
142.43634
142.80528
143.29198
143.97566
144.8652
146.34861
147.56099
141.81933
142.02085
142.31221
142.70229
143.20778
143.92917
144.89411
146.49134
148.00625
141.60068
141.83872
142.15839
142.56749
143.09614
143.85894
144.89115
146.62988
148.43453
141.35924
141.63308
141.97922
142.40434
142.95262
143.75538
144.85294
146.75809
148.88943
141.10493
141.40937
141.77898
142.21767
142.78321
143.62316
144.77576
146.86115
149.34864
140.84634
141.17386
141.56136
142.01196
142.59137
143.46794
144.67515
146.94049
149.82642
140.59054
140.3448
140.11742
139.91253
139.73291
139.5809
139.4592
139.36998
139.31725
140.93192
140.68784
140.44869
140.21909
140.00371
139.80641
139.63036
139.47803
139.34904
141.32908
141.08427
140.83561
140.58716
140.34281
140.10643
139.88053
139.66763
139.46679
141.78533
141.53709
141.27949
141.01583
140.74764
140.47868
140.21229
139.95236
139.69487
142.37508
142.12996
141.87173
141.60249
141.32098
141.03174
140.73992
140.45403
140.16773
143.28773
143.06839
142.82388
142.5567
142.26139
141.94657
141.61498
141.27899
140.9368
144.55627
144.40879
144.23328
144.01814
143.73741
143.41035
143.04776
142.67228
142.29024
147.02149
147.00105
146.85922
146.6065
146.24724
145.81958
145.34426
144.83498
144.28511
150.44554
150.91316
150.81033
150.25035
149.4208
148.46684
147.4672
146.45275
145.4334
139.31184
139.29241
139.24994
139.19502
139.12415
139.04297
138.94177
138.82845
138.69181
139.27065
139.19602
139.10393
138.99451
138.86722
138.72303
138.56087
138.38069
138.18052
139.33462
139.23433
139.12986
139.01595
138.88857
138.74569
138.58594
138.4089
138.21371
139.50688
139.3778
139.25536
139.126
138.98154
138.81889
138.63657
138.4347
138.21324
139.94692
139.8106
139.69556
139.57642
139.43903
139.27984
139.09832
138.89623
138.67542
140.65629
140.48893
140.35339
140.21159
140.04688
139.85536
139.63723
139.39748
139.14254
141.97828
141.79301
141.64185
141.47116
141.26664
141.02943
140.76491
140.48109
140.18945
143.77527
143.32627
142.87541
142.40325
141.90599
141.3876
140.85826
140.33161
139.83642
144.52711
143.71475
142.90388
142.11074
141.34222
140.59463
139.88194
139.21306
138.61436
138.20315
137.81181
137.69463
137.92125
138.4527
139.17919
139.98836
140.84538
141.73549
139.41933
139.07343
138.78937
138.57564
138.43587
138.37435
138.39204
138.52021
138.71267
139.91248
139.65833
139.4162
139.19169
138.98837
138.81015
138.65852
138.53561
138.44213
138.88264
138.6284
138.37164
138.11351
137.85481
137.59666
137.33993
137.08652
136.83737
138.44373
138.20707
137.95967
137.70184
137.43281
137.15281
136.86123
136.55882
136.24525
137.97627
137.72589
137.45815
137.17329
136.87096
136.5509
136.21219
135.85467
135.47723
138.00234
137.77481
137.52787
137.26085
136.97287
136.66305
136.33003
135.97288
135.58992
137.96119
137.72109
137.45999
137.17744
136.87366
136.54567
136.19274
135.81119
135.40073
138.51903
138.30959
138.0884
137.85391
137.60442
137.32971
137.0276
136.6922
136.32379
135.91927
135.4792
134.999
134.47945
133.9137
133.30258
132.63735
131.9189
131.13661
134.95812
134.48383
133.9743
133.42968
132.84528
132.22133
131.55138
130.83542
130.06576
135.18039
134.74223
134.27479
133.77517
133.24263
132.67307
132.0655
131.41426
130.71815
135.08001
134.66149
134.2219
133.75872
133.27206
132.75777
132.21564
131.63943
131.02856
135.92155
135.58693
135.24241
134.88561
134.51732
134.13266
133.73198
133.30767
132.85968
136.59458
136.3585
136.13052
135.90863
135.6935
135.47907
135.26508
135.04153
134.80773
138.37995
138.34785
138.34666
138.37123
138.42128
138.48721
138.56816
138.65256
138.73853
138.97983
139.30635
139.69152
140.12504
140.60461
141.1209
141.67103
142.24436
142.83746
142.65183
143.58894
144.5503
145.53411
146.54963
147.59205
148.67067
149.77833
150.9132
152.06725
143.43617
138.8124
134.55064
132.37771
130.37445
129.96983
129.24261
130.29165
153.24193
144.03601
138.87007
134.26927
131.86142
129.67613
129.16787
128.35616
129.37098
154.42788
144.61554
138.89996
133.94758
131.29785
128.92263
128.30313
127.40665
128.37602
155.62022
145.16875
138.89326
133.58296
130.68632
128.11263
127.374
126.38234
127.29137
156.79308
145.66293
138.83239
133.15534
130.01114
127.23285
126.36965
125.28387
126.1187
157.93374
146.09005
138.70394
132.6595
129.27094
126.28173
125.2882
124.0956
124.84217
158.9418
146.40163
138.48521
132.08071
128.44718
125.24435
124.11681
122.81695
123.46435
159.77892
146.5867
138.15687
131.40739
127.53563
124.11949
122.8526
121.44005
121.97689
160.21961
146.54109
137.67832
130.61623
126.51402
122.89143
121.47677
119.96446
120.39311
118.72426
118.37896
119.96636
121.53575
125.33249
129.65396
136.97377
146.20626
160.17649
117.02734
116.67335
118.29027
120.02547
123.91165
128.39766
135.76361
144.89325
157.30749
115.08884
114.83221
116.45995
118.35447
122.26895
126.86289
134.14806
143.12387
154.80413
112.88772
112.84156
114.47536
116.52436
120.4335
125.11804
132.31739
141.19929
152.53352
110.39774
110.68503
112.33515
114.53635
118.44712
123.22968
130.36409
139.20006
150.21348
107.75492
108.36627
110.03601
112.40227
116.31938
121.2095
128.29955
137.08692
147.7781
104.92617
105.87975
107.57234
110.11326
114.04907
119.04593
126.10127
134.84554
145.24683
101.94668
103.23274
104.93868
107.67347
111.62736
116.72756
123.75693
132.45456
142.71038
98.742183
100.4216
102.12608
105.07001
109.04498
114.24494
121.25552
129.93809
140.14843
137.55572
127.27971
118.60225
111.59654
106.29308
102.31455
99.132002
97.447227
95.346518
134.91896
124.50536
115.79774
108.7828
103.36744
99.395079
95.942851
94.301216
91.711095
132.23949
121.59003
112.84823
105.81468
100.26884
96.319138
92.578004
90.987181
87.883536
129.49726
118.55044
109.75214
102.69138
96.998448
93.06893
89.019978
87.491743
83.825236
126.69566
115.35276
106.51512
99.415113
93.563091
89.653571
85.300424
83.829942
79.584429
123.79829
112.01888
103.13408
95.986018
89.966621
86.067917
81.397884
79.988436
75.125103
120.8011
108.51105
99.620655
92.402373
86.218833
82.329861
77.351363
75.99257
70.50382
117.67073
104.86358
95.973073
88.66601
82.324289
78.420811
73.139523
71.827604
65.697199
114.40469
101.03212
92.197938
84.778198
78.294438
74.36808
68.814335
67.522588
60.812368
55.93631
63.032668
64.307189
70.056646
74.015418
80.587132
88.095361
96.776211
110.63011
51.147845
58.365356
59.669467
65.484298
69.455248
76.020345
83.597612
91.857344
106.06425
46.202356
53.568367
54.935626
60.734925
64.767507
71.271821
78.954459
86.844818
101.07233
41.168967
48.683922
50.178518
55.860759
59.973197
66.394473
74.236624
81.73104
95.697036
36.017277
43.707975
45.379276
50.888633
55.102666
61.421797
69.467274
76.701194
89.765373
30.96213
38.690532
40.587659
45.881478
50.161392
56.371165
64.68284
71.758661
83.122898
26.023078
33.66929
35.792242
40.866442
45.180129
51.242786
59.89428
67.232529
75.416794
21.398455
28.726907
31.057656
35.901264
40.196187
46.046626
55.105532
63.238439
66.515916
16.272186
23.937102
26.392726
31.014892
35.287494
40.828091
50.328742
60.206406
56.871743
11.286043
19.357744
21.802954
26.225301
30.39158
35.573062
45.037044
58.403089
50.083889
7.2275502
15.099551
17.365248
21.60424
25.857877
31.057918
40.858666
57.784661
47.045824
3.9976947
11.036967
13.18217
17.184386
21.625599
27.200809
37.985037
56.593931
49.387983
1.1795101
7.1730242
9.2433371
12.675148
17.340109
23.003247
35.328754
54.463377
60.083909
-1.3024402
3.4748882
5.4955072
7.9729517
12.83252
18.338328
32.621966
50.355641
56.218777
-3.3943469
-0.029302697
1.9692324
3.0438353
8.1317367
13.30781
29.548557
47.77999
53.513617
-5.008508
-3.3611005
-1.3406739
-2.008057
3.2337147
8.0372841
26.783999
47.829375
53.365356
-6.090122
-6.5116191
-4.4037937
-7.1111687
-1.8630928
2.7842034
24.621587
44.450015
51.060536
-6.6268978
-9.4400524
-7.2724527
-12.151713
-7.1958273
-3.0546497
22.79568
42.653268
50.597481
50.328639
41.786714
21.390588
-7.5690513
-12.344579
-16.837072
-9.8046516
-11.983455
-6.6275839
50.156068
41.373069
18.382823
-12.10535
-17.211172
-21.063981
-12.068257
-14.081114
-6.2006037
49.778097
40.089885
15.338051
-16.648762
-22.220643
-25.114772
-14.033174
-15.721018
-5.3316351
49.15797
38.196626
12.062293
-21.09693
-27.31548
-28.962234
-15.742446
-16.919691
-3.9486215
48.385246
36.668037
8.4577657
-25.47779
-32.473976
-32.576501
-17.131723
-17.663138
-2.1286418
47.499361
35.084127
4.6745335
-29.7058
-37.610636
-35.917768
-18.263685
-17.970177
0.1304357
46.659566
33.736934
1.2666982
-33.9731
-42.717625
-38.925529
-19.071132
-17.808033
2.7379952
45.396678
32.29996
-1.8115471
-38.213346
-47.644551
-41.519506
-19.610468
-17.166347
5.6844897
44.686754
31.707064
-4.5344967
-43.011485
-53.180346
-43.665294
-19.805578
-15.966098
9.2211153
43.876354
28.625143
-9.4679353
-50.396131
-60.782035
-45.996922
-19.480876
-12.917391
15.72532
41.910215
21.016107
-26.410914
-66.293381
-70.509038
-46.532782
-16.660158
-6.3510429
25.428757
40.38971
13.054665
-35.825144
-80.414001
-77.276542
-44.321452
-11.700729
2.3446523
35.706378
39.44869
3.9807221
-52.739062
-94.163057
-81.04169
-39.28529
-4.6513534
12.604459
45.885298
36.384592
-5.3380926
-63.392966
-105.79633
-81.3044
-31.841809
3.4675294
23.698693
55.548311
31.790335
-14.771409
-79.299824
-116.38719
-78.384261
-22.09982
12.563296
35.184903
64.032219
26.675037
-24.034192
-89.422741
-123.46399
-72.262961
-10.895096
21.785648
46.472491
71.303423
21.411948
-33.031996
-103.43305
-127.48349
-63.486368
1.5165664
31.089447
57.332261
77.130001
16.233233
-43.812708
-111.69085
-124.71653
-52.038687
13.687688
39.73483
67.134902
81.50882
22.011254
-28.846912
-109.9053
-130.9395
-53.216317
24.456137
55.230973
82.892337
110.66826
21.957435
-28.660734
-107.55076
-131.29378
-57.0688
22.155613
55.523131
81.388816
108.90261
21.806518
-28.573939
-106.30085
-132.2917
-59.875161
19.407873
55.2934
79.311586
107.43273
21.627429
-28.888128
-106.49077
-133.89818
-64.978496
15.372875
55.155668
76.735675
105.44969
21.352903
-29.052222
-107.1421
-136.22983
-69.169964
11.833585
54.066087
74.288264
104.09265
20.993329
-29.831632
-109.99775
-137.0068
-73.50858
8.982055
52.726964
72.013917
102.61486
20.684709
-30.344342
-112.21171
-139.4434
-77.581414
6.7416426
51.003873
69.94045
101.54388
20.315662
-31.181683
-114.75791
-142.8874
-80.289701
5.4123879
49.257727
68.0298
100.6915
20.035879
-32.221699
-117.24854
-145.22893
-82.729721
5.0218955
47.438911
67.831414
98.905555
14.356772
-53.992407
-133.08385
-132.95121
-36.586393
17.150436
40.552177
68.606561
81.999
20.132511
-42.371047
-124.32487
-138.62072
-50.875211
6.1759393
32.391135
58.8912
77.80821
25.926899
-31.698779
-108.62142
-136.41313
-62.796259
-5.6128942
23.634611
48.161857
72.180673
31.430192
-21.050768
-97.468988
-130.82745
-72.077628
-16.913898
14.849808
37.075813
65.117899
36.263413
-10.144786
-79.566315
-121.02523
-78.060103
-27.401681
6.0699217
25.754967
56.843239
39.349264
0.82912856
-67.354991
-109.53138
-80.681307
-35.956272
-2.0696549
14.800152
47.379834
40.518188
11.251136
-48.131248
-95.134566
-79.456376
-42.38695
-9.503289
4.4673816
37.360401
42.456655
20.369469
-37.048771
-80.255953
-74.632821
-45.955839
-15.076944
-4.4470199
27.15853
44.768734
28.777187
-17.373856
-62.50108
-66.159261
-46.638074
-18.650967
-11.450948
17.395226
-6.6279355
-13.011257
-11.423738
-20.06111
-17.127015
-14.910619
18.65501
43.789957
52.163599
-5.9831086
-14.878958
-13.522739
-24.242233
-22.236487
-19.909214
15.153679
43.012158
51.880695
-4.8808444
-16.265758
-15.285137
-28.184834
-27.480263
-24.952159
11.610546
41.375744
51.26835
-3.2714751
-17.202109
-16.766272
-31.872987
-32.783362
-29.930672
7.7123899
39.519162
50.481683
-1.2461065
-17.677763
-17.90816
-35.277165
-38.095047
-34.828863
3.5785291
37.818683
49.585507
1.1989728
-17.715766
-18.780952
-38.364285
-43.329638
-39.549854
-0.65783614
36.150467
48.580939
3.967814
-17.284221
-19.317865
-41.070952
-48.475269
-44.405405
-4.4344957
34.695457
47.740077
7.0530458
-16.374608
-19.568391
-43.319704
-53.386462
-49.169497
-8.0756833
33.177617
46.306374
10.713417
-14.91077
-19.480274
-45.057194
-58.91884
-54.51252
-11.233176
32.559619
45.496927
52.505235
44.305354
20.577197
-9.8887434
-11.716185
-15.36959
-9.0233076
-10.668459
-6.8181995
52.960934
45.704329
22.645726
-3.4269108
-6.1123753
-10.281868
-6.2685453
-7.9005581
-6.5017702
55.284171
49.011245
25.046285
2.4067733
-0.76044254
-5.106129
-3.3104151
-4.8751651
-5.6524325
55.602958
48.727116
27.89465
8.2381583
4.3742205
0.043258406
-0.093165274
-1.6469408
-4.2621642
57.710159
51.001763
30.983732
13.817345
9.3045864
5.088365
3.3635774
1.7652813
-2.3741591
61.832654
54.878093
33.756134
19.017319
14.03626
9.9205411
7.0742792
5.3846191
-0.068887028
51.447596
56.724832
36.413597
23.701475
18.543494
14.550658
11.01488
9.1937645
2.6013863
48.870815
57.601683
39.176405
27.895324
22.992541
19.094297
15.222934
13.220496
5.7136362
51.659755
58.083537
43.371199
32.768374
27.748391
23.832123
19.694335
17.46097
9.6793685
54.568319
61.746514
63.085151
68.947561
73.159894
80.115991
88.141526
97.105418
110.95316
49.690864
56.974553
58.328655
64.241159
68.452578
75.428898
83.604102
92.219604
106.46166
44.661712
52.07195
53.470995
59.348236
63.595747
70.53049
78.893383
87.241491
101.56423
39.56373
47.087143
48.588617
54.320241
58.619548
65.470162
74.070518
82.144195
96.285365
34.354179
42.017284
43.666945
49.191132
53.546421
60.278915
69.160991
77.109424
90.473831
29.25819
36.918824
38.764208
44.025178
48.39006
54.973311
64.201808
72.122012
83.966652
24.290071
31.83141
33.871543
38.854141
43.183894
49.549655
59.193863
67.503344
76.436527
19.667951
26.844559
29.055117
33.746233
37.976983
44.019859
54.128014
63.357016
67.735079
14.59466
22.034717
24.327521
28.731086
32.857308
38.430893
49.022623
60.116158
58.260643
114.66523
101.31586
92.257961
84.395544
77.55893
73.377907
67.702566
66.339551
59.54061
117.8823
105.11421
96.037682
88.350299
81.688202
77.537146
72.12951
70.741471
64.519585
120.97418
108.72536
99.684824
92.138602
85.66594
81.540955
76.435317
74.999211
69.42129
123.93552
112.20163
103.19424
95.762864
89.48342
85.364091
80.568129
79.080327
74.13259
126.80616
115.50398
106.56557
99.223444
93.139023
89.023968
84.549046
83.001317
78.678908
129.58394
118.67283
109.79208
102.52351
96.623514
92.503459
88.339458
86.735015
82.999598
132.30752
121.6863
112.87543
105.66646
99.934444
95.809736
91.961012
90.297736
87.133077
134.96932
124.57884
115.81366
108.64806
103.06609
98.935424
95.382787
93.671515
91.0281
137.59132
127.33258
118.60697
111.46635
106.018
101.89776
98.621898
96.871554
94.725873
118.43298
118.08895
119.70824
121.30972
125.16534
129.53666
136.91366
146.16312
160.15259
116.71396
116.36375
118.01529
119.78869
123.73928
128.28149
135.70829
144.85359
157.28584
114.74998
114.50079
116.16567
118.10514
122.08948
126.74735
134.09763
143.09214
154.78545
112.52261
112.48615
114.15934
116.25929
120.24529
125.00249
132.27226
141.17448
152.51931
110.00127
110.30244
111.99522
114.25408
118.24962
123.1139
130.32511
139.1843
150.20395
107.32411
107.95365
109.66936
112.09969
116.11119
121.09261
128.2673
137.08097
147.77531
104.45486
105.43279
107.17624
109.78827
113.82846
118.92735
126.07699
134.8517
145.25045
101.4314
102.74753
104.50936
107.32238
111.39184
116.60612
123.74152
132.47374
142.72315
98.176375
99.893505
101.65959
104.68967
108.79169
114.11994
121.25009
129.9733
140.17126
120.12194
121.72267
123.2255
124.6168
125.90545
127.08894
128.18345
129.18731
130.11616
119.69284
121.18498
122.57551
123.86466
125.0634
126.17179
127.20526
128.1632
129.05745
121.23154
122.61726
123.89166
125.07276
126.16313
127.17572
128.11236
128.98409
129.79246
122.67398
123.90982
125.04156
126.08526
127.04212
127.92727
128.74221
129.5004
130.2031
126.34954
127.37336
128.28688
129.11248
129.85436
130.53124
131.1444
131.70964
132.22757
130.49655
131.28554
131.95669
132.5336
133.02786
133.45406
133.81741
134.13802
134.41847
137.61216
138.08508
138.40808
138.62189
138.74578
138.80244
138.80522
138.77166
138.71058
146.49235
146.53259
146.34239
146.0259
145.59403
145.09526
144.53761
143.95374
143.34966
160.19254
159.74795
158.9073
157.89543
156.75073
155.57356
154.37676
153.18637
152.00744
130.96856
129.88777
130.54677
130.86142
132.71124
134.67483
138.6336
142.74678
150.84934
131.75773
130.66409
131.24845
131.47627
133.16093
134.90807
138.54491
142.14962
149.71063
132.48249
131.38623
131.90493
132.05633
133.58701
135.13128
138.45799
141.57232
148.59918
133.15359
132.06195
132.51742
132.60216
133.98948
135.34508
138.37475
141.01836
147.51624
133.77013
132.6913
133.09165
133.12007
134.376
135.55952
138.30678
140.49838
146.46863
134.34093
133.28078
133.6286
133.61023
134.74621
135.77483
138.25491
140.01526
145.44824
134.86518
133.83018
134.13242
134.07684
135.10499
135.99709
138.22877
139.57836
144.45977
135.34978
134.34424
134.60387
134.51979
135.45156
136.22563
138.22861
139.18999
143.4938
135.79396
134.82281
135.04587
134.94162
135.78829
136.46247
138.25959
138.8604
142.55209
138.42016
137.85563
137.89586
137.8652
138.33207
138.76561
139.79442
139.28738
138.06968
138.20836
137.61291
137.66572
137.61208
138.09287
138.50922
139.53888
138.94102
137.68169
137.98477
137.34902
137.41604
137.34148
137.84294
138.25036
139.29557
138.6568
137.56716
137.7478
137.06352
137.14618
137.05368
137.5826
137.99022
139.07022
138.44351
137.79647
137.49573
136.75663
136.85522
136.74834
137.31109
137.72962
138.86639
138.3048
138.33111
137.2182
136.42536
136.5423
136.42522
137.02867
137.4697
138.68794
138.2449
139.06153
136.91304
136.06898
136.20605
136.08339
136.73471
137.21138
138.53636
138.26429
139.87499
136.57433
135.68379
135.84554
135.72272
136.42998
136.95658
138.41378
138.39502
140.73649
136.20233
135.26948
135.45906
135.34208
136.11417
136.70624
138.32089
138.59036
141.63116
138.47818
139.70453
140.07301
139.02778
138.56638
138.10484
138.10974
138.07741
138.59498
139.07547
140.2
140.36654
139.28514
138.78987
138.32891
138.30737
138.27985
138.73328
139.74363
140.72723
140.65247
139.52738
138.99463
138.53332
138.48673
138.46209
138.84801
140.45565
141.25741
140.91943
139.74805
139.17881
138.71809
138.64867
138.62614
138.9505
141.2026
141.77707
141.15943
139.94213
139.34066
138.8831
138.79363
138.77202
139.03276
141.97138
142.27613
141.36703
140.10942
139.48069
139.02985
138.92294
138.90084
139.10459
142.76523
142.7507
141.54106
140.25388
139.60239
139.16141
139.0386
139.01163
139.1603
143.57762
143.20443
141.6957
140.39222
139.71983
139.28595
139.14457
139.10498
139.20336
144.39182
143.6562
141.88431
140.56264
139.85823
139.41697
139.24611
139.18074
139.223
145.29952
144.16888
142.19914
140.84684
140.08114
139.60718
139.37962
139.26039
139.2284
146.3192
144.72239
142.58429
141.19321
140.3707
139.86786
139.58269
139.39131
139.28183
147.33454
145.23552
142.96323
141.53317
140.65984
140.13101
139.79819
139.54585
139.37228
148.33618
145.71536
143.33009
141.86883
140.95517
140.40082
140.02708
139.72445
139.49564
149.29268
146.14835
143.66236
142.18787
141.2482
140.6735
140.26682
139.92467
139.64976
150.12724
146.51412
143.94897
142.48763
141.53372
140.94566
140.51489
140.14339
139.83201
150.69853
146.77509
144.1704
142.75955
141.80734
141.21356
140.76736
140.37673
140.04019
150.82395
146.92684
144.35195
143.00916
142.07025
141.47574
141.02041
140.61999
140.27143
150.38774
146.95775
144.50554
143.23396
142.3203
141.72888
141.27
140.86868
140.52147
142.30482
142.40367
142.59948
142.9154
143.32949
143.9101
144.583
145.87459
146.24439
142.24635
142.35841
142.5732
142.90137
143.35223
143.96468
144.77153
146.05501
146.95679
142.1353
142.27196
142.51011
142.85889
143.33021
143.9756
144.81116
146.1974
147.1945
141.97699
142.14692
142.41229
142.78294
143.27047
143.95522
144.84547
146.33152
147.54978
141.78117
141.98691
142.28156
142.67377
143.18019
143.90279
144.86953
146.46767
147.99298
141.55527
141.79799
142.12133
142.53286
143.06269
143.82682
144.8614
146.59904
148.41604
141.30698
141.58606
141.93614
142.36381
142.91348
143.71765
144.8178
146.71981
148.86584
141.04644
141.35652
141.73023
142.17155
142.73864
143.58001
144.73535
146.81498
149.31798
140.78224
141.11565
141.50731
141.96057
142.54163
143.41955
144.62973
146.88623
149.7863
149.13404
149.8299
150.52781
151.34915
152.2899
153.30429
154.39124
155.51126
156.56642
149.83171
150.47221
151.20041
152.05313
153.01322
154.03214
155.10315
156.20237
157.23329
150.5329
151.20292
151.9695
152.84223
153.80129
154.81134
155.86372
156.94542
157.98984
151.35673
152.05924
152.8458
153.71474
154.6578
155.65086
156.68669
157.76522
158.85124
152.30284
153.02494
153.81116
154.66437
155.57966
156.55328
157.57663
158.66697
159.82002
153.32612
154.05367
154.83141
155.66792
156.56429
157.5282
158.55796
159.68747
160.90639
154.4264
155.13935
155.90048
156.72107
157.60548
158.57655
159.62242
160.81779
162.15153
155.57038
156.26345
157.00723
157.82743
158.72717
159.74161
160.85911
162.07967
163.41063
156.66195
157.33214
158.0925
158.95814
159.93079
161.01568
162.26089
163.48197
165.21087
169.85909
166.35234
165.14414
163.28584
161.93489
160.64905
159.56988
158.63552
157.87549
159.79141
160.81947
160.77178
160.69713
160.35281
159.84351
159.26299
158.59331
157.90239
156.15999
156.6989
156.8242
157.04728
157.06708
157.00769
156.88019
156.64292
156.27834
153.78188
154.09417
154.07195
154.24963
154.26362
154.29004
154.26002
154.22075
154.06146
152.01259
152.19733
152.17751
152.2578
152.23376
152.23088
152.19935
152.1884
152.11875
150.41079
150.53554
150.48109
150.56641
150.50346
150.52758
150.45801
150.44253
150.37064
148.98636
149.02723
148.98843
149.01086
148.96355
148.94702
148.89978
148.865
148.81189
147.61496
147.60758
147.53659
147.553
147.47027
147.46822
147.39088
147.36332
147.2937
146.30809
146.2402
146.17137
146.11676
146.04295
145.98291
145.92407
145.87072
145.80997
144.42481
143.05739
141.56352
139.83923
137.87801
135.32319
132.27311
128.59134
125.79832
144.50377
143.12746
141.61395
139.86287
137.81451
135.24571
132.06354
128.48106
125.02474
144.52559
143.14846
141.59162
139.81989
137.68574
135.08584
131.79878
128.11616
124.10285
144.60704
143.19059
141.65429
139.81187
137.68227
134.94849
131.59287
127.57863
123.11097
144.63069
143.24407
141.65444
139.84464
137.63085
134.88743
131.37487
127.09959
122.15963
144.73078
143.30817
141.72661
139.88022
137.65836
134.84297
131.2657
126.59858
121.3006
144.76789
143.38253
141.77783
139.97396
137.69646
134.93015
131.21477
126.40876
120.44726
144.85268
143.43493
141.8432
140.004
137.76346
134.91123
131.22906
126.16733
121.79247
144.96902
143.57252
141.98271
140.19865
137.94892
135.23511
131.41107
126.4754
119.18535
126.34807
128.98298
132.15659
134.4032
135.91455
137.31976
138.68387
140.02771
141.31359
125.18921
128.12831
131.78061
134.154
135.73315
137.2149
138.66131
140.04404
141.35544
123.81171
127.36814
131.48104
133.90755
135.5159
137.04636
138.5442
139.96659
141.30066
121.97014
126.54004
131.23471
133.72881
135.44454
137.04631
138.59941
140.03267
141.37397
119.65155
125.48365
130.7379
133.26938
135.08131
136.79346
138.42546
139.91094
141.2811
116.90526
125.35394
130.93361
133.33951
135.19917
136.92678
138.55493
140.02174
141.38158
111.35453
123.64795
130.29347
132.71672
134.77734
136.66228
138.37872
139.88766
141.27646
107.32312
124.12457
130.77319
132.93603
134.94948
136.816
138.50439
139.99034
141.36178
96.695986
122.60887
130.36377
132.57553
134.7308
136.693
138.42383
139.91951
141.30798
142.56343
143.78417
145.03096
146.30195
147.62711
148.99613
150.43502
151.94847
153.57003
142.60062
143.83199
145.0739
146.35718
147.68114
149.06719
150.51317
152.0477
153.67429
142.56479
143.81327
145.07201
146.37142
147.70816
149.10923
150.56356
152.11604
153.75745
142.62798
143.88327
145.13856
146.44464
147.78054
149.1894
150.64832
152.21445
153.86555
142.55569
143.83031
145.10441
146.42432
147.77384
149.19696
150.6728
152.25795
153.92574
142.64158
143.90897
145.17406
146.49152
147.83794
149.26274
150.73764
152.3271
153.99883
142.55936
143.84674
145.1315
146.46361
147.8218
149.25697
150.74287
152.34484
154.02787
142.63469
143.91154
145.18988
146.51554
147.87159
149.30428
150.79013
152.39183
154.07644
142.58998
143.87731
145.16068
146.49476
147.85253
149.29147
150.77827
152.38605
154.07265
155.30605
157.18217
159.20059
161.36497
163.66646
166.12077
168.66629
171.33183
173.2297
155.43485
157.32264
159.37907
161.58611
163.97406
166.53054
169.23297
172.03008
174.08393
155.54465
157.45613
159.55294
161.80499
164.27875
166.93934
169.78882
172.68076
174.93622
155.67212
157.5995
159.73149
162.01608
164.56099
167.28756
170.26238
173.26406
175.77966
155.7525
157.69951
159.86078
162.17741
164.77904
167.56814
170.67412
173.80351
176.61686
155.83609
157.79394
159.97759
162.31586
164.96581
167.80197
171.04402
174.29206
177.44199
155.88056
157.84873
160.05297
162.4073
165.09888
167.96693
171.33494
174.70608
178.26192
155.93236
157.90328
160.11883
162.48062
165.20342
168.08825
171.57391
175.02281
179.22433
155.93434
157.91164
160.13218
162.50604
165.23521
168.14808
171.6864
175.22405
179.36218
174.2505
166.92978
164.18814
161.05143
157.83213
154.7505
151.79525
148.92634
146.11503
175.41598
167.74158
164.91493
161.63708
158.34472
155.18064
152.21235
149.29122
146.47018
176.49329
168.47608
165.58251
162.22901
158.86511
155.64611
152.64886
149.70505
146.86942
177.59648
169.15112
166.16972
162.70217
159.32562
156.03102
153.03658
150.03491
147.21245
178.75561
169.99184
166.87654
163.31331
159.88208
156.5663
153.5275
150.52786
147.67221
179.90587
170.56571
167.34972
163.69295
160.26371
156.85326
153.82188
150.75044
147.91277
181.31761
171.63073
168.09029
164.39134
160.90037
157.47312
154.39789
151.32539
148.46893
182.05415
171.90722
168.30912
164.55863
161.07665
157.59354
154.52223
151.41537
148.5646
184.49798
173.53758
169.27124
165.41268
161.88569
158.3492
155.23328
152.09599
149.22971
143.30131
140.4888
137.6484
134.78775
131.88585
128.94576
125.94614
122.88226
119.74226
143.61553
140.8107
137.94147
135.09445
132.16902
129.24155
126.21955
123.16783
120.00509
144.01611
141.20817
138.34647
135.49945
132.58365
129.66067
126.65326
123.61478
120.47104
144.31058
141.52543
138.62779
135.80465
132.86438
129.96061
126.93808
123.91281
120.76566
144.78167
141.97468
139.08912
136.25716
133.32111
130.42588
127.39689
124.40047
121.23106
144.97533
142.19225
139.27845
136.46464
133.51756
130.62942
127.60629
124.60149
121.46725
145.53163
142.74432
139.82758
137.02613
134.06665
131.20497
128.15957
125.20517
122.01087
145.60866
142.82709
139.90525
137.10233
134.15002
131.27874
128.25331
125.2747
122.14024
146.25733
143.4768
140.5451
137.75635
134.79405
131.94669
128.90982
125.97172
122.79218
116.14461
112.00623
107.83392
103.48161
99.14812
94.986133
91.009753
85.295422
78.093515
116.46803
112.40607
108.34765
104.0973
99.883252
95.864413
92.320261
87.351806
80.990618
116.9755
112.99241
109.0555
104.87844
100.84782
96.831197
93.587942
88.664205
83.477149
117.34865
113.48372
109.62218
105.56271
101.57915
97.690203
94.737669
91.738643
85.936348
117.87273
114.04624
110.35625
106.33149
102.51193
98.512384
95.899498
91.704475
93.647191
118.16214
114.5118
110.80766
106.97143
103.03591
99.182144
95.887201
95.709239
94.697015
118.80186
115.18109
111.73873
107.92083
104.23495
100.23938
97.189914
91.857547
114.85999
118.93945
115.4793
111.9486
108.34532
104.52165
100.63827
96.182807
94.217851
104.65512
119.71674
116.37586
113.12166
109.63148
106.17301
102.41208
99.993291
83.308102
141.58716
60.559958
48.203257
50.944311
47.750759
46.127701
50.047889
51.295262
51.575197
50.757543
61.80756
47.651083
51.128541
48.381207
48.913381
50.499936
51.508753
51.691518
50.871453
62.211297
46.944446
51.497529
48.305967
48.238361
50.584093
51.622427
51.757279
50.984348
60.692606
45.812603
52.269054
48.295301
49.702898
50.836142
51.70982
51.890184
51.085363
56.428859
44.527414
52.338372
48.530466
49.608759
51.084414
51.81924
52.002273
51.203512
51.24252
44.517782
53.573296
48.018494
50.18693
51.361569
51.865296
52.132269
51.308118
53.314701
55.905182
51.284311
48.685933
50.510647
51.518474
51.971879
52.235734
51.402389
52.698795
40.840652
52.261394
48.081382
50.775855
51.678439
51.998757
52.317478
51.467771
-18.975097
63.347429
49.595557
48.668923
51.461208
51.793148
52.091507
52.364809
51.493641
49.448077
48.074748
46.129786
43.747011
41.051332
36.899295
33.220614
22.951272
27.743204
49.71018
48.334345
46.316949
43.891014
40.836339
36.142497
32.172277
22.910578
29.255751
49.805887
48.310751
46.23991
43.597243
40.24508
35.079459
30.328827
23.388447
29.300671
49.905122
48.387234
46.179971
43.393171
39.716919
34.280739
29.135453
23.356708
31.454837
50.034491
48.444293
46.117618
43.191443
39.195393
33.675641
28.58273
25.469382
33.670771
50.110864
48.496152
46.051813
42.956743
38.740197
33.264753
28.682066
27.651074
35.954846
50.200382
48.499267
45.898903
42.619399
38.240706
32.787145
29.149682
30.168761
38.990002
50.234563
48.513142
45.824237
42.41806
37.923846
32.864731
29.347988
31.891558
40.149717
50.245154
48.382491
45.490978
41.811908
37.1047
32.178083
30.04199
34.75296
43.462561
30.009852
29.596291
30.766943
33.825582
37.499435
40.752586
39.453095
36.725908
33.426631
30.704458
29.216118
29.028737
32.689871
36.917443
40.729235
40.623628
38.818097
37.06257
31.37311
29.757882