/*--------------------------------*- C++ -*----------------------------------*\
  =========                 |
  \\      /  F ield         | OpenFOAM: The Open Source CFD Toolbox
   \\    /   O peration     | Website:  https://openfoam.org
    \\  /    A nd           | Version:  11
     \\/     M anipulation  |
\*---------------------------------------------------------------------------*/
FoamFile
{
    format      ascii;
    class       volVectorField;
    location    "14.8";
    object      U;
}
// * * * * * * * * * * * * * * * * * * * * * * * * * * * * * * * * * * * * * //

dimensions      [0 1 -1 0 0 0 0];

internalField   nonuniform List<vector> 
4455
(
(9.9983758 0.0027675085 0)
(9.9889844 0.0028414729 -1.4725576e-19)
(9.9693872 0.0092732695 5.0546298e-19)
(9.9423834 0.0056136312 1.0112664e-21)
(9.8941581 0.017447917 4.7418801e-19)
(9.8450659 0.011481059 -1.7822549e-18)
(9.7526834 0.036428143 7.9168695e-19)
(9.6608137 0.012615011 0)
(9.5112104 0.066733951 -4.7566052e-18)
(10.00056 0.0065975004 -9.6264295e-19)
(9.9904362 0.012608282 9.3782221e-19)
(9.9683164 0.02294098 -1.1527609e-18)
(9.9405486 0.02196982 1.918522e-18)
(9.8901473 0.033385913 -3.6732329e-18)
(9.8370232 0.023995233 3.9986262e-18)
(9.7341809 0.036635504 -3.7920247e-19)
(9.6455169 0.0094295557 5.5343065e-19)
(9.4675993 -0.010082995 2.0636186e-17)
(10.001397 0.010307068 -1.0078145e-18)
(9.9920924 0.021933855 1.2728003e-18)
(9.9684954 0.037880978 1.1281487e-18)
(9.9401017 0.039984027 -1.1215206e-18)
(9.8882307 0.056637487 4.9010532e-18)
(9.8337959 0.050258452 -2.7552841e-18)
(9.7327633 0.07065296 3.5602412e-19)
(9.6244747 0.014658796 -7.7893794e-18)
(9.4501415 0.054423793 -1.4587016e-17)
(10.002023 0.013819772 2.3587808e-21)
(9.9935687 0.029732377 -1.4105591e-19)
(9.969604 0.052970695 2.6784499e-18)
(9.9400084 0.056859289 3.6538503e-19)
(9.8912064 0.0822375 1.1882046e-22)
(9.8295571 0.073506314 -5.301611e-19)
(9.7241372 0.11536216 5.8473274e-18)
(9.6059368 0.041926441 1.5572355e-17)
(9.4105666 0.10371905 1.2100911e-17)
(10.004409 0.018132241 1.949354e-18)
(9.9943235 0.03554241 -2.1794555e-18)
(9.9721883 0.067288929 2.7732509e-18)
(9.9407637 0.07324387 1.1224512e-21)
(9.8947231 0.10736192 -3.3616518e-18)
(9.8292458 0.096511886 -1.02702e-18)
(9.7173901 0.13950658 -4.6084441e-18)
(9.5886448 0.061315725 -7.3263863e-18)
(9.3642712 0.13937954 -3.569495e-17)
(10.005386 0.020293972 0)
(9.9965653 0.042244949 0)
(9.9750291 0.078789368 -4.8340186e-18)
(9.9437363 0.089715235 -5.5536471e-18)
(9.9001913 0.1305856 0)
(9.8321452 0.12803089 -7.438014e-18)
(9.7105839 0.18225594 -6.2871717e-19)
(9.563286 0.096391232 -4.3571347e-19)
(9.3165658 0.19015474 4.4059593e-17)
(10.008476 0.022790417 0)
(9.9964491 0.046311682 -1.311676e-19)
(9.9798203 0.090337346 1.4763474e-19)
(9.9475739 0.10332678 5.4281383e-18)
(9.9052321 0.14946735 -3.9857349e-19)
(9.8356312 0.1477945 1.5841548e-17)
(9.7145411 0.20953701 0)
(9.5494295 0.12403764 0)
(9.2619693 0.24965551 2.018843e-17)
(10.010186 0.023728007 3.6924587e-18)
(9.9987928 0.050260149 0)
(9.9824041 0.098696089 0)
(9.9554137 0.12029557 0)
(9.9141748 0.17325437 0)
(9.8407933 0.18038733 -7.9091316e-18)
(9.70931 0.25241258 -8.4392333e-18)
(9.5305233 0.16546886 1.2091021e-17)
(9.2115143 0.31037115 1.1710919e-19)
(10.012269 0.024307449 -3.6359637e-18)
(10.00053 0.05221854 -1.2632559e-19)
(9.98655 0.10384257 -1.4242212e-19)
(9.9592461 0.12776452 3.2299912e-19)
(9.9245782 0.18672994 1.2418038e-17)
(9.8513525 0.19764006 1.3959455e-17)
(9.7210456 0.28232744 2.6892403e-17)
(9.5148866 0.20313498 -1.187588e-17)
(9.1527235 0.38266743 -3.4784839e-17)
(10.013064 0.023742438 0)
(10.014057 0.022823663 6.7641616e-18)
(10.013995 0.021328828 -6.7092607e-18)
(10.013371 0.018990146 6.4332634e-18)
(10.013134 0.016451817 -6.2881511e-18)
(10.011259 0.01307375 1.2564336e-17)
(10.009979 0.010214244 -1.2197492e-17)
(10.007718 0.0058678815 0)
(10.00359 0.0022761076 0)
(10.003563 0.054806421 0)
(10.00521 0.054259058 1.170068e-19)
(10.008386 0.053399534 0)
(10.009861 0.051357169 3.3290818e-19)
(10.011975 0.048665629 6.801563e-18)
(10.014689 0.044566795 -2.0321385e-17)
(10.01468 0.039876709 1.3157821e-17)
(10.018837 0.034843305 -2.0062649e-19)
(10.0155 0.023307197 1.2717444e-17)
(9.9917543 0.11134429 8.4829098e-18)
(9.9971185 0.11589818 -1.6720143e-17)
(10.002574 0.11809546 1.5972628e-17)
(10.009595 0.11748344 -4.983267e-19)
(10.013387 0.1151421 -7.5421477e-18)
(10.021966 0.11196079 -2.2931582e-19)
(10.023887 0.1045465 0)
(10.033734 0.099464879 4.3390672e-19)
(10.03314 0.08168019 -2.1121981e-19)
(9.9682599 0.14145177 8.8391132e-18)
(9.9769797 0.15198176 -1.7959592e-17)
(9.9852887 0.15937876 1.7096285e-17)
(9.9976115 0.16498235 -8.2858277e-18)
(10.00486 0.16580563 -5.1858026e-19)
(10.019079 0.16851185 2.5063773e-19)
(10.025709 0.16373336 0)
(10.042473 0.16272323 -2.3619175e-19)
(10.044756 0.14663717 1.4235685e-17)
(9.93199 0.2081914 -9.9725916e-18)
(9.9493032 0.22816874 0)
(9.9566835 0.24279994 -9.2379561e-18)
(9.9766638 0.2575512 9.5259335e-18)
(9.985233 0.26511065 -8.609749e-18)
(10.006844 0.27522289 8.8972019e-18)
(10.016713 0.27600652 0)
(10.040297 0.28277011 0)
(10.047717 0.26834784 5.0354976e-19)
(9.8574116 0.22667901 -1.2178166e-17)
(9.8749975 0.25966529 -1.1652789e-17)
(9.8841507 0.28294346 1.1201676e-17)
(9.9052348 0.31355673 1.0743667e-17)
(9.9194928 0.32898171 -1.0357635e-17)
(9.9437276 0.35705379 0)
(9.9628767 0.3626082 1.9192717e-17)
(9.9894757 0.3891306 -4.4520396e-20)
(10.007636 0.37904241 -3.5837892e-17)
(9.7185762 0.31969996 -1.4247957e-17)
(9.7382284 0.37863001 0)
(9.7475462 0.40510021 0)
(9.774172 0.45871244 3.9052504e-19)
(9.7957876 0.47796443 0)
(9.8279638 0.5315182 0)
(9.8575719 0.54288166 0)
(9.8928841 0.59278672 0)
(9.9207994 0.59098416 0)
(9.5028649 0.25059619 5.4531349e-19)
(9.4840662 0.3478919 0)
(9.4921856 0.4088195 4.8916118e-19)
(9.4922881 0.51337356 -9.1761839e-19)
(9.5296581 0.56277079 -1.3907229e-17)
(9.553106 0.65621255 -1.3199952e-17)
(9.6055585 0.68866923 2.5338912e-17)
(9.6443816 0.77199858 2.4503248e-17)
(9.7004473 0.78071687 -2.3180433e-17)
(9.0833313 0.46152795 6.5185568e-17)
(9.0062086 0.67798145 -4.0405662e-17)
(9.0081949 0.80846944 3.7538865e-17)
(9.0450813 1.0303562 -3.5448602e-17)
(9.123892 1.1241988 -5.0445633e-17)
(9.2084326 1.3016543 9.4961871e-17)
(9.3043124 1.3547185 -5.9996591e-17)
(9.4017121 1.4954571 -2.8615641e-17)
(9.4905209 1.5058879 2.6901918e-17)
(10.005079 0.0027914639 -1.6766067e-20)
(10.008151 0.0040020488 1.7217775e-17)
(10.01299 0.0059376024 -6.0441323e-21)
(10.019251 0.0081174807 -1.734461e-17)
(10.026813 0.010378824 1.6975847e-20)
(10.035891 0.01270229 1.7450608e-17)
(10.046554 0.015149596 -1.7535775e-17)
(10.058981 0.017658701 -1.7126927e-20)
(10.07435 0.02114387 -8.8208279e-18)
(10.022989 0.026450183 -1.824822e-17)
(10.02762 0.036696839 1.8363493e-17)
(10.039613 0.037869912 -1.8368579e-17)
(10.047195 0.051100018 0)
(10.063088 0.05112317 1.8528426e-17)
(10.073801 0.066913534 1.5773679e-20)
(10.093345 0.065431546 3.1598642e-20)
(10.107472 0.083549514 -1.8643188e-17)
(10.131314 0.080159249 9.379408e-18)
(10.04564 0.08863678 1.9461859e-17)
(10.049339 0.10500503 -1.9521262e-17)
(10.065306 0.10980908 -1.9654503e-17)
(10.070416 0.12781288 1.9701075e-17)
(10.089061 0.13242533 -1.9866464e-17)
(10.096265 0.15329729 1.9799095e-17)
(10.118747 0.15766613 -1.9996319e-17)
(10.128573 0.18214032 -1.213625e-20)
(10.155528 0.18566011 2.0030311e-17)
(10.064007 0.15892117 -2.0797131e-17)
(10.066806 0.1833573 -8.1820602e-20)
(10.087577 0.19311534 8.2302312e-20)
(10.090483 0.21815543 0)
(10.113767 0.22783904 -1.6528899e-22)
(10.11903 0.25641922 -2.1168319e-17)
(10.146724 0.26597207 2.1519144e-17)
(10.154951 0.29886726 8.3766271e-20)
(10.187691 0.30731709 8.403568e-20)
(10.070411 0.28593795 -8.7815304e-20)
(10.071487 0.31607665 -2.26107e-17)
(10.093145 0.33053346 -6.9546932e-20)
(10.092444 0.35929403 2.2816797e-17)
(10.116812 0.3734691 2.2975517e-17)
(10.1189 0.40638411 -2.3092566e-17)
(10.148417 0.42045599 -8.9997971e-20)
(10.153628 0.45806489 -9.0324119e-20)
(10.18856 0.47077129 -9.0650097e-20)
(10.039224 0.40601773 2.4503765e-17)
(10.037952 0.44707622 0)
(10.065394 0.4684701 0)
(10.061513 0.50709799 2.4703417e-17)
(10.092182 0.52748514 -2.503421e-17)
(10.092167 0.57045949 -2.5103822e-17)
(10.128596 0.59016103 5.0247919e-17)
(10.132331 0.637382 -4.4751613e-20)
(10.17406 0.6548277 -5.0636528e-17)
(9.9548024 0.63355292 -1.0584907e-19)
(9.9586673 0.67985334 0)
(9.982787 0.70847471 1.0664832e-19)
(9.9857134 0.7473199 2.739733e-17)
(10.014894 0.77419292 -2.7562943e-17)
(10.024573 0.81178959 2.7635538e-17)
(10.059453 0.83709708 -2.7695487e-17)
(10.073972 0.87181464 -1.0846638e-19)
(10.111459 0.89343773 2.7870258e-17)
(9.7452548 0.84767467 -2.9783118e-17)
(9.7878048 0.90253693 3.0197138e-17)
(9.8280071 0.94962811 -3.0318342e-17)
(9.8733375 0.99405248 3.0162757e-17)
(9.9184554 1.0331378 -3.0032136e-17)
(9.9685349 1.0702396 -5.7748679e-21)
(10.017027 1.1015609 3.0441352e-17)
(10.06804 1.1299607 2.3859009e-19)
(10.113519 1.150334 1.520568e-17)
(9.5875864 1.6128348 0)
(9.6410198 1.6421744 -3.3436495e-17)
(9.7354929 1.7224836 1.8891909e-19)
(9.78993 1.7271117 3.1509837e-19)
(9.8885281 1.7773797 6.7137375e-17)
(9.9393213 1.7425102 -3.3597998e-17)
(10.047754 1.7438798 -3.3621059e-17)
(10.110583 1.6370076 3.3747788e-17)
(10.219313 1.5715647 1.6949396e-17)
(10.275484 1.3986456 -1.9812299e-17)
(10.306972 1.3100957 0)
(10.327455 1.195502 1.9722628e-17)
(10.299916 1.1479465 -1.9716607e-17)
(10.256962 1.0387689 0)
(10.186947 1.0101901 0)
(10.112007 0.9038479 0)
(10.028979 0.89902191 -2.0220264e-17)
(9.9411683 0.80948763 2.0220316e-17)
(10.154237 1.1653123 -1.7321296e-17)
(10.186572 1.1854049 0)
(10.21622 1.1871059 0)
(10.233923 1.1920775 0)
(10.249405 1.1883706 0)
(10.252305 1.192904 0)
(10.247441 1.1936335 0)
(10.23764 1.2032996 1.7149683e-17)
(10.213752 1.2021791 -3.4381134e-17)
(10.126243 0.92200501 -5.6730268e-20)
(10.159753 0.94916194 -3.0597819e-17)
(10.171585 0.97225921 0)
(10.203204 0.99782785 -1.5221849e-17)
(10.211 1.0191086 1.5221844e-17)
(10.238642 1.0419048 0)
(10.24047 1.0623041 0)
(10.263128 1.0855491 0)
(10.257126 1.1077459 0)
(10.176989 0.70152102 2.722582e-17)
(10.220167 0.72626882 0)
(10.223483 0.77141152 1.353741e-17)
(10.26684 0.79526736 -2.704951e-17)
(10.270086 0.84016109 1.3511816e-17)
(10.313513 0.86417058 0)
(10.315603 0.90957089 0)
(10.359175 0.93523772 0)
(10.358768 0.98201228 1.3386991e-17)
(10.194273 0.51160239 0)
(10.23249 0.527245 2.4465664e-17)
(10.239145 0.57018985 -3.6676555e-17)
(10.280125 0.58587091 1.2210625e-17)
(10.287812 0.6307912 1.2162823e-17)
(10.33164 0.64712276 -2.5318398e-20)
(10.33993 0.69453643 -2.4248464e-17)
(10.386971 0.7123105 2.4194935e-17)
(10.395241 0.76278825 -1.2083708e-17)
(10.197484 0.34406836 0)
(10.234618 0.35410642 1.1128926e-17)
(10.246544 0.39412466 -1.1129071e-17)
(10.287839 0.40375797 0)
(10.301957 0.44682938 -2.2115667e-17)
(10.347371 0.45631326 2.211571e-17)
(10.36356 0.50274293 1.1002995e-17)
(10.413455 0.51242326 -2.1976316e-17)
(10.43153 0.56268016 1.0973237e-17)
(10.167293 0.21382208 0)
(10.198651 0.21805545 0)
(10.212995 0.24990985 0)
(10.249063 0.25362008 -1.0203092e-17)
(10.266268 0.28926571 2.0383933e-17)
(10.307316 0.29244222 -2.0337838e-17)
(10.327549 0.33217041 1.0156932e-17)
(10.374097 0.33489824 -1.0103735e-17)
(10.397494 0.37921368 2.017794e-17)
(10.148176 0.10096573 -1.9009701e-17)
(10.176757 0.097066264 1.7265822e-20)
(10.197102 0.12169483 9.4798668e-18)
(10.230028 0.1163289 -9.4410854e-18)
(10.254195 0.14399845 9.4410478e-18)
(10.291767 0.13671556 0)
(10.320028 0.16749466 9.3704621e-18)
(10.363153 0.15828029 -1.8713614e-17)
(10.395934 0.19300767 9.343159e-18)
(10.083826 0.026299511 1.2220413e-20)
(10.107091 0.026364386 8.8772868e-18)
(10.12221 0.03827806 8.8518036e-18)
(10.152438 0.037894801 -8.8518045e-18)
(10.169747 0.049023372 0)
(10.204881 0.04852298 0)
(10.225633 0.059954377 -8.7804654e-18)
(10.26778 0.060198541 1.7538357e-17)
(10.293922 0.072431677 -8.7580731e-18)
(10.342935 0.073788974 0)
(10.375797 0.086590531 -8.6766638e-18)
(10.431775 0.088931494 3.2070899e-20)
(10.471831 0.10245101 3.4815144e-20)
(10.535522 0.1058814 3.7752636e-20)
(10.583839 0.11996478 8.5720249e-18)
(10.656205 0.12479764 8.4866929e-18)
(10.713908 0.13981903 -8.4866935e-18)
(10.796327 0.14626347 0)
(10.445368 0.18189357 0)
(10.482996 0.22121234 0)
(10.53933 0.20820394 -9.2120211e-18)
(10.582107 0.25267293 3.8894329e-20)
(10.646102 0.2377972 4.1627303e-20)
(10.69444 0.28815744 9.131448e-18)
(10.767127 0.27144387 9.0391074e-18)
(10.821659 0.32871806 -9.0390765e-18)
(10.904297 0.31013829 0)
(10.450144 0.3816742 -1.0074242e-17)
(10.476825 0.4312086 0)
(10.536216 0.43362486 0)
(10.566345 0.48911515 -9.9345815e-18)
(10.633251 0.49173017 1.9828119e-17)
(10.667127 0.55410809 -4.3795838e-20)
(10.742542 0.5571233 -4.6834427e-20)
(10.780687 0.62755143 -9.8028249e-18)
(10.86584 0.63104335 0)
(10.486327 0.573031 -1.0908936e-17)
(10.506032 0.62771636 1.0908875e-17)
(10.566218 0.63934212 0)
(10.587327 0.69930318 0)
(10.653575 0.71287497 1.0758624e-17)
(10.676041 0.77931159 -1.0758553e-17)
(10.749339 0.7954463 1.0670505e-17)
(10.773419 0.8699177 -5.3592231e-18)
(10.855137 0.88904603 -5.3111602e-18)
(10.445738 0.78298312 -1.202631e-17)
(10.453275 0.83728698 1.2026189e-17)
(10.507533 0.86102625 0)
(10.513717 0.92037231 0)
(10.572366 0.94877718 0)
(10.576847 1.0149469 0)
(10.641062 1.0489662 0)
(10.643893 1.1241665 0)
(10.715409 1.164461 0)
(10.402462 1.0111024 -1.3386987e-17)
(10.398155 1.0602066 1.3340527e-17)
(10.442032 1.0948548 -1.3340161e-17)
(10.432781 1.1478481 1.3296482e-17)
(10.477515 1.189714 -1.3295853e-17)
(10.462711 1.2491587 0)
(10.510128 1.2992973 0)
(10.489696 1.368289 0)
(10.54251 1.4276171 0)
(10.27454 1.1356836 0)
(10.2593 1.1609887 -1.5137917e-17)
(10.273437 1.1971648 1.5134698e-17)
(10.2478 1.2278152 0)
(10.260879 1.2750853 1.5145954e-17)
(10.223331 1.3147941 -1.5146484e-17)
(10.238644 1.3755935 0)
(10.189005 1.4278715 7.5869785e-18)
(10.209668 1.5033881 -1.5178747e-17)
(10.195996 1.2246784 1.7213352e-17)
(10.149874 1.2323289 1.7297228e-17)
(10.125985 1.2655424 -1.7300169e-17)
(10.060052 1.2866811 1.7407557e-17)
(10.031575 1.330042 -3.4878424e-17)
(9.9485078 1.3676496 3.5006307e-17)
(9.9167679 1.4228802 -3.5142987e-17)
(9.818117 1.480303 1.7606323e-17)
(9.7848229 1.549446 0)
(9.851594 0.82798716 -2.0481517e-17)
(9.7528173 0.75336467 2.0481566e-17)
(9.659916 0.79391123 0)
(9.5474602 0.7322051 0)
(9.4526753 0.79531294 0)
(9.3222776 0.7469896 0)
(9.2254344 0.83440138 0)
(9.0794527 0.80216701 -1.0758519e-17)
(8.9719221 0.91511194 1.0758449e-17)
(8.8139476 0.90697857 1.0923464e-17)
(9.6721355 1.6304264 0)
(10.148971 1.5729926 7.5926734e-18)
(10.516993 1.5093224 0)
(10.717104 1.2510838 0)
(10.88148 0.97338166 0)
(10.909064 0.71084641 4.8206022e-18)
(10.9658 0.37550443 4.4370308e-18)
(10.864902 0.16215146 4.1648552e-18)
(8.6956293 1.0535722 -1.0923368e-17)
(9.6397512 1.7156206 0)
(10.176821 1.6609435 0)
(10.57824 1.5783536 6.5645098e-18)
(10.798076 1.2979486 0)
(10.973353 0.99563763 -5.2288014e-18)
(11.005395 0.71466129 -9.6101457e-18)
(11.059856 0.35494648 -8.8423972e-18)
(10.958855 0.17047743 -8.2989855e-18)
(8.5257711 1.0769012 0)
(9.5154009 1.8247302 0)
(10.109298 1.7575132 7.5996684e-18)
(10.548902 1.6760175 -6.5645881e-18)
(10.799673 1.3984139 0)
(11.003048 1.0917955 5.2287868e-18)
(11.054831 0.80522578 4.789564e-18)
(11.129371 0.42976319 4.4053716e-18)
(11.039947 0.18743243 4.1341294e-18)
(8.3949768 1.2702526 1.117722e-17)
(9.4877174 1.9282336 0)
(10.144555 1.8563948 -1.5197689e-17)
(10.621945 1.7546607 0)
(10.892512 1.4516565 0)
(11.107098 1.1169265 -5.1629625e-18)
(11.163902 0.80890762 -4.7202044e-18)
(11.236504 0.40697607 0)
(11.147112 0.19800846 -4.0645675e-18)
(8.2152238 1.3355608 -1.1177175e-17)
(9.355786 2.0711561 -9.0464575e-18)
(10.074151 1.9831072 7.5979191e-18)
(10.591104 1.8717424 0)
(10.895703 1.5683333 0)
(11.141702 1.2268207 5.1629573e-18)
(11.221031 0.91153271 4.7201987e-18)
(11.315247 0.49265945 0)
(11.242616 0.21603705 4.064567e-18)
(8.0735364 1.5930305 0)
(9.338755 2.1951959 9.0464339e-18)
(10.12044 2.0932212 -7.5832602e-18)
(10.677531 1.9567959 0)
(11.00287 1.6269824 0)
(11.26011 1.2541104 -5.0857016e-18)
(11.344492 0.91425463 -4.6394644e-18)
(11.437844 0.46717047 0)
(11.364682 0.22909503 -3.9827087e-18)
(7.8942148 1.7184241 0)
(9.205789 2.3789462 0)
(10.052616 2.2539024 7.583256e-18)
(10.653251 2.1000376 -3.2248301e-18)
(11.010353 1.7622487 -2.8344215e-18)
(11.301597 1.3793739 7.6067078e-18)
(11.411176 1.0301359 6.9364466e-18)
(11.52381 0.56226683 0)
(11.476251 0.24784726 5.951084e-18)
(7.7550497 2.0801468 0)
(9.2093546 2.5236909 -4.5440135e-18)
(10.115009 2.3736256 0)
(10.75239 2.1885355 3.2243263e-18)
(11.133185 1.8235347 2.8339026e-18)
(11.43637 1.40758 -2.3783714e-20)
(11.551584 1.030727 -4.5693492e-18)
(11.668688 0.53988519 0)
(11.613861 0.26286864 -1.9683756e-18)
(7.6180481 2.2653774 -5.730699e-18)
(9.085565 2.7635686 4.5435766e-18)
(10.056157 2.5824905 0)
(10.740931 2.3692604 0)
(11.153204 1.9917157 0)
(11.49009 1.5578301 -4.967807e-18)
(11.630013 1.1627323 2.6773093e-20)
(11.759795 0.63923675 0)
(11.740658 0.28124222 0)
(11.911054 0.29891336 0)
(11.926206 0.62244319 0)
(11.789303 1.1559625 -1.0999799e-19)
(11.636058 1.5681453 2.5927545e-18)
(11.29202 2.0306982 0)
(10.861058 2.4408462 -3.9715921e-19)
(10.15472 2.6884899 -2.7348423e-20)
(9.1454611 2.9117955 -3.7708598e-18)
(7.5315688 2.7454168 1.0680792e-17)
(12.073637 0.31191848 -9.4151507e-19)
(12.029418 0.70717735 -1.2780633e-19)
(11.884805 1.275014 1.1294525e-18)
(11.716924 1.7151566 -3.577239e-21)
(11.351614 2.1986789 -1.1887578e-18)
(10.889525 2.6286288 1.5443114e-18)
(10.155898 2.9206273 -4.707451e-19)
(9.123532 3.2088502 4.9064291e-18)
(7.6434135 3.0541705 -5.4366214e-18)
(12.241129 0.32291657 1.8856636e-18)
(12.219827 0.68857537 0)
(12.076387 1.2726387 2.2065501e-18)
(11.884616 1.717336 -1.204929e-18)
(11.524411 2.2260844 1.2027038e-18)
(11.058257 2.6870317 -2.9272337e-18)
(10.342515 3.0100336 -2.2924545e-18)
(9.3388032 3.3307028 1.1042147e-18)
(7.9362497 3.3873824 6.481107e-20)
(12.421126 0.33393285 -9.446581e-19)
(12.334987 0.77098876 -1.2655049e-19)
(12.185421 1.3900331 -9.7173511e-19)
(11.987651 1.8790066 1.3755351e-18)
(11.611291 2.4107528 5.0988174e-19)
(11.118211 2.8907186 1.5749545e-18)
(10.384068 3.2521004 1.852568e-18)
(9.3698933 3.616331 5.7564038e-19)
(7.9712636 3.6458589 -6.5904081e-19)
(12.614566 0.34544059 2.2855057e-19)
(12.555044 0.75436449 -2.4676718e-19)
(12.405501 1.3894087 -1.3783744e-19)
(12.177566 1.8686187 4.4869918e-19)
(11.810334 2.4239318 -5.142295e-19)
(11.31665 2.9348289 -5.8041541e-19)
(10.601032 3.3257942 -4.7761363e-19)
(9.6029364 3.7192338 5.3929258e-19)
(8.2342408 3.9235437 -7.2359753e-19)
(12.820017 0.35744867 -2.3116504e-19)
(12.682752 0.83851141 2.4973668e-19)
(12.528247 1.5022323 -1.3690099e-19)
(12.301834 2.0412189 -1.7482715e-21)
(11.918659 2.6183932 -1.673736e-19)
(11.398052 3.1477654 3.9498211e-19)
(10.664272 3.5728629 -4.7916664e-19)
(9.6535592 4.00053 5.4237618e-19)
(8.3034874 4.1314324 0)
(13.036064 0.36864142 -2.2172667e-19)
(12.931991 0.82523921 -1.2317194e-19)
(12.775683 1.5021165 -1.318834e-19)
(12.510461 2.0175078 -1.5201395e-19)
(12.134253 2.6175016 -1.6875972e-19)
(11.612741 3.1770208 4.0321615e-19)
(10.892318 3.6287149 -9.314284e-19)
(9.8987251 4.0788638 1.1302077e-18)
(8.5886714 4.3680138 -6.7641092e-19)
(13.262909 0.37913464 6.5945519e-19)
(13.071786 0.90849204 4.7580466e-19)
(12.912806 1.6081331 6.5742167e-19)
(12.656451 2.1989967 7.3156929e-19)
(12.265787 2.8189228 5.1315313e-19)
(11.719034 3.3969561 -1.9107891e-19)
(10.98285 3.8783793 -4.8090501e-19)
(9.9795221 4.3554849 -4.0593263e-20)
(8.6773166 4.5422441 -7.1864868e-19)
(13.500663 0.38764389 -1.2917715e-18)
(13.34718 0.89637439 -4.8173729e-19)
(13.185817 1.6068027 -1.6939149e-18)
(12.878928 2.1608307 -4.4928159e-19)
(12.496784 2.8010053 1.150067e-18)
(11.951178 3.4080019 5.9147339e-19)
(11.226254 3.913311 -2.7676503e-18)
(10.239859 4.411387 5.4885934e-19)
(8.9593544 4.7517992 1.438067e-18)
(9.057769 4.9030853 -1.4399696e-18)
(10.346165 4.6842352 5.9244737e-19)
(11.345313 4.1634557 4.1542635e-18)
(12.084687 3.6325991 -5.8844224e-19)
(12.655106 3.0070504 2.97244e-19)
(13.052945 2.3477542 8.5253228e-19)
(13.34136 1.7030704 1.1758162e-18)
(13.49851 0.97677814 -5.7735554e-20)
(13.749814 0.39511765 1.7454356e-18)
(9.3407347 5.0933227 5.7406177e-18)
(10.618926 4.7204865 5.5044179e-19)
(11.60331 4.1762209 -5.9959794e-18)
(12.330572 3.6230656 -1.8746659e-19)
(12.9015 2.9682873 -1.1613385e-18)
(13.282899 2.296086 -1.0199294e-18)
(13.636647 1.6982089 -2.1135166e-18)
(13.798589 0.96486875 0)
(14.009838 0.40014208 -8.4026507e-19)
(9.4493909 5.2264828 -7.3701018e-18)
(10.748713 4.9911408 5.651644e-18)
(11.750393 4.4249163 3.2474432e-18)
(12.496164 3.8480832 -1.8557006e-19)
(13.088101 3.1753962 2.5522054e-18)
(13.488744 2.4834187 5.6227001e-21)
(13.813535 1.7817141 3.225412e-19)
(13.96126 1.0410395 1.6416127e-18)
(14.280513 0.40402373 1.5612073e-18)
(9.7367729 5.4019377 -1.4734835e-18)
(11.032572 5.0082358 1.0267429e-18)
(12.019802 4.4142045 -4.7563857e-19)
(12.749697 3.8202046 0)
(13.347768 3.1133806 -2.5885604e-18)
(13.72382 2.4187177 0)
(14.126999 1.7710118 1.8471281e-18)
(14.282671 1.0282012 -3.3736925e-18)
(14.560755 0.40492147 -7.638303e-20)
(9.8562624 5.5195279 -7.1147703e-19)
(11.187416 5.277571 -4.5665014e-18)
(12.195609 4.6587711 4.726308e-19)
(12.94302 4.0354145 0)
(13.562168 3.3177725 -2.603642e-18)
(13.956033 2.5969648 2.12462e-18)
(14.322293 1.8390802 1.2018333e-19)
(14.461057 1.0985097 3.3820007e-18)
(14.850095 0.40421391 -1.5222977e-18)
(10.153729 5.6836891 -6.7068868e-18)
(11.482729 5.2738401 -3.9232086e-18)
(12.473627 4.6224965 -3.505206e-20)
(13.210744 3.9993801 -3.803995e-19)
(13.831148 3.2315418 -4.9771319e-20)
(14.207553 2.5279975 -4.2089229e-18)
(14.650831 1.820138 1.167358e-19)
(14.797958 1.0835416 -1.6754178e-18)
(15.147156 0.39992024 0)
(10.287795 5.7859986 4.61706e-18)
(11.665677 5.5412017 5.7315187e-18)
(12.678623 4.8592159 -3.6044707e-20)
(13.426875 4.1960666 -3.7439678e-19)
(14.07203 3.4292895 2.2925734e-18)
(14.457733 2.6888113 2.2279521e-18)
(14.861186 1.870581 1.0845217e-19)
(14.992664 1.1467738 -9.9375802e-20)
(15.451091 0.39363083 0)
(10.603411 5.9407245 0)
(11.972453 5.5131757 -5.380707e-19)
(12.965709 4.7947455 4.5879069e-19)
(13.708183 4.149536 -5.3489643e-18)
(14.347276 3.317916 -1.507724e-19)
(14.723967 2.6132507 3.7482011e-18)
(15.201096 1.8412577 -3.151789e-18)
(15.340674 1.1284118 2.9292705e-18)
(15.759336 0.38338723 2.4467665e-18)
(10.755953 6.0267874 1.1351877e-17)
(12.187911 5.778222 9.8517956e-18)
(13.191848 5.0194491 -4.5226086e-19)
(13.946448 4.3244835 5.6365268e-18)
(14.614636 3.5087232 -1.3710688e-19)
(14.990499 2.7535249 -3.8106721e-18)
(15.42219 1.8723826 3.4100185e-18)
(15.548811 1.1833604 -3.0611938e-18)
(16.070039 0.37206342 -1.9099648e-19)
(16.403476 0.35669461 -2.2715634e-18)
(15.907494 1.1587696 2.5531996e-18)
(15.772261 1.8306625 0)
(15.276003 2.666752 -2.2739577e-19)
(14.894279 3.3605526 4.2327333e-18)
(14.251369 4.2624018 4.8302159e-18)
(13.503686 4.9225173 0)
(12.519541 5.7115386 -3.7542432e-19)
(11.126732 6.1850269 -1.1092501e-17)
(16.720476 0.33461675 0)
(16.130707 1.1924557 -2.6406211e-18)
(16.005014 1.8316878 0)
(15.573153 2.7719423 -2.1764353e-19)
(15.198817 3.530787 -7.6546768e-18)
(14.539005 4.4050916 -5.2764045e-18)
(13.787451 5.1274645 6.167584e-18)
(12.823923 5.983 -7.7392129e-18)
(11.36638 6.2590861 9.2992955e-18)
(17.028869 0.30352249 0)
(16.49852 1.1511013 0)
(16.359752 1.7741769 -2.531011e-18)
(15.878258 2.6645763 0)
(15.502953 3.3555006 3.9096961e-18)
(14.873848 4.3182553 -4.4798541e-18)
(14.138951 4.9925628 -5.6090097e-18)
(13.206091 5.8798881 -4.4097171e-19)
(11.833574 6.3991122 -1.1946161e-18)
(17.333461 0.26392214 0)
(16.727 1.1669395 0)
(16.592542 1.7536958 2.5835467e-18)
(16.189022 2.7390467 2.6830174e-18)
(15.81443 3.4962573 3.4166747e-18)
(15.182146 4.42533 4.8709952e-18)
(14.435286 5.1576169 0)
(13.532156 6.0994478 6.9836958e-18)
(12.139559 6.4422308 -1.0985339e-17)
(17.62111 0.22012063 2.6345787e-20)
(17.094925 1.1123846 -2.8716532e-20)
(16.941268 1.6795998 0)
(16.49864 2.6098101 -2.7541527e-19)
(16.124948 3.3000444 -6.9733917e-18)
(15.521955 4.3175065 2.5108105e-19)
(14.7946 4.9941262 5.2726279e-18)
(13.90957 5.9638118 -7.7313258e-18)
(12.658559 6.5439866 1.0725143e-17)
(17.897774 0.17246104 -2.3440393e-20)
(17.323128 1.1141312 2.5591332e-20)
(17.169276 1.6380996 0)
(16.811471 2.6534233 -2.9034699e-18)
(16.439078 3.409083 3.7089853e-18)
(15.839314 4.3910078 -2.3645215e-19)
(15.091755 5.1257349 -5.4535089e-18)
(14.234329 6.1225203 0)
(13.060343 6.5303254 -1.0614197e-17)
(18.157904 0.12309227 2.0465544e-20)
(17.683721 1.0477384 1.4718515e-18)
(17.507998 1.5481932 -6.2868068e-20)
(17.113973 2.5019621 2.1351352e-18)
(16.749226 3.1917301 2.9319256e-18)
(16.178826 4.2630798 0)
(15.449199 4.941914 0)
(14.579759 5.9485696 -6.4741214e-18)
(13.661567 6.5741764 0)
(18.418996 0.059395783 0)
(17.899866 1.0347038 -1.5250694e-18)
(17.726346 1.4880941 0)
(17.418055 2.5169702 -2.4184405e-18)
(17.060599 3.2666402 -2.6770736e-18)
(16.501863 4.3029659 3.2768181e-18)
(15.732991 5.0589497 0)
(14.85792 6.0406717 7.1759072e-18)
(14.189962 6.4712261 -8.3678033e-18)
(18.563248 0.01750624 0)
(18.238791 0.95486566 0)
(18.047585 1.386087 -4.9271601e-20)
(17.70355 2.3435912 -7.1588867e-20)
(17.361835 3.0262284 1.4177474e-19)
(16.836232 4.1552999 -3.3838333e-18)
(16.137284 4.8499241 0)
(15.130347 5.8194126 0)
(14.866945 6.388526 8.2812073e-18)
(18.809062 -0.043184004 -2.1750495e-20)
(18.424393 0.94846244 -7.9618181e-21)
(18.250864 1.3103598 1.0693322e-18)
(17.991376 2.3392166 0)
(17.655737 3.0802132 0)
(17.15465 4.1737922 -1.7786345e-19)
(16.313123 5.0760826 -3.3303383e-18)
(15.258912 5.924377 1.464107e-19)
(15.208708 6.2909029 0)
(19.035779 -0.060070728 -1.5368384e-20)
(18.726475 0.93859115 -7.4177652e-21)
(18.549034 1.3459256 -9.7205855e-19)
(18.238546 2.3926005 0)
(17.878945 3.1504187 0)
(17.352541 4.3922554 1.5117709e-19)
(16.484473 5.2256162 9.0884805e-18)
(15.154676 6.1029364 -1.3131225e-19)
(14.416633 6.1440472 9.4171112e-18)
(19.189857 -0.085990918 0)
(18.881085 0.92739817 8.313678e-19)
(18.717242 1.2665898 0)
(18.487089 2.3841663 6.4719861e-20)
(18.118043 3.2484209 -7.0661107e-20)
(17.564445 4.4755593 -1.3084546e-19)
(16.55944 5.5176455 -1.0804044e-17)
(14.769453 6.1369015 1.1898171e-19)
(12.618013 6.0885987 -8.8446141e-18)
(19.34381 -0.086799022 -1.0015556e-20)
(19.153643 0.87913436 -7.9948718e-19)
(18.988945 1.2932163 7.0084433e-19)
(18.732697 2.4389934 1.0613303e-18)
(18.322043 3.3251224 -1.757543e-18)
(17.716622 4.7455606 2.4998175e-18)
(16.533332 5.6938944 5.1927431e-18)
(14.381576 6.2182426 7.8509451e-18)
(10.208908 7.3051524 0)
(19.46254 -0.1281826 1.924787e-19)
(19.287176 0.85079245 1.483179e-19)
(19.124977 1.2145668 -6.7797555e-19)
(18.980895 2.3969012 -4.769755e-19)
(18.559752 3.4338599 1.6750487e-18)
(17.946996 4.7979414 -6.264088e-19)
(16.474422 5.9425104 0)
(13.567508 6.4965435 -7.5433519e-18)
(6.6487035 6.7208977 0)
(19.574039 -0.133008 -5.0823086e-19)
(19.531924 0.76792426 -1.4614225e-19)
(19.375279 1.2213726 3.5709248e-20)
(19.2543 2.4209814 -5.359346e-19)
(18.785515 3.4792629 -3.4790507e-20)
(18.107163 5.0461498 -1.7473764e-18)
(16.16956 6.1662619 3.4077013e-18)
(12.037396 5.763988 6.6286392e-18)
(0.89005723 1.3264371 -8.2120833e-18)
(19.651034 -0.18405938 3.2359518e-19)
(19.646727 0.7219944 -8.220256e-21)
(19.483395 1.1356963 -2.4689752e-20)
(19.506788 2.3293591 1.8680981e-21)
(19.022488 3.5868334 -2.015267e-21)
(18.27122 5.0894431 -5.8790299e-19)
(15.637925 6.0819339 -6.3815993e-18)
(9.198782 5.0332703 -6.2478717e-18)
(-0.35883624 2.1402406 7.7863908e-18)
(19.708121 -0.18515798 7.2794791e-21)
(19.868952 0.60386584 -7.7297745e-21)
(19.709657 1.1172697 -4.8793245e-19)
(19.789904 2.3251271 -8.6173617e-19)
(19.252433 3.6040587 4.3524478e-19)
(18.30268 5.2796495 5.5194409e-19)
(14.788871 6.2798475 5.6191417e-18)
(6.7029311 3.9431078 5.4409111e-18)
(-0.41375214 2.7920892 -7.0414354e-18)
(19.732389 -0.23716076 -4.7555112e-19)
(19.955128 0.5376152 9.9577052e-21)
(19.792279 1.0223906 -2.3440699e-19)
(20.024876 2.1927637 8.353715e-19)
(19.466172 3.6971448 -4.061213e-19)
(18.166789 5.3344891 -3.5560658e-20)
(13.365933 5.9146859 -2.6139824e-18)
(3.7148219 2.1342829 -5.1484876e-18)
(-1.0790454 3.019294 6.7092879e-18)
(-1.22931 2.9671354 1.1030283e-17)
(1.9233867 1.5548306 6.335671e-20)
(12.037751 5.8155443 -1.657387e-20)
(18.07257 5.3693405 1.4049763e-20)
(19.636743 3.6806516 0)
(20.279 2.1679349 2.0076432e-20)
(19.991303 0.9771003 1.6502345e-18)
(20.143352 0.39325058 1.0386721e-18)
(19.719956 -0.26939777 9.2217708e-19)
(-1.3762589 2.9914404 -1.067877e-17)
(1.7217735 1.8295306 0)
(10.677695 5.3650757 0)
(17.920702 5.38136 3.4739801e-18)
(19.847458 3.629777 0)
(20.469195 1.9355017 -4.3289855e-18)
(20.042271 0.83138695 -3.1816455e-18)
(20.186726 0.29747925 -9.8929763e-19)
(19.685277 -0.30216195 3.5926686e-19)
(-1.4610146 2.9989462 -7.2065666e-20)
(2.1881591 3.2968904 5.8046767e-20)
(9.8788545 5.1249519 0)
(17.73526 5.3139955 -3.4043685e-18)
(19.981923 3.5914024 0)
(20.686653 1.8857241 4.2787226e-18)
(20.211333 0.76334983 2.1607775e-18)
(20.324074 0.14097164 2.3959598e-20)
(19.626967 -0.33198711 -8.0468223e-19)
(-1.6177889 3.1128638 -1.9219308e-17)
(2.7129939 4.1433805 1.2027395e-17)
(8.8116962 4.9687944 -5.3605817e-20)
(17.479314 5.3380366 0)
(20.161747 3.4936399 -6.1022342e-18)
(20.84059 1.6294568 0)
(20.233036 0.61221886 -2.0981324e-20)
(20.321274 0.038690154 2.5291144e-20)
(19.544118 -0.35754177 -5.6235601e-21)
(-1.7019432 3.184555 1.8479486e-17)
(2.4996134 4.6335535 -3.7562648e-19)
(8.0872178 4.6549819 -1.7557219e-18)
(17.1443 5.2387517 -1.4380717e-20)
(20.261306 3.4383968 -1.0315455e-18)
(21.030568 1.5508801 0)
(20.370263 0.52394252 -2.868017e-18)
(20.408535 -0.12574037 0)
(19.438731 -0.37935737 0)
(-1.8137924 3.3299191 -5.9526592e-20)
(2.2742858 4.7110754 -1.0781029e-17)
(6.9840778 4.3837451 2.4471114e-18)