/*--------------------------------*- C++ -*----------------------------------*\
  =========                 |
  \\      /  F ield         | OpenFOAM: The Open Source CFD Toolbox
   \\    /   O peration     | Website:  https://openfoam.org
    \\  /    A nd           | Version:  11
     \\/     M anipulation  |
\*---------------------------------------------------------------------------*/
FoamFile
{
    format      ascii;
    class       surfaceScalarField;
    location    "6.875";
    object      phi;
}
// * * * * * * * * * * * * * * * * * * * * * * * * * * * * * * * * * * * * * //

dimensions      [0 3 -1 0 0 0 0];

internalField   nonuniform List<scalar> 
8667
(
15.88906
1.8180382
0.070679515
13.988031
1.7521379
0.14889134
12.080404
1.7078705
0.19975646
10.177298
1.7098782
0.19322715
8.2757189
1.6931066
0.20847307
6.3692101
1.7526938
0.15381501
4.4547481
1.8146183
0.099843684
2.5631951
1.969908
-0.078355028
2.1856271
-0.35611994
0.73368801
15.887979
3.7078371
13.986795
3.6533221
12.079249
3.6154169
10.175766
3.6133609
8.2707343
3.5981383
6.3535663
3.6698619
4.4548761
3.7133085
2.5553873
3.8693968
4.0439919
0.69702254
15.887327
5.5982881
13.98587
5.5547793
12.081204
5.5200822
10.170567
5.5239982
8.2661406
5.5025648
6.3451322
5.5908703
4.4426086
5.6158321
2.5432022
5.7688032
5.9112719
0.67592215
15.887537
7.4885291
13.985502
7.4568144
12.080572
7.4250123
10.168361
7.4362088
8.260922
7.4100041
6.3424595
7.5093328
4.4298295
7.5284621
2.5150298
7.6836028
7.7846741
0.64162759
15.887516
9.3787889
13.985965
9.3583659
12.0808
9.3301767
10.170701
9.346308
8.2574851
9.3232201
6.336615
9.4302029
4.4230273
9.4420498
2.4995643
9.6070658
9.6543004
0.629938
15.887557
11.26901
13.987936
11.257987
12.082704
11.235409
10.171866
11.257146
8.2569036
11.238182
6.3294454
11.357661
4.4055025
11.365993
2.4668793
11.545689
11.523936
0.59724365
15.887349
13.159439
13.988965
13.156371
12.087506
13.136868
10.173832
13.17082
8.2560727
13.155942
6.3303207
13.283413
4.4013962
13.294917
2.4492611
13.497824
13.403413
0.56978427
15.888152
15.049065
13.991861
15.052662
12.090287
15.038442
10.176972
15.084135
8.2546858
15.078228
6.3207728
15.217326
4.3850351
15.230655
2.4149522
15.467907
15.288428
0.52993664
15.889234
16.937609
13.994087
16.947809
12.094323
16.938206
10.179118
16.99934
8.2574116
16.999934
6.3214875
17.15325
4.382514
17.169628
2.3914675
17.458953
17.201457
0.47843943
18.762869
15.952518
20.58585
15.954796
22.407877
15.955758
24.230398
15.955258
26.05279
15.955369
27.874889
15.955681
29.694528
15.95814
31.508185
15.964124
15.967467
33.318497
18.779295
14.121032
20.610127
14.123964
22.439197
14.126688
24.264959
14.129496
26.088431
14.131897
27.9078
14.136312
29.730436
14.135504
31.558028
14.136533
14.130495
33.395
18.779553
12.279686
20.618056
12.285461
22.457213
12.287531
24.294356
12.292353
26.131753
12.294499
27.96498
12.303086
29.789309
12.311175
31.603528
12.322313
12.329295
33.404728
18.856439
10.422587
20.712992
10.428908
22.566214
10.434309
24.416403
10.442164
26.264348
10.446554
28.118243
10.44919
29.986314
10.443104
31.85083
10.457798
10.454301
33.725824
18.876449
8.5460719
20.752913
8.552444
22.635544
8.5516789
24.513178
8.564529
26.391628
8.5681042
28.255534
8.5852845
30.108296
8.5903416
31.962328
8.6037663
8.6147102
33.801918
19.056013
6.6433093
20.969254
6.6392032
22.893344
6.6275883
24.829587
6.6282865
26.775922
6.6217691
28.734927
6.6262799
30.697392
6.6278763
32.66151
6.6396486
6.6421754
34.634044
19.088581
4.7243565
21.030801
4.6969828
22.973585
4.6848052
24.929496
4.6723752
26.880403
4.6708624
28.848811
4.6578719
30.818102
4.6585849
32.797771
4.6599793
4.6825838
34.757363
19.486415
2.6968952
21.573888
2.6095094
23.710304
2.5483896
25.891485
2.4911942
28.092821
2.4695265
30.29855
2.4521429
32.476213
2.4809216
34.62851
2.5076827
2.5450284
36.766065
19.230168
0.66818368
21.390221
0.44945607
23.687559
0.2510514
26.005214
0.17353942
28.264621
0.21012022
30.351577
0.3651868
32.36554
0.46695845
34.473292
0.3999308
36.904269
0.11405094
33.196127
0.12236988
33.076764
0.11936313
32.958829
0.11793461
32.845306
0.1135231
32.733209
0.1120972
32.626763
0.10644643
32.521711
0.10505132
32.424499
0.097212609
0.095891754
32.328607
33.290713
0.22665708
33.191054
0.21902208
33.093443
0.21554596
33.00219
0.20477609
32.912881
0.20140623
32.831824
0.18750355
32.752755
0.18411971
32.68335
0.16661819
0.16380524
32.615436
33.314001
0.31738377
33.230304
0.30271866
33.151001
0.29484949
33.078319
0.27745813
33.010399
0.269326
32.950287
0.24761556
32.895282
0.23912469
32.846288
0.21561196
0.20357815
32.806515
33.664131
0.3790767
33.60944
0.3574098
33.557622
0.34666782
33.512001
0.32307937
33.468929
0.31239785
33.431953
0.28459195
33.397444
0.27363298
33.369013
0.24404337
0.2304921
33.342099
33.764254
0.41674099
33.735895
0.38576832
33.710488
0.37207492
33.692459
0.34110786
33.677129
0.32772808
33.667566
0.29415552
33.660133
0.28106548
33.658631
0.24554528
0.23336148
33.655762
34.625523
0.42526282
34.622589
0.3887016
34.621179
0.37348571
34.621174
0.3411121
34.622109
0.32679375
34.620109
0.29615524
34.617382
0.28379206
34.609406
0.25352129
0.24282124
34.599947
34.812091
0.37053489
34.858342
0.3424504
34.905471
0.32635717
34.944324
0.30225839
34.983321
0.28779718
35.0122
0.2672762
35.038769
0.25722314
35.05099
0.24130047
0.23699307
35.056818
36.81425
0.32235005
36.852409
0.3042914
36.889355
0.28941078
36.916084
0.27553016
36.94416
0.25972056
36.954447
0.25698969
36.947185
0.26448476
36.898632
0.28985402
0.3153489
36.820276
37.231047
-0.0044275529
37.559292
-0.023954251
37.856419
-0.0077159541
38.116639
0.015310106
38.31609
0.060269848
38.41159
0.16149
38.377482
0.29859274
38.220134
0.44720164
37.974307
0.56117608
37.808823
0.70693017
-0.54144624
37.520164
0.68022385
-0.39156482
37.179668
0.66002657
-0.31953116
36.846583
0.64947883
-0.31639381
36.51165
0.63973034
-0.30479741
36.156614
0.63191673
-0.27688026
35.751895
0.6103188
-0.2055998
35.308712
0.5974426
-0.15426005
0.56925647
34.843591
-0.10413556
36.867795
0.65941127
36.878979
0.66903966
36.86026
0.67874518
36.822041
0.6876981
36.765523
0.69624818
36.69167
0.70577017
36.587634
0.71435413
36.461279
0.72379829
0.73085127
36.299684
35.171305
0.54492433
35.273826
0.56651789
35.361592
0.59097934
35.438184
0.61110612
35.498695
0.63573722
35.549721
0.65474407
35.583811
0.68026501
35.609058
0.69855045
0.72523527
35.614674
34.717133
0.42773827
34.837617
0.44603312
34.947388
0.48120863
35.059407
0.49908721
35.159201
0.53594342
35.260808
0.5531367
35.349084
0.59198898
35.438962
0.60867224
0.64994049
35.514257
33.782284
0.30121579
33.907615
0.32070259
34.037334
0.35148991
34.164998
0.37142276
34.293834
0.40710763
34.423424
0.42354627
34.551301
0.46411182
34.679801
0.48017289
0.52152834
34.808213
33.448161
0.19515394
33.557074
0.21178933
33.671412
0.23715196
33.788019
0.25481616
33.908184
0.28694215
34.030874
0.3008565
34.157989
0.33699694
34.284794
0.35336803
0.38746818
34.418854
32.896012
0.10565722
32.997075
0.11072621
33.099566
0.13466145
33.213614
0.14076797
33.332252
0.16830356
33.457569
0.17554
33.589134
0.20543187
33.72839
0.21411171
0.2443678
33.871491
32.681817
0.039276383
32.75163
0.040912871
32.831844
0.054447871
32.915471
0.057141159
33.012732
0.071042637
33.112241
0.076030325
33.226733
0.090940648
33.347464
0.093380359
0.11093872
33.480893
32.367883
32.408796
32.463244
32.520385
32.591428
32.667458
32.758399
32.851779
32.962718
33.079515
-0.11679691
33.213163
-0.13364803
33.35289
-0.13972667
33.514653
-0.16176337
33.683159
-0.16850626
33.871968
-0.18880857
34.071218
-0.1992502
34.29396
-0.22274231
-0.23049046
34.524451
33.623098
-0.25900142
33.774143
-0.28469388
33.939906
-0.30548892
34.110476
-0.33233327
34.299179
-0.35720968
34.490508
-0.38013738
34.706327
-0.41506951
34.921356
-0.43777099
-0.4715781
35.162443
34.019397
-0.40690807
34.176442
-0.44173885
34.337446
-0.46649263
34.503772
-0.49865908
34.677897
-0.53133453
34.860685
-0.56292583
35.048413
-0.60279759
35.247587
-0.6369446
-0.67974017
35.455749
34.551184
-0.5392385
34.694167
-0.58472136
34.832585
-0.60491134
34.987812
-0.65388603
35.135214
-0.67873627
35.305402
-0.73311335
35.463519
-0.76091545
35.65124
-0.82466497
-0.85431507
35.825815
34.937205
-0.66823032
35.064665
-0.71218193
35.193799
-0.73404459
35.321938
-0.78202569
35.448787
-0.80558463
35.575485
-0.85981201
35.70086
-0.88628991
35.825468
-0.94927306
-0.97857556
35.949728
35.590526
-0.74449883
35.651834
-0.77349062
35.714618
-0.79682779
35.76164
-0.82904802
35.813154
-0.8570991
35.848023
-0.89468028
35.89045
-0.92871707
35.915288
-0.97411109
-1.0148494
35.951562
35.611634
-0.74145819
35.590412
-0.75226919
35.560872
-0.76728747
35.513262
-0.78143807
35.460106
-0.80394341
35.392937
-0.82751092
35.325637
-0.86141734
35.24689
-0.89536381
-0.93626203
35.168303
36.116936
-0.55871004
35.905235
-0.54056831
35.675642
-0.53769438
35.433241
-0.53903764
35.181261
-0.55196263
34.929915
-0.57616476
34.672184
-0.60368683
34.414267
-0.63744724
-0.66536381
34.143369
34.391722
-0.10684027
33.964782
-0.11362866
33.581449
-0.15436113
33.211439
-0.16902822
32.865073
-0.2055962
32.490544
-0.20163602
32.118651
-0.23179365
31.692925
-0.21172096
31.283397
-0.25583641
0.70241162
30.819035
-0.23804932
0.98011557
33.865665
1.0690613
35.079357
1.0494213
35.971202
0.92348978
36.07566
0.72001913
36.029285
0.50498332
35.670785
0.25992356
35.407503
34.784374
0.73476223
30.390553
-0.30628057
1.0284052
33.572022
1.1160939
34.991668
1.0831498
36.004146
0.96194786
36.196862
0.7682443
36.222989
0.53604101
35.902988
0.2676404
35.675904
35.052015
0.78726846
29.896394
-0.29310914
1.0876739
33.271617
1.1827388
34.896603
1.1597487
36.027136
1.0296018
36.327009
0.80955352
36.443037
0.57575717
36.136784
0.30031094
35.95135
35.352326
0.84372022
29.447078
-0.39440473
1.1450511
32.970286
1.235887
34.805767
1.1988061
36.064217
1.0777756
36.448039
0.86575441
36.655058
0.61075448
36.391784
0.31132377
36.250781
35.663649
0.92292934
28.90863
-0.38448099
1.2233446
32.669871
1.3180132
34.711099
1.2851577
36.097072
1.1491151
36.584082
0.91024404
36.893929
0.65177597
36.650252
0.34235575
36.560201
36.006005
0.99567088
28.41978
-0.50682063
1.288667
32.376875
1.3757527
34.624013
1.3261095
36.146715
1.199272
36.710919
0.96897259
37.124229
0.69216616
36.927059
0.35999459
36.892373
36.366
1.0926371
27.868928
-0.54178519
1.3840756
32.085436
1.4746173
34.533471
1.4264797
36.194853
1.2845507
36.852848
1.0218412
37.386938
0.73541014
37.21349
0.39086301
37.23692
36.756863
1.1742436
27.439067
-0.74438304
1.4570246
31.802655
1.5366323
34.453864
1.4702207
36.261265
1.3311901
36.991879
1.0780005
37.640128
0.77968429
37.511806
0.41167945
37.604924
37.168542
1.2846848
26.872811
-0.71842874
1.5741938
31.513146
1.6607907
34.367267
1.5903796
36.331676
1.4344636
37.147795
1.1410797
37.933512
0.82355493
37.829331
0.44116869
37.987311
37.609711
-0.085113202
37.694824
-0.094646277
37.996844
-0.064798644
37.799483
0.050997583
37.817716
0.19366813
37.005124
0.40438232
36.120961
0.62343276
34.148216
0.93540011
31.201179
26.874596
0.93361551
-0.096244546
37.791069
-0.10329641
38.003896
-0.089497389
37.785684
-0.016639376
37.744858
0.087926016
36.900559
0.27726675
35.931621
0.46133642
33.964147
0.70019742
30.962318
26.867395
0.70739808
-0.11540359
37.906472
-0.15185124
38.040343
-0.13844089
37.772274
-0.041754158
37.648171
0.073179646
36.785625
0.25900194
35.745798
0.43420908
33.78894
0.66273886
30.733788
26.844205
0.68592919
-0.11744118
38.023913
-0.14808777
38.07099
-0.15965776
37.783844
-0.11036123
37.598874
-0.032206357
36.70747
0.1263008
35.587291
0.27712567
33.638115
0.47172657
30.539187
26.812087
0.50384467
-0.13981781
38.163731
-0.19945569
38.130628
-0.20269923
37.787087
-0.12523172
37.521407
-0.033401808
36.61564
0.12896455
35.424925
0.27442335
33.492656
0.46490218
30.348708
26.750006
0.52698242
-0.13921566
38.302947
-0.18871103
38.180123
-0.22124794
37.819624
-0.19347844
37.493637
-0.1320868
36.554249
0.002670977
35.290167
0.12661331
33.368714
0.30330272
30.172019
26.694612
0.35869677
-0.15908656
38.462033
-0.23255624
38.253593
-0.24788083
37.834949
-0.18609651
37.431853
-0.11565103
36.483803
0.021904024
35.152612
0.14680428
33.243813
0.32116434
29.997659
26.605083
0.41069354
-0.15670365
38.618737
-0.21635532
38.313245
-0.26704333
37.885637
-0.2599357
37.424745
-0.21150733
36.435375
-0.10131258
35.042417
0.012944704
33.129556
0.18287748
29.827726
26.504721
0.28323922
-0.17302743
38.791765
-0.25213466
38.392352
-0.27352046
37.907023
-0.22595717
37.377182
-0.17803039
36.387448
-0.06296895
34.927356
0.055742914
33.010844
0.21990574
29.663563
26.373575
0.35105166
-0.092835383
26.232109
0.23430227
0.062060302
29.508668
0.17534489
32.89756
0.26395159
34.838749
0.29823293
36.353167
0.29387119
37.381544
0.23142679
37.969467
0.16652159
38.457257
38.958286
-0.14555875
26.072544
0.30512342
0.0049905524
29.358118
0.11577306
32.786777
0.21191068
34.742612
0.24372029
36.321357
0.27416341
37.351101
0.24484886
37.998782
0.17139546
38.53071
39.129682
-0.029697714
25.898502
0.20373974
0.11220699
29.216214
0.22032832
32.678656
0.28618692
34.676753
0.30087813
36.306666
0.28745999
37.364519
0.21737006
38.068872
0.15779899
38.590281
39.287481
-0.096672448
25.711437
0.28373764
0.036362486
29.083179
0.13400968
32.581009
0.20992582
34.600837
0.23125419
36.285337
0.248077
37.347696
0.21747466
38.099474
0.15717498
38.650581
39.444656
0.0067954556
25.511978
0.19266345
0.13744077
28.952533
0.22802923
32.49042
0.27253591
34.55633
0.26892352
36.28895
0.24954349
37.367076
0.18423434
38.164783
0.13258046
38.702235
39.577236
-0.078128853
25.311832
0.27827442
0.041371058
28.833034
0.11581543
32.415976
0.1693319
34.502814
0.17759816
36.280684
0.18779044
37.356884
0.16378596
38.188788
0.12111574
38.744905
39.698352
0.0091645833
25.109633
0.19303503
0.12766498
28.714533
0.19030779
32.353333
0.21211104
34.48101
0.19080054
36.301994
0.16762363
37.380061
0.11831007
38.238101
0.08602722
38.777188
39.784379
-0.095987215
24.925539
0.28008097
0.0091497462
28.609396
0.053360265
32.309123
0.086828901
34.447542
0.081505209
36.307318
0.090563376
37.371003
0.081961632
38.246703
0.061833274
38.797316
39.846212
-0.025150809
24.75732
0.19336961
0.07606168
28.508184
0.10245757
32.282727
0.10457667
34.445423
0.06426728
36.347627
0.04193844
37.393331
0.022745409
38.265896
0.01121889
38.808843
39.857431
0.15975201
39.697679
0.29954647
38.669048
0.41357729
38.151865
0.50098891
37.30592
0.54168391
36.306932
0.54609978
34.441007
0.52970624
32.29912
0.48470812
28.553182
24.766414
0.47561374
0.22332227
39.474357
0.38773664
38.504634
0.50338443
38.036217
0.58003495
37.229269
0.58881192
36.298155
0.55630306
34.473516
0.50544926
32.349974
0.43805187
28.620579
24.840966
0.36349997
0.27538295
39.198974
0.47750185
38.302515
0.64563965
37.868079
0.76566824
37.109241
0.80451786
36.259306
0.79125464
34.486779
0.75441994
32.386809
0.68504463
28.689955
24.998227
0.52778401
0.34014154
38.858832
0.57270685
38.06995
0.74005067
37.700736
0.85982935
36.989462
0.89327495
36.22586
0.84941723
34.530636
0.78676466
32.449461
0.70021619
28.776503
25.27412
0.42432265
0.4018597
38.456973
0.68321897
37.788591
0.91142384
37.472531
1.0772019
36.823684
1.1446026
36.158459
1.1190393
34.5562
1.0660243
32.502476
1.0338845
28.808643
25.723233
0.58477197
0.46621243
37.99076
0.78177421
37.473029
1.0144069
37.239898
1.1889621
36.649129
1.2621833
36.085238
1.2145223
34.603861
1.1346646
32.582334
1.1305676
28.81274
26.326939
0.52686132
0.53323188
37.457528
0.90249993
37.103761
1.1990801
36.943318
1.4230374
36.425172
1.5463644
35.961911
1.5259163
34.624309
1.3967978
32.711452
1.5116963
28.697841
27.037043
0.80159293
0.58083934
36.876689
1.0004798
36.68412
1.3024712
36.641326
1.5362838
36.191359
1.6879298
35.810265
1.6823619
34.629877
1.4846852
32.909129
1.6726706
28.509856
27.673968
1.0357448
0.65796362
36.218725
1.1266202
36.215464
1.5058783
36.262068
1.8214991
35.875738
2.0646363
35.567128
2.1443299
34.550183
1.8808928
33.172566
2.1146915
28.276057
27.867908
1.9207517
-1.1109709
37.329696
-2.4519077
37.556401
-3.8890694
37.69923
-5.432062
37.418731
-6.8911392
37.026205
-8.2862356
35.945279
-9.398311
34.284642
-9.6466985
28.524445
27.99528
-9.77407
-1.0611887
38.390885
-2.3991739
38.894386
-3.8428831
39.142939
-5.4104318
38.986279
-6.9410024
38.556776
-8.3948321
37.399109
-9.5589437
35.448753
-9.4648201
28.430321
26.290412
-7.7599524
-0.99200104
39.382886
-2.3379358
40.24032
-3.7850575
40.590061
-5.4303874
40.631609
-7.0390186
40.165407
-8.5096951
38.869786
-9.6649501
36.604008
-8.9158788
27.68125
20.099657
-2.7251235
-0.93358677
40.316473
-2.2658238
41.572557
-3.7058812
42.030118
-5.3733436
42.299072
-7.068693
41.860756
-8.6205324
40.421625
-9.6429896
37.626465
-8.2936909
26.331951
12.350742
-0.54477566
-0.84865836
41.165131
-2.1725421
42.896441
-3.6208547
43.478431
-5.3678693
44.046086
-7.1235118
43.616399
-8.7061698
42.004283
-9.6498784
38.570174
-7.38095
24.063023
4.9909973
-0.021205751
-0.79289525
41.958026
-2.0887115
44.192258
-3.528234
44.917953
-5.2940491
45.811902
-7.1352801
45.45763
-8.8261545
43.695157
-9.4200286
39.164048
-5.0489099
19.691904
-0.68566814
0.6277555
-0.70428608
42.662312
-1.9744027
45.462374
-3.4316105
46.375161
-5.2691494
47.64944
-7.1709067
47.359387
-8.8278131
45.352064
-8.7363789
39.072614
-3.4534534
14.408978
-4.8027933
0.66367176
-0.64439063
43.306703
-1.8727977
46.690781
-3.3034808
47.805844
-5.1606181
49.506578
-7.1370454
49.335814
-8.7654146
46.980433
-7.9629505
38.27015
-2.686586
9.1326139
-8.0458508
0.55647153
-0.56171291
43.868416
-1.7420449
47.871113
-3.2005255
49.264325
-5.1249055
51.430958
-7.129823
51.340732
-8.6041151
48.454725
-7.0045905
36.670625
-1.7323497
3.8603731
-10.589634
0.81143383
0.68285759
-11.809877
0.53738524
3.7471712
0.79605944
4.9856421
35.432154
3.9403431
49.500024
2.5694183
52.711657
1.3589797
52.641396
0.54298312
50.080321
0.0009895674
48.413107
43.869406
0.40696721
-12.807751
0.59090614
3.3659064
-2.1628797
4.8764832
33.921578
3.8337715
50.542736
2.4550523
54.090376
1.215832
53.880617
0.39445333
50.9017
-0.072338161
48.879898
43.797067
0.15588046
-13.619486
0.65585537
3.0312668
-5.0382661
4.7650904
32.187754
3.7437054
51.564121
2.3207912
55.51329
1.1006301
55.100778
0.31972667
51.682603
-0.11352876
49.313154
43.683539
-0.0090581942
-14.292079
0.68165103
2.7751581
-7.8224824
4.6046471
30.358265
3.6183811
52.550387
2.1883852
56.943286
0.94087671
56.348286
0.16982834
52.453652
-0.17709584
49.660078
43.506443
-0.073701709
-14.916777
0.69839977
2.6352049
-10.531389
4.4761442
28.517326
3.509583
53.516948
2.0447709
58.408098
0.82732813
57.565729
0.097229769
53.18375
-0.21393447
49.971242
43.292508
-0.024870642
-15.576893
0.68498629
2.6272314
-13.183491
4.3026131
26.841944
3.3639116
54.45565
1.9086181
59.863392
0.66985101
58.804496
-0.046640208
53.900241
-0.27239061
50.196993
43.020118
0.040683024
-16.196418
0.57884169
2.6259929
-15.768801
4.182783
25.285154
3.2555919
55.382841
1.7611449
61.357839
0.55320631
60.012435
-0.10916537
54.562613
-0.29889032
50.386718
42.721227
0.034157879
-16.931999
0.70142344
2.5333521
-18.267995
3.9945946
23.823911
3.0862615
56.291174
1.6112632
62.832837
0.40033299
61.223365
-0.23724721
55.200193
-0.35635628
50.505827
42.364871
0.070285274
-17.116625
0.114341
2.4292507
-20.62696
3.8729067
22.380255
3.0042021
57.159878
1.4631988
64.37384
0.27969424
62.40687
-0.30074145
55.780629
-0.36810546
50.573191
41.996766
3.2140974
-19.936524
-0.39419908
4.4478148
-21.860678
1.6777641
25.150306
-1.6548012
60.492444
-3.6809513
66.39999
-4.462327
63.188245
-3.904335
55.222637
-2.3684989
49.037355
39.628267
3.7394627
-23.817413
0.14142647
4.1500224
-22.271238
0.67269142
28.627637
-2.9355129
64.100648
-5.0304514
68.494929
-5.2810027
63.438796
-4.1375585
54.079193
-2.1650327
47.064829
37.463234
3.9494329
-27.829822
0.062976465
3.6458463
-21.967651
-0.51917697
32.79266
-3.8974257
67.478897
-5.4211905
70.018693
-5.4423708
63.459977
-4.2785126
52.915335
-2.4320547
45.218371
35.031179
4.173089
-30.484132
-1.5187798
3.4061393
-21.200701
-1.2956723
37.494472
-4.9126184
71.095843
-6.5108213
71.616896
-5.9706905
62.919846
-4.325074
51.269718
-2.4215836
43.31488
32.609596
4.2320077
-31.908085
-2.8080547
2.9308675
-19.899561
-2.4643655
42.889705
-5.7305589
74.362036
-6.6381424
72.52448
-5.879223
62.160927
-4.3458979
49.736393
-2.2438867
41.212869
30.365709
4.2619789
-32.963881
-3.2061833
2.6712186
-18.308801
-3.1333287
48.694252
-6.4820684
77.710776
-7.5206746
73.563086
-6.4005618
61.040814
-4.1728046
47.508636
-1.556059
38.596124
28.80965
4.1176885
-33.873317
-3.2082516
1.9467357
-16.137848
-4.3859589
55.026947
-7.1874413
80.512258
-7.3826419
73.758287
-5.6653757
59.323548
-3.4453389
45.288599
-0.92686203
36.077647
27.882788
4.1698932
-34.870724
-3.1724869
1.7104499
-13.678405
-4.9458547
61.683251
-7.6474569
83.213861
-7.920498
74.031328
-6.1022952
57.505345
-3.8764739
43.062778
-0.77139896
32.972572
27.111389
3.7622146
-2.9758906
-35.657048
0.46463928
-10.380829
-6.4492111
68.597102
-8.4036131
85.168263
-7.6754055
73.30312
-5.1925496
55.022489
-2.5486492
40.418877
0.34075908
30.083163
27.452148
-2.0657857
30.863696
0.62603938
-29.42395
-1.3982309
56.450006
-57.11756
2.4176631
15.165531
-18.981425
5.0083255
-35.259692
32.66903
6.5312747
-54.68501
53.16206
7.0869609
-58.565282
58.009596
7.1459758
-55.611158
55.552143
7.6196096
-20.400806
19.927172
15.003233
-15.839374
-2.0330512
32.266753
0.62999415
-1.2548511
55.671806
2.7422796
11.168401
5.4218123
-37.939225
6.8432163
-56.106414
7.3489158
-59.070982
7.256217
-55.518459
7.3771916
-20.52178
14.246294
-1.9506372
33.588719
0.62867085
-1.0145913
54.73576
3.1113949
7.0424144
5.8958084
-40.723638
7.27619
-57.486795
7.6925075
-59.487299
7.4419588
-55.267911
7.3296721
-20.409494
13.45489
-1.8110363
34.785558
0.61419746
-0.70138482
53.626108
3.5036681
2.8373615
6.3474626
-43.567433
7.7178382
-58.857171
8.1148337
-59.884295
7.7542419
-54.907319
7.4482267
-20.103478
12.584584
-1.6718982
35.862936
0.59451987
-0.38096937
52.335179
3.9256755
-1.4692833
6.8362414
-46.477999
8.211664
-60.232593
8.6283202
-60.300951
8.2070455
-54.486044
7.7522379
-19.648671
11.599642
-1.5344047
36.820463
0.57687776
-0.04860789
50.849383
4.3750386
-5.8929299
7.3272158
-49.430176
8.7600827
-61.66546
9.1804076
-60.721276
8.613459
-53.919096
8.0878083
-19.12302
10.391141
-1.4066878
37.668853
0.55829802
0.28668283
49.156012
4.8424411
-10.448688
7.865634
-52.453368
9.4352705
-63.235097
9.795235
-61.08124
8.8954037
-53.019264
8.3791133
-18.60673
8.8299654
-1.204831
38.34053
0.53315367
0.70742609
47.243755
5.287689
-15.028951
8.3474537
-55.513133
10.054942
-64.942585
10.387884
-61.414183
9.0899892
-51.721369
8.5865923
-18.103333
6.872502
-1.0196295
0.50676813
38.853391
1.154443
45.069682
5.7433861
-19.617894
8.8479767
-58.617724
10.586799
-66.681408
10.815205
-61.642589
9.2170428
-50.123207
8.8479073
-17.734197
4.4382378
-5.8544067
-22.394803
-0.14354839
28.392758
-8.8646388
-68.671656
71.681889
-3.6438276
-54.897968
49.677155
3.5548844
-13.050783
5.852071
7.87481
6.2650915
-10.585017
7.5633428
-13.149754
13.461221
2.4220244
-44.697404
49.838723
-0.97916033
-60.380515
63.7817
-63.799553
62.820392
-4.9480084
-16.059647
-1.3871474
-8.655739
-64.963925
-5.3743966
-58.179311
1.8837346
-20.308914
7.8111313
0.33769477
8.6519303
-13.990553
4.5046927
-40.550167
0.29250399
-56.168326
-63.507049
-4.6728682
-8.6131309
-2.7736483
-8.3960886
-61.240705
-5.8370514
-60.738348
0.61249784
-26.758464
7.0661661
-6.1159735
8.4915809
-15.415968
4.8680592
-36.926645
0.86724817
-52.167515
-62.6398
-3.8591422
-1.8961262
-2.8578623
-8.1791644
-56.920683
-6.5211868
-62.396326
0.24324727
-33.522898
6.8559316
-12.728658
8.6768735
-17.23691
6.0778404
-34.327612
1.8312864
-47.920961
-60.808514
-3.4740709
4.116029
-2.5380844
-7.7667465
-52.628007
-6.7685865
-63.394486
-0.42331061
-39.868174
6.3039755
-19.455944
7.91132
-18.844254
5.9379709
-32.354263
2.4104952
-44.393486
-58.398019
-2.8235842
8.7459183
-1.8063053
-7.3180614
-48.13353
-7.3336261
-63.378921
-1.8785912
-45.323209
4.5970984
-25.931633
7.2135487
-21.460705
6.243825
-31.384539
2.8754865
-41.025147
-55.522532
-2.3565665
12.006788
-0.90430368
-6.7200785
-43.770018
-7.176172
-62.922828
-3.2862553
-49.213125
2.3465238
-31.564413
5.5015836
-24.615765
5.4819346
-31.36489
3.2877518
-38.830964
-52.234781
-1.8659491
14.548995
-0.67625826
-6.3266427
-39.309324
-7.3169861
-61.932485
-4.2375589
-52.292553
0.62661385
-36.428585
4.3197942
-28.308945
4.9484368
-31.993532
3.1883659
-37.070894
-49.046415
-0.98984054
16.309724
-0.77088863
-5.3758998
-34.923265
-6.9749625
-60.333423
-4.9525032
-54.315012
-0.77172904
-40.609359
2.4487662
-31.52944
3.737346
-33.282112
3.07156
-36.405108
-45.974855
-0.76126127
36.037008
-35.275747
-0.90897881
34.086048
-33.93833
-0.91280321
34.537064
-34.53324
-0.76615187
35.867389
-36.01404
-1.1104122
41.827369
-41.483109
-2.0249394
49.426536
-48.512008
-2.9945437
54.342309
-53.372704
-1.3320961
42.455083
-44.117531
-6.1242021
3.8500495
0.94205644
-0.88734948
36.924358
-1.0228563
34.221554
-0.98435095
34.498559
-0.78233756
35.665375
-1.025365
42.070397
-1.8376502
50.238821
-2.7528078
55.257466
-1.3721588
41.074434
-8.0463204
0.54995955
-0.94553908
37.869897
-1.1332212
34.409237
-1.0526993
34.418037
-0.72581154
35.338487
-0.89581445
42.2404
-1.7037143
51.046721
-2.5819562
56.135708
-1.3778325
39.87031
-9.5093448
0.085191865
-1.0894813
38.959378
-1.274879
34.594634
-1.1549737
34.298131
-0.78007688
34.963591
-0.82326062
42.283583
-1.5166701
51.74013
-2.3346114
56.953649
-1.3468664
38.882565
-10.222237
-0.63397424
-1.1729566
40.132334
-1.4199685
34.841646
-1.2678347
34.145998
-0.75402381
34.44978
-0.70441986
42.23398
-1.3880192
52.423729
-2.1763812
57.742011
-1.2707874
37.976971
-10.868335
-0.62468863
-1.3267253
41.45906
-1.5813143
35.096235
-1.3967626
33.961446
-0.83549087
33.888508
-0.62712147
42.02561
-1.1931923
52.9898
-1.9199877
58.468806
-1.1504271
37.20741
-11.690664
-0.32809929
-1.3939326
42.852992
-1.7617592
35.464062
-1.5461582
33.745845
-0.84141437
33.183764
-0.5382184
41.722414
-1.080569
53.532151
-1.7648419
59.153078
-0.98670588
36.429274
-13.046795
0.36942535
-1.5278073
44.3808
-1.9296175
35.865872
-1.703814
33.520041
-0.95422484
32.434175
-0.44244721
41.210636
-0.85526733
53.944971
-1.5004099
59.798221
-0.77908948
35.707954
-14.742753
0.9168673
-1.5940551
-2.1332907
-1.8953616
-0.99062706
-0.38935003
-0.75939101
-1.2945929
-0.50990439
1.0570666
3.2933018
-0.80658341
1.363331
6.6951592
-47.519388
5.2297673
-51.907313
3.5260784
-46.80832
2.5079569
-40.464988
2.0847677
-35.590851
1.6307721
-34.079244
1.0999374
-33.407495
-34.175809
6.3772124
-7.3851957
0.20139983
7.3070882
-48.449264
5.4641923
-50.064417
3.616792
-44.960919
2.5465185
-39.394714
2.0669313
-35.111264
1.560617
-33.57293
0.98568589
-32.832564
-33.190124
7.9055379
-15.226963
-0.063771117
7.5410989
-48.084825
5.6020942
-48.125412
3.7618954
-43.12072
2.673817
-38.306636
2.0717662
-34.509213
1.513282
-33.014446
0.9368021
-32.256084
-32.253321
8.4952326
-23.752934
0.030739372
7.75128
-47.340872
5.7547113
-46.128843
3.8795451
-41.245554
2.7331801
-37.160271
2.083037
-33.85907
1.4815773
-32.412986
0.85922179
-31.633729
-31.3941
9.2294194
-33.000431
0.018076881
7.9086412
-46.020094
5.8182538
-44.038456
4.006706
-39.434007
2.8487824
-36.002347
2.1028864
-33.113174
1.4534244
-31.763524
0.82702067
-31.007325
-30.567079
9.7915279
-41.724963
-1.0669954
8.1539483
-44.382514
5.9053133
-41.789821
4.1047461
-37.633439
2.9164077
-34.814009
2.1394117
-32.336178
1.4475893
-31.071701
0.78234736
-30.342083
-29.784732
10.308017
-45.703292
-6.3296882
8.1738738
-42.248371
5.8767121
-39.492659
4.1971319
-35.953859
3.0226473
-33.639524
2.1705869
-31.484117
1.4369708
-30.338085
0.76508038
-29.670193
-29.019651
10.559692
-44.436593
-11.82639
8.0237002
-39.71238
5.8858754
-37.354835
4.2657357
-34.333719
3.0865794
-32.460368
2.2157584
-30.613296
1.4492685
-29.571596
0.74364394
-28.964568
-28.276007
10.455957
-41.673764
-13.218787
7.8386565
-37.095079
5.845159
-35.361337
4.346956
-32.835516
3.1722726
-31.285685
2.242071
-29.683095
1.4456974
-28.775222
0.72330429
-28.242175
-27.552703
0.59079611
33.08768
-33.678476
1.1095639
33.344313
-33.86308
1.5834785
33.896421
-34.370336
2.0067265
34.6374
-35.060648
2.308737
35.547197
-35.849207
2.4009999
36.569808
-36.662071
2.1094115
36.793773
-36.502184
1.400762
35.312968
-34.604318
28.908841
-28.020173
0.51209424
0.62805611
32.459624
1.1789811
32.793388
1.6963329
33.37907
2.1505595
34.183173
2.4803374
35.217419
2.6515355
36.39861
2.3650668
37.080241
1.6167526
36.061282
29.952536
0.57305738
0.65941574
31.800208
1.2375551
32.215248
1.7933359
32.823289
2.3086771
33.667832
2.7199932
34.806103
2.9888321
36.129771
2.82138
37.247693
2.0262826
36.856379
31.410292
0.56852729
0.68487353
31.115335
1.2949964
31.605125
1.8923146
32.225971
2.4376684
33.122478
2.8720998
34.371671
3.2223139
35.779557
3.1613663
37.308641
2.5058783
37.511867
33.314261
0.60190888
0.70453711
30.410798
1.338052
30.97161
1.9705764
31.593446
2.5794274
32.513627
3.1039177
33.847181
3.5408867
35.342588
3.6623364
37.187191
3.1064209
38.067783
35.438147
0.98253451
0.71898297
29.691815
1.3738054
30.316788
2.0415941
30.925657
2.6741367
31.881084
3.2174679
33.30385
3.7536648
34.806391
4.0077278
36.933128
3.7296743
38.345836
37.665303
1.5025189
0.71439569
28.977419
1.395926
29.635258
2.0909791
30.230604
2.7872913
31.184772
3.4147849
32.676356
4.0107824
34.210394
4.3973722
36.546538
4.395524
38.347685
39.239091
2.821736
0.72516346
28.252256
1.4081822
28.952239
2.1318499
29.506936
2.8460185
30.470604
3.4923524
32.030022
4.1577313
33.545015
4.6413292
36.06294
5.0070685
37.981946
40.685504
3.5606548
0.69955255
1.4096165
2.1413309
2.9288401
3.6731776
4.3826762
5.0842795
5.9711463
4.9828871
-0.68126537
-27.677288
0.33838002
-1.1330021
-34.152582
-1.4430125
-36.192174
-1.482042
-36.623042
-1.3662041
-35.965045
-1.1190626
-35.307789
-0.80158959
-34.687809
-0.43063562
-34.234034
-34.109112
-0.63414212
-27.341005
0.29785947
-1.0456122
-33.741111
-1.3135279
-35.924258
-1.3622667
-36.574303
-1.2425901
-36.084722