/*--------------------------------*- C++ -*----------------------------------*\
  =========                 |
  \\      /  F ield         | OpenFOAM: The Open Source CFD Toolbox
   \\    /   O peration     | Website:  https://openfoam.org
    \\  /    A nd           | Version:  11
     \\/     M anipulation  |
\*---------------------------------------------------------------------------*/
FoamFile
{
    format      ascii;
    class       volScalarField;
    location    "0.0075";
    object      rho;
}
// * * * * * * * * * * * * * * * * * * * * * * * * * * * * * * * * * * * * * //

dimensions      [0 0 0 0 0 0 0];

internalField   nonuniform List<scalar> 
880
(
0.3733250556165154
0.3733250556165154
0.3733250556165154
0.3733250556165154
0.3733250556165154
0.3733250556165154
0.3733250556165152
0.3733250556165154
0.3733250556165154
0.3733250556165153
0.3733250556165154
0.3733250556154628
0.3733250556165154
0.3733250556165154
0.3733250556165154
0.3733250553391074
0.3733250556165154
0.3733250556165155
0.3733250556165152
0.3733250556165154
0.3733250556165154
0.3733250556165154
0.3733250556165151
0.3733250556165154
0.3733250556165154
0.3733250556165154
0.3733250556165154
0.3733250556165151
0.3733250677642518
0.3733250725937937
0.373325071142882
0.3733250696953512
0.3733250556165154
0.3733250556165154
0.3733250556165152
0.3733250556165154
0.3733250556165154
0.3733250556165152
0.3733250556165154
0.3733250556165154
0.3733250556176115
0.3733250556174446
0.3733250556175123
0.3733250556165155
0.3733250674880833
0.3733250676786737
0.3733250678645464
0.3733250619633395
0.3733251757217709
0.3733250962614209
0.3733250572949679
0.3733250556217651
0.3733250556383099
0.3733250556247097
0.3733250556169798
0.3733250556165154
0.3733250556165154
0.3733250556165154
0.3733250556165153
0.3733250556165154
0.3733250556165154
0.3733250556165155
0.3733250556165154
0.3733250556165154
0.3733250556165152
0.3733250556165152
0.3733250556165154
0.3733250556165155
0.3733250556165154
0.3733250556165155
0.3733250556165154
0.3733250556165155
0.3733250556165151
0.3733250556165154
0.3733250556165151
0.3733250556165154
0.3733250556165152
0.3733250556165154
0.3733250556165152
0.3733250556165154
0.3733250556165154
0.3733250556165154
0.3733250556165154
0.3733250556165154
0.3733250556165154
0.3733250556165154
0.3733250556165154
0.3733250556165153
0.3733250556204931
0.3733250556165151
0.3733250556165154
0.3733250556165154
0.3733250398412425
0.3733250556141997
0.3733250556165155
0.3733250556165153
0.3733250556165152
0.3733250556165153
0.3733250556165151
0.3733250556568465
0.3733250556165155
0.3733250556165154
0.3733250556165151
0.3733250557227319
0.3733250556165154
0.3733250556165154
0.3733250556165154
0.373325055729067
0.3733250556165154
0.3733250556165154
0.3733250556165154
0.3733250557347089
0.3733250557408613
0.3733250556165154
0.3733250556165154
0.3733250556165154
0.3733250557476592
0.3733250556165152
0.3733250556165154
0.3733250556165154
0.3733250557552836
0.3733250556165154
0.3733250556165152
0.3733250556165154
0.3733250557634036
0.3733250556165154
0.3733250556165154
0.3733250556165154
0.3733250556165153
0.3733250556165154
0.3733250556165176
0.373325055933081
0.3733250556165154
0.3733250556165154
0.3733250556165187
0.3733250559127807
0.3733250556165154
0.3733250556165154
0.3733250556165164
0.3733250559690831
0.3733250556165154
0.3733250556162082
0.3733250555822045
0.3733250211172752
0.3733250556165478
0.3733250556968404
0.3733254321941456
0.3733534832422787
0.3733250556165934
0.3733250557033278
0.3733255392499373
0.3733594912938106
0.3733250556165499
0.3733250556743224
0.3733254519112551
0.3733562220782407
0.3733250556165155
0.3733250556540827
0.3733253746532528
0.3733534091365155
0.3733791062681474
0.3733252808669924
0.3733250556501934
0.3733250556165154
0.3733812567522933
0.3733252570130806
0.37332505564312
0.3733250556165211
0.3733771361203758
0.3733252319340132
0.3733250556371769
0.3733250556165226
0.373355697817423
0.3733252763592732
0.3733250556455802
0.3733250556165164
0.3733295750076553
0.373325057955177
0.3733250556168047
0.3733250556165151
0.3733250954856299
0.3733250556214414
0.3733250556165154
0.3733250556165154
0.3733250550944096
0.3733250556143007
0.3733250556165155
0.3733250556165154
0.373325011766484
0.3733250556003648
0.3733250556165154
0.3733250556165154
0.3733289508274863
0.3733250589042544
0.3733250556176462
0.3733250556165151
0.3733289504926231
0.3733250589041373
0.3733250556176091
0.3733250556165154
0.3733289133124816
0.3733250588799957
0.3733250556175107
0.3733250556165154
0.3733285384782031
0.3733250586217802
0.373325055617433
0.3733250556165154
0.3733250117663848
0.3733250556003022
0.3733250556165154
0.3733250556165154
0.3733250550942805
0.3733250556142441
0.3733250556165152
0.3733250556165154
0.3733250954855701
0.3733250556214518
0.3733250556165154
0.3733250556165154
0.3733295750078298
0.3733250579553662
0.3733250556168082
0.3733250556165151
0.3733250556165573
0.3733250556503768
0.3733252808670909
0.3733791062682076
0.3733250556165384
0.3733250556431422
0.3733252570131534
0.3733812567523765
0.3733250556165163
0.3733250556372829
0.3733252319340089
0.3733771361206383
0.3733250556165163
0.3733250556456008
0.3733252763594929
0.3733556978172303
0.3733534091363814
0.3733253746531643
0.3733250556540206
0.3733250556165154
0.3733562220780134
0.3733254519111241
0.3733250556741545
0.373325055616521
0.3733594912937365
0.3733255392497462
0.373325055703321
0.3733250556165693
0.3733534832423433
0.3733254321940807
0.3733250556967739
0.3733250556165937
0.3733250556165151
0.3733250556165156
0.3733250556165459
0.3733250559332184
0.3733250556165155
0.3733250556165154
0.3733250556165188
0.3733250559127242
0.3733250556165155
0.3733250556165154
0.3733250556165155
0.3733250559690545
0.3733250556165154
0.3733250556161867
0.3733250555821293
0.3733250211172833
0.3733250557636452
0.3733250556165154
0.3733250556165154
0.3733250556165154
0.3733250557554786
0.3733250556165154
0.3733250556165154
0.3733250556165154
0.3733250557476633
0.3733250556165154
0.3733250556165154
0.3733250556165154
0.3733250557409882
0.3733250556165154
0.3733250556165154
0.3733250556165154
0.3733250556165154
0.3733250556165154
0.3733250556165154
0.3733250556566595
0.3733250556165154
0.3733250556165154
0.3733250556165154
0.3733250557227495
0.3733250556165154
0.3733250556165154
0.3733250556165154
0.3733250557291454
0.3733250556165154
0.3733250556165154
0.3733250556165151
0.3733250557347497
0.3733250556165154
0.3733250556165154
0.3733250556165154
0.3733250556165154
0.3733250556165154
0.3733250556165154
0.3733250556165154
0.3733250556165153
0.3733250556142073
0.3733250556165154
0.3733250556165154
0.3733250556165154
0.3733250398412319
0.3733250556204931
0.3733250556165154
0.3733250556165154
0.3733250556165152
0.3733250556165154
0.3733250556165151
0.3733250556165154
0.3733250556165154
0.3733250556165153
0.3733250556165154
0.3733250556165153
0.3733250556165154
0.3733250556165154
0.3733250556165154
0.3733250556165154
0.3733250556165154
0.3733250556165153
0.3733250556165153
0.3733250556165154
0.3733250556165154
0.3733250556165154
0.3733250556382184
0.3733251757217309
0.3733250556165153
0.3733250556165154
0.373325055624727
0.373325096261254
0.3733250556165153
0.3733250556165155
0.3733250556169137
0.3733250572949571
0.3733250556165154
0.3733250556165154
0.3733250556165154
0.3733250556217038
0.3733250619634108
0.3733250556165175
0.3733250556165153
0.3733250556165154
0.3733250678644918
0.3733250556176568
0.3733250556165154
0.3733250556165153
0.3733250676788032
0.3733250556175266
0.3733250556165154
0.3733250556165152
0.3733250674880411
0.3733250556174374
0.3733250556165154
0.3733250556165154
0.3733250696954527
0.373325055616515
0.3733250556165154
0.3733250556165154
0.3733250711428334
0.3733250556165153
0.3733250556165154
0.3733250556165154
0.3733250725939083
0.3733250556165155
0.3733250556165154
0.3733250556165153
0.3733250677642307
0.3733250556165154
0.3733250556165154
0.3733250556165151
0.3733250556165154
0.3733250556165154
0.3733250556165154
0.3733250556165154
0.3733250556165152
0.3733250556165155
0.3733250556165153
0.3733250556165154
0.3733250556165154
0.3733250556165154
0.3733250556165154
0.3733250556154276
0.3733250556165154
0.3733250556165154
0.3733250556165151
0.3733250553390163
0.3733250556165154
0.3733250556160715
0.3733250543828894
0.3733250088628169
0.3733250556158998
0.3733250555049297
0.3733249883557144
0.3733223070659973
0.373325054382887
0.3733249883557325
0.3733252098491469
0.3735238569145167
0.3733250088629039
0.3733223070660645
0.3735238569144612
0.3828270929130509
0.4666352513793907
0.3893995107456796
0.3740813654688924
0.3733292593113135
0.483629573460168
0.3954384656564606
0.3744874175639482
0.3733319753899662
0.4841051436682222
0.3955740871407826
0.3744976718072957
0.3733320461668972
0.4841425849173203
0.3955408144715164
0.3744895192894342
0.3733319724543471
0.3733313794404121
0.3733314162595905
0.3733314173686488
0.3733292796796855
0.3745928405821204
0.3746077161013522
0.3746079447351336
0.37458844857049
0.3966060564542705
0.3967516447546183
0.3967558193476775
0.3986142023919684
0.487839458684012
0.488569870806379
0.4885970726633323
0.50410801081171
0.373357488148534
0.3733338212652368
0.3733252660114
0.3733250560727298
0.3741415768371003
0.3733794768622228
0.3733248830104886
0.3733250569093834
0.3762819848503891
0.3733069360749598
0.3733226116470203
0.3733250819549631
0.3771773780136659
0.3730725611066197
0.3732904845703895
0.3733249546608228
0.3733250556167894
0.3733250556165152
0.3733250556165154
0.3733250556165152
0.3733250556780054
0.3733250556164608
0.3733250556165154
0.3733250556165154
0.3733250568210604
0.3733250556456195
0.3733250556163136
0.3733250556165154
0.3733250613840082
0.3733250561564778
0.3733250556172005
0.3733250556165151
0.3733250556165152
0.3733250556165152
0.3733250556165153
0.3733198167297431
0.3733250556165154
0.3733250556165154
0.3733250556165152
0.3726605509833387
0.3733250556165154
0.3733250556165154
0.3733250556165152
0.3635427918777924
0.3733250556165154
0.3733250556165154
0.3733250556165152
0.3410010074059979
0.3733251755587856
0.3733252147743594
0.3733252170075689
0.3733252170188204
0.3737636540650964
0.3738643036170079
0.3738678784202698
0.3738677836620848
0.4159196126928545
0.4209549408940572
0.420861144671962
0.4208446471298944
0.6849352836903668
0.7014630561670967
0.6987194014197841
0.6985874409170579
0.3733252170320928
0.3733252170508531
0.3733252170721316
0.3733252206894815
0.3738677784064395
0.373867778369341
0.373867778368715
0.3738758801345033
0.4208446347464456
0.42084464261717
0.4208446427324065
0.4209229607785175
0.6985876774912889
0.6985878208664122
0.6985878232171228
0.6985605145301673
0.3733253088267798
0.3733252740607061
0.3733252742282548
0.3733300222471427
0.3737551091858575
0.3737093044815006
0.373677711398557
0.3734778424444246
0.4164278448297952
0.4143453594834789
0.4119352300228259
0.4114883798012882
0.6823837355674953
0.6760379508463443
0.6695554596095848
0.7519887507156103
0.3722965889029345
0.37080336210599
0.3706775243027063
0.3707509573689901
0.3438719098787844
0.321625040152561
0.3202541586550128
0.3202671267170458
0.2382851677424568
0.1785669372799321
0.1763698184726837
0.1759279049726912
0.1598574945120001
0.0771165723285803
0.07548684491402927
0.07525278656664428
0.3711922369803456
0.3713021316308652
0.3712396727350111
0.3677305221958477
0.3143756764564516
0.3142508599341875
0.3139619108423896
0.2888457978557292
0.1647980577529163
0.164289157678832
0.1645384268560426
0.1299942118809932
0.07481619291185874
0.07469073532879408
0.07540857441199149
0.06368678068547262
0.3735348695369745
0.3733503708084608
0.3733254138445354
0.3733127688614103
0.3721979642794581
0.3733705576904269
0.3733265098564055
0.3731741022955763
0.361400117117662
0.3733626735794446
0.3732058977439822
0.372698992156312
0.3305772528779718
0.3722474945496448
0.3726828312441832
0.382980245978878
0.3735800250392091
0.3737831682041837
0.3738045909768123
0.3738858547954728
0.3732781858056209
0.3737847980992968
0.3738227951504753
0.3740527228792518
0.3372011343059407
0.3328218090672632
0.3303597672461729
0.329732618217656
0.2123234509566911
0.1618185935663818
0.1512133821315561
0.1486706313134011
0.1435329748394611
0.1419701246054924
0.1416583824185105
0.1416441153655962
0.3225707222314386
0.3218559001627957
0.3217186564970769
0.3217048649861753
0.3747943571919532
0.3751721034819737
0.3752104424324579
0.3752105818825603
0.3742950152658009
0.3744441241580381
0.3744580862538913
0.3744582269704126
0.1416441153655943
0.3217048649861417
0.375210581882608
0.3744582269704128
0.141658382418633
0.3217186564969676
0.3752104424327149
0.3744580862538654
0.1419701246054303
0.3218559001628488
0.3751721034817063
0.3744441241579719
0.1435329748394849
0.3225707222315488
0.3747943571918732
0.3742950152656661
0.3738858547953947
0.3738045909767486
0.3737831682040637
0.3735800250389579
0.3740527228790599
0.3738227951504792
0.3737847980995659
0.3732781858053737
0.3297326182176738
0.3303597672462346
0.3328218090672433
0.3372011343059297
0.1486706313133868
0.151213382131559
0.1618185935664033
0.2123234509566996
0.3829802459788825
0.3726828312441847
0.3722474945496441
0.3305772528778937
0.3726989921562996
0.3732058977439842
0.3733626735794413
0.3614001171176181
0.3731741022955691
0.3733265098561427
0.3733705576904099
0.3721979642794422
0.37331276886139
0.373325413844477
0.3733503708084247
0.373534869536996
0.3677305221958012
0.3712396727348855
0.3713021316307775
0.3711922369801818
0.2888457978557094
0.3139619108425101
0.3142508599343571
0.3143756764565677
0.1299942118811459
0.1645384268560799
0.164289157678847
0.1647980577529307
0.06368678068540592
0.07540857441201461
0.07469073532877672
0.07481619291187294
0.3707509573686404
0.3706775243028783
0.3708033621062096
0.3722965889030445
0.3202671267172878
0.3202541586550437
0.3216250401526069
0.3438719098787004
0.17592790497265
0.1763698184725703
0.1785669372800805
0.2382851677422574
0.07525278656673925
0.07548684491394524
0.07711657232847474
0.1598574945119796
0.373330022247167
0.3733252742283567
0.373325274060622
0.3733253088268702
0.3734778424442106
0.3736777113986618
0.3737093044815519
0.3737551091860122
0.4114883798010029
0.4119352300227471
0.4143453594835139
0.4164278448296229
0.7519887507154918
0.6695554596094322
0.6760379508461744
0.6823837355672477
0.3733252206894496
0.3733252170723287
0.3733252170508271
0.3733252170322674
0.3738758801344159
0.3738677783689156
0.3738677783696432
0.3738677784062985
0.4209229607781808
0.4208446427324068
0.4208446426171745
0.4208446347462992
0.6985605145297069
0.6985878232169124
0.6985878208662969
0.6985876774912162
0.3733252170185898
0.3733252170076855
0.3733252147744004
0.3733251755588571
0.3738677836621515
0.3738678784204438
0.3738643036166624
0.3737636540654257
0.4208446471298176
0.4208611446720508
0.4209549408940049
0.415919612692943
0.6985874409169557
0.6987194014197889
0.7014630561668832
0.6849352836905112
0.3733198167297334
0.3733250556165153
0.3733250556165152
0.3733250556165152
0.3726605509833232
0.3733250556165152
0.3733250556165154
0.3733250556165154
0.3635427918778152
0.3733250556165152
0.3733250556165154
0.3733250556165154
0.3410010074060286
0.3733250556165152
0.3733250556165154
0.3733250556165154
0.3733250556165152
0.3733250556165154
0.3733250556165152
0.3733250556167959
0.3733250556165154
0.3733250556165154
0.3733250556164608
0.3733250556780047
0.3733250556165154
0.3733250556163257
0.3733250556456224
0.373325056821054
0.3733250556165151
0.3733250556172017
0.3733250561564832
0.3733250613839944
0.3733250560727203
0.3733252660114
0.3733338212652084
0.3733574881485191
0.3733250569093832
0.3733248830104883
0.373379476862224
0.3741415768370682
0.3733250819549643
0.3733226116470203
0.3733069360749551
0.3762819848503949
0.3733249546608214
0.3732904845703895
0.3730725611066111
0.3771773780136659
0.3733292796798516
0.3733314173686128
0.3733314162595283
0.3733313794405828
0.3745884485701918
0.3746079447351456
0.374607716101477
0.3745928405822668
0.3986142023917876
0.396755819347587
0.3967516447543518
0.3966060564543653
0.5041080108115826
0.4885970726631477
0.488569870806073
0.487839458684
0.3733319724544867
0.3733320461668659
0.3733319753900545
0.3733292593114834
0.3744895192892504
0.3744976718074743
0.3744874175637777
0.3740813654688244
0.3955408144715561
0.3955740871404922
0.3954384656563242
0.3893995107455199
0.4841425849172458
0.4841051436675755
0.4836295734598807
0.4666352513791862
0.373326909516094
0.3733250571988119
0.3733250556170851
0.3733250556165154
0.373327920036557
0.3733250577822492
0.3733250556171949
0.3733250556165156
0.3733279886226015
0.3733250578022946
0.3733250556171944
0.3733250556165151
0.3733282632998739
0.3733250579262332
0.3733250556172601
0.3733250556165154
0.3733250556165154
0.3733250556176222
0.3733250589042946
0.3733289508275068
0.3733250556165154
0.373325055617658
0.3733250589039586
0.3733289504927617
0.3733250556165154
0.3733250556176032
0.3733250588800761
0.3733289133122671
0.3733250556165153
0.3733250556175337
0.3733250586213249
0.3733285384781517
0.3733250556165154
0.3733250556165154
0.3733250556165154
0.373325055616515
0.3733250556172721
0.3733250556171944
0.3733250556171805
0.3733250556170417
0.3733250579263848
0.3733250578020536
0.3733250577825014
0.3733250571986605
0.3733282632997598
0.3733279886223249
0.3733279200366724
0.37332690951614
)
;

boundaryField
{
    back
    {
        type            empty;
    }
    inlet
    {
        type            calculated;
        value           nonuniform List<scalar> 
16
(
0.3733250556165154
0.3733250556165154
0.3733250556165154
0.3733250556165154
0.3733250556165154
0.3733250556165155
0.3733250556165152
0.3733250556165154
0.3733250556165154
0.3733250556165154
0.3733250556165154
0.3733250556165151
0.3733250556165154
0.3733250556165152
0.3733250556165154
0.3733250556165154
)
;
    }
    front
    {
        type            empty;
    }
    top
    {
        type            calculated;
        value           nonuniform List<scalar> 
40
(
0.3733250556165154
0.3733250556165154
0.3733250556165152
0.3733250556165154
0.3733250556165154
0.3733250556165155
0.3733250556165154
0.3733250556165154
0.3733250556165152
0.3733250556165152
0.3733250556165154
0.3733250556165155
0.3733250556165154
0.3733250556165154
0.3733250556165154
0.3733250556165154
0.3733250556165152
0.3733250556165155
0.3733250556165154
0.3733250556165154
0.3733250556165154
0.3733250556165154
0.3733250556165154
0.3733250556165154
0.3733250556165153
0.3733250556165154
0.3733250556165154
0.3733250556165154
0.3733250556165478
0.3733250556165934
0.3733250556165499
0.3733250556165155
0.3733250556165154
0.3733250556165211
0.3733250556165226
0.3733250556165164
0.3733250556165151
0.3733250556165154
0.3733250556165154
0.3733250556165154
)
;
    }
    outlet
    {
        type            calculated;
        value           uniform 0.3733250556165154;
    }
    bottom
    {
        type            calculated;
        value           nonuniform List<scalar> 
40
(
0.3733250556165154
0.3733250556165154
0.3733250556165154
0.3733250556165151
0.3733250556165573
0.3733250556165384
0.3733250556165163
0.3733250556165163
0.3733250556165154
0.373325055616521
0.3733250556165693
0.3733250556165937
0.3733250556165151
0.3733250556165155
0.3733250556165155
0.3733250556165154
0.3733250556165154
0.3733250556165154
0.3733250556165154
0.3733250556165154
0.3733250556165154
0.3733250556165154
0.3733250556165154
0.3733250556165154
0.3733250556165154
0.3733250556165154
0.3733250556165154
0.3733250556165154
0.3733250556165152
0.3733250556165154
0.3733250556165154
0.3733250556165154
0.3733250556165154
0.3733250556165153
0.3733250556165154
0.3733250556165154
0.3733250556165154
0.3733250556165154
0.3733250556165153
0.3733250556165154
)
;
    }
    wall
    {
        type            calculated;
        value           nonuniform List<scalar> 
104
(
0.4666352513793907
0.483629573460168
0.4841051436682222
0.4841425849173203
0.487839458684012
0.488569870806379
0.4885970726633323
0.50410801081171
0.3771773780136658
0.3730725611066198
0.3732904845703895
0.3733249546608228
0.3733250613840082
0.3733250561564778
0.3733250556172005
0.3733250556165151
0.3733250556165154
0.3733250556165154
0.3733250556165152
0.341001007405998
0.6849352836903668
0.7014630561670967
0.6987194014197841
0.6985874409170579
0.6985876774912889
0.6985878208664122
0.6985878232171228
0.6985605145301673
0.6823837355674953
0.6760379508463443
0.6695554596095848
0.7519887507156103
0.1598574945120001
0.0771165723285803
0.07548684491402927
0.07525278656664428
0.07481619291185874
0.07469073532879408
0.07540857441199149
0.06368678068547262
0.3305772528779718
0.3722474945496448
0.3726828312441832
0.382980245978878
0.2123234509566911
0.1618185935663818
0.1512133821315561
0.1486706313134011
0.1435329748394611
0.1419701246054924
0.1416583824185105
0.1416441153655962
0.1416441153655943
0.141658382418633
0.1419701246054303
0.1435329748394849
0.1486706313133868
0.151213382131559
0.1618185935664033
0.2123234509566996
0.3829802459788825
0.3726828312441847
0.3722474945496441
0.3305772528778937
0.06368678068540592
0.07540857441201461
0.07469073532877672
0.07481619291187294
0.07525278656673925
0.07548684491394524
0.07711657232847474
0.1598574945119796
0.7519887507154918
0.6695554596094322
0.6760379508461744
0.6823837355672477
0.6985605145297069
0.6985878232169124
0.6985878208662969
0.6985876774912162
0.6985874409169557
0.6987194014197889
0.7014630561668832
0.6849352836905112
0.3410010074060286
0.3733250556165152
0.3733250556165154
0.3733250556165154
0.3733250556165151
0.3733250556172017
0.3733250561564832
0.3733250613839943
0.3733249546608214
0.3732904845703895
0.3730725611066111
0.3771773780136659
0.5041080108115826
0.4885970726631476
0.488569870806073
0.487839458684
0.4841425849172458
0.4841051436675755
0.4836295734598807
0.4666352513791862
)
;
    }
}


// ************************************************************************* //
