/*--------------------------------*- C++ -*----------------------------------*\
  =========                 |
  \\      /  F ield         | OpenFOAM: The Open Source CFD Toolbox
   \\    /   O peration     | Website:  https://openfoam.org
    \\  /    A nd           | Version:  11
     \\/     M anipulation  |
\*---------------------------------------------------------------------------*/
FoamFile
{
    format      ascii;
    class       volScalarField;
    location    "0.069";
    object      rho;
}
// * * * * * * * * * * * * * * * * * * * * * * * * * * * * * * * * * * * * * //

dimensions      [0 0 0 0 0 0 0];

internalField   nonuniform List<scalar> 
880
(
0.3733250556165154
0.3733250556165154
0.3733250556165154
0.3733250787325651
0.3733250556165154
0.3733250556165154
0.3733250556165152
0.3733254641672679
0.3733250556165154
0.3733250556165153
0.3733250556165154
0.3733288469172193
0.3733250556165154
0.3733250556165154
0.3733250556185351
0.3733289591084203
0.3733250556165154
0.3733250556165155
0.3733250556165152
0.3733250556165155
0.3733250556165154
0.3733250556165154
0.3733250556165151
0.3733250556165154
0.3733250555988577
0.3733250545564983
0.3733380371855549
0.3732863439688461
0.3746030124779297
0.3791411285834648
0.3833804288879999
0.3857452704337405
0.3733250573137238
0.3733250582140913
0.3733250586700134
0.373325056790609
0.3733251213353788
0.3733251692514938
0.3733252034257518
0.3733251229691381
0.3733936376334688
0.3734094783193626
0.3734277747887658
0.3734039539147034
0.3873533107036117
0.3893681071186169
0.3911400814759703
0.3918840313666649
0.3905179667616496
0.3865938314109844
0.382842361072357
0.3791781212997248
0.3735081431784235
0.3736047029106062
0.3736338848169615
0.3734935561562873
0.3733254345334625
0.3733256258418456
0.3733256522544423
0.3733254027089085
0.3733250653841968
0.3733250667885034
0.373325064911632
0.3733250598076551
0.3733250563530039
0.3733250556500641
0.3733250556166325
0.3733250556165155
0.3733251480875531
0.3733250642825732
0.373325055806106
0.3733250556030366
0.3733733869979062
0.3733307913396881
0.3733252332446885
0.3733250558692635
0.3757870100613448
0.3738241052502872
0.3733570857726902
0.3733254513510868
0.3733250480198501
0.3733250550560112
0.3733250556133909
0.3733250556165154
0.3733250506945648
0.373325054920198
0.3733250555718278
0.3733250556150578
0.3733237219312763
0.3733251409363187
0.3733250644135168
0.3733250561165528
0.3746699975251057
0.3733080813264023
0.3733239012921319
0.3733250520627828
0.3733250483551045
0.3733246824375447
0.3733532934239431
0.3956471375886864
0.3733250575428558
0.3733252188791644
0.3735197571143639
0.4158401674425387
0.3733250730684703
0.3733257534403384
0.3737335078481588
0.4270021972382572
0.3733250813037315
0.3733261304275545
0.3739108907188766
0.4372511191966625
0.4427293539151304
0.3740123535659315
0.3733263891640851
0.3733250885966505
0.4488593885595396
0.3741869343868431
0.3733268945857756
0.3733251005560238
0.4527518518604093
0.3743039522790504
0.3733272288732299
0.3733251114790807
0.4590757299377553
0.3745982177387002
0.3733284080979234
0.3733251439724634
0.3733251392298438
0.3733282206260342
0.3747206757896556
0.4670049326234996
0.3733251622567648
0.3733291229184307
0.3750031660367535
0.4718884170337134
0.3733251975323795
0.3733302425820431
0.3751763698520558
0.4663868826613124
0.3733251635204877
0.3733273390158006
0.3742175140733069
0.43286646763011
0.3733247476992758
0.3733372331789206
0.3746663493485401
0.3862745537501086
0.3733249631313325
0.3733150598120653
0.3726203861263733
0.3286825151245421
0.3733250092302026
0.3733019332050205
0.3703243362978367
0.2880820067413361
0.3733249774234926
0.3732793147511094
0.3673602838540825
0.2555589942550537
0.2535971022209646
0.3684119906133643
0.3732988573072661
0.3733250029449449
0.2529560307189445
0.368702036183781
0.3733020545948847
0.3733250133978223
0.2649439098722314
0.3702759214879729
0.3733133238458637
0.3733250354607864
0.260804975626623
0.3699409155050118
0.373311604782855
0.3733250330000112
0.3016252004059996
0.3721304286032935
0.3733214021051476
0.3733250492864241
0.3393598394792518
0.3730695129586481
0.3733244920171818
0.3733250548090649
0.3597899662735981
0.3732656132016632
0.3733249364333822
0.3733250554667357
0.3675396958327816
0.3732923268026554
0.3733249691758538
0.3733250554081913
0.3539987714593147
0.3729340021267563
0.3733224395413202
0.3733250473700571
0.3544203336899301
0.3729363110724773
0.3733224405979986
0.3733250473546257
0.3550721661882241
0.3729373503617061
0.3733224322266633
0.3733250472671851
0.3565391545654162
0.3729500219780885
0.3733224727269036
0.3733250473053437
0.3675396958325893
0.373292326802018
0.373324969175017
0.3733250554088409
0.3597899662723362
0.3732656132007506
0.373324936431074
0.3733250554669684
0.339359839478538
0.3730695129588124
0.373324492016941
0.3733250548093704
0.3016252004066003
0.3721304286049149
0.3733214021052654
0.3733250492859065
0.3733250029462998
0.3732988573094365
0.3684119906136268
0.2535971022206078
0.3733250133986795
0.3733020545957899
0.36870203618445
0.2529560307192701
0.3733250354594165
0.373313323847227
0.3702759214879772
0.2649439098731957
0.3733250330004557
0.3733116047829426
0.3699409155076824
0.2608049756258297
0.2555589942531673
0.3673602838533218
0.3732793147503333
0.3733249774234036
0.2880820067391919
0.3703243362965432
0.3733019332027551
0.3733250092279835
0.328682515123924
0.3726203861245902
0.373315059812151
0.3733249631288183
0.386274553750542
0.3746663493479064
0.3733372331783077
0.3733247477019394
0.3733251392292578
0.3733282206275073
0.3747206757910583
0.4670049326252186
0.3733251622572711
0.3733291229186202
0.3750031660364934
0.471888417033302
0.3733251975338273
0.3733302425820945
0.3751763698506418
0.4663868826610256
0.3733251635231209
0.3733273390157342
0.3742175140724158
0.432866467629805
0.4590757299411973
0.3745982177367608
0.3733284081001694
0.3733251439721194
0.4527518518639149
0.3743039522801641
0.373327228874281
0.373325111479659
0.4488593885598175
0.3741869343917112
0.373326894586917
0.3733251005555653
0.4427293539132163
0.3740123535649272
0.3733263891650927
0.3733250885961448
0.3733250483564068
0.3733246824390898
0.3733532934240117
0.3956471375862113
0.373325057541386
0.3733252188776806
0.3735197571143992
0.4158401674431275
0.3733250730677439
0.373325753440473
0.3737335078508792
0.4270021972380613
0.3733250813028518
0.3733261304274941
0.3739108907142995
0.4372511192007469
0.373325052062526
0.3733250561171318
0.3733250556150451
0.3733250556165154
0.3733239012900386
0.3733250644131745
0.3733250555733619
0.3733250556129343
0.3733080813267758
0.373325140937317
0.3733250549192521
0.3733250550554377
0.3746699975251404
0.3733237219314813
0.3733250506945767
0.373325048019799
0.3733250556164237
0.3733250556030193
0.3733250558695376
0.3733254513515339
0.3733250556165163
0.3733250558057536
0.373325233247403
0.3733570857728317
0.373325055650414
0.373325064282496
0.3733307913385807
0.3738241052506285
0.3733250563534353
0.373325148086961
0.3733733869990463
0.3757870100609114
0.3733250653823994
0.3733254345316332
0.3735081431774439
0.3905179667609826
0.373325066787036
0.3733256258424925
0.3736047029108419
0.3865938314093557
0.3733250649113
0.3733256522567878
0.3736338848166877
0.3828423610719769
0.3733250598072417
0.3733254027101867
0.3734935561563998
0.3791781212989025
0.3918840313672101
0.3734039539167682
0.3733251229677791
0.3733250567897667
0.3911400814754782
0.373427774791913
0.3733252034252715
0.3733250586703876
0.3893681071207341
0.3734094783187751
0.3733251692521937
0.3733250582136015
0.3873533107034235
0.3733936376285604
0.373325121334644
0.3733250573141985
0.38574527043444
0.3732863439740108
0.3733250556165154
0.3733250556165164
0.3833804288871449
0.3733380371802084
0.3733250556165154
0.3733250556165154
0.3791411285839822
0.3733250545562029
0.3733250556165154
0.3733250556165153
0.3746030124771964
0.3733250555983335
0.3733250556165154
0.3733250556165151
0.3733250556165154
0.3733250556165154
0.3733250556165154
0.3733250787594359
0.3733250556165152
0.3733250556165155
0.3733250556165153
0.373325464154415
0.3733250556165154
0.3733250556165154
0.3733250556165154
0.373328846916276
0.3733250556165154
0.3733250556165154
0.3733250556182218
0.3733289591088423
0.373325023743188
0.3733252360432819
0.3733291690768903
0.3736504882187397
0.3733252361006987
0.3733240688314786
0.3733231410459169
0.3747293937506735
0.3733291690055387
0.3733231409805886
0.373810378578823
0.3846990527739145
0.3736504882329519
0.3747293937411517
0.384699052810823
0.4339023500016856
0.5178948489018285
0.4573906053504989
0.4272214622967606
0.3962089790671612
0.5098726225835631
0.4950728727427339
0.4876393343410012
0.4589788184374754
0.5041409524466441
0.500894787457635
0.4998240307768947
0.4885861104644112
0.505764449580863
0.5045314436261443
0.5057011701248021
0.5000588900469193
0.5076576379458142
0.5103637617461368
0.5115273252437547
0.5180372350152527
0.5110127472114124
0.5151323189840481
0.5167112901758923
0.5268412186178424
0.5096717657663522
0.5136252770873132
0.5151930093745983
0.5258350933464823
0.5117992645735082
0.5173663813708714
0.5193812737866144
0.5277736001116453
0.4554332261202553
0.3935115641821093
0.3791510591403823
0.3798143883496353
0.4238803825981864
0.3647345081037667
0.3712374692772321
0.3775231537075467
0.3972136125644238
0.3653575045874801
0.3725457377783797
0.379525744857917
0.3457241867088744
0.3591011177816097
0.3719353975157393
0.3789698077032945
0.3779937118044014
0.3748726834883445
0.3735122679327261
0.3733309403387687
0.3772696495289999
0.3751402157718024
0.3736211914118473
0.3733368845451814
0.3789857635276332
0.3760022496185906
0.3737992578820317
0.3733458561329044
0.3779503704493844
0.374499448342993
0.3733211645907381
0.3733105813856075
0.3733250836894163
0.3733250515800909
0.3733253900052155
0.412362502902435
0.3733251410122889
0.3733250497857787
0.3733254393804878
0.4346611233553465
0.373325225380806
0.3733250478146239
0.3733256278210688
0.4494566671694847
0.3733248787658866
0.3733250384657359
0.3733256774227474
0.4527710219124259
0.6445531562534609
0.65928313919378
0.6679836178187157
0.6831972874434707
0.7089449350412752
0.6963913425549469
0.6989470776027695
0.7164682955350441
0.7056606104799031
0.6905820736713831
0.704750052659765
0.7234450829321571
0.7373038301117754
0.7073556435653453
0.7043280597083306
0.7201124597373307
0.6922946872593273
0.6966356727248991
0.6973934173702606
0.6984845993769012
0.7289164244126932
0.7337569460364641
0.7339294433281949
0.7336268240535044
0.7368674587123473
0.7426005893545453
0.742994549596535
0.7428075418928383
0.7356207788782512
0.7430200421742932
0.7442960968101329
0.744221141137277
0.6984217724591727
0.6908308662902706
0.6597562673150482
0.5772697176633458
0.7308930300932788
0.7208950171153882
0.6861978483767355
0.6096809320140767
0.742191828684842
0.7333887183031919
0.6967036189252613
0.6396032674267255
0.745180056473057
0.7405447892060408
0.7017886508481499
0.7449655196832976
0.3996711696466115
0.126420253692064
0.06163739969648194
0.05088508462138112
0.3284951431500782
0.08493751901335836
0.05655971763822953
0.05225679057163331
0.2423764699035806
0.06345116835393998
0.06379315661180655
0.06999880822471635
0.178151451431089
0.04210552956102587
0.0794249594765139
0.08986631855401021
0.05576914717073261
0.05809457177835481
0.06253813549220155
0.05497146842606799
0.05152638079459149
0.05563684301782423
0.05943713010493185
0.04696521235628422
0.07088158510881584
0.07592263833994191
0.07404445329284534
0.05390428828143087
0.093230307045859
0.09894698659906893
0.08679117278100866
0.06014575174368171
0.1457010911225538
0.2318067886641797
0.2743048851910334
0.3071399639859243
0.1099935595238471
0.193697939319948
0.2385316218510981
0.2894970289784643
0.1036479591073596
0.1793224460438404
0.2253192967414852
0.279103527871798
0.0835561290215472
0.1439847347660051
0.2013958641305275
0.2548661501492093
0.2467079243601036
0.1663174983828053
0.1489355724747492
0.1716138689119263
0.2096566546838304
0.1279090037974897
0.07046582646990814
0.07980138570991122
0.1752901723634201
0.09066055185898625
0.04944285651672375
0.05406296948784638
0.1279508255230518
0.05910697282862384
0.03154105798956199
0.05903077306024807
0.08472612205424888
0.09377224609677808
0.1089183721517058
0.1430480725932682
0.07372678106697264
0.0923083359956391
0.1291493051751276
0.1948538242110087
0.1174671763920039
0.1368152651841184
0.1520905423086652
0.2013175630946611
0.1759068520106917
0.1681430324253878
0.159166534178114
0.1679597000709548
0.143048072593082
0.1948538242110132
0.2013175630948087
0.1679597000710689
0.1089183721514725
0.1291493051749022
0.1520905423088677
0.159166534178224
0.09377224609664903
0.09230833599544605
0.1368152651837712
0.1681430324249625
0.08472612205425717
0.07372678106701698
0.1174671763918272
0.175906852010018
0.171613868911178
0.1489355724741153
0.1663174983825383
0.246707924359078
0.07980138570979674
0.07046582646985446
0.127909003797309
0.2096566546834026
0.05406296948790189
0.04944285651672337
0.09066055185884422
0.1752901723632607
0.05903077306033122
0.03154105798957411
0.05910697282864018
0.1279508255231032
0.2548661501493879
0.2013958641310735
0.1439847347666019
0.08355612902151667
0.2791035278716842
0.2253192967416234
0.1793224460441611
0.1036479591072947
0.2894970289783518
0.2385316218506013
0.1936979393200386
0.1099935595237628
0.3071399639857125
0.2743048851902714
0.2318067886641347
0.1457010911220097
0.05497146842535044
0.06253813549277715
0.05809457177854337
0.05576914717047685
0.04696521235596238
0.05943713010510093
0.0556368430180141
0.05152638079467875
0.05390428828125728
0.07404445329303155
0.07592263834013273
0.07088158510880627
0.06014575174359117
0.08679117278111945
0.09894698659923234
0.09323030704566886
0.05088508462027995
0.06163739969538171
0.1264202536915457
0.3996711696463037
0.05225679057167899
0.05655971763786524
0.08493751901300824
0.3284951431486776
0.06999880822445161
0.06379315661137951
0.06345116835402434
0.2423764699030418
0.08986631855312613
0.0794249594761537
0.04210552956116707
0.1781514514309805
0.5772697176624773
0.6597562673151177
0.6908308662900118
0.6984217724599768
0.6096809320131383
0.6861978483771765
0.7208950171160541
0.7308930300946108
0.6396032674262342
0.6967036189261775
0.7333887183042351
0.7421918286858068
0.7449655196833039
0.7017886508468785
0.7405447892068513
0.7451800564745382
0.6984845993798408
0.6973934173746373
0.6966356727239834
0.6922946872553002
0.7336268240549162
0.733929443330757
0.7337569460368698
0.7289164244095596
0.7428075418928092
0.7429945495979364
0.7426005893552462
0.7368674587091868
0.7442211411380338
0.7442960968113924
0.7430200421747291
0.7356207788767654
0.683197287450319
0.6679836178173629
0.6592831391950399
0.6445531562521486
0.7164682955393764
0.6989470776016335
0.6963913425558664
0.7089449350404438
0.7234450829353425
0.7047500526587329
0.690582073671465
0.7056606104790586
0.7201124597401858
0.7043280597071304
0.7073556435653614
0.737303830110737
0.4123625029026483
0.3733253900042845
0.3733250515797382
0.3733250836894074
0.434661123355392
0.37332543938101
0.373325049785323
0.3733251410126198
0.4494566671683475
0.3733256278194443
0.3733250478143205
0.3733252253814363
0.4527710219107299
0.3733256774207629
0.3733250384656654
0.3733248787669636
0.3733309403388377
0.3735122679323845
0.3748726834895714
0.3779937118032229
0.3733368845449002
0.373621191411491
0.3751402157728941
0.3772696495272032
0.3733458561322712
0.3737992578821771
0.3760022496191943
0.3789857635262184
0.3733105813849145
0.3733211645909091
0.3744994483437041
0.3779503704471036
0.3798143883491609
0.3791510591400866
0.3935115641809579
0.4554332261205684
0.3775231537068998
0.3712374692770393
0.3647345081030946
0.4238803825989275
0.3795257448570883
0.3725457377782547
0.3653575045871041
0.3972136125656088
0.3789698077024495
0.3719353975154611
0.359101117780688
0.3457241867096967
0.5180372350156496
0.5115273252427934
0.5103637617452613
0.5076576379467947
0.5268412186173191
0.5167112901752828
0.5151323189837282
0.5110127472126722
0.5258350933460597
0.5151930093743751
0.5136252770869154
0.5096717657672155
0.5277736001116617
0.5193812737863392
0.5173663813706828
0.5117992645748284
0.5000588900477282
0.4885861104631813
0.4589788184398437
0.3962089790686185
0.5057011701256834
0.4998240307757867
0.4876393343427958
0.4272214623019021
0.5045314436273348
0.5008947874572361
0.4950728727450793
0.4573906053500658
0.5057644495814629
0.5041409524466409
0.5098726225840764
0.517894848907128
0.3671503333877778
0.3732667928269791
0.373324781820564
0.3733250549056629
0.3640095541242605
0.3732103316873652
0.3733244027286025
0.3733250536707156
0.3614571803998053
0.3731218300551405
0.3733237412139776
0.3733250514390076
0.3556953666597125
0.3729643541635832
0.3733226820697245
0.3733250481808352
0.3733250473709591
0.3733224395411187
0.3729340021259755
0.353998771457233
0.3733250473552512
0.3733224405990243
0.3729363110708908
0.3544203336896666
0.3733250472663565
0.3733224322275722
0.3729373503614228
0.3550721661873876
0.3733250473025885
0.3733224727281395
0.3729500219748256
0.3565391545645495
0.3733250481802271
0.3733250514385032
0.3733250536678825
0.3733250549023479
0.3733226820700762
0.373323741213933
0.3733244027281132
0.3733247818191753
0.3729643541643134
0.3731218300537176
0.3732103316887289
0.3732667928261365
0.3556953666590844
0.3614571803982023
0.3640095541239818
0.3671503333884348
)
;

boundaryField
{
    back
    {
        type            empty;
    }
    inlet
    {
        type            calculated;
        value           nonuniform List<scalar> 
16
(
0.3733250556165154
0.3733250556165154
0.3733250556165154
0.3733250556165154
0.3733250556165154
0.3733250556165155
0.3733250556165152
0.3733250556165155
0.3733250556165164
0.3733250556165154
0.3733250556165154
0.3733250556165151
0.3733250556165154
0.3733250556165152
0.3733250556165154
0.3733250556165154
)
;
    }
    front
    {
        type            empty;
    }
    top
    {
        type            calculated;
        value           nonuniform List<scalar> 
40
(
0.3733250573137238
0.3733250582140913
0.3733250586700134
0.373325056790609
0.3733250653841968
0.3733250667885034
0.3733250649116321
0.3733250598076551
0.3733250563530039
0.373325055650064
0.3733250556166325
0.3733250556165155
0.3733250556165154
0.3733250556150578
0.3733250561165528
0.3733250520627828
0.3733250483551045
0.3733250575428558
0.3733250730684703
0.3733250813037315
0.3733250885966505
0.3733251005560238
0.3733251114790807
0.3733251439724634
0.3733251392298439
0.3733251622567648
0.3733251975323795
0.3733251635204877
0.3733247476992758
0.3733249631313325
0.3733250092302026
0.3733249774234926
0.3733250029449449
0.3733250133978223
0.3733250354607864
0.3733250330000112
0.3733250492864241
0.3733250548090649
0.3733250554667357
0.3733250554081913
)
;
    }
    outlet
    {
        type            calculated;
        value           uniform 0.3733250556165154;
    }
    bottom
    {
        type            calculated;
        value           nonuniform List<scalar> 
40
(
0.3733250554088409
0.3733250554669684
0.3733250548093704
0.3733250492859065
0.3733250029462998
0.3733250133986795
0.3733250354594165
0.3733250330004557
0.3733249774234036
0.3733250092279835
0.3733249631288183
0.3733247477019394
0.3733251392292578
0.3733251622572711
0.3733251975338274
0.3733251635231209
0.3733251439721194
0.373325111479659
0.3733251005555653
0.3733250885961448
0.3733250483564068
0.373325057541386
0.3733250730677439
0.3733250813028518
0.373325052062526
0.3733250561171318
0.3733250556150451
0.3733250556165154
0.3733250556164237
0.3733250556165163
0.3733250556504139
0.3733250563534353
0.3733250653823994
0.373325066787036
0.3733250649113
0.3733250598072417
0.3733250567897667
0.3733250586703876
0.3733250582136015
0.3733250573141985
)
;
    }
    wall
    {
        type            calculated;
        value           nonuniform List<scalar> 
104
(
0.5178948489018285
0.5098726225835631
0.5041409524466441
0.505764449580863
0.5117992645735082
0.5173663813708714
0.5193812737866144
0.5277736001116453
0.3457241867088744
0.3591011177816097
0.3719353975157393
0.3789698077032945
0.3779503704493844
0.374499448342993
0.3733211645907381
0.3733105813856075
0.3733248787658865
0.3733250384657359
0.3733256774227474
0.4527710219124259
0.7373038301117754
0.7073556435653453
0.7043280597083306
0.7201124597373307
0.7356207788782512
0.7430200421742932
0.7442960968101329
0.744221141137277
0.745180056473057
0.7405447892060408
0.7017886508481499
0.7449655196832976
0.178151451431089
0.04210552956102587
0.0794249594765139
0.0898663185540102
0.093230307045859
0.09894698659906892
0.08679117278100866
0.06014575174368171
0.0835561290215472
0.1439847347660051
0.2013958641305275
0.2548661501492093
0.1279508255230518
0.05910697282862384
0.03154105798956199
0.05903077306024808
0.08472612205424888
0.09377224609677808
0.1089183721517058
0.1430480725932682
0.143048072593082
0.1089183721514726
0.09377224609664903
0.08472612205425717
0.05903077306033123
0.03154105798957411
0.05910697282864018
0.1279508255231032
0.2548661501493879
0.2013958641310735
0.1439847347666019
0.08355612902151667
0.06014575174359117
0.08679117278111945
0.09894698659923234
0.09323030704566886
0.08986631855312611
0.0794249594761537
0.04210552956116707
0.1781514514309805
0.7449655196833039
0.7017886508468785
0.7405447892068513
0.7451800564745382
0.7442211411380338
0.7442960968113924
0.7430200421747291
0.7356207788767654
0.7201124597401858
0.7043280597071304
0.7073556435653614
0.737303830110737
0.4527710219107299
0.3733256774207628
0.3733250384656654
0.3733248787669636
0.3733105813849146
0.3733211645909091
0.3744994483437041
0.3779503704471036
0.3789698077024494
0.3719353975154611
0.359101117780688
0.3457241867096967
0.5277736001116617
0.5193812737863392
0.5173663813706828
0.5117992645748284
0.5057644495814629
0.5041409524466409
0.5098726225840764
0.517894848907128
)
;
    }
}


// ************************************************************************* //
