/*--------------------------------*- C++ -*----------------------------------*\
  =========                 |
  \\      /  F ield         | OpenFOAM: The Open Source CFD Toolbox
   \\    /   O peration     | Website:  https://openfoam.org
    \\  /    A nd           | Version:  11
     \\/     M anipulation  |
\*---------------------------------------------------------------------------*/
FoamFile
{
    format      ascii;
    class       volScalarField;
    location    "0.019";
    object      p;
}
// * * * * * * * * * * * * * * * * * * * * * * * * * * * * * * * * * * * * * //

dimensions      [0 2 -2 0 0 0 0];

internalField   nonuniform List<scalar> 
880
(
80
80
80
79.9999999978621
80
80
79.99999999999991
79.99999999445596
80
79.99999999999999
80
79.99999889259257
80
80
80
80.00001013551824
80
80.00000000000001
79.99999999999994
80
79.99999999999999
80
79.99999999999983
80
80
80
80.0000000111382
79.99999983396344
80.0028038976497
80.00855579565422
80.00958677825928
80.00862370816368
80
80
79.99999999999996
80
80.00000000034039
80.00000000037977
80.00000000045969
79.99999999999633
80.00000222266208
80.00000241808274
80.00000254456948
80.00000081747359
80.00950804341312
80.01027740567432
80.01049906632494
80.00761825100511
80.02717985288547
80.01041066597331
80.00112126313411
80.00001948098615
80.00001438401105
80.00000669460495
80.00000088787607
80.00000002276067
80.0000000046102
80.0000000022864
80.00000000024993
80.00000000000692
80.00000000000396
79.99999999999999
80
80
79.99999999999996
79.99999999999997
80
80.00000000000001
80
80.00000000000001
80.00000000000001
80.00000000000001
79.99999999988972
80.00000000000141
79.99999999999989
80
79.999999619261
79.99999994404385
79.99999999916648
80
80.00000000000597
80
79.99999999999999
80
79.9999999907694
79.99999999997446
80
79.99999999999999
80.00001171682528
80.00000009127345
79.99999999997476
79.99999999999999
79.98068364304412
79.99999115273538
79.99999999756001
79.99999999999999
79.99999999999991
79.99999999999999
80.00000004824008
80.00056332749875
80
80.00000000004125
80.0000003519385
80.002769028182
80
80.00000000004874
80.00000040924591
80.00297532881078
80
80.0000000000307
80.00000046848886
80.00311672031735
80.00327840256244
80.00000054022348
80.0000000000623
80
80.00345777568282
80.00000062739041
80.00000000006922
80
80.00365030653529
80.00000073195706
80.00000000008357
79.99999999999999
80.00403619151817
80.00000090707978
80.00000000012642
80
79.99999999999993
80.00000000008116
80.00000051480086
80.00254828499217
80
80.00000000005835
80.00000046246346
80.00196489155191
80.00000000099726
80.00000000019581
80.000000361525
80.00158259457011
79.99999999080171
80.00000000662446
80.00000166963169
80.00074292886849
80.00000013611591
79.99999978502466
79.99674716464099
79.25177934537452
80.00000013395069
79.99999844887449
79.99254984428715
77.35917640563983
80.00000010126611
79.99999878715894
79.99246158835979
76.74723724529736
80.00000007679687
79.99999947360368
79.99380050957168
76.78692714452254
77.57511445104548
79.99570082938973
79.99999921253902
80.00000005455108
77.70072231804869
79.99642119625733
79.99999962067146
80.00000005045449
77.88444049281246
79.99711914901899
79.99999987550827
80.00000004368691
77.21651945698808
79.99626985117622
79.99999919521601
80.00000002527229
79.74300960984175
79.99982062788992
80.00000005472124
80.0000000031166
79.99736513881278
80.00000058588031
80.00000001783951
79.99999999999909
79.99955068135138
79.99999974752697
80.00000000002697
80
79.99479433468429
79.99999542164545
79.99999999898756
80
79.98492407051506
80.00009228279507
80.00000110473728
80.00000000040377
79.98481457028753
80.0000916106074
80.00000110482979
80.00000000046853
79.98390837032386
80.00008257480945
80.00000107850518
80.00000000048369
79.98197259435582
80.00005909283543
80.00000095836094
80.00000000051554
79.99479433456925
79.99999542155977
79.9999999988862
79.99999999999983
79.99955068121186
79.99999974743743
79.99999999986122
80
79.99736513875798
80.00000058589626
80.00000001783735
80.00000000000242
79.74300961002113
79.99982062810501
80.000000054727
80.00000000306436
80.00000005470363
79.99999921276435
79.9957008294964
77.57511445109598
80.00000005053866
79.9999996207121
79.99642119634812
77.70072231807913
80.00000004355691
79.99999987564239
79.99711914902346
77.88444049307917
80.00000002530167
79.99999919525285
79.99626985140573
77.21651945682926
76.78692714434267
79.99380050945732
79.99999947353039
80.00000007677097
76.74723724508009
79.99246158821752
79.9999987869317
80.00000010106838
77.35917640557177
79.99254984408978
79.99999844886122
80.00000013377925
79.25177934543673
79.99674716456884
79.99999978494522
80.0000001363471
79.99999999999991
80.00000000013384
80.00000051490336
80.00254828516807
80.00000000000001
80.00000000006463
80.00000046246319
80.00196489149873
80.00000000107707
80.0000000001757
80.00000036143319
80.00158259454375
79.99999999093735
80.00000000661662
80.00000166954673
80.00074292886924
80.00403619186551
80.00000090696052
80.00000000018518
80
80.00365030681368
80.00000073213062
80.00000000010564
80
80.00345777566193
80.00000062759045
80.00000000010334
79.99999999999999
80.00327840270317
80.00000054010121
80.00000000006477
80
80
80
80.00000004822869
80.00056332722522
80
80.00000000002719
80.00000035200082
80.00276902820799
80
80.00000000004992
80.0000004092682
80.00297532893356
79.99999999999999
80.00000000004528
80.00000046839131
80.00311672035527
80
80
80
80
79.99999999742995
79.99999999999109
80
80.00000000000001
79.99999115276103
80.00000009139166
79.99999999993894
80
79.9806836430468
80.00001171682941
79.99999999077839
80.00000000000595
79.99999999999991
80
79.99999999999989
80
80
79.99999999999999
80
79.99999999916682
79.99999999999999
80
79.9999999999998
79.99999994405496
80
79.99999999999999
79.9999999999408
79.99999961924107
79.99999999999999
80.00000000446587
80.00001438388429
80.02717985284882
80.00000000000001
80.00000000229817
80.00000669461986
80.01041066580289
79.99999999999999
80.00000000036235
80.00000088781572
80.00112126311856
80
80.0000000000001
80.00000002278141
80.00001948086746
80.00761825108111
80.00000081764861
79.99999999999683
79.99999999999999
80.01049906625369
80.00000254488972
80.00000000044533
79.99999999999999
80.01027740586527
80.00000241823805
80.00000000039608
79.99999999999993
80.00950804335857
80.00000222227445
80.00000000030953
80
80.00862370827929
79.99999983396927
80
80
80.00958677819685
80.00000001098527
80
79.99999999999999
80.00855579577336
80.00000000000001
80
79.99999999999999
80.00280389762483
80
80
79.99999999999989
80
79.99999999999997
80
79.99999999805281
80.00000000000003
80.00000000000001
79.99999999999999
79.99999999452197
80
80
80
79.99999889254092
80
80
79.99999999999989
80.00001013542027
79.9999998047295
79.99999526889191
79.99990674747245
80.00100371675479
79.99999526881321
79.99996106082794
79.99765567711719
79.97390561857804
79.99990674747494
79.99765567716122
80.00133984317603
80.7021977536062
80.00100371683581
79.97390561864337
80.70219775361031
90.23984171526696
122.9036901310057
94.78692945558441
84.83111987185227
80.36918208480992
137.7925149197641
109.0762499473859
93.2141708235028
81.40072821173537
140.9060840599616
112.2813702651787
95.48102785525072
81.73681223356681
141.1975057864791
112.4563395349255
95.50333507866941
81.7245083399479
81.91346293936184
82.0207842644967
82.03314922678591
81.80145574725299
96.47366738535031
96.97900698232223
97.04082667651288
98.03191960531426
113.0470914047215
113.3227976580556
113.3876911736986
119.0635913865018
142.3873777483112
142.7725755465627
142.8791937011388
154.9090620526511
82.55650321544741
80.65383427161967
80.04123971371276
80.00013117950046
89.20534430540876
81.31147494536154
80.04845483890271
79.99786625264888
90.30286797255768
80.9393739009808
79.99047358327171
79.99501782113178
83.79679688833652
79.86108620417534
79.92405847463375
79.98084622183107
79.99993367408518
79.99999490236476
79.99999996131584
80.00000000036327
79.999786187566
79.9999978162099
80.00000001832555
80.00000000623275
79.99984929360525
80.00000005006648
80.00000002981896
80.00000001433742
79.99882087558129
79.99998990437534
80.00000004082014
80.00000002582159
79.99999999999552
80.00000000010999
80.00000010858987
77.97857841508237
80.00000000048226
80.00000000003746
80.00000004016961
70.48168263379544
80.00000000178485
80.00000000002476
80.00000000284905
65.75283978802283
80.0000000027014
80.00000000002925
80.00000000025678
75.06473217453483
80.69509588275646
82.16465033304044
82.23558097575864
82.22977605485288
108.5493292561405
128.5861921159096
129.1583833158833
129.0358566157227
168.193845801213
189.3265661698498
189.3344773443527
189.0972037726468
240.5522660034101
275.9368588027506
276.2299529897012
275.8000162245305
82.22986286799565
82.23023791518948
82.23062830014442
82.30919764607353
129.0175920407337
129.0176724730622
129.0179826056224
129.3826632347539
189.0468691496996
189.0453126171188
189.0451777625939
189.0375658908356
275.630661486344
275.6227289955957
275.6227882310407
275.4665125695943
81.34306458302281
80.95833513744525
80.70873854521744
80.29388116714618
120.1602415272806
114.8666411228338
110.4090195666525
100.6839771604988
183.95082952424
180.2509551318183
176.055297460132
173.4849574308793
271.4026313993573
270.2184855407407
266.5109661739501
293.9423312714966
72.12949209412757
43.90869545964501
30.34514863187091
29.9377767119805
63.97718672459679
27.26937507380815
13.94408444810693
13.25356014428302
58.51236820627989
14.07643255281985
6.259725300572779
5.914998528743403
46.73180081577679
5.59605628824905
2.745902899655214
2.632926181980767
28.8409446787278
28.91817224559952
28.6953983423678
19.23957933004477
13.25713845896784
13.24494976666822
13.47761920508356
8.460728377411479
5.52547268858332
5.50362928505082
5.969050949204912
6.348683155165082
2.393607177314716
2.370172163783954
2.712089288645172
4.070955783078027
67.11659787690786
79.61882979242169
79.95368325389454
79.41630933677709
53.73728029028479
77.92284928180527
79.60989388957174
78.23788223129252
42.25581099300634
73.65424786235907
77.97917418094777
76.93421327391115
31.88863155728276
65.60105551059696
75.30665657798269
74.89098549763148
78.96599049411201
77.05139981741488
75.21740063348167
74.85166195588253
70.37112455219598
60.84100097358934
52.53747816178141
50.1896752083843
49.29134407362665
34.38167133519858
21.92750934529824
18.01370828100841
31.25609947929613
16.66023567357585
7.350334794924382
4.233125606187472
4.300577157392556
4.26250120921016
4.157426389691611
4.116216470582594
16.74426139405513
16.36693121148471
15.95835943183543
15.82525753727717
48.63721088810831
48.41265456426407
48.16853059448828
48.07738496445756
74.38459164877003
74.40454040150966
74.40860566748654
74.41358194397255
4.116216470583652
15.82525753725701
48.07738496467547
74.41358194400769
4.157426389703375
15.95835943184596
48.16853059452746
74.40860566742737
4.26250120920436
16.36693121151991
48.41265456421137
74.40454040147111
4.300577157400804
16.74426139405923
48.63721088806448
74.38459164869109
74.85166195581604
75.21740063342224
77.05139981728517
78.96599049388735
50.18967520826445
52.53747816181583
60.84100097373
70.37112455208447
18.01370828102773
21.9275093453237
34.38167133519529
49.29134407362205
4.233125606189466
7.350334794928354
16.66023567358012
31.25609947929343
74.89098549760304
75.30665657789802
65.60105551061093
31.88863155726956
76.93421327388425
77.97917418090077
73.65424786235434
42.25581099299295
78.23788223127983
79.60989388940762
77.92284928177054
53.73728029029728
79.4163093367371
79.95368325381118
79.61882979238148
67.11659787694703
19.23957933002506
28.6953983423236
28.91817224556193
28.84094467863721
8.460728377408566
13.47761920508546
13.24494976671199
13.25713845900102
6.348683155199869
5.969050949211306
5.50362928506832
5.525472688601765
4.070955783081834
2.712089288650219
2.370172163783732
2.393607177321135
29.93777671183463
30.34514863190546
43.908695459648
72.12949209413949
13.25356014435206
13.944084448107
27.26937507371876
63.97718672443924
5.914998528768955
6.259725300555029
14.076432552799
58.51236820614898
2.632926182002475
2.745902899632496
5.59605628821985
46.73180081572627
80.29388116716254
80.70873854530393
80.95833513736842
81.34306458312734
100.6839771602115
110.4090195666277
114.8666411227999
120.1602415271464
173.4849574306044
176.0552974600485
180.2509551318071
183.9508295241395
293.9423312713604
266.5109661738745
270.21848554068
271.4026313993252
82.30919764608291
82.23062830031755
82.23023791520593
82.22986286805434
129.3826632344366
129.0179826057106
129.0176724731439
129.0175920405753
189.0375658905307
189.0451777626133
189.0453126171468
189.0468691496049
275.4665125693295
275.6227882309952
275.6227289955544
275.6306614863754
82.22977605468076
82.23558097592282
82.16465033301749
80.6950958828463
129.035856615718
129.1583833160312
128.586192115572
108.5493292564758
189.0972037725685
189.334477344456
189.3265661696644
168.1938458014006
275.8000162243662
276.2299529897939
275.9368588026358
240.5522660034592
77.97857841505832
80.00000010858868
80.00000000010787
79.99999999999548
70.48168263379986
80.00000004016911
80.00000000003688
80.0000000004819
65.75283978804802
80.000000002848
80.00000000002484
80.0000000017838
75.06473217456247
80.00000000025742
80.00000000002922
80.00000000270086
80.00000000036302
79.99999996134224
79.99999490236827
79.99993367410725
80.00000000623206
80.00000001835774
79.999997816213
79.99978618756077
80.00000001433492
80.00000002985777
80.00000005006707
79.99984929358624
80.00000002582193
80.00000004084291
79.99998990437669
79.99882087555152
80.00013117947313
80.04123971370568
80.65383427155831
82.55650321540075
79.99786625263239
80.04845483889976
81.31147494533508
89.20534430536939
79.99501782112125
79.99047358327218
80.9393739009594
90.30286797256286
79.98084622181567
79.92405847463206
79.86108620416113
83.79679688834341
81.80145574732961
82.03314922672621
82.02078426447152
81.91346293951099
98.03191960508087
97.04082667642527
96.97900698224544
96.47366738545756
119.0635913863183
113.3876911735922
113.3227976578366
113.0470914048108
154.9090620525071
142.8791937009898
142.7725755463006
142.387377748407
81.72450834001917
81.73681223353881
81.40072821180406
80.36918208489961
95.50333507856131
95.4810278550792
93.21417082341948
84.83111987181439
112.4563395349395
112.2813702648802
109.0762499472947
94.78692945551022
141.197505786538
140.906084059672
137.7925149197454
122.9036901310433
79.99381455499463
80.00000734272312
80.00000022450149
80.00000000019659
79.9820081849404
80.00002200315528
80.00000063866908
80.00000000051769
79.97019247871152
80.00001786257612
80.00000074028729
80.00000000057001
79.96916119899599
80.00002977204944
80.00000088402038
80.00000000062701
80.00000000044119
80.00000110468567
80.00009228284073
79.98492407052917
80.00000000048661
80.00000110494408
80.00009161041264
79.98481457040405
80.00000000046325
80.00000107862276
80.00008257484633
79.98390837012238
80.00000000044159
80.00000095848915
80.00005909237572
79.98197259430484
80.00000000061912
80.00000000055782
80.00000000042817
80.00000000010029
80.00000088404931
80.00000074028733
80.00000063862964
80.00000022437558
80.00002977216953
80.00001786232716
80.00002200342077
80.00000734257193
79.96916119885137
79.97019247845881
79.98200818503544
79.99381455504047
)
;

boundaryField
{
    back
    {
        type            empty;
    }
    inlet
    {
        type            zeroGradient;
    }
    front
    {
        type            empty;
    }
    top
    {
        type            zeroGradient;
    }
    outlet
    {
        type            fixedValue;
        value           uniform 80;
    }
    bottom
    {
        type            zeroGradient;
    }
    wall
    {
        type            zeroGradient;
    }
}


// ************************************************************************* //
