/*--------------------------------*- C++ -*----------------------------------*\
  =========                 |
  \\      /  F ield         | OpenFOAM: The Open Source CFD Toolbox
   \\    /   O peration     | Website:  https://openfoam.org
    \\  /    A nd           | Version:  11
     \\/     M anipulation  |
\*---------------------------------------------------------------------------*/
FoamFile
{
    format      ascii;
    class       volScalarField;
    location    "0.35923775";
    object      Ma;
}
// * * * * * * * * * * * * * * * * * * * * * * * * * * * * * * * * * * * * * //

dimensions      [0 0 0 0 0 0 0];

internalField   nonuniform List<scalar> 
880
(
1.118016635923817
1.118016634793396
1.117913274542607
1.101702347916369
1.118016635922823
1.118016632481563
1.117870536478321
1.096268829656294
1.118016635905756
1.118016621504525
1.117737692250723
1.089038954825907
1.118016635824109
1.118016566726003
1.11740035322139
1.069554851206931
1.118016636535325
1.118016634945924
1.118016603633759
1.118016146179939
1.118016282128888
1.118014695864946
1.118008386248832
1.118021818263072
1.11645760150199
1.115369341703859
1.113824319635446
1.113109172894867
1.031318129672532
0.9943403854066876
0.9723370906418474
0.9700768646403197
1.118010992281301
1.117995259258068
1.117968926258273
1.117859297650041
1.117902554310134
1.117468084423701
1.116770894112226
1.115507614033299
1.104433953336067
1.097435340585105
1.088274390270344
1.079903713092645
0.9590687339255596
0.9591345944078703
0.9575131357447079
0.981053222034879
1.040052804495888
1.075624069295783
1.089969047608356
1.104392992827478
1.065631312551898
1.065218696046975
1.069325868347936
1.077707069172711
1.11114893797921
1.105552446947096
1.100432523756393
1.097672850897503
1.117316735728685
1.116401010483232
1.115078527210711
1.113440584038815
1.111889975987451
1.110735790433816
1.10998518255922
1.109839787959413
1.097061141574673
1.098711818390711
1.102514530921792
1.10780225252734
1.086124547384301
1.096163717041603
1.105646787672766
1.113536291064781
1.11164590820316
1.119220080098029
1.123416399296775
1.126389379345813
1.128791605545563
1.12090635428859
1.113436662983904
1.109951791066394
1.079487132976639
1.125822854960789
1.120187474076427
1.110313796084899
0.8046060006578369
1.115049952233247
1.125647053207796
1.111385997131956
0.5734006687500195
1.037969494665583
1.125572290570489
1.113023841421728
1.113322294765239
1.121409579288266
0.9542256873378392
0.5177884223130437
1.108802658991543
1.10887401096156
0.8848665045226144
0.5549417243369146
1.106523754024888
1.080245223016832
0.8075017828861124
0.5746153499717482
1.100895063545432
1.033507806891244
0.762755156436922
0.6140857018641184
0.6624719917515425
0.7509868831059324
0.9748967155890326
1.08946272893826
0.7143565333474545
0.7749386321436683
0.9219126642955867
1.069246497351479
0.7674917469695977
0.8176036734790959
0.9053467350194557
1.037923913834137
0.815171529621472
0.8746828524160676
0.9234561962481409
1.006072892876772
0.9854168604979682
0.9755966270306413
0.9503712470028302
0.8753677732466416
1.009918061103243
1.039760805734933
1.036596636218624
0.9571066662915986
1.038619470667565
1.101927409163423
1.127950008850305
1.064399755517949
1.064422448451735
1.149828478869102
1.216003386438707
1.193061467345097
1.084293387337835
1.191061749317793
1.305727667170118
1.394838831993447
1.109067435231415
1.221506870167809
1.366105156004471
1.585976241833501
1.124974752516847
1.226893217572927
1.411602018616884
1.774900313938959
1.134437359330646
1.212809442660561
1.386976473674897
1.945092748965042
1.717469811214382
1.321803014674485
1.201074099210289
1.140474949315919
1.181740137700502
1.275076371541817
1.188875387618256
1.140462306715232
1.027537333798889
1.252847540710789
1.179570601986418
1.136957095500338
0.8788740221193571
1.215799797087429
1.165457833620737
1.132923612870084
0.8055064242487223
1.162031334803633
1.14239319309559
1.125675395309536
0.7301840221993745
1.092243829190291
1.117140080606751
1.118953376642404
0.6969516796660115
1.041879686467383
1.105959235969863
1.117614327852071
0.6807075912674467
1.033195124449826
1.106960076213533
1.117614701238448
0.6500018011922418
0.9389505676611304
1.069464565458621
1.11302812146042
0.6571803705678573
0.9372223186265443
1.069603999274265
1.112891425911162
0.6852818044349349
0.9362560569741181
1.07040009481335
1.112842014643524
0.7090109637360602
0.943965000991923
1.073783757907408
1.113117972303291
0.6807075912672583
1.033195124450901
1.106960076219129
1.117614701243781
0.6969516796649246
1.041879686473086
1.105959235974176
1.117614327860313
0.7301840222010493
1.092243829192013
1.11714008060768
1.118953376643856
0.8055064242499554
1.162031334812451
1.142393193097063
1.125675395308481
1.140474949314256
1.201074099209032
1.321803014676086
1.717469811214252
1.140462306716088
1.18887538761842
1.275076371546111
1.181740137707186
1.1369570954965
1.179570601981093
1.252847540716259
1.027537333795486
1.132923612864579
1.165457833616408
1.215799797089296
0.878874022123688
1.945092748955142
1.386976473672632
1.212809442658867
1.13443735932858
1.774900313940012
1.411602018619758
1.226893217573337
1.124974752519091
1.585976241835535
1.36610515599634
1.221506870167163
1.109067435224546
1.394838831989263
1.305727667171595
1.191061749325202
1.084293387330781
0.9854168604946764
0.9755966270279509
0.9503712470003339
0.8753677732474924
1.009918061103559
1.039760805735543
1.036596636214783
0.9571066662932149
1.038619470669945
1.101927409164847
1.12795000884728
1.064399755517351
1.064422448449791
1.149828478873135
1.216003386440817
1.193061467342446
0.8151715296222016
0.8746828524186945
0.923456196246322
1.006072892870522
0.7674917469711638
0.8176036734812945
0.9053467350188036
1.037923913833558
0.7143565333477732
0.7749386321468389
0.9219126642968513
1.069246497346441
0.6624719917524328
0.7509868831055855
0.9748967155846884
1.08946272893842
1.113322294768009
1.121409579290112
0.9542256873379108
0.517788422315278
1.108802658987053
1.10887401096129
0.8848665045236634
0.5549417243388923
1.106523754017646
1.08024522300848
0.8075017828887769
0.5746153499734605
1.100895063543254
1.033507806889371
0.7627551564396226
0.6140857018640947
1.113023841420799
1.111385997134237
1.110313796080387
1.10995179106583
1.125572290574743
1.125647053211301
1.120187474070166
1.113436662984065
1.037969494671001
1.115049952234765
1.125822854964654
1.120906354290096
0.573400668753426
0.8046060006608803
1.079487132973091
1.128791605545262
1.109839787956368
1.107802252523169
1.113536291063875
1.126389379349653
1.109985182562661
1.102514530920646
1.105646787677638
1.123416399299345
1.11073579043312
1.09871181839022
1.096163717039991
1.119220080101016
1.111889975990312
1.097061141578022
1.086124547386697
1.111645908202908
1.117316735729696
1.111148937984748
1.065631312553853
1.040052804497612
1.116401010483439
1.105552446950491
1.065218696048946
1.075624069300401
1.115078527204417
1.100432523765037
1.069325868349072
1.08996904761673
1.113440584039682
1.097672850897531
1.077707069177888
1.104392992830402
0.9810532220358239
1.079903713090442
1.1155076140361
1.11785929765049
0.9575131357462052
1.088274390269625
1.116770894115784
1.117968926259858
0.9591345944117842
1.097435340588165
1.117468084432325
1.117995259255022
0.9590687339235829
1.104433953340172
1.117902554313984
1.11801099228424
0.970076864639984
1.113109172893378
1.118021818265021
1.118016146177845
0.9723370906400242
1.113824319635945
1.118008386249507
1.11801660363134
0.9943403854005397
1.115369341705148
1.118014695864299
1.118016634947369
1.0313181296622
1.11645760150589
1.118016282138544
1.118016636532614
1.118016635923625
1.118016634792657
1.11791327454233
1.101702347915108
1.118016635921967
1.118016632485307
1.117870536474312
1.096268829650631
1.118016635905015
1.118016621508175
1.117737692252027
1.089038954809508
1.118016635822624
1.118016566728264
1.117400353221532
1.069554851193472
1.090021506385391
1.079808850864851
1.058234100353296
1.008455336963882
1.079808850873986
1.064149916977331
1.027795561530395
0.9529324564450433
1.05823410037258
1.027795561546731
0.9622072942443959
0.859108562838337
1.008455336979931
0.9529324564711358
0.8591085628484991
0.7515444787883581
0.7259574399535355
0.7634722327973881
0.8354126273938063
0.9069051126805271
0.7808833934542077
0.7857139344323142
0.8156858033934472
0.8610029101606688
0.7683364085860448
0.8085904225032569
0.8384370767377425
0.8598141001377999
0.8035040121886463
0.8475332312264278
0.8694710397847188
0.8807776300366603
0.8966514689847133
0.9095153771990648
0.9296243809715222
0.9684913716787528
0.8949915497699344
0.9106165977101283
0.935284913481655
0.9903470285889547
0.8839065533161005
0.908121873170593
0.9365979768182915
1.054092714997807
0.8334662801172203
0.8609967136815512
0.8995067760939148
1.141561210237467
1.149102370932806
1.190190867889406
1.16224467678145
1.155848569357113
1.270483912895881
1.298132415542454
1.245480178559341
1.213594645743433
1.425516169357652
1.363578786908996
1.29706199884247
1.251312368040024
1.160550742666767
1.101036224994118
1.087577062640602
1.089678618322867
1.158622354800197
1.159546677215499
1.157141575336072
1.153222463923315
1.197679840602738
1.182975697763559
1.168754367499055
1.156244176597421
1.223636158683129
1.198458885548846
1.175103161100841
1.153897035814153
1.088935535362618
1.078628373011817
1.068265965190713
1.050981110529599
1.122111637294567
0.8700046702871659
0.5643501791819114
0.3648314405939411
1.090915629693969
0.6976033406177848
0.3661590083886518
0.1741338062663043
1.032829473443538
0.504327806086305
0.1475373070759956
0.03135688737299693
0.8517503454040969
0.3004538336255475
0.02332749272939499
0.1011552196181624
0.3408961517189788
0.441510090089889
0.5060779249408485
0.5696204145116522
0.2433963868363379
0.399127700850446
0.492565936609595
0.5666276801300106
0.1101828593586259
0.3087564238126734
0.4557143015004685
0.5501833485559761
0.00985831947154636
0.160975777494916
0.3251009076488138
0.4612704524696069
0.6437909692890923
0.7091243273006903
0.7653467149205678
0.8044257505225871
0.6372081409361415
0.7038043164411102
0.7599634580961753
0.7996771362345578
0.6207892891072273
0.6914820119401257
0.7536164006662388
0.7976348526613829
0.5749321247994785
0.6673102717787811
0.7485512128852322
0.7963439312323063
0.850550379170811
0.9213129010202883
1.01668454926397
1.130832869042866
0.8424435271516735
0.9072171496408855
0.9950905127528682
1.146749343382457
0.8386696333533047
0.8955813579718241
1.009276921520739
1.465248372775469
0.8366959839271743
0.8901267400959553
1.035239275611798
2.043035548841091
1.358005068327077
1.502749611526552
0.7466965315049481
1.540904393966412
1.440689778256706
1.29189069164775
1.120954226685528
1.900697711786799
1.484631579857863
0.9245305829576999
1.364566522955341
1.930173165970332
1.143592180237989
0.437245514234299
1.650018252781701
1.864190747541418
1.320027300018233
0.8907221844218274
0.6860977942017082
0.4518955705241582
1.399965366730866
0.9917658308858496
0.7130747748362838
0.3512420855133075
1.338004570389057
0.9695954266085864
0.6147500132412619
0.2354628138326162
1.275459144342401
0.9266916908000845
0.5551687242793722
0.1790079487635866
0.3129862641921617
0.09002351523092658
0.1519462966043626
0.3539349005514356
0.3575739969576431
0.274044226008092
0.06743542376605605
0.2737531040881158
0.3253600996978351
0.3765601065530389
0.208745404334581
0.1802068858284354
0.2563840337364517
0.3770790176367751
0.2875061913118729
0.05460925996754108
0.3303602074627872
0.3633309001349938
0.3674622600462052
0.3665506008275973
0.3127491733147812
0.2977517178972923
0.3017532797358672
0.2879362146280056
0.2125367116063809
0.1577210367901011
0.1531258138116707
0.1300840700582905
0.1153163353244403
0.06702817021034153
0.08520375202064057
0.08051658823410764
0.06427330159458189
0.06053849632391192
0.05568729682079212
0.0494624126684864
0.08590430411892892
0.03554080009090556
0.01249063337961978
0.03216346123416631
0.2343405375641312
0.1729308143845617
0.1018662360837335
0.04156675406058171
0.3263149365593438
0.2781406091824842
0.2178973217260594
0.1782778050349959
0.04946241266823762
0.03216346123418486
0.04156675406040263
0.1782778050348622
0.05568729682017991
0.01249063337976208
0.1018662360837786
0.2178973217267626
0.06053849632329096
0.03554080009108508
0.1729308143844358
0.2781406091832745
0.06427330159410734
0.08590430411916844
0.2343405375638219
0.3263149365598
0.366550600825761
0.3674622600456499
0.3633309001342998
0.3303602074621565
0.2879362146280142
0.301753279735774
0.2977517178972008
0.3127491733142609
0.1300840700582124
0.1531258138113546
0.1577210367902569
0.2125367116061568
0.08051658823409706
0.08520375202101843
0.06702817021083543
0.1153163353249605
0.05460925996721826
0.2875061913094661
0.3770790176342579
0.2563840337348227
0.1802068858283339
0.2087454043335826
0.3765601065499861
0.3253600996936598
0.2737531040879879
0.06743542376541203
0.2740442260046145
0.3575739969539088
0.3539349005515207
0.1519462966057666
0.09002351522703458
0.3129862641861154
0.4518955705193349
0.6860977942019081
0.8907221844363865
1.320027300001724
0.3512420855104447
0.7130747748346374
0.9917658308914892
1.399965366729067
0.2354628138313846
0.6147500132385679
0.9695954266119817
1.338004570389836
0.1790079487636821
0.5551687242805311
0.9266916907994303
1.275459144341362
1.54090439392228
0.7466965315007162
1.502749611526231
1.358005068329624
1.900697711767581
1.120954226695515
1.291890691652347
1.440689778252038
1.930173165972449
1.364566522963338
0.924530582952267
1.484631579852987
1.864190747545995
1.650018252792993
0.4372455142349627
1.143592180235379
1.130832869041701
1.01668454926162
0.9213129010217966
0.8505503791688421
1.146749343383909
0.9950905127553301
0.907217149640229
0.8424435271542507
1.465248372770515
1.009276921519724
0.8955813579653978
0.8386696333533136
2.043035548834806
1.035239275614599
0.8901267400921387
0.8366959839278254
0.8044257505240594
0.7653467149213138
0.7091243272998229
0.6437909692906841
0.7996771362346492
0.759963458096069
0.7038043164421446
0.6372081409369064
0.797634852659892
0.7536164006675204
0.6914820119398775
0.6207892891068871
0.7963439312345405
0.7485512128850784
0.6673102717785321
0.574932124799563
0.569620414512611
0.5060779249425248
0.4415100900895748
0.3408961517192634
0.5666276801303221
0.4925659366114029
0.399127700851158
0.2433963868370198
0.5501833485559134
0.4557143015011319
0.3087564238129871
0.1101828593595371
0.4612704524689486
0.3251009076478284
0.1609757774953457
0.009858319471753679
0.3648314405949261
0.5643501791844463
0.87000467028795
1.122111637292418
0.1741338062671783
0.3661590083910968
0.6976033406202555
1.09091562969198
0.03135688737240045
0.1475373070776204
0.5043278060888535
1.032829473441389
0.1011552196181841
0.02332749272950298
0.3004538336263736
0.8517503454009782
1.15322246392217
1.157141575340544
1.159546677221661
1.158622354807608
1.156244176595393
1.1687543674992
1.182975697768598
1.197679840606222
1.153897035811709
1.175103161099844
1.198458885553606
1.223636158686971
1.050981110525299
1.068265965191894
1.078628373014758
1.08893553536858
1.155848569362016
1.162244676788397
1.190190867887938
1.149102370931808
1.213594645749684
1.245480178566281
1.298132415541313
1.270483912895457
1.251312368046613
1.297061998849387
1.363578786907363
1.425516169358207
1.089678618323576
1.087577062646151
1.10103622499315
1.160550742669186
0.9684913716792672
0.9296243809718608
0.9095153771956058
0.8966514689837642
0.9903470285872266
0.9352849134795108
0.9106165977087232
0.894991549767556
1.054092715000339
0.9365979768184136
0.9081218731664654
0.8839065533123909
1.141561210237281
0.8995067760908992
0.8609967136792905
0.8334662801132068
0.8807776300347974
0.8598141001374351
0.8610029101536081
0.906905112668529
0.869471039784355
0.8384370767300492
0.8156858033862071
0.835412627381812
0.8475332312214358
0.8085904224952301
0.7857139344228851
0.7634722327890837
0.8035040121841609
0.7683364085792797
0.7808833934463418
0.7259574399499285
0.6232855856511486
1.002704563370345
1.099020304486864
1.116673304167767
0.6574115310595952
0.978520311087217
1.091854796416731
1.115850631888326
0.6902722897969252
0.9705181002832195
1.085818842160402
1.114840304922213
0.7062568939403742
0.9574413009032486
1.07943223508945
1.113852723849883
1.113028121459501
1.069464565457314
0.938950567661517
0.6500018011886415
1.112891425911922
1.06960399927463
0.9372223186286721
0.6571803705688752
1.112842014645598
1.070400094813972
0.936256056976312
0.6852818044338145
1.113117972306463
1.07378375790901
0.9439650009934812
0.7090109637337331
1.113852723854575
1.114840304918867
1.115850631893663
1.116673304174233
1.079432235093443
1.085818842162138
1.091854796424073
1.099020304496675
0.9574413009013263
0.9705181002868135
0.9785203110876151
1.002704563369626
0.7062568939395926
0.6902722897976123
0.657411531059419
0.6232855856494343
)
;

boundaryField
{
    back
    {
        type            empty;
    }
    inlet
    {
        type            calculated;
        value           nonuniform List<scalar> 
16
(
1.118016635923817
1.118016635923327
1.118016635921991
1.118016635900154
1.118016636034887
1.118016635839496
1.118016624557082
1.118016452907059
1.11801645290629
1.11801662455653
1.118016635839877
1.118016636034292
1.118016635923624
1.118016635923231
1.118016635921705
1.118016635899328
)
;
    }
    front
    {
        type            empty;
    }
    top
    {
        type            calculated;
        value           uniform 0;
    }
    outlet
    {
        type            calculated;
        value           nonuniform List<scalar> 
16
(
1.111558531098785
1.111421840484627
1.11138828927781
1.111763466998736
1.116097187480462
1.115119949902898
1.113890085118582
1.112672594348511
1.111558531097329
1.111421840484934
1.111388289279748
1.111763467001808
1.112672594352635
1.113890085115176
1.115119949908188
1.116097187486897
)
;
    }
    bottom
    {
        type            calculated;
        value           uniform 0;
    }
    wall
    {
        type            calculated;
        value           uniform 0;
    }
}


// ************************************************************************* //
