/*--------------------------------*- C++ -*----------------------------------*\
  =========                 |
  \\      /  F ield         | OpenFOAM: The Open Source CFD Toolbox
   \\    /   O peration     | Website:  https://openfoam.org
    \\  /    A nd           | Version:  11
     \\/     M anipulation  |
\*---------------------------------------------------------------------------*/
FoamFile
{
    format      ascii;
    class       volScalarField;
    location    "0.0275";
    object      p;
}
// * * * * * * * * * * * * * * * * * * * * * * * * * * * * * * * * * * * * * //

dimensions      [0 2 -2 0 0 0 0];

internalField   nonuniform List<scalar> 
880
(
79.99999999999999
80
80.00000000013141
79.99999991206488
80.00000000000001
80
79.99999999975338
79.99999864827225
80
80.00000000000001
80.000000086181
80.00009794148096
79.99999999999996
80
79.99999948163924
80.00331034133596
80
80
79.99999999999999
80.0000000000141
80
80
80.00000000012345
80.00000000015471
80.00002575292319
80.00006703054918
80.00008701551432
79.999979223041
80.12056055577949
80.43513981792766
80.61550491017726
80.60338897485909
80.00000000192527
80.00000000243207
80.00000000266901
80.00000000225222
80.00000022172196
80.00000028594151
80.00000031281446
80.00000025745348
80.00054560265694
80.00059968649668
80.00063194294772
80.00062699217757
80.63663091596487
80.68384815485584
80.69104061115488
80.77927675318004
80.61505998449874
80.28092473462226
80.05676852705965
80.00322942262468
80.00100517686388
80.00057245262509
80.00013838958358
80.00000896977159
80.00000071927791
80.00000043777051
80.00000010693246
80.00000000662614
80.00000000662459
80.00000000367454
80.00000000065751
80.00000000001342
80
80
79.99999999999999
80
80.00000000006638
79.99999999999999
79.99999999999999
79.99999999999999
80.00000008801645
79.99999999984068
79.99999999989687
79.99999999998644
80.00003227693955
79.99999985214426
79.99999992648252
79.99999999015779
80.0000000001999
80.00000000001216
80
80
79.99999928669419
79.99999998520238
79.99999999977602
79.99999999999999
80.00056237661595
80.00000647537976
80.00000000845966
80.00000000006901
79.8484701021944
79.99950970986484
79.99999956038511
79.99999999978846
80.00000000275739
80.00000036839758
80.00090455665739
81.43267926830207
80.00000000790919
80.00000106475839
80.00236576669886
82.78629191026111
80.00000001042599
80.00000138037706
80.00290201169913
83.1546445110841
80.00000001323176
80.00000170198163
80.00334223268086
83.32461862227102
83.50435764574517
80.00387181780563
80.00000211704393
80.00000001693425
83.70822971766229
80.00452777101231
80.00000266638185
80.00000002192048
83.92583435575844
80.00531222841477
80.00000337132542
80.00000002860637
84.19181468570875
80.00642542649614
80.0000044736541
80.00000003952725
80.00000003043111
80.00000343266207
80.00564202198136
84.13368829345691
80.00000003493577
80.00000385718943
80.00587432451117
83.95965407977502
80.00000004227917
80.00000431714147
80.00588880742789
83.52818974742405
80.00000001047275
80.00000152205322
80.00251312283633
81.50283546267451
79.99999983309351
79.99982960820343
79.98142142306222
79.96984433416188
79.99999990776483
79.99988897366997
79.94070701033276
74.9563314802636
79.99999992569121
79.99989244701078
79.9246556583531
71.18508525059038
79.99999995283173
79.99991020379625
79.91594059756174
69.9697623864361
72.58604965980015
79.95630414865816
79.99993409368562
79.99999994334036
72.83907329926869
79.96106132857891
79.99994811272578
79.99999995982473
73.67870142408641
79.97095024711825
79.99996391697732
79.99999997356925
72.40285320087148
79.96346112591262
79.99995895348475
79.99999997138721
77.75312336183218
79.99459832977936
79.99999414058938
79.99999999567576
79.7919344098207
79.99976076565905
79.99999981016674
79.9999999999072
79.94657198848989
79.99988807936489
79.99999987994499
79.99999999992166
79.8633304366801
79.99971199549611
79.99999967906648
79.99999999975944
79.53828485974093
79.99804536081623
79.9999968190527
79.9999999993418
79.53903449438171
79.99804775603582
79.99999681977627
79.99999999933777
79.53997790964334
79.99805004411695
79.99999679677204
79.99999999891209
79.54958383836095
79.99808269275286
79.9999967806523
79.99999999791893
79.86333043668108
79.99971199546901
79.99999967903162
79.99999999973578
79.94657198850079
79.99988807931378
79.99999987989503
79.9999999999217
79.79193440978207
79.99976076562264
79.99999981016302
79.99999999990432
77.75312336187861
79.99459832973913
79.99999414060416
79.99999999567822
79.99999994336034
79.99993409369894
79.95630414869424
72.58604965970251
79.99999995981949
79.99994811272926
79.96106132864375
72.83907329923763
79.99999997357645
79.99996391696345
79.97095024706911
73.67870142400351
79.99999997139281
79.99995895352873
79.96346112592047
72.40285320088489
69.96976238642115
79.91594059754628
79.99991020377361
79.99999995284023
71.18508525055533
79.92465565835604
79.99989244703569
79.99999992568337
74.95633148023298
79.94070701034768
79.99988897365833
79.9999999077864
79.96984433415426
79.98142142302129
79.99982960815875
79.99999983312492
80.00000003042038
80.00000343268979
80.00564202203566
84.13368829341958
80.00000003494286
80.00000385717512
80.00587432454003
83.95965407983876
80.00000004225302
80.00000431715657
80.00588880742825
83.52818974740616
80.00000001048234
80.0000015220367
80.00251312283356
81.50283546267464
84.1918146857234
80.00642542645048
80.00000447366671
80.00000003957325
83.92583435577296
80.00531222841714
80.00000337132846
80.00000002860772
83.70822971765398
80.00452777101904
80.00000266638293
80.00000002192256
83.50435764571982
80.00387181783407
80.0000021170563
80.0000000169447
80.00000000276385
80.00000036841145
80.00090455663754
81.43267926828977
80.00000000794026
80.00000106479075
80.00236576668885
82.78629191026842
80.00000001045895
80.00000138039303
80.0029020116973
83.15464451105578
80.00000001322684
80.0000017019748
80.0033422326898
83.32461862226434
79.99999999979075
80.00000000006725
79.99999999999999
80
79.99999956033743
80.00000000844331
79.99999999976569
80
79.99950970983457
80.00000647539599
79.99999998518884
80.00000000001219
79.84847010217571
80.00056237661677
79.99999928670893
80.00000000019972
79.99999999999999
79.99999999999999
79.99999999998681
79.9999999901631
79.99999999999999
80
79.99999999990003
79.99999992649519
80
80
79.99999999982502
79.99999985211174
79.99999999999999
80.00000000006428
80.00000008802546
80.00003227693118
80.00000000662297
80.00000071924374
80.00100517686754
80.61505998453337
80.00000000364261
80.00000043779353
80.00057245264222
80.28092473463482
80.0000000006649
80.00000010690958
80.00013838956286
80.05676852702678
80.00000000001263
80.00000000662244
80.0000089697853
80.00322942259255
80.7792767531657
80.0006269921635
80.00000025743672
80.00000000228343
80.69104061112506
80.00063194298109
80.00000031276937
80.0000000026688
80.68384815487899
80.00059968653503
80.00000028589022
80.00000000240773
80.63663091592908
80.00054560262345
80.00000022170158
80.00000000195772
80.60338897484422
79.99997922306764
80.00000000015811
80.00000000001731
80.61550491016696
80.00008701550112
80.00000000010141
80
80.43513981791187
80.00006703054127
80
79.99999999999997
80.12056055575928
80.00002575290269
80.00000000000001
80.00000000000001
79.99999999999999
80
80.00000000013759
79.99999991205813
80
80
79.99999999975344
79.99999864827647
80
80
80.00000008618051
80.0000979414891
80
80
79.9999994816293
80.00331034129771
79.99999949861325
79.9999918899417
80.00129409736087
80.08927981519612
79.99999188993965
79.99992912021631
80.0121686559706
80.68320786791124
80.00129409736479
80.01216865597073
80.41168377841373
83.87183881246187
80.08927981523713
80.68320786794551
83.87183881251804
95.86056603166934
111.9761314943958
97.44141431335491
91.29077230555809
84.31326157989847
114.8316775048804
109.3780194119483
106.2847044523146
95.95232051419063
116.708162645534
115.1535643947078
113.4665339491208
103.4309482340627
117.5846340136368
116.8850583202043
115.2283874271788
104.7294219500757
105.6117480452986
105.9212461143593
106.0462454581812
108.6923837676775
115.6464538943758
115.7141614350816
115.8042235449626
119.7964972126529
117.2680917888047
117.2908965882623
117.3605565477009
119.3992669191963
117.7897228676197
117.6978225539301
117.6838694694395
117.0228634628601
94.79796420326645
84.66211365798007
80.66064553893806
80.02762618773657
96.20054299731231
84.58498434219837
80.75355352014184
80.03639989608142
86.97397964798749
83.4072390937776
80.8308075018338
80.04657763083667
75.04404299342475
79.85512336668525
80.08589790658374
79.99897869487263
80.00023085634061
79.99999306051716
79.99999758312876
79.99999980268242
80.00025789407346
79.999988199801
79.99999655899965
79.99999976207233
80.00031471236494
79.99998629733976
79.99999677763516
79.99999981060245
79.99975657787566
79.99998371713872
79.99999688305321
79.99999968774885
79.999999982509
80.00000004117425
80.02207724009494
78.66213443468932
79.99999999081966
80.00000001701561
80.06402662461427
84.32840391265867
79.99999999741729
80.00000000303315
80.10968034771538
91.90831166296711
79.99999999473802
80.0000000007406
80.13896648908863
96.15828295448618
139.4963383582371
160.1894287874195
164.7313145209697
165.1508126298148
163.9453551796893
179.0522815592444
185.2904556033874
185.7802691653677
165.9308710683281
178.2045243952307
185.4830312832613
186.1878351985904
169.4707318650962
169.6253362629185
175.4558205537623
176.4670819599525
165.33183281526
165.532408100664
165.724098426783
165.7523657303739
185.7949687409898
185.8064659067559
185.7935693748322
185.5166960199233
186.2104553090674
186.2215981477238
186.2139085123158
186.0771028712286
176.5059497676756
176.5212220454229
176.5302947727139
176.4623199670038
162.0780594577168
158.5190640595962
150.27531267917
119.2096081028022
184.8064984635997
182.929902659294
175.3741286135869
150.4035760030043
185.9984774427423
184.433440193835
175.2799319800916
156.0889744978699
177.1194661807224
176.8829091145207
170.5421689375145
160.9114326036663
82.12286457164912
46.28715910371423
21.42769531342414
18.32332131730653
78.80444417359006
33.03560084460568
14.37421715081123
11.43954941029866
60.83894195283759
24.90969547229608
13.67176503842305
11.53491952651975
28.88475587180702
13.72184787012275
12.46134283448646
11.84262305960767
18.0664787912647
18.3231039788993
18.9714873079333
16.58186121134838
11.06489123514228
11.26838387262761
12.82834497581021
12.40040047054454
11.2524665603257
11.64335653063435
13.29496400714109
13.19362277710716
11.71641015997963
12.20801401062879
13.54105164983856
11.72704230344287
49.91326577148455
73.13895800322095
77.51287033085119
74.26085644088329
38.63098940944445
63.48146332589452
73.14686686500791
70.73236246165828
31.88884011950006
56.10692250959578
67.00445334387578
69.57690618672524
19.8884869675775
47.47788943573793
62.19262269863653
68.52019074429039
74.41256231779901
67.46298930595194
59.04148566764669
51.8138685280007
63.67804156209471
54.64453417598461
44.32357655925559
32.561717682762
40.57135087007725
39.74431769742613
38.82531857605091
27.86483046944093
23.49311075334611
10.45288061622769
14.95014218200138
17.12870316367419
12.55035640904843
7.829919785625924
6.914189273606096
6.789427592400567
18.64032121547566
15.75597101139285
15.22407815577856
15.06500507599617
26.64782861845226
25.5044669396537
25.24346331113609
25.15353896962339
48.43736532713678
47.84820028706537
47.66341613766741
47.59285687399151
6.789427592402304
15.06500507599733
25.15353896961567
47.59285687398629
6.91418927361162
15.22407815578297
25.24346331112911
47.66341613766676
7.829919785629888
15.75597101139077
25.50446693965609
47.84820028710276
12.55035640905218
18.64032121547377
26.64782861845094
48.43736532716233
51.81386852802367
59.04148566767437
67.46298930597334
74.41256231780032
32.56171768276613
44.32357655925391
54.64453417597482
63.67804156208272
27.86483046944229
38.82531857604977
39.74431769743331
40.57135087008109
17.12870316368273
14.95014218200816
10.45288061623677
23.49311075334372
68.52019074428819
62.192622698639
47.47788943573337
19.88848696757305
69.57690618672451
67.00445334387285
56.1069225095869
31.88884011950702
70.73236246165558
73.14686686501202
63.48146332588296
38.63098940945302
74.2608564408813
77.51287033085468
73.13895800320154
49.91326577149739
16.58186121135081
18.97148730792198
18.32310397889194
18.06647879124785
12.40040047054853
12.828344975814
11.26838387263188
11.06489123514226
13.19362277711218
13.29496400714783
11.64335653064014
11.25246656032679
11.72704230344337
13.54105164984887
12.20801401064156
11.71641015998089
18.32332131730536
21.42769531333824
46.28715910353277
82.12286457161701
11.43954941029802
14.3742171507715
33.03560084452612
78.80444417353472
11.53491952651682
13.67176503839656
24.90969547226348
60.83894195282156
11.84262305960278
12.46134283448106
13.72184787012057
28.88475587180744
119.2096081027672
150.2753126791305
158.5190640596004
162.0780594577222
150.403576002966
175.3741286135674
182.9299026592802
184.8064984635827
156.0889744978354
175.2799319800741
184.4334401938171
185.998477442759
160.9114326036632
170.5421689375149
176.8829091145097
177.1194661807246
165.7523657303672
165.7240984268165
165.5324081006444
165.3318328152519
185.5166960199105
185.7935693748747
185.8064659067483
185.7949687409705
186.0771028712362
186.2139085123499
186.2215981476991
186.2104553090423
176.4623199670138
176.5302947727405
176.5212220454113
176.5059497676525
165.1508126298077
164.7313145209604
160.189428787442
139.4963383582744
185.7802691653468
185.2904556033842
179.0522815592682
163.9453551797122
186.1878351985944
185.4830312832627
178.2045243952614
165.9308710683537
176.4670819599478
175.4558205537626
169.6253362629389
169.4707318650964
78.66213443467946
80.02207724009348
80.0000000411402
79.99999998251012
84.32840391265185
80.06402662461157
80.00000001699814
79.9999999908206
91.90831166296796
80.10968034771234
80.00000000302828
79.99999999741794
96.15828295449133
80.13896648908651
80.00000000073923
79.99999999473839
79.99999980268447
79.99999758313587
79.99999306050613
80.00023085635497
79.99999976207455
79.99999655899322
79.9999881997941
80.00025789408468
79.99999981060354
79.99999677762534
79.99998629733346
80.00031471237848
79.99999968774988
79.99999688304938
79.9999837171226
79.99975657789223
80.02762618771528
80.6606455389155
84.66211365798021
94.79796420328967
80.03639989606171
80.75355352012969
84.58498434220097
96.20054299732291
80.04657763082533
80.83080750182877
83.40723909378171
86.97397964798753
79.99897869486453
80.08589790657648
79.85512336669197
75.04404299342812
108.6923837676723
106.0462454581894
105.9212461143732
105.6117480452749
119.7964972126301
115.8042235449853
115.7141614351126
115.6464538943607
119.3992669191621
117.3605565477434
117.2908965882985
117.2680917888106
117.022863462823
117.6838694694707
117.6978225539695
117.7897228676305
104.7294219500547
103.4309482340196
95.95232051423629
84.31326157991009
115.2283874271642
113.4665339490813
106.284704452315
91.29077230553492
116.8850583201704
115.153564394653
109.3780194119554
97.44141431327381
117.5846340136524
116.7081626456104
114.8316775049614
111.9761314943764
79.90301481191074
79.99966915784246
79.99999949515724
79.99999999963579
79.74097022901834
79.99908110297207
79.99999854840094
79.99999999881265
79.52402399675812
79.99826320109675
79.99999726462559
79.99999999764064
79.33982749758025
79.99766602648377
79.99999645418174
79.99999999710275
79.99999999937374
79.99999681905544
79.99804536081503
79.53828485973249
79.99999999931887
79.99999681979831
79.99804775604595
79.53903449437685
79.99999999891497
79.99999679673948
79.99805004411705
79.53997790961665
79.99999999793003
79.99999678064255
79.99808269277935
79.5495838383396
79.99999999706594
79.99999999766035
79.9999999988236
79.99999999961541
79.99999645414847
79.9999972646221
79.99999854840908
79.99999949517995
79.9976660264735
79.9982632010888
79.99908110300474
79.99966915782798
79.3398274975515
79.52402399674791
79.74097022904823
79.90301481191945
)
;

boundaryField
{
    back
    {
        type            empty;
    }
    inlet
    {
        type            zeroGradient;
    }
    front
    {
        type            empty;
    }
    top
    {
        type            zeroGradient;
    }
    outlet
    {
        type            fixedValue;
        value           uniform 80;
    }
    bottom
    {
        type            zeroGradient;
    }
    wall
    {
        type            zeroGradient;
    }
}


// ************************************************************************* //
