/*--------------------------------*- C++ -*----------------------------------*\
  =========                 |
  \\      /  F ield         | OpenFOAM: The Open Source CFD Toolbox
   \\    /   O peration     | Website:  https://openfoam.org
    \\  /    A nd           | Version:  11
     \\/     M anipulation  |
\*---------------------------------------------------------------------------*/
FoamFile
{
    format      ascii;
    class       volScalarField;
    location    "0.0275";
    object      rho;
}
// * * * * * * * * * * * * * * * * * * * * * * * * * * * * * * * * * * * * * //

dimensions      [0 0 0 0 0 0 0];

internalField   nonuniform List<scalar> 
880
(
0.2239950333699092
0.2239950333699093
0.2239950333701661
0.2239950331939758
0.2239950333699093
0.2239950333699093
0.2239950333694138
0.2239950306640091
0.2239950333699093
0.2239950333699093
0.2239950335425563
0.2239952298283778
0.2239950333699091
0.2239950333699093
0.2239950323266115
0.2240015945997011
0.2239950333699093
0.2239950333699093
0.2239950333699092
0.2239950333699297
0.2239950333699093
0.2239950333699093
0.2239950333701244
0.2239950333704667
0.2239950844732719
0.2239951643683043
0.2239952027209172
0.2239949900457083
0.2242320680409521
0.2248245572607068
0.2251518185249783
0.2251266529011682
0.2239950333737519
0.2239950333747779
0.2239950333752515
0.2239950333744106
0.2239950338076787
0.2239950339351726
0.2239950339884423
0.2239950338762232
0.2239960916614993
0.223996195584823
0.223996258721237
0.2239962389457382
0.2251861819867056
0.2252743683167319
0.2252885539153889
0.22544128186339
0.225160999534337
0.2245465937131486
0.2241087590146369
0.2240015340345294
0.2239969999501614
0.2239961700750098
0.2239953110480372
0.2239950513923986
0.2239950347980026
0.2239950342432691
0.2239950335840296
0.2239950333831793
0.223995033383148
0.2239950333772622
0.2239950333712204
0.2239950333699405
0.2239950333699093
0.2239950333699093
0.2239950333699092
0.2239950333699093
0.2239950333700432
0.2239950333699092
0.2239950333699092
0.2239950333699092
0.2239950335462997
0.2239950333696101
0.2239950333697185
0.2239950333698976
0.2239950981812767
0.2239950330739624
0.2239950332228512
0.2239950333502344
0.2239950333703037
0.2239950333699094
0.2239950333699093
0.2239950333699092
0.2239950319459306
0.2239950333403387
0.2239950333694661
0.2239950333699092
0.2239961562207675
0.2239950463005437
0.2239950333868189
0.2239950333700395
0.2236921075629758
0.2239940596685331
0.2239950324923724
0.2239950333694945
0.2239950333754192
0.2239950340874468
0.2239967225280083
0.2264600085743204
0.2239950333857092
0.2239950354119344
0.223999287057273
0.2285326953021389
0.2239950333907325
0.2239950360130178
0.2240002251447984
0.2290871841209674
0.2239950333963436
0.2239950366295823
0.2240010147518522
0.2293642419693081
0.2296596895696813
0.2240019660464453
0.2239950374256699
0.2239950334037454
0.2299962728369974
0.224003145628802
0.2239950384797697
0.2239950334136986
0.2303543543675529
0.2240045569330463
0.2239950398330879
0.2239950334270605
0.2307913347753961
0.2240065479692235
0.2239950419444695
0.2239950334488719
0.2239950334307166
0.2239950399516012
0.2240051526100517
0.2307496613352723
0.2239950334397184
0.2239950407957647
0.2240056637587282
0.2305272175178738
0.2239950334543996
0.2239950417155173
0.2240058003579359
0.2299081911138391
0.2239950333910934
0.2239950367654085
0.2239996605867826
0.2265842906570311
0.2239950331706461
0.2239949058223087
0.2239564932422791
0.2230468215411104
0.2239950331853596
0.2239948148643685
0.2238688657907828
0.211646760230476
0.2239950332177986
0.2239948077147217
0.2238262844527283
0.2024745606754954
0.2239950332733023
0.2239948452408594
0.2238079100425334
0.1997802804566828
0.2057681196054509
0.2238956617869725
0.2239948931807293
0.2239950332532763
0.2065497450571442
0.2239069819862065
0.2239949230993792
0.223995033287101
0.2084055538038928
0.2239287711020774
0.2239949564396045
0.2239950333153406
0.2053762851511264
0.2239113767890143
0.2239949451773807
0.2239950333105611
0.2188543327328676
0.2239829286283823
0.2239950208071475
0.2239950333609393
0.2235551904394861
0.2239945324414032
0.2239950329780713
0.2239950333697236
0.2238872451682774
0.2239948088458776
0.2239950331294202
0.2239950333697652
0.2237173852053154
0.2239944527538176
0.2239950327259548
0.223995033369453
0.2229616963982674
0.2239909180307435
0.2239950268607619
0.2239950333685377
0.2229637227056508
0.2239909238442607
0.2239950268629013
0.2239950333685412
0.2229670601906891
0.2239909312964385
0.2239950268189219
0.2239950333676845
0.2229894329138213
0.2239910036817871
0.2239950267921026
0.2239950333656914
0.2237173852053201
0.2239944527537504
0.2239950327258712
0.2239950333693818
0.2238872451683006
0.2239948088457553
0.223995033129302
0.2239950333697536
0.223555190439389
0.2239945324413189
0.2239950329780646
0.2239950333697158
0.2188543327329895
0.2239829286282874
0.2239950208071879
0.2239950333609457
0.223995033253323
0.2239948931807553
0.2238956617870361
0.2057681196052057
0.2239950332870893
0.2239949230993925
0.2239069819863958
0.2065497450570961
0.2239950333153563
0.2239949564395707
0.2239287711019598
0.2084055538036938
0.2239950333105761
0.2239949451774804
0.2239113767890277
0.2053762851511328
0.199780280456656
0.2238079100424901
0.2239948452408033
0.2239950332733242
0.2024745606754114
0.2238262844527367
0.2239948077147904
0.2239950332177815
0.2116467602304026
0.2238688657908082
0.2239948148643298
0.2239950331854131
0.2230468215410946
0.2239564932421847
0.2239949058222087
0.223995033170716
0.2239950334306949
0.2239950399516724
0.2240051526101712
0.2307496613351784
0.2239950334397345
0.2239950407957218
0.2240056637588001
0.230527217518002
0.223995033454341
0.2239950417155526
0.224005800357939
0.2299081911138025
0.2239950333911153
0.2239950367653736
0.2239996605867771
0.2265842906570316
0.2307913347754163
0.2240065479691133
0.2239950419444993
0.2239950334489779
0.2303543543675805
0.2240045569330714
0.2239950398330931
0.2239950334270613
0.2299962728369634
0.2240031456288054
0.2239950384797734
0.2239950334137027
0.2296596895696107
0.2240019660465263
0.2239950374257019
0.2239950334037714
0.2239950333754324
0.223995034087478
0.2239967225279624
0.2264600085742798
0.2239950333857826
0.2239950354120083
0.2239992870572475
0.2285326953021611
0.2239950333908155
0.2239950360130628
0.2240002251447972
0.2290871841208963
0.2239950333963319
0.2239950366295602
0.2240010147518588
0.229364241969289
0.2239950333694998
0.2239950333700369
0.2239950333699093
0.2239950333699092
0.2239950324922575
0.2239950333867807
0.2239950333694366
0.2239950333699093
0.2239940596684648
0.2239950463005789
0.2239950333403089
0.2239950333699092
0.223692107562936
0.2239961562207717
0.2239950319459632
0.2239950333703037
0.2239950333699092
0.2239950333699092
0.223995033369899
0.2239950333502488
0.2239950333699092
0.2239950333699092
0.2239950333697239
0.2239950332228736
0.2239950333699093
0.2239950333699093
0.223995033369575
0.2239950330738845
0.2239950333699092
0.2239950333700341
0.2239950335463174
0.2239950981812585
0.2239950333831506
0.2239950347979226
0.223996999950168
0.2251609995344125
0.2239950333771894
0.2239950342433195
0.2239961700750495
0.22454659371319
0.2239950333712363
0.2239950335839795
0.2239953110479853
0.2241087590145656
0.2239950333699386
0.223995033383171
0.2239950513924341
0.2240015340344449
0.2254412818633518
0.2239962389457086
0.2239950338761789
0.2239950333744797
0.2252885539153185
0.2239962587213152
0.2239950339883259
0.2239950333752516
0.2252743683167947
0.2239961955849153
0.2239950339350475
0.22399503337472
0.2251861819866124
0.2239960916614092
0.2239950338076369
0.2239950333738304
0.2251266529011339
0.2239949900457785
0.2239950333704723
0.2239950333699357
0.2251518185249549
0.2239952027208833
0.2239950333700753
0.2239950333699093
0.2248245572606671
0.2239951643682866
0.2239950333699093
0.2239950333699092
0.2242320680409005
0.223995084473226
0.2239950333699093
0.2239950333699093
0.2239950333699092
0.2239950333699093
0.2239950333701813
0.223995033193958
0.2239950333699093
0.2239950333699093
0.2239950333694133
0.2239950306640164
0.2239950333699093
0.2239950333699093
0.2239950335425533
0.2239952298283964
0.2239950333699093
0.2239950333699092
0.223995032326591
0.2240015945996187
0.2239950323669174
0.2239950171542061
0.2239976172058762
0.2241743635647712
0.2239950171542051
0.2239948920454682
0.2240193953515273
0.2253466135745097
0.2239976172058845
0.224019395351529
0.2248071214011395
0.2314461448785695
0.2241743635648594
0.2253466135745805
0.2314461448786813
0.2535550540138958
0.2823386946569419
0.2564794153295752
0.2457738403780663
0.2324865456334215
0.2882038151270817
0.2786481102376597
0.2735349268558625
0.2544901197007463
0.2920138340218872
0.2894264798232057
0.2865730864546052
0.2682362930632544
0.2936899817907864
0.2926222811375091
0.289764104073752
0.270593428890339
0.2721868879536565
0.2727513082562328
0.2729800646317459
0.2775837088995101
0.2904767705745303
0.2905645485227205
0.2907178498642899
0.2977192761958706
0.2932529883441168
0.2932224820979666
0.2933281147349485
0.2972561427231014
0.294003254648671
0.2937644983214719
0.2937146536834144
0.293438461991598
0.2520865134501696
0.2330266514386579
0.2252995309752665
0.2240502568062848
0.2542917523767507
0.2326964347728822
0.2254679046707752
0.224067976902327
0.2359708851916796
0.2303054076082647
0.2256151295179748
0.2240894254156921
0.2132286604154643
0.2233247381955654
0.2241129948502463
0.2239949213775815
0.2239954955727048
0.2239950194375114
0.2239950285254318
0.2239950329747829
0.2239955607818256
0.2239950099244565
0.2239950264560458
0.2239950328885667
0.2239957520862413
0.2239950070464577
0.2239950267254892
0.2239950329696339
0.2239949056335116
0.2239950050023447
0.2239950264275778
0.2239950326981149
0.2239950333349596
0.2239950334516513
0.2240392054340512
0.2212207408561447
0.2239950333515216
0.2239950334038558
0.2241239616412413
0.2316720491913583
0.2239950333646516
0.2239950333759735
0.2242165276656056
0.2447703810670032
0.2239950333592777
0.2239950333713871
0.2242752890421074
0.2521489344941328
0.3266839217430518
0.3585648293335435
0.3653774499899738
0.3660304073303534
0.3658687264549492
0.389084092370005
0.3987488981710911
0.3995218791774658
0.3684600802499137
0.388191698694376
0.3997449283159051
0.4008590804805433
0.373522085785134
0.3747986818781077
0.3841950725806108
0.38575910467429
0.3663323239646058
0.3666684966921942
0.3669934034907799
0.3670864026353307
0.3995505311661509
0.3995746194005189
0.3995623578359687
0.3991643344154869
0.4008957213408822
0.4009132504959598
0.4009009774041441
0.4006964373149647
0.3858203674201504
0.3858441732116792
0.3858568136175763
0.385744978791032
0.3615749559167165
0.3562717840279623
0.3439034358275621
0.2932376525276729
0.3983300524013176
0.395836236493278
0.3844344509447995
0.3402234437160987
0.4008988073825617
0.3989962731058283
0.3843885517048686
0.3434491137379276
0.3870223185839156
0.3869242032451281
0.3757061864897451
0.3583511204873824
0.2171392033003319
0.135224164547729
0.07896556307798208
0.07134696189868124
0.2023990499435405
0.1013405876683129
0.06112336886858023
0.05367619118144257
0.1567123992762587
0.08116720810921006
0.06229632737921479
0.05757334817975374
0.09626657813863647
0.05420459280072848
0.06070277314557228
0.06076301747913242
0.07008764022231928
0.07080228540301477
0.07294588579481021
0.06648685128025154
0.05226175844462343
0.05297256171989471
0.05820870146168462
0.05629461216501532
0.0565657453562791
0.05811481126596156
0.06348666066156533
0.05919056084633225
0.06050150193360738
0.06254959157164633
0.06646254488646784
0.05452094690994022
0.1514217552560947
0.2084900764134732
0.2189434714386294
0.2124020414495869
0.1234743406668529
0.1862619310844857
0.2098295579760871
0.2046172446194745
0.1073237093884717
0.1680973262996833
0.1965898363315784
0.2004933042867276
0.07732621011505419
0.1483845430652822
0.185509216953435
0.2027074406096578
0.2119017219834818
0.1965700991140504
0.177016547972704
0.1595545119613364
0.1886095310229738
0.1688037666268964
0.1456737741282472
0.1166714383620796
0.1387469453863451
0.135535376532025
0.1347915008018707
0.1071400598093348
0.09780824362634213
0.05860211661888162
0.07340741864512337
0.07947758866431613
0.06400469771314263
0.04693775456094184
0.04325458329623426
0.04269211160371132
0.08075620081088968
0.07182217797806814
0.07006167493659787
0.06952413745789915
0.1006533870794925
0.09738932470439382
0.09660480490181288
0.09633378580595901
0.1510965574128006
0.1496046502075708
0.1491175088062444
0.1489310148700936
0.04269211160371963
0.06952413745790433
0.09633378580593675
0.1489310148700789
0.04325458329625875
0.07006167493661605
0.09660480490179353
0.1491175088062424
0.04693775456095589
0.07182217797806632
0.09738932470440136
0.1496046502076554
0.06400469771315094
0.08075620081088364
0.1006533870794877
0.1510965574128636
0.159554511961393
0.1770165479727693
0.1965700991140966
0.2119017219834841
0.1166714383620886
0.1456737741282429
0.1688037666268775
0.1886095310229507
0.1071400598093381
0.1347915008018726
0.1355353765320474
0.1387469453863524
0.07947758866434144
0.07340741864514502
0.0586021166189114
0.09780824362633335
0.2027074406096517
0.1855092169534453
0.1483845430652699
0.07732621011502923
0.2004933042867281
0.1965898363315739
0.1680973262996649
0.1073237093884775
0.2046172446194712
0.2098295579760968
0.1862619310844559
0.123474340666871
0.2124020414495845
0.2189434714386366
0.2084900764134191
0.1514217552561399
0.06648685128025494
0.07294588579478027
0.07080228540300364
0.07008764022227444
0.05629461216501543
0.0582087014616982
0.05297256171991186
0.0522617584446253
0.05919056084633039
0.06348666066158533
0.05811481126598203
0.05656574535628327
0.05452094690991883
0.06646254488649661
0.06254959157169049
0.06050150193361142
0.07134696189868503
0.0789655630777845
0.1352241645473317
0.2171392033002412
0.05367619118144225
0.06112336886848937
0.10134058766815
0.2023990499434029
0.05757334817974476
0.06229632737915478
0.08116720810915294
0.156712399276213
0.06076301747911869
0.06070277314557153
0.05420459280073245
0.09626657813861875
0.2932376525276018
0.3439034358274887
0.3562717840279759
0.3615749559166987
0.3402234437160234
0.3844344509447619
0.395836236493265
0.3983300524012944
0.3434491137378568
0.3843885517048342
0.3989962731058112
0.4008988073826325
0.3583511204873584
0.3757061864897491
0.3869242032451098
0.3870223185839581
0.3670864026353064
0.3669934034908397
0.3666684966921516
0.3663323239645827
0.3991643344154743
0.3995623578360476
0.3995746194005017
0.3995505311661097
0.4006964373149984
0.4009009774041908
0.4009132504958842
0.400895721340817
0.3857449787910619
0.385856813617621
0.385844173211619
0.3858203674200774
0.3660304073303158
0.3653774499899473
0.3585648293335826
0.3266839217430793
0.3995218791774138
0.3987488981711018
0.3890840923700484
0.365868726454969
0.4008590804805663
0.3997449283159218
0.3881916986944386
0.3684600802499864
0.3857591046742798
0.3841950725806353
0.374798681878151
0.373522085785169
0.2212207408561237
0.2240392054340481
0.2239950334515803
0.2239950333349618
0.2316720491913436
0.2241239616412354
0.2239950334038207
0.2239950333515243
0.2447703810670065
0.2242165276655996
0.2239950333759637
0.2239950333646535
0.2521489344941512
0.2242752890421039
0.2239950333713837
0.2239950333592788
0.223995032974788
0.2239950285254445
0.2239950194374846
0.2239954955727354
0.2239950328885704
0.22399502645603
0.2239950099244416
0.2239955607818503
0.2239950329696347
0.2239950267254683
0.2239950070464473
0.223995752086272
0.2239950326981155
0.22399502642757
0.223995005002319
0.2239949056335494
0.2240502568062235
0.2252995309752215
0.2330266514386669
0.2520865134502149
0.2240679769022798
0.2254679046707508
0.2326964347728915
0.254291752376771
0.2240894254156672
0.2256151295179641
0.2303054076082755
0.2359708851916805
0.2239949213775621
0.2241129948502302
0.2233247381955812
0.2132286604154714
0.2775837088994952
0.2729800646317504
0.2727513082562574
0.2721868879535986
0.2977192761958291
0.2907178498643362
0.2905645485227767
0.2904767705744917
0.2972561427230458
0.2933281147350562
0.2932224820980489
0.2932529883441207
0.2934384619915408
0.2937146536835117
0.2937644983215693
0.2940032546486806
0.2705934288903135
0.2682362930631845
0.2544901197008261
0.2324865456334336
0.2897641040737373
0.2865730864545409
0.2735349268558526
0.2457738403780141
0.2926222811374346
0.2894264798231027
0.2786481102376766
0.2564794153294085
0.2936899817908005
0.292013834022014
0.2882038151272179
0.2823386946568943
0.2237886357480677
0.2239943517101282
0.2239950323455855
0.2239950333691805
0.2234387246382485
0.2239931339715605
0.2239950304240952
0.2239950333675154
0.2229521250470691
0.2239914158238592
0.2239950278053257
0.2239950333651461
0.2225369472646972
0.2239901560141148
0.2239950261479356
0.223995033364071
0.2239950333686156
0.2239950268607686
0.2239909180307411
0.2229616963982561
0.2239950333684973
0.2239950268629546
0.2239909238442856
0.2229637227056461
0.2239950333676896
0.2239950268188426
0.2239909312964382
0.2229670601906159
0.2239950333657168
0.2239950267920778
0.2239910036818515
0.2229894329137633
0.2239950333639819
0.2239950333651938
0.2239950333675451
0.2239950333691302
0.223995026147855
0.2239950278053192
0.223995030424114
0.223995032345638
0.2239901560140922
0.2239914158238419
0.2239931339716352
0.2239943517100917
0.2225369472646355
0.2229521250470493
0.2234387246383206
0.2237886357480877
)
;

boundaryField
{
    back
    {
        type            empty;
    }
    inlet
    {
        type            calculated;
        value           nonuniform List<scalar> 
16
(
0.2239950333699092
0.2239950333699093
0.2239950333699093
0.2239950333699091
0.2239950333699093
0.2239950333699093
0.2239950333699092
0.2239950333699298
0.2239950333699357
0.2239950333699093
0.2239950333699092
0.2239950333699093
0.2239950333699092
0.2239950333699093
0.2239950333699093
0.2239950333699093
)
;
    }
    front
    {
        type            empty;
    }
    top
    {
        type            calculated;
        value           nonuniform List<scalar> 
40
(
0.2239950333737519
0.2239950333747779
0.2239950333752515
0.2239950333744106
0.223995033383148
0.2239950333772622
0.2239950333712204
0.2239950333699405
0.2239950333699093
0.2239950333699093
0.2239950333699092
0.2239950333699093
0.2239950333699092
0.2239950333699092
0.2239950333700394
0.2239950333694945
0.2239950333754192
0.2239950333857092
0.2239950333907325
0.2239950333963436
0.2239950334037454
0.2239950334136986
0.2239950334270605
0.2239950334488719
0.2239950334307166
0.2239950334397184
0.2239950334543996
0.2239950333910934
0.2239950331706461
0.2239950331853596
0.2239950332177986
0.2239950332733023
0.2239950332532763
0.223995033287101
0.2239950333153406
0.2239950333105611
0.2239950333609393
0.2239950333697236
0.2239950333697652
0.223995033369453
)
;
    }
    outlet
    {
        type            calculated;
        value           uniform 0.2239950333699093;
    }
    bottom
    {
        type            calculated;
        value           nonuniform List<scalar> 
40
(
0.2239950333693818
0.2239950333697536
0.2239950333697158
0.2239950333609457
0.223995033253323
0.2239950332870893
0.2239950333153563
0.2239950333105761
0.2239950332733241
0.2239950332177816
0.2239950331854131
0.223995033170716
0.2239950334306949
0.2239950334397345
0.223995033454341
0.2239950333911153
0.2239950334489778
0.2239950334270613
0.2239950334137027
0.2239950334037714
0.2239950333754324
0.2239950333857826
0.2239950333908155
0.223995033396332
0.2239950333694999
0.2239950333700369
0.2239950333699093
0.2239950333699092
0.2239950333699092
0.2239950333699092
0.2239950333699093
0.2239950333699092
0.2239950333831506
0.2239950333771894
0.2239950333712363
0.2239950333699386
0.2239950333744797
0.2239950333752517
0.22399503337472
0.2239950333738304
)
;
    }
    wall
    {
        type            calculated;
        value           nonuniform List<scalar> 
104
(
0.2823386946569419
0.2882038151270817
0.2920138340218872
0.2936899817907864
0.294003254648671
0.2937644983214719
0.2937146536834144
0.293438461991598
0.2132286604154643
0.2233247381955654
0.2241129948502464
0.2239949213775815
0.2239949056335116
0.2239950050023447
0.2239950264275779
0.223995032698115
0.2239950333592777
0.2239950333713871
0.2242752890421074
0.2521489344941328
0.373522085785134
0.3747986818781077
0.3841950725806108
0.38575910467429
0.3858203674201504
0.3858441732116792
0.3858568136175763
0.385744978791032
0.3870223185839156
0.3869242032451281
0.3757061864897451
0.3583511204873824
0.09626657813863647
0.05420459280072848
0.06070277314557228
0.06076301747913242
0.06050150193360738
0.06254959157164633
0.06646254488646784
0.05452094690994022
0.07732621011505419
0.1483845430652822
0.185509216953435
0.2027074406096578
0.09780824362634213
0.05860211661888162
0.07340741864512337
0.07947758866431613
0.06400469771314263
0.04693775456094184
0.04325458329623426
0.04269211160371132
0.04269211160371963
0.04325458329625875
0.04693775456095589
0.06400469771315094
0.07947758866434143
0.07340741864514502
0.0586021166189114
0.09780824362633335
0.2027074406096517
0.1855092169534453
0.1483845430652699
0.07732621011502923
0.05452094690991883
0.06646254488649661
0.06254959157169049
0.06050150193361143
0.06076301747911869
0.06070277314557153
0.05420459280073245
0.09626657813861875
0.3583511204873584
0.3757061864897491
0.3869242032451098
0.3870223185839581
0.3857449787910619
0.385856813617621
0.385844173211619
0.3858203674200774
0.3857591046742798
0.3841950725806353
0.374798681878151
0.3735220857851691
0.2521489344941512
0.224275289042104
0.2239950333713837
0.2239950333592788
0.2239950326981155
0.22399502642757
0.223995005002319
0.2239949056335494
0.2239949213775621
0.2241129948502302
0.2233247381955812
0.2132286604154714
0.2934384619915408
0.2937146536835117
0.2937644983215693
0.2940032546486806
0.2936899817908005
0.292013834022014
0.2882038151272179
0.2823386946568943
)
;
    }
}


// ************************************************************************* //
