/*--------------------------------*- C++ -*----------------------------------*\
  =========                 |
  \\      /  F ield         | OpenFOAM: The Open Source CFD Toolbox
   \\    /   O peration     | Website:  https://openfoam.org
    \\  /    A nd           | Version:  11
     \\/     M anipulation  |
\*---------------------------------------------------------------------------*/
FoamFile
{
    format      ascii;
    class       volVectorField;
    location    "0.077";
    object      U;
}
// * * * * * * * * * * * * * * * * * * * * * * * * * * * * * * * * * * * * * //

dimensions      [0 1 -1 0 0 0 0];

internalField   nonuniform List<vector> 
880
(
(25 -7.768126373978579e-16 0)
(25 -3.718335613218768e-16 0)
(25 -2.964736833048199e-14 0)
(25.00000029592353 -1.292885711904581e-06 0)
(25 1.210301178234613e-15 0)
(25 -1.977557531006328e-15 0)
(25.00000000000002 -3.892213665101287e-13 0)
(24.99998652640435 -5.973067799559164e-05 0)
(25 0 0)
(25.00000000000001 1.967080076710972e-15 0)
(25.00000000003877 -2.736236443680142e-11 0)
(24.9999396529368 -0.000138944714030412 0)
(25 0 0)
(25 -1.182116812852504e-15 0)
(25.00000000135465 -1.252459024580869e-09 0)
(24.9994449576653 -0.001907898291745245 0)
(25 -6.618263914906304e-16 0)
(25 -9.026817327251616e-16 0)
(25.00000000000001 -1.457764215708388e-13 0)
(25.00000000004884 5.68907197137849e-11 0)
(25 -2.629709528519558e-15 0)
(25 5.410183446824896e-15 0)
(25.00000000000003 1.781259728193911e-14 0)
(25 3.172197270475683e-13 0)
(25.0000001291365 -1.036813391925576e-07 0)
(24.99999907046946 8.487792187200886e-07 0)
(25.00051688964896 0.00110583353622425 0)
(24.99908380690242 -0.003435283992597716 0)
(24.94180533018351 0.04739889354676222 0)
(24.76515166402841 0.261835438963032 0)
(24.66121228063736 0.5266093551755697 0)
(24.65455812445342 0.7118325244532301 0)
(24.99999987282311 -1.261541902926485e-07 0)
(24.99999971304907 -2.490329317389831e-07 0)
(24.99999957031463 -3.628850372298135e-07 0)
(24.99999984770106 -1.321235035053441e-07 0)
(24.99999727267532 5.174561743107719e-06 0)
(24.99999770144879 1.095053383597596e-05 0)
(24.99999860954578 1.522462596737623e-05 0)
(24.99999643390526 6.46511005486616e-06 0)
(24.99806088267514 0.004884771627744535 0)
(24.9980605915856 0.00672444766156988 0)
(24.99837680261068 0.008500823162767823 0)
(24.99720298305927 0.006577193838114189 0)
(24.66523457122138 0.8432948690119653 0)
(24.67524538804182 0.9964670171677814 0)
(24.73804358051353 1.089520739704116 0)
(24.62478508271939 1.161290036726059 0)
(24.90901479420063 1.191551883977089 0)
(25.18348310843076 1.006139713397078 0)
(25.33037731522255 0.6452880224991229 0)
(25.28785250772925 0.3423434212584397 0)
(24.99693761343471 0.0147814816482296 0)
(24.993479849158 0.02429736676708564 0)
(24.99491907591999 0.02734262926773275 0)
(25.00043887810347 0.01937382928914951 0)
(24.99999324733112 3.614824850349234e-05 0)
(24.99999085708 6.534209755163959e-05 0)
(24.99998780397484 8.097781198451875e-05 0)
(25.00000347761656 5.773320892909292e-05 0)
(24.99999903611479 -8.205701769511253e-07 0)
(24.99999834327484 -1.224594238862383e-06 0)
(24.9999981790234 -1.287083945674436e-06 0)
(24.99999868201856 -8.171819029003714e-07 0)
(24.99999951985102 -2.445939141962024e-07 0)
(24.99999993310681 -3.03421297848684e-08 0)
(24.99999999737288 -1.090602459134492e-09 0)
(24.99999999998657 -2.168127134811662e-11 0)
(25.00000760976353 1.943883502826687e-05 0)
(25.00000171905804 2.666744671059898e-06 0)
(25.00000008870268 1.114671439399833e-07 0)
(25.00000000078896 2.558318629685519e-10 0)
(25.00301577242849 0.006778922412296537 0)
(25.00092166798467 0.0011429804461451 0)
(25.00007100601967 6.915814068723744e-05 0)
(25.00000112363481 9.518647347079522e-07 0)
(25.16622069785199 0.1522225230396066 0)
(25.05721701303614 0.04406095614621924 0)
(25.00846030329881 0.005737026395074306 0)
(25.00035269010414 0.0002262579759225721 0)
(25.00000223115707 1.556300157577968e-06 0)
(24.99999999285071 -2.619716410472441e-08 0)
(24.99999999984223 -7.322430513666193e-10 0)
(25 -6.312392218540116e-13 0)
(25.00000044147553 2.564077755910905e-07 0)
(25.00000000369264 -3.05228491166505e-08 0)
(25.00000000071644 -2.432605328931282e-09 0)
(25.00000000002348 -1.277940207635656e-10 0)
(24.99994095712369 -0.0002423838778784513 0)
(24.99999575474044 -2.123860797293916e-06 0)
(24.99999981311183 3.636938887572596e-07 0)
(24.99999997506898 3.400993654207127e-09 0)
(24.94608403355877 0.107914905659427 0)
(25.00054413457456 -0.0002249965346322257 0)
(25.00003379954519 -5.622519345790637e-05 0)
(25.00000011318703 -3.704310994356582e-07 0)
(25.00000002734292 -1.040359245485484e-06 0)
(24.99999107255693 -3.265278545353049e-05 0)
(24.99772119169911 -0.000167613374813024 0)
(23.78268942191115 0.5171409350227728 0)
(24.9999999627979 -2.029207167773085e-07 0)
(24.99997104018238 7.527510834572939e-06 0)
(24.98447206486577 0.009207699658949919 0)
(22.63870157013693 1.540554912231676 0)
(24.99999846195524 -1.586505986281975e-06 0)
(24.99996356905249 6.246149645835889e-05 0)
(24.9753758135062 0.02844165703558404 0)
(22.21001300551742 2.791054762089765 0)
(24.99999708091364 -2.753279025489775e-06 0)
(24.99996296401112 0.0001109805774272047 0)
(24.97310656090674 0.04672643473459484 0)
(22.3016205462698 3.618064707001494 0)
(22.28780307332864 4.080327433024665 0)
(24.9671192880868 0.05791297111581293 0)
(24.99994627903819 0.0001402515901297884 0)
(24.99999638050371 -3.628838283953574e-06 0)
(22.30288350968227 4.319441004473262 0)
(24.96499896788447 0.07186018347168938 0)
(24.99994630680457 0.0001980174470975741 0)
(24.9999944589573 -5.04232428463655e-06 0)
(22.09532172115767 4.544356165992245 0)
(24.95235121638257 0.08143746384258051 0)
(24.99990180225767 0.0002273521488420748 0)
(24.99999398472337 -6.168077441062557e-06 0)
(21.96473119346935 4.775017543125855 0)
(24.94628751999873 0.1075214352612017 0)
(24.99989722077936 0.0003739362457692336 0)
(24.99998912404939 -9.791967353622979e-06 0)
(24.99998927048408 -1.049278819141536e-05 0)
(24.99988663896295 0.0003555846839289026 0)
(24.93514456146038 0.1183376468642404 0)
(21.67331271776549 5.208680553495785 0)
(24.99998617535852 -1.346168644173597e-05 0)
(24.99982991477091 0.0004782247086950667 0)
(24.92164056242599 0.148349033152103 0)
(21.71174617484225 5.476978723140037 0)
(24.99998044441399 -1.910469306546344e-05 0)
(24.99981578115839 0.0006343833876942026 0)
(24.92047383964474 0.1647199746807014 0)
(22.04243800464278 5.236357088340777 0)
(24.99999567863832 -5.720687587983255e-06 0)
(24.99959236243645 0.0003903076054939809 0)
(24.92063343395295 0.1148760408978631 0)
(23.32993938980436 3.983844242013475 0)
(24.99993653349638 -3.890883658378569e-05 0)
(25.0013139781552 0.001633322938681323 0)
(25.08142640027597 0.1463264878697718 0)
(25.64669787682833 2.331982321426858 0)
(24.99999870597766 -2.056577588755093e-05 0)
(25.00099901586067 -0.0007655236476443778 0)
(25.08330352702594 -0.000455714176257951 0)
(25.97074939746878 -0.1923565299353686 0)
(24.99999222354792 -1.943737757184394e-05 0)
(24.99884552415876 -0.001789318738261554 0)
(24.93982250753981 -0.1110879902920779 0)
(24.05178494581554 -1.89313748224118 0)
(24.99999386116165 -8.767083711095418e-06 0)
(24.99678113563828 -0.002760064681087368 0)
(24.75509375300981 -0.1447374337397739 0)
(21.56892542715661 -1.82854296292048 0)
(20.4783207956945 -1.196240506102061 0)
(24.73880529821614 -0.1371382693957099 0)
(24.99823985384901 -0.001843255467135979 0)
(24.99999749011054 -4.968881389371239e-06 0)
(20.29568238858977 -0.3779368703895133 0)
(24.73284879834394 -0.08867897559412516 0)
(24.99818771085003 -0.00128398766350343 0)
(24.99999718138537 -3.585864361441454e-06 0)
(20.70389767913153 -0.0137621533836672 0)
(24.81661830882769 -0.06872774853739193 0)
(24.99920480444235 -0.0007525951825431586 0)
(24.99999913063777 -1.763420220425796e-06 0)
(20.44044892302301 0.2317645082612443 0)
(24.79569779465556 -0.06515113951852314 0)
(24.99902020237339 -0.0007998919062074157 0)
(24.99999875692925 -1.930872384128665e-06 0)
(21.97765083431612 0.5028782463308854 0)
(24.90658528385616 -0.02624049369364611 0)
(24.99966706975168 -0.0002266964403877583 0)
(24.99999956306953 -5.414872064469649e-07 0)
(23.47876670798748 0.477295458097921 0)
(24.97265023304966 -0.009584856903999484 0)
(24.99994050157514 -4.570884186666377e-05 0)
(24.99999993442318 -8.44863019002678e-08 0)
(24.43885138421572 0.1598012578403187 0)
(24.99495638276172 -0.003739033209121854 0)
(24.99999284285746 -1.165855234219136e-05 0)
(24.99999999502462 -1.942822956756312e-08 0)
(24.91654274599228 -0.193878285203488 0)
(25.0008097799347 -0.003505369159046672 0)
(25.0000053338359 -1.255425284658942e-05 0)
(24.99999999982449 -2.534781248132879e-08 0)
(24.26842289769171 -0.02500654780776806 0)
(24.97703074446247 -0.0001819101011264616 0)
(24.99978790388114 -4.12900670187166e-07 0)
(24.99999917824657 -3.761522334195577e-10 0)
(24.2776794217047 -0.07401264023883596 0)
(24.97720171945861 -0.000519187708731614 0)
(24.9997887502652 -1.073220932529594e-06 0)
(24.99999917828967 2.232416228395315e-11 0)
(24.26644182893871 -0.1458519562699704 0)
(24.97732523917071 -0.001103084730104232 0)
(24.99978914859268 -2.249421740782341e-06 0)
(24.9999991743583 7.753181867645094e-10 0)
(24.23661569793627 -0.1472416310026729 0)
(24.97743814864318 -0.001213366614574216 0)
(24.99979125913286 -3.215215111765569e-06 0)
(24.99999918139078 -4.698480888519662e-09 0)
(24.91654274605945 0.1938782851770906 0)
(25.00080977998638 0.003505369179824335 0)
(25.00000533391171 1.255427262364256e-05 0)
(24.99999999974747 2.539992729787808e-08 0)
(24.43885138428763 -0.1598012577951455 0)
(24.99495638282685 0.003739033200461419 0)
(24.99999284300959 1.165858311992026e-05 0)
(24.99999999500592 1.942902252512509e-08 0)
(23.47876670796368 -0.4772954579862214 0)
(24.97265023301813 0.009584856978265832 0)
(24.99994050156579 4.570889910223294e-05 0)
(24.99999993441604 8.448123587825906e-08 0)
(21.97765083421849 -0.5028782463999683 0)
(24.9065852837118 0.02624049367694878 0)
(24.99966706973271 0.0002266964253004229 0)
(24.99999956310721 5.414817543778445e-07 0)
(24.99999748998229 4.968802045056343e-06 0)
(24.99823985359016 0.001843255596370151 0)
(24.73880529813168 0.13713826930451 0)
(20.478320795637 1.196240506059102 0)
(24.99999718129857 3.585977981559419e-06 0)
(24.99818771085305 0.001283987661911359 0)
(24.73284879825643 0.08867897559169911 0)
(20.29568238850204 0.3779368703082114 0)
(24.99999913072691 1.763433782413629e-06 0)
(24.99920480435157 0.000752595143626901 0)
(24.81661830880818 0.06872774856102985 0)
(20.70389767902185 0.01376215333089167 0)
(24.99999875692321 1.930845858305059e-06 0)
(24.99902020233187 0.0007998919317773332 0)
(24.79569779455523 0.06515113944723742 0)
(20.44044892306657 -0.2317645081244586 0)
(21.56892542726447 1.828542962883979 0)
(24.75509375314533 0.1447374337319596 0)
(24.99678113579355 0.00276006446909338 0)
(24.9999938612537 8.767019221449134e-06 0)
(24.05178494589135 1.893137482376284 0)
(24.93982250763247 0.1110879902924185 0)
(24.99884552430113 0.001789318776047719 0)
(24.99999222369078 1.943728139175491e-05 0)
(25.97074939747245 0.1923565299313017 0)
(25.08330352714452 0.0004557142130852265 0)
(25.00099901587578 0.0007655236433382173 0)
(24.99999870607888 2.05660272109572e-05 0)
(25.6466978768017 -2.331982321434877 0)
(25.08142640032634 -0.1463264878766418 0)
(25.00131397819331 -0.00163332287152231 0)
(24.99993653331719 3.890879673602406e-05 0)
(24.99998927054952 1.049278395353814e-05 0)
(24.99988663884535 -0.0003555847141010358 0)
(24.93514456140637 -0.1183376468614087 0)
(21.67331271766009 -5.208680553471728 0)
(24.99998617534114 1.346167286344497e-05 0)
(24.99982991470105 -0.00047822471581604 0)
(24.92164056238473 -0.1483490331235657 0)
(21.71174617484258 -5.476978723129914 0)
(24.99998044430634 1.910467548695089e-05 0)
(24.99981578115462 -0.0006343833593483648 0)
(24.92047383973254 -0.1647199746515688 0)
(22.04243800464896 -5.236357088347724 0)
(24.99999567845947 5.720673813820177e-06 0)
(24.99959236243828 -0.0003903075605740715 0)
(24.92063343400798 -0.114876040878299 0)
(23.32993938981732 -3.983844242014564 0)
(21.96473119332498 -4.775017543142673 0)
(24.9462875201025 -0.1075214351996144 0)
(24.99989722061795 -0.0003739362863931797 0)
(24.99998912405346 9.791977372066358e-06 0)
(22.09532172105248 -4.544356165953154 0)
(24.95235121611104 -0.08143746387102754 0)
(24.99990180225736 -0.0002273521549260597 0)
(24.99999398468411 6.168077231342031e-06 0)
(22.30288350966696 -4.319441004457246 0)
(24.96499896776293 -0.07186018351373251 0)
(24.99994630660158 -0.000198017475758184 0)
(24.99999445899935 5.042322426810546e-06 0)
(22.28780307312467 -4.0803274331692 0)
(24.96711928832016 -0.05791297105998384 0)
(24.99994627909808 -0.0001402515971283225 0)
(24.99999638053643 3.628838203455667e-06 0)
(25.00000002725716 1.040363552490009e-06 0)
(24.99999107245063 3.265279390233762e-05 0)
(24.99772119173631 0.0001676133829822027 0)
(23.78268942200561 -0.5171409350244947 0)
(24.99999996287872 2.029165051250536e-07 0)
(24.9999710403088 -7.527510191149853e-06 0)
(24.98447206475024 -0.009207699696081074 0)
(22.6387015702367 -1.540554912201473 0)
(24.99999846201294 1.586505368283582e-06 0)
(24.9999635690547 -6.246150063896281e-05 0)
(24.97537581352825 -0.02844165700885633 0)
(22.21001300533161 -2.791054762184505 0)
(24.99999708098069 2.753278850477506e-06 0)
(24.99996296395549 -0.0001109805925443512 0)
(24.97310656088114 -0.04672643476406157 0)
(22.30162054647021 -3.618064706843817 0)
(25.00000011319778 3.704292313948448e-07 0)
(24.99999997502909 -3.39779660217562e-09 0)
(25.00000000002597 1.248215343819975e-10 0)
(25 1.638261536803359e-12 0)
(25.000033799662 5.622519500770233e-05 0)
(24.99999981312131 -3.636985301740394e-07 0)
(25.00000000062117 2.444461189248e-09 0)
(24.99999999986592 7.314389271356199e-10 0)
(25.00054413454021 0.0002249965219547668 0)
(24.99999575470277 2.123875290060839e-06 0)
(25.00000000375545 3.051786791020425e-08 0)
(24.9999999928875 2.618536432221351e-08 0)
(24.94608403355728 -0.1079149056564277 0)
(24.9999409571177 0.0002423838884708096 0)
(25.00000044146971 -2.564118774703412e-07 0)
(25.00000223115332 -1.556304953697259e-06 0)
(24.99999999999902 2.114504526423339e-11 0)
(25.00000000078986 -2.566288517346089e-10 0)
(25.00000112359618 -9.518928557673688e-07 0)
(25.00035269006047 -0.0002262579688339866 0)
(24.99999999739369 1.090011416634809e-09 0)
(25.00000008873121 -1.114639677163985e-07 0)
(25.00007100580926 -6.915816401913572e-05 0)
(25.00846030330452 -0.0057370263500189 0)
(24.99999993306632 3.033838166661131e-08 0)
(25.00000171905772 -2.666744376975012e-06 0)
(25.00092166810329 -0.001142980371004097 0)
(25.05721701302433 -0.04406095617030804 0)
(24.99999951982202 2.446039087328658e-07 0)
(25.00000760978986 -1.943886340422916e-05 0)
(25.00301577230062 -0.006778922472180366 0)
(25.16622069791295 -0.1522225229671755 0)
(24.99999903624659 8.205451453928168e-07 0)
(24.99999324743653 -3.61482611941287e-05 0)
(24.99693761346622 -0.01478148176794677 0)
(24.90901479419929 -1.191551883992414 0)
(24.99999834337798 1.224585150342536e-06 0)
(24.99999085707322 -6.534205637170265e-05 0)
(24.99347984919082 -0.02429736674839711 0)
(25.18348310850507 -1.006139713416893 0)
(24.99999817906597 1.287099748980607e-06 0)
(24.9999878038424 -8.097778936177258e-05 0)
(24.99491907595349 -0.02734262925784858 0)
(25.3303773152601 -0.6452880224818535 0)
(24.99999868204967 8.171945688919715e-07 0)
(25.00000347752483 -5.773325089747651e-05 0)
(25.00043887812225 -0.01937382922744855 0)
(25.28785250779486 -0.3423434212913544 0)
(24.62478508267865 -1.161290036670569 0)
(24.99720298282892 -0.006577193953962 0)
(24.99999643397672 -6.465128530888577e-06 0)
(24.99999984776217 1.320922745144577e-07 0)
(24.73804358054434 -1.08952073972634 0)
(24.99837680234358 -0.008500823158631293 0)
(24.99999860957583 -1.522462427659465e-05 0)
(24.99999957028229 3.629161369316544e-07 0)
(24.67524538791142 -0.9964670172232448 0)
(24.99806059144947 -0.006724447360753574 0)
(24.99999770144737 -1.095058734783661e-05 0)
(24.99999971308226 2.490343846795424e-07 0)
(24.66523457125415 -0.8432948690081244 0)
(24.99806088321461 -0.004884771252790364 0)
(24.99999727268452 -5.174517312338923e-06 0)
(24.99999987279082 1.261460576444127e-07 0)
(24.65455812441979 -0.7118325244525293 0)
(24.99908380685891 0.003435283354704867 0)
(25 -3.682681872025577e-13 0)
(25.00000000004846 -5.660101030866252e-11 0)
(24.66121228064225 -0.5266093551775568 0)
(25.00051688973759 -0.001105833218072058 0)
(25 4.988728462141033e-17 0)
(25.00000000000001 1.520348070645803e-13 0)
(24.76515166396661 -0.2618354389202571 0)
(24.99999907051303 -8.487784070593393e-07 0)
(25 -8.170172330057378e-17 0)
(25.00000000000001 2.492280691249347e-15 0)
(24.94180533018032 -0.0473988935506339 0)
(25.000000129134 1.03673938399549e-07 0)
(25 -1.950159456204502e-15 0)
(25.00000000000002 -6.095195511919881e-15 0)
(25 1.420908939734042e-15 0)
(25 2.15896581034495e-15 0)
(25 3.522566020200908e-14 0)
(25.0000002961809 1.29479046103515e-06 0)
(24.99999999999999 -2.843418720158383e-19 0)
(25 2.073262491258335e-15 0)
(25 6.352797286178203e-13 0)
(24.99998652638159 5.972920985786582e-05 0)
(25 -1.366459512028481e-15 0)
(25 -2.064786581096857e-15 0)
(25.00000000003493 2.647227298496756e-11 0)
(24.99993965316331 0.0001389442139891476 0)
(25 -1.731913744880295e-15 0)
(25 -6.644549428615895e-16 0)
(25.00000000138414 1.249557357256311e-09 0)
(24.9994449578682 0.001907898240863446 0)
(25.00000157824411 1.336905836493102e-09 0)
(25.00000143873735 4.322121955758924e-05 0)
(25.00007868948433 0.0002091392412118452 0)
(24.99616191212058 -0.0001500761402276345 0)
(25.00000143829173 -4.322263603610622e-05 0)
(25.00004218309401 -3.822616721500491e-10 0)
(25.00041182559448 -0.001445693904337126 0)
(24.9221867610924 -0.0572624750187737 0)
(25.00007869301362 -0.0002091334733562759 0)
(25.00041182753441 0.001445695084433486 0)
(24.9731585935174 5.796555800934642e-09 0)
(24.43823132424767 -0.1322269569519607 0)
(24.99616191168976 0.0001500761823278174 0)
(24.92218676177739 0.05726247001060459 0)
(24.43823132657718 0.1322269611699536 0)
(22.15087481938508 -1.647106950002539e-09 0)
(19.78824031075406 2.440581897683181 0)
(20.85370982369887 3.069056963379921 0)
(23.29528424929516 2.096345839019961 0)
(24.37122450896807 0.895362011096006 0)
(20.32045396547138 4.538586854674941 0)
(20.58943271540308 4.706579230505938 0)
(21.73066703774747 4.367374897203829 0)
(22.87307966181308 3.389527919080665 0)
(21.07592958199085 5.553214093463612 0)
(21.60465999063328 5.057834707849497 0)
(22.27178572723285 5.082158569838683 0)
(22.97243548386066 4.669570994684468 0)
(21.51206657009563 5.496073533466762 0)
(22.54862073656912 5.441159606566736 0)
(22.91739621739523 5.376291987388371 0)
(23.27186058372769 5.132027763278205 0)
(23.46493105105575 5.362961858442286 0)
(23.58244816499525 5.551923050073487 0)
(23.67187591940778 5.619693250311371 0)
(23.47153615836906 5.84688830445728 0)
(23.32474196310274 5.601184442184981 0)
(23.56639660542439 5.778713578356808 0)
(23.69506172874485 5.798984813575506 0)
(23.77549589840145 6.269882788784282 0)
(23.13696390515229 5.69407751661114 0)
(23.44060374280529 5.809464520066906 0)
(23.54038803122282 5.812293214535512 0)
(25.09259149067482 6.535243552582369 0)
(21.80993188626536 5.536784951552237 0)
(22.08440007091627 5.634057232853239 0)
(22.19388320873913 5.657064766222548 0)
(26.74228307441599 7.623853400618588 0)
(25.46622820096682 4.253939590186372 0)
(27.1706664457024 1.556314062131358 0)
(26.67616422514615 0.08868260450804795 0)
(25.94736241428189 -0.01792295690646629 0)
(26.89894859613061 3.539388727683089 0)
(28.19272206710052 0.9242005165606713 0)
(27.12024595425934 -0.2303422396502188 0)
(26.25822482971874 -0.2033024704277795 0)
(29.66386497459366 2.775064598219756 0)
(28.93419103292591 0.4665760042466871 0)
(27.29357835323774 -0.3362662771279299 0)
(26.39612869489066 -0.2727075564839239 0)
(21.61126065691485 1.688128225544667 0)
(21.55910926177803 1.142159858512824 0)
(22.31383906192407 0.4716308514150913 0)
(23.44146729386192 -0.2279936087185954 0)
(25.47178556009298 0.0334208495123464 0)
(25.17099017413797 0.04341357151067159 0)
(25.0391682094512 0.01362479694107039 0)
(25.00353595155838 0.00123974457023552 0)
(25.727257343037 -0.06383374369003568 0)
(25.32107389537701 0.01760442311592883 0)
(25.0846207013454 0.01489831612136225 0)
(25.00896846015213 0.002029873737324131 0)
(25.92174320709113 -0.1276280987629091 0)
(25.47962486578114 -0.06860131552567754 0)
(25.1477477104463 -0.02663564428182722 0)
(25.01801635918465 -0.003984705668403447 0)
(24.3748661504142 -0.3289272207611048 0)
(24.69277134603479 -0.1955645813047961 0)
(24.9077709518906 -0.07100652834272703 0)
(24.98678049484539 -0.01061424690133434 0)
(25.0000819995367 2.411320067457063e-05 0)
(24.99999974213346 6.095815781582282e-08 0)
(25.00004182780686 6.085131739145549e-06 0)
(23.61716766421972 1.842159328606988 0)
(25.00024152645535 5.491994276559486e-05 0)
(25.00000085545396 -1.398802036560454e-07 0)
(25.00000829920386 -2.539080442852724e-06 0)
(21.90477023168778 2.330798612391511 0)
(25.00055762096899 -0.0001507083294116174 0)
(25.00000324876585 -2.102813350490703e-06 0)
(25.00000015828688 -1.464876731262619e-06 0)
(20.20238655801526 1.714029368610686 0)
(24.99964760727258 -0.0004486223193213824 0)
(24.99999333265079 -2.7541591179474e-06 0)
(25.00000146850835 -1.118050769010334e-06 0)
(16.80607298192518 0.5092162630019146 0)
(16.09051504014154 7.185868110378377 0)
(16.78665027668234 8.655815996516592 0)
(17.10933579964614 9.627845967433668 0)
(17.35252646932882 10.58517096573256 0)
(13.30426346088949 7.430662686143932 0)
(15.35845705300646 9.051741275886133 0)
(16.50901619817398 10.14638143045548 0)
(17.02925803780113 10.91148147670686 0)
(11.16940217368261 6.690742093075317 0)
(13.89959038775794 8.855166606885176 0)
(15.84462054025415 10.15616228194069 0)
(16.80774433656587 10.83066194272651 0)
(10.02399824478856 3.790577874245316 0)
(12.95697377044626 6.82860458341817 0)
(13.58358940557286 9.195941343260655 0)
(14.55688700116364 10.29689966781211 0)
(17.45839222587949 11.13398096560191 0)
(17.55159301448482 11.29153699010403 0)
(17.47513807266356 11.35316439350072 0)
(17.44717412467314 11.37716923792096 0)
(17.23110909909924 11.40789096281943 0)
(17.37092569978303 11.55648005644007 0)
(17.38504351185726 11.58356988517948 0)
(17.41065758680246 11.55334413019626 0)
(17.16267028445414 11.19828390629501 0)
(17.28550746601443 11.35154329253754 0)
(17.29355814698932 11.39294236893835 0)
(17.30283770565781 11.38738800685597 0)
(15.33059720189578 10.63415826155587 0)
(15.70029372368846 10.72271680739897 0)
(15.79107616106263 10.72996137502987 0)
(15.73058840033146 10.69641276263128 0)
(17.3075263951078 11.50475165803094 0)
(17.5712512471648 11.43690669233639 0)
(18.49218149483414 10.77913717197548 0)
(20.6266090859769 9.076236943557156 0)
(17.36288688067575 11.60564010730864 0)
(17.63922298690065 11.49118289781214 0)
(18.73052694602529 11.06498281591377 0)
(21.25464237449032 10.94335677391715 0)
(17.28078211015205 11.41428539608979 0)
(17.45435474815926 11.388396387528 0)
(18.98288696134123 11.40397900872312 0)
(25.77925763436085 15.85196204350701 0)
(15.8995975106061 10.79558187988291 0)
(16.270211386377 10.71412477787648 0)
(18.79097417565659 11.60249405358038 0)
(34.93626348562285 20.6108347720795 0)
(25.19232398208672 4.405691489561677 0)
(25.49943895377395 -3.761645190447312 0)
(6.900883987997808 -5.32846901606323 0)
(3.014831660719864 -1.070382750725308 0)
(25.9914997029382 4.499584847586413 0)
(20.62643678008148 -3.572945993080043 0)
(1.846474814529354 -6.860645274291834 0)
(-1.049991975915847 -1.51792841358624 0)
(25.92133980850893 2.88083021362648 0)
(12.85173784561236 -6.299078214884545 0)
(0.2629774597343968 -4.723942342105751 0)
(0.08835295122751415 -1.384848249612307 0)
(16.47318655940045 -6.701694115942838 0)
(4.359280323559644 -2.725322357140805 0)
(-1.756249262427892 -2.765949348500605 0)
(-0.6083706063449702 -1.328122724551118 0)
(1.87665428553495 -0.1386599249230468 0)
(1.992135903705189 0.5157442304309706 0)
(2.579522699346443 0.8818355260716917 0)
(1.546534686245037 2.099541815557967 0)
(-2.149873591786472 0.2647314226606894 0)
(-1.223479621939119 1.91535785198358 0)
(0.05886670777743477 2.928853353318732 0)
(0.5339612012539092 3.921364316890797 0)
(0.05129391536293836 0.2420339844886107 0)
(0.7031624302241619 1.930957957870229 0)
(1.455249611992833 3.473867079878334 0)
(1.023071620751729 5.518373112133156 0)
(-0.5964053328495998 0.1867400018870663 0)
(-0.1809449118333707 1.827518753874223 0)
(0.7683878773085646 3.616665527459486 0)
(-0.2304700849861981 6.085676062470231 0)
(16.49581405139775 -6.521741160035208 0)
(21.38595875048254 -4.73546274470743 0)
(23.54498991488278 -4.370319055789051 0)
(24.3407829385737 -3.434176079938711 0)
(11.01430766460972 -4.995102800382041 0)
(17.79145112570166 -5.090956480632769 0)
(21.39399726579306 -5.748077510995868 0)
(23.71779357636064 -3.771815473161331 0)
(2.593425263684218 -1.787318800371742 0)
(9.949647347084836 -3.393514774916236 0)
(16.33647503710844 -5.263573993356995 0)
(24.50726620125949 -3.01449948430057 0)
(0.2306509539251089 1.423495132560411 0)
(4.453211379752757 2.252660690041606 0)
(12.94764688919215 1.148734735485171 0)
(28.74176549955693 -1.283574676330478 0)
(25.57432140663327 -7.347174016255996 0)
(27.34176725842036 -13.26584589728543 0)
(28.36856057778131 -18.28113356828762 0)
(17.12320052445999 -14.57466285404396 0)
(26.03252041099618 -8.638144174921987 0)
(26.68447791883506 -16.39528432400396 0)
(29.40584378528085 -23.22254414700813 0)
(18.82599498948023 -14.52753919820045 0)
(26.51149174753665 -10.70381317165138 0)
(26.2755376977315 -14.84855087527573 0)
(20.86494844674282 -23.88656217121049 0)
(12.39232307793271 -11.81744876725839 0)
(17.3215488249497 -12.55750752128098 0)
(10.03600772860785 -15.48162012183036 0)
(3.863909066705718 -12.28737024783792 0)
(1.301969035120631 -6.328513267904749 0)
(0.905594296853388 -4.90573792434297 0)
(-0.3629418090735884 -4.043110766461458 0)
(-1.75806720963543 -0.9272235652567602 0)
(-3.534845694752153 -0.7162344328658431 0)
(5.912592286277414 -6.339354574884617 0)
(1.14706493087775 -6.282224282843865 0)
(-2.587610195966246 -1.705084479959627 0)
(-3.809958468282676 -1.034971891493911 0)
(6.968298683824688 -10.2132113703964 0)
(1.545188505691936 -10.56404613730988 0)
(0.6988089028602487 -6.111383287915128 0)
(1.31189197078846 -2.41223415009414 0)
(10.17219931667442 -11.32428464185307 0)
(7.477724504809725 -10.1686191995216 0)
(6.856276713105611 -6.662804564181125 0)
(7.634017891731851 -2.574916333954339 0)
(-3.534845694751677 0.7162344328649184 0)
(-3.8099584682826 1.034971891478695 0)
(1.311891970796681 2.412234150074331 0)
(7.634017891725789 2.574916333905573 0)
(-1.758067209629878 0.9272235652582965 0)
(-2.587610195961149 1.70508447994613 0)
(0.6988089028773589 6.111383287862463 0)
(6.85627671312164 6.662804564116233 0)
(-0.3629418090719843 4.043110766472167 0)
(1.147064930888263 6.28222428285734 0)
(1.545188505730484 10.56404613732736 0)
(7.477724504832214 10.16861919950728 0)
(0.9055942968550913 4.905737924345877 0)
(5.912592286260669 6.33935457486604 0)
(6.968298683865683 10.21321137041694 0)
(10.17219931669348 11.32428464187036 0)
(17.12320052450048 14.57466285405385 0)
(28.36856057787533 18.28113356823323 0)
(27.34176725851271 13.26584589730326 0)
(25.57432140673881 7.347174016273004 0)
(18.82599498947167 14.52753919821709 0)
(29.40584378523581 23.22254414701577 0)
(26.68447791887469 16.39528432396811 0)
(26.03252041106714 8.638144174909439 0)
(12.39232307794464 11.81744876720865 0)
(20.86494844673593 23.88656217117724 0)
(26.27553769774982 14.84855087528738 0)
(26.51149174758334 10.70381317164381 0)
(1.301969035120555 6.328513267894206 0)
(3.863909066702777 12.28737024784676 0)
(10.03600772861792 15.4816201218291 0)
(17.32154882496514 12.55750752128922 0)
(28.74176549959636 1.283574676322986 0)
(12.94764688920224 -1.14873473547202 0)
(4.453211379762713 -2.252660690045394 0)
(0.2306509538775078 -1.423495132647995 0)
(24.50726620131343 3.014499484286385 0)
(16.33647503715534 5.263573993344751 0)
(9.949647347074713 3.393514774915769 0)
(2.593425263607096 1.787318800269176 0)
(23.71779357642447 3.771815473142953 0)
(21.39399726586825 5.748077511025803 0)
(17.79145112567626 5.090956480672807 0)
(11.01430766449347 4.995102800204392 0)
(24.3407829386383 3.434176079915415 0)
(23.544989914948 4.370319055831375 0)
(21.38595875045992 4.735462744781368 0)
(16.49581405135474 6.521741159934362 0)
(1.546534686265748 -2.099541815445854 0)
(2.579522699247719 -0.8818355260231692 0)
(1.992135903657414 -0.5157442305081836 0)
(1.876654285550867 0.1386599248513984 0)
(0.5339612013330994 -3.921364316948129 0)
(0.05886670770857681 -2.92885335326582 0)
(-1.223479621964107 -1.915357851988245 0)
(-2.149873591726151 -0.2647314226921269 0)
(1.023071620804026 -5.518373112191804 0)
(1.455249611965354 -3.473867079856617 0)
(0.7031624302033803 -1.930957957866793 0)
(0.05129391538004505 -0.24203398451226 0)
(-0.230470084978947 -6.085676062495522 0)
(0.7683878773024524 -3.616665527455164 0)
(-0.1809449118358303 -1.827518753870482 0)
(-0.5964053328373877 -0.1867400019092755 0)
(3.014831660788451 1.070382750656061 0)
(6.900883987987706 5.328469016167975 0)
(25.4994389536843 3.761645190477133 0)
(25.19232398208582 -4.405691489561613 0)
(-1.049991975655503 1.517928413513825 0)
(1.846474814545255 6.860645274308648 0)
(20.62643678005648 3.572945993024634 0)
(25.99149970300992 -4.499584847596762 0)
(0.08835295132324647 1.384848249543895 0)
(0.2629774597646618 4.72394234205743 0)
(12.85173784557959 6.299078214895651 0)
(25.92133980856537 -2.880830213691477 0)
(-0.6083706062879756 1.328122724494276 0)
(-1.756249262388369 2.765949348464828 0)
(4.359280323560558 2.725322357171144 0)
(16.47318655947666 6.701694115930902 0)
(20.62660908599645 -9.07623694353396 0)