/*--------------------------------*- C++ -*----------------------------------*\
  =========                 |
  \\      /  F ield         | OpenFOAM: The Open Source CFD Toolbox
   \\    /   O peration     | Website:  https://openfoam.org
    \\  /    A nd           | Version:  11
     \\/     M anipulation  |
\*---------------------------------------------------------------------------*/
FoamFile
{
    format      ascii;
    class       volScalarField;
    location    "10.6";
    object      p;
}
// * * * * * * * * * * * * * * * * * * * * * * * * * * * * * * * * * * * * * //

dimensions      [0 2 -2 0 0 0 0];

internalField   nonuniform List<scalar> 
5472
(
104.63728
102.6871
100.70772
98.777222
96.885451
95.019857
93.209707
91.474043
89.821648
88.245047
86.767548
85.436978
84.210785
83.112845
82.188456
81.413865
80.763356
80.306348
79.909045
105.07017
103.28366
101.46091
99.640812
97.836598
96.072982
94.336924
92.652033
91.039264
89.485748
88.025381
86.70276
85.485543
84.387991
83.444453
82.624253
81.943097
81.445433
81.059282
105.46524
103.79184
102.15867
100.48498
98.766277
97.083336
95.422137
93.79982
92.22519
90.701049
89.269234
87.951953
86.73536
85.635961
84.674537
83.831635
83.158693
82.631408
82.24531
105.81768
104.30067
102.77479
101.21966
99.632278
98.054116
96.474057
94.911565
93.366029
91.881414
90.474718
89.163505
87.953722
86.853916
85.877372
85.038417
84.357771
83.812889
83.439711
106.12439
104.74219
103.32611
101.87996
100.41732
98.93852
97.457652
95.955029
94.458449
93.015985
91.631691
90.345933
89.145752
88.04833
87.072271
86.227757
85.523814
84.991004
84.608191
106.36314
105.13302
103.81613
102.47457
101.14025
99.771409
98.370557
96.929956
95.496304
94.088009
92.74323
91.483767
90.291988
89.217227
88.247931
87.413086
86.714049
86.161097
85.758586
106.51235
105.39052
104.23785
103.04526
101.79527
100.51908
99.208055
97.840174
96.474814
95.116567
93.813619
92.572969
91.41079
90.346885
89.379869
88.545442
87.836813
87.292426
86.897819
106.67814
105.64868
104.57157
103.48269
102.36193
101.18717
99.966181
98.689392
97.387899
96.087172
94.822192
93.614783
92.501322
91.438672
90.49133
89.665132
88.961927
88.413508
88.023192
106.77512
105.8635
104.90356
103.913
102.86192
101.77888
100.65239
99.46701
98.236136
96.991362
95.781475
94.612296
93.522952
92.484274
91.560497
90.742217
90.047731
89.498431
89.115668
106.85102
106.02782
105.16063
104.24568
103.31256
102.33984
101.27085
100.16267
99.005486
97.838113
96.680261
95.558231
94.49934
93.490619
92.580965
91.77777
91.105059
90.553788
90.180508
106.89438
106.15607
105.37191
104.55934
103.70445
102.80463
101.83592
100.80804
99.719789
98.620985
97.513159
96.457268
95.433555
94.456506
93.558263
92.76557
92.110076
91.57894
91.203141
106.90564
106.24466
105.54928
104.81793
104.04987
103.22955
102.33857
101.3815
100.38069
99.348082
98.29863
97.286983
96.295623
95.374879
94.501831
93.738875
93.085862
92.567664
92.197342
106.90448
106.31577
105.69731
105.04457
104.34485
103.59387
102.78225
101.89954
100.97198
100.00223
99.025772
98.059927
97.111726
96.21573
95.363834
94.633311
93.997985
93.506608
93.13462
106.88156
106.37364
105.83086
105.2376
104.59502
103.90721
103.1634
102.35336
101.49819
100.59953
99.696342
98.784909
97.887722
97.027491
96.218263
95.492337
94.879591
94.401398
94.034551
106.8419
106.39748
105.90857
105.3875
104.82664
104.21382
103.53166
102.77515
101.97383
101.13637
100.28742
99.428823
98.582287
97.753976
96.988178
96.292251
95.707983
95.229198
94.871464
106.82412
106.41947
105.98454
105.51181
104.99337
104.43816
103.82278
103.14251
102.413
101.64175
100.85097
100.04603
99.237462
98.444608
97.712193
97.046298
96.484384
96.015471
95.669619
106.78466
106.43064
106.05353
105.64269
105.17761
104.66018
104.08139
103.45024
102.77572
102.07009
101.33959
100.59034
99.827485
99.081148
98.382869
97.745044
97.202306
96.751702
96.412567
106.74941
106.42912
106.08583
105.7204
105.31861
104.86039
104.33398
103.75244
103.12628
102.47254
101.7881
101.08342
100.36312
99.659456
98.99522
98.389359
97.864845
97.43247
97.098565
106.7518
106.46337
106.14585
105.80723
105.43091
105.00425
104.52902
103.99795
103.4297
102.82947
102.19251
101.53034
100.84668
100.18471
99.555674
98.977929
98.474226
98.056182
97.730697
106.73775
106.48803
106.21035
105.9046
105.55637
105.16545
104.72129
104.22344
103.69743
103.14111
102.55339
101.93577
101.28988
100.65513
100.05643
99.503844
99.02261
98.617328
98.298956
106.73066
106.5008
106.25061
105.97667
105.66666
105.30851
104.89531
104.43742
103.94695
103.42408
102.87063
102.29178
101.69409
101.0997
100.52228
99.988647
99.52259
99.129154
98.822982
106.75605
106.54967
106.3167
106.0579
105.76833
105.4375
105.05642
104.63444
104.17716
103.68365
103.15696
102.59932
102.02515
101.45329
100.90728
100.39961
99.945374
99.561903
99.2609
106.77408
106.59147
106.38352
106.14884
105.8801
105.57161
105.21424
104.81739
104.38994
103.93126
103.4425
102.92469
102.39211
101.83858
101.29929
100.79912
100.35354
99.979562
99.68488
106.81207
106.65512
106.46595
106.24847
106.00042
105.7127
105.37637
104.99654
104.57853
104.12727
103.63812
103.11485
102.56913
102.05033
101.54636
101.06446
100.63
100.26338
99.97447
106.85285
106.72521
106.5591
106.35801
106.12953
105.86669
105.5639
105.21549
104.82999
104.41512
103.96875
103.49491
102.98904
102.44332
101.90499
101.40203
100.95427
100.58014
100.28619
106.89687
106.80335
106.66565
106.48613
106.2675
106.00642
105.70042
105.34758
104.95089
104.51265
104.04276
103.54482
103.02779
102.52022
102.01132
101.52074
101.07663
100.71193
100.42892
106.93181
106.8881
106.80375
106.67978
106.5147
106.30601
106.05128
105.74464
105.3873
104.98028
104.52779
104.04102
103.5171
102.93787
102.34692
101.77737
101.27821
100.89442
100.5881
79.716208
79.690137
79.798378
80.061985
80.436542
80.948139
81.564195
82.314011
83.144054
84.105443
85.193037
86.412551
87.778958
89.270636
90.933431
92.712048
94.654466
96.7349
98.941198
80.883262
80.84435
80.977971
81.284406
81.734496
82.332608
83.084376
83.984423
84.984506
86.126061
87.396038
88.793213
90.317862
91.973082
93.731676
95.607589
97.618042
99.760212
101.98117
82.057593
82.007974
82.178494
82.526956
83.056547
83.755676
84.638124
85.660988
86.821624
88.126479
89.555771
91.105774
92.781966
94.557704
96.425518
98.38271
100.45295
102.58631
104.76254
83.212742
83.18304
83.389405
83.781292
84.390361
85.187157
86.170864
87.316713
88.61643
90.034877
91.57981
93.246836
94.999286
96.840593
98.748848
100.70756
102.72386
104.72619
106.7372
84.356663
84.358641
84.572502
85.022227
85.718064
86.597199
87.670534
88.924023
90.311633
91.821563
93.449324
95.160391
96.92913
98.762195
100.59728
102.45021
104.26871
106.03172
107.72825
85.519606
85.514881
85.75657
86.271306
87.022163
87.975236
89.145614
90.476093
91.929062
93.494979
95.151037
96.858213
98.595915
100.32304
102.01026
103.65634
105.19104
106.59895
107.81644
86.657071
86.63985
86.936801
87.493224
88.292362
89.320783
90.557093
91.937643
93.440515
95.031563
96.684484
98.33435
99.966278
101.53339
103.02301
104.3819
105.54303
106.47304
107.09954
87.763189
87.771357
88.104632
88.674282
89.537504
90.624554
91.905722
93.325744
94.842516
96.426097
98.024616
99.565249
101.04274
102.41575
103.62805
104.60042
105.34726
105.7246
105.79541
88.842291
88.874512
89.218086
89.821896
90.741183
91.859185
93.178903
94.607559
96.114521
97.650699
99.14664
100.55217
101.83663
102.94809
103.83909
104.42764
104.76831
104.72192
104.41841
89.908937
89.963655
90.294679
90.942549
91.886845
93.028648
94.363266
95.778266
97.249584
98.697716
100.06969
101.30278
102.36148
103.17736
103.75473
104.05011
104.07487
103.85463
103.48823
90.924909
90.9846
91.316995
92.012982
92.964006
94.138936
95.455524
96.831001
98.234682
99.578141
100.79989
101.81157
102.63009
103.20652
103.54621
103.65957
103.54787
103.36597
103.14795
91.933849
91.968957
92.304063
93.027345
93.988631
95.169801
96.440989
97.76861
99.080229
100.28719
101.32165
102.15066
102.76419
103.16687
103.36781
103.42528
103.34485
103.27281
103.22664
92.873349
92.884796
93.262338
93.992055
94.957548
96.108597
97.330201
98.601986
99.783073
100.83984
101.70948
102.3874
102.85088
103.15596
103.30034
103.38175
103.40217
103.44028
103.49145
93.773914
93.758825
94.179964
94.888281
95.83976
96.965129
98.130614
99.320572
100.38009
101.29379
102.01679
102.57311
102.94148
103.21274
103.37298
103.50779
103.61371
103.72637
103.86425
94.605211
94.629936
95.044462
95.711365
96.659992
97.735043
98.826189
99.932861
100.88727
101.66158
102.26492
102.74744
103.08229
103.34374
103.53269
103.72846
103.88974
104.07811
104.25163
95.387898
95.441013
95.814977
96.480307
97.408374
98.407155
99.453929
100.44261
101.31069
101.98761
102.51076
102.9379
103.25618
103.53378
103.75779
103.99661
104.20399
104.40531
104.53792
96.134858
96.184912
96.523421
97.21034
98.074176
99.023796
100.01272
100.88039
101.68547
102.27987
102.75768
103.15087
103.47113
103.7668
104.02024
104.26953
104.48068
104.67211
104.82621
96.825073
96.854587
97.191279
97.859156
98.66135
99.589389
100.47326
101.27186
101.99672
102.53434
103.00986
103.37244
103.70799
104.00507
104.26039
104.49541
104.6999
104.89623
105.05745
97.461979
97.474001
97.820753
98.440304
99.217705
100.08748
100.89154
101.65169
102.28833
102.80796
103.25768
103.60832
103.94993
104.22303
104.46821
104.67763
104.8796
105.05878
105.17145
98.032
98.032162
98.365223
98.9441
99.701756
100.49221
101.25087
101.93547
102.54131
103.04674
103.4649
103.82824
104.13821
104.38506
104.61699
104.78824
104.93844
105.0317
105.03993
98.556233
98.559875
98.876168
99.427735
100.15165
100.8878
101.64643
102.331
102.85481
103.324
103.69456
104.02975
104.28962
104.50594
104.67141
104.76277
104.79329
104.70829
104.55949
98.990883
98.985741
99.279011
99.817715
100.49662
101.20686
101.898
102.48458
103.00759
103.46554
103.83623
104.14372
104.37227
104.53368
104.59924
104.58721
104.46431
104.23138
103.97765
99.413945
99.402459
99.692769
100.20273
100.85557
101.57074
102.22911
102.81587
103.31359
103.69745
104.00839
104.23306
104.36743
104.40812
104.35753
104.22209
103.98511
103.73388
103.49402
99.70288
99.698953
99.976231
100.46367
101.09579
101.76699
102.3973
102.95819
103.42264
103.80334
104.08544
104.25622
104.32757
104.28597
104.14826
103.9246
103.66869
103.41059
103.12262
100.00523
99.99145
100.27521
100.7891
101.42518
102.10763
102.73685
103.25627
103.64808
103.92784
104.09469
104.14331
104.08371
103.92978
103.72017
103.48711
103.25641
103.00593
102.7496
100.14506
100.16289
100.43726
100.90716
101.55171
102.22919
102.82707
103.34464
103.74819
104.02505
104.15288
104.16187
104.05891
103.88644
103.65693
103.37585
103.0643
102.719
102.30817
100.28967
100.30534
100.65052
101.22558
101.93936
102.62811
103.24155
103.7064
103.96617
104.05045
104.02114
103.86339
103.62151
103.32586
102.99334
102.62831
102.26599
101.93388
101.63771
101.30002
103.74621
106.43115
109.33823
112.22311
115.36629
118.34731
121.04695
123.55868
123.99459
122.58365
119.47295
114.28916
107.4839
99.89053
91.929479
84.320591
77.84099
72.80272
104.27455
106.57075
109.00771
111.52123
114.06731
116.80211
119.20104
121.24241
122.79252
122.04365
120.19392
116.97497
112.00144
105.61712
98.716395
92.035745
86.109393
81.223203
77.647429
106.93952
109.00245
111.13686
113.30794
115.47419
117.58724
119.23755
120.43873
120.43587
118.97764
115.84127
111.7349
106.35146
100.18618
94.0217
88.309706
83.565208
80.26628
78.519933
108.67442
110.47978
112.28734
114.08761
115.74182
117.06209
117.65706
117.84228
116.45545
113.65633
109.17085
103.56442
97.270598
90.723289
84.913838
80.515384
77.430173
75.346297
74.653803
109.30305
110.74154
112.129
113.46722
114.51886
115.16447
114.74899
112.92997
110.03312
105.43051
99.134022
91.545519
83.622176
76.407401
70.943615
67.42653
65.947409
66.425068
68.391061
108.86735
109.76559
110.66948
111.42059
111.77696
111.64059
109.77012
106.50169
102.31252
95.215224
85.764377
75.592793
65.358212
56.444181
50.509001
47.725042
47.916054
51.319781
56.781287
107.44538
107.82085
108.1896
108.30102
107.90939
106.83932
104.44228
100.53311
93.368321
82.15688
68.107864
53.53741
39.550338
26.981491
17.658929
14.141035
16.944187
25.257664
37.012808
105.53158
105.43067
105.22529
104.6334
103.27473
100.88969
96.870117
90.672374
82.412385
71.752508
58.404093
42.326639
25.457724
10.838045
1.4563976
0.23206862
6.8078814
19.465658
34.001874
103.89023
103.4809
102.9782
102.02835
100.35132
97.81848
94.139738
89.009998
82.39288
74.178116
64.331031
53.284323
42.360532
33.170921
27.381524
26.238203
29.927711
37.693438
47.396466
102.98213
102.5658
102.0887
101.19841
99.852277
97.975306
95.532617
92.433047
88.462581
83.625086
77.942543
71.732906
65.540829
60.166068
56.188652
54.183899
55.001156
58.417814
63.482701
102.81846
102.5468
102.16417
101.49348
100.55928
99.332586
97.846274
96.062004
93.77764
90.993558
87.74499
84.18696
80.625212
77.353734
74.877818
73.568109
73.239953
74.213624
76.5808
103.08573
102.91579
102.62795
102.16545
101.51434
100.71554
99.790319
98.687033
97.252652
95.594359
93.692706
91.570154
89.338974
87.092753
85.071018
83.951821
83.878707
84.288417
84.87809
103.4939
103.44943
103.26658
102.94134
102.50471
102.00637
101.4403
100.74483
99.820132
98.756297
97.483604
96.06218
94.627706
93.046885
91.437631
90.104437
88.890324
87.759168
86.98601
104.00055
104.01456
103.86667
103.63273
103.36166
103.02588
102.64945
102.13988
101.45506
100.68564
99.74942
98.720855
97.492027
95.849237
94.144913
92.493584
90.692414
88.813941
87.219576
104.40484
104.43467
104.34231
104.20128
103.99724
103.73449
103.44266
103.00537
102.45365
101.71977
100.80459
99.86423
98.514574
96.59541
94.670178
92.506763
89.926951
87.049736
84.159188
104.72485
104.81399
104.78632
104.69581
104.5566
104.39978
104.15665
103.76063
103.20041
102.4704
101.63943
100.56368
98.857836
96.283696
93.490472
89.986147
85.015962
78.51244
70.748508
105.08724
105.22177
105.24878
105.22788
105.22824
105.1556
104.9925
104.71132
104.38601
104.02187
103.13521
101.46154
99.671484
98.010546
95.547362
91.74374
86.378101
79.558497
70.411523
105.33937
105.4868
105.5469
105.62504
105.6992
105.71408
105.65835
105.33656
104.4693
103.59009
103.74535
103.92725
102.0822
99.786681
96.975309
93.446883
89.012845
83.846707
78.372561
105.3624
105.47563
105.58753
105.73258
105.81531
105.85579
105.6562
105.43808
105.14678
103.82568
102.56866
101.36935
99.829866
97.866143
95.588285
93.059612
90.303123
87.576231
85.166974
105.0631
105.15008
105.32473
105.49195
105.59009
105.59752
105.4167
105.00632
104.46052
101.97431
99.675028
98.159883
96.909247
95.433957
93.746883
92.098907
90.550882
89.404365
88.931282
104.35351
104.44215
104.59132
104.71082
104.77214
104.78378
104.75799
104.57068
104.14609
102.64683
99.959446
95.206853
90.352402
86.879885
84.817287
84.057364
84.317655
85.492826
87.403284
103.69389
103.69832
103.72467
103.69342
103.56576
103.35538
103.02213
102.49101
101.45296
99.435625
96.324575
92.799287
89.714638
86.700117
83.47642
81.002558
80.066145
80.536111
82.414997
103.27628
103.23694
103.23958
103.21133
103.10101
102.96
102.70497
102.33965
101.71977
100.68035
98.963267
96.540109
93.57995
90.270237
87.163507
84.931402
83.903997
84.116823
85.708002
102.97373
102.98904
103.04287
103.07545
103.08194
103.12791
103.13175
103.18188
103.16371
103.04239
102.81063
102.25738
101.45122
100.44141
98.96627
96.890151
94.816383
93.526057
93.147833
102.65408
102.67042
102.72595
102.77954
102.81808
102.85415
102.9153
102.95817
102.9796
103.00509
102.82136
102.26743
101.69582
101.04686
100.34954
99.826397
99.073966
97.772555
96.199358
101.97563
102.08468
102.26189
102.35702
102.44355
102.53826
102.66751
102.78775
102.8791
102.96263
102.99273
102.72805
102.42648
102.22082
101.51323
100.36149
99.141972
97.842432
96.285117
101.22394
101.31437
101.41994
101.4664
101.53671
101.66732
101.80565
102.01408
102.20786
102.41695
102.58683
102.42307
102.06017
101.70677
101.26861
100.74434
100.15225
99.457902
98.718985
69.110263
67.002856
66.689246
67.702386
69.433451
71.638192
74.045984
76.225962
78.377653
80.25822
81.681567
82.865378
83.862631
84.506882
84.928525
85.159823
85.15571
84.938281
84.593045
75.409061
74.289033
74.312636
75.29498
76.75347
78.303526
80.035224
81.851428
83.521188
84.821447
85.818048
86.730895
87.388135
87.781158
88.049199
88.145118
88.049608
87.781062
87.392309
77.769992
77.731052
78.42649
79.852251
81.729438
83.529821
85.185174
86.629348
87.924351
89.152348
89.860694
90.405893
90.904432
91.139838
91.251098
91.259639
91.122126
90.790191
90.287165
75.528538
77.302543
79.58822
82.142306
84.792533
87.021017
88.927785
90.765634
92.082449
93.053414
93.768622
94.143248
94.395055
94.458162
94.447206
94.343234
94.111066
93.733922
93.111607
71.293977
74.870599
78.650152
82.348954
86.072998
89.418164
91.79048
93.644212
95.270601
96.406073
97.145948
97.456582
97.620281
97.574391
97.410801
97.239056
96.949169
96.489176
95.801711
62.91522
69.324991
75.537812
81.145146
86.034815
90.467757
93.959023
96.274133
97.953495
99.15962
99.9328
100.3023
100.37634
100.26602
100.03511
99.775721
99.466498
99.014988
98.28619
49.188592
60.072226
69.439182
77.437729
84.300581
90.261517
95.082204
98.371459
100.39307
101.70058
102.38917
102.73411
102.79465
102.61044
102.26417
101.93316
101.56883
101.1482
100.42829
48.195615
59.627398
69.454398
77.845553
84.704393
90.42332
95.64783
99.775874
102.18436
103.65078
104.47924
104.7703
104.72775
104.5034
104.10438
103.68661
103.27018
102.84398
102.19345
57.283999
66.413928
74.485401
81.448445
87.415302
92.593951
97.173394
100.88344
103.28179
104.75686
105.62827
105.98874
105.96464
105.71877
105.33625
104.88837
104.46807
104.03473
103.47058
69.437328
75.577402
81.38075
86.730099
91.580258
95.788286
99.32891
102.12753
103.84688
105.0441
105.75386
106.15627
106.2077
106.05619
105.79691
105.43267
105.09373
104.72037
104.26062
79.809908
83.385683
87.18581
91.117916
94.827678
98.07525
100.83719
102.93458
104.32474
105.15621
105.57632
105.81236
105.92105
105.88079
105.74718
105.50637
105.25726
104.97073
104.60134
85.908979
87.687442
90.125074
92.817571
95.523102
98.197757
100.7192
102.77061
104.30267
105.09493
105.60675
105.70686
105.7582
105.75705
105.67246
105.4943
105.29056
105.06373
104.74708
87.124174
88.025789
89.24402
90.91722
93.043627
95.573639
98.258126
100.79266
102.87576
104.29974
104.93448
105.10301
105.53289
105.67842
105.63247
105.50745
105.30993
105.12412
104.85314
86.039116
85.079039
84.864862
85.561944
87.028772
89.406168
92.403774
95.47059
98.321118
100.66698
102.60976
104.11604
104.62992
105.13393
105.34326
105.36042
105.22243
105.06103
104.87063
81.263407
78.516929
76.321388
75.226936
76.15866
79.067396
82.998168
87.297244
91.665324
95.584972
99.514778
102.68523
104.02703
104.79456
105.05107
105.08947
104.97211
104.77567
104.64346
62.488778
55.08325
50.666349
50.637229
54.998559
62.026741
70.555899
79.764914
88.278496
95.245063
99.878023
102.28491
103.30383
103.92608
104.19553
104.30894
104.26053
104.10445
104.02121
61.625275
53.220088
48.101084
47.692047
51.914857
58.658668
66.804846
75.644332
83.923482
91.022998
96.20091
99.261645
100.95741
102.02155
102.65867
103.04921
103.23183
103.239
103.26793
73.188091
69.059831
67.149128
67.788971
70.72804
75.277762
80.571263
85.795664
90.577362
94.499937
97.370504
99.262089
100.55283
101.44825
102.0548
102.49479
102.73124
102.80623
102.86496
83.342196
82.390775
82.58991
84.162852
86.609729
89.465846
92.408192
95.060434
97.307914
99.034513
100.25162
101.14948
101.77727
102.19268
102.50339
102.73162
102.87352
102.9403
102.95543
89.142876
90.038506
91.411499
93.140868
94.928283
96.765646
98.582468
100.07047
101.13325
101.93078
102.46257
102.81721
103.05384
103.14347
103.20077
103.2174
103.25125
103.23301
103.17352
89.657401
91.993312
94.237434
96.40271
98.361907
99.826691
101.17165
102.56092
103.3231
103.60642
103.81013
103.89977
103.90464
103.81251
103.69296
103.56365
103.49098
103.4357
103.32367
85.283469
88.753187
92.367775
95.617016
98.331871
100.32645
101.38149
101.82749
102.59542
103.61047
104.02825
104.05951
104.03897
103.93146
103.7834
103.65014
103.49704
103.40895
103.29005
88.32048
91.319777
94.19311
96.730678
98.813515
100.40594
101.56807
102.23101
103.14802
103.71183
103.68161
103.7792
103.76769
103.61908
103.50545
103.3658
103.21541
103.07118
102.96688
93.510757
94.368579
95.459003
96.641015
97.711086
98.484984
99.088723
99.586408
100.80716
102.56708
102.74126
102.9422
102.99087
102.9013
102.81283
102.6925
102.58999
102.4289
102.34817
94.523186
93.229729
92.602511
92.861883
94.287045
96.857376
99.362372
101.21037
101.96225
102.07344
101.8494
101.88919
101.85961
101.81394
101.80483
101.75924
101.69253
101.60595
101.56891
95.029162
94.098268
93.602743
93.505126
93.707444
94.066614
94.819989
96.238993
97.745522
99.027094
99.801168
100.10787
100.35784
100.51044
100.63764
100.73886
100.78122
100.80842
100.90751
98.013075
97.413957
96.973766
96.693663
96.507019
96.401516
96.572681
96.920123
97.696365
98.469852
98.999391
99.36596
99.642514
99.850924
100.00522
100.12569
100.2197
100.26966
100.30154
84.098771
83.444752
82.719332
81.866979
80.934496
80.045115
79.07035
78.159453
77.236851
76.351054
75.504668
74.709564
73.947484
73.33554
72.735963
72.3128
72.054556
71.912921
72.037015
86.858656
86.150827
85.34856
84.47222
83.496428
82.508378
81.476765
80.436544
79.416614
78.404206
77.461851
76.54377
75.687555
74.942093
74.335168
73.817124
73.517256
73.346956
73.425789
89.657008
88.838968
87.972731
86.989285
85.972392
84.891959
83.797916
82.662439
81.557303
80.434288
79.388964
78.375483
77.446355
76.581033
75.915805
75.356981
74.960106
74.806955
74.861439
92.336396
91.415275
90.426735
89.368474
88.2721
87.144516
85.973745
84.784907
83.592857
82.411423
81.26429
80.173419
79.158584
78.231753
77.447165
76.866347
76.427347
76.226891
76.287618
94.86944
93.857541
92.7558
91.617263
90.452677
89.262901
88.037272
86.801678
85.546211
84.316117
83.092144
81.92883
80.828212
79.849157
78.990911
78.316178
77.881018
77.656091
77.694428
97.274131
96.166258
95.005129
93.778141
92.550135
91.30099
90.020124
88.738479
87.430526
86.149353
84.873912
83.649217
82.488806
81.43161
80.522124
79.780993
79.287659
79.072793
79.077825
99.409593
98.272867
97.072591
95.814381
94.528471
93.243067
91.913222
90.590149
89.243758
87.905273
86.58532
85.302726
84.088128
82.9807
81.998247
81.235943
80.664494
80.428627
80.443002
101.20826
100.11292
98.922863
97.681711
96.373854
95.067626
93.713736
92.351876
90.98089
89.603926
88.240887
86.92067
85.641471
84.494547
83.453198
82.642208
82.054161
81.791983
81.815384
102.59989
101.61307
100.48212
99.296694
98.032204
96.73072
95.380962
94.005661
92.609186
91.212472
89.813008
88.459729
87.144604
85.94237
84.864947
84.004136
83.375393
83.046714
83.064497
103.56389
102.72962
101.75346
100.66053
99.471177
98.225565
96.906019
95.546241
94.149869
92.738859
91.320112
89.940078
88.597095
87.346492
86.252728
85.336637
84.728244
84.398367
84.45584
104.09575
103.46124
102.66285
101.73369
100.66339
99.500598
98.247033
96.928562
95.556876
94.159583
92.739705
91.321101
89.969977
88.663965
87.554158
86.60051
85.951156
85.608806
85.604847
104.34889
103.89938
103.28209
102.5181
101.60114
100.56565
99.407457
98.153148
96.82933
95.455706
94.080371
92.642447
91.277638
89.951885
88.803298
87.848203
87.151804
86.798222
86.802133
104.50456
104.14891
103.66831
103.0653
102.30135
101.39513
100.36171
99.204986
97.959286
96.615124
95.251431
93.865848
92.497015
91.174385
89.985482
89.026966
88.305628
87.92976
87.918829
104.57715
104.29094
103.8968
103.40793
102.7989
102.03211
101.13389
100.07909
98.935263
97.670552
96.349971
94.986793
93.627119
92.320997
91.103163
90.132382
89.402626
89.009432
88.982565
104.49394
104.29521
104.00862
103.61833
103.14387
102.5006
101.73521
100.80222
99.749936
98.578082
97.322645
96.012378
94.668471
93.385764
92.165154
91.169884
90.428327
90.029088
90.012914
104.09734
104.073
103.94965
103.67262
103.31913
102.80793
102.16364
101.36835
100.42511
99.347746
98.160429
96.918921
95.614938
94.357153
93.159699
92.148098
91.396539
90.983865
90.960855
103.54281
103.65567
103.68533
103.57127
103.35069
102.98576
102.46075
101.79684
100.97313
100.00371
98.897558
97.727076
96.480301
95.239911
94.070298
93.060472
92.304204
91.872372
91.852698
103.10299
103.23853
103.3325
103.33687
103.23554
103.01363
102.61844
102.07647
101.37234
100.52352
99.51336
98.414708
97.237772
96.03083
94.89187
93.893893
93.148752
92.70866
92.681269
102.99943
103.02114
103.08028
103.11719
103.07765
102.95766
102.68763
102.26695
101.68252
100.95047
100.04717
99.021918
97.920059
96.762194
95.64741
94.650019
93.912109
93.482148
93.438833
103.05165
103.00733
102.98749
102.97847
102.94582
102.86643
102.68102
102.35557
101.88095
101.24687
100.45828
99.51682
98.483937
97.373936
96.300487
95.336132
94.596846
94.176658
94.125976
103.11595
103.06715
103.01024
102.96087
102.89901
102.82055
102.67803
102.42492
102.04901
101.49813
100.8065
99.960025
99.006231
97.971917
96.918592
95.965958
95.22945
94.803769
94.761189
103.14184
103.13668
103.07871
103.00886
102.91861
102.81754
102.68422
102.47424
102.16519
101.68965
101.06458
100.29491
99.38058
98.402943
97.398117
96.481549
95.773206
95.348474
95.287412
102.96933
103.0596
103.06084
103.02897
102.95594
102.84541
102.725
102.54729
102.28873
101.89268
101.33918
100.6419
99.821578
98.901057
97.940662
97.00537
96.271587
95.846783
95.783567
102.58663
102.81347
102.95398
103.01336
103.0171
102.94053
102.80639
102.63541
102.39594
102.04176
101.54207
100.88201
100.07367
99.174933
98.218597
97.345166
96.647794
96.235914
96.154836
101.90182
102.23588
102.52724
102.70889
102.80851
102.85535
102.82477
102.71797
102.53104
102.25528
101.83425
101.24664
100.5206
99.664281
98.754552
97.821489
97.045743
96.584816
96.501621
101.29936
101.73529
102.15882
102.51611
102.75119
102.8799
102.90438
102.83525
102.65618
102.36693
101.96267
101.39607
100.65414
99.793955
98.855339
97.968715
97.24101
96.789024
96.699409
100.58069
100.92981
101.32461
101.73005
102.10903
102.41384
102.63198
102.75326
102.74844
102.61946
102.34837
101.90508
101.26716
100.4381
99.47254
98.463803
97.577984
96.985282
96.834497
72.240888
72.621697
73.103155
73.843047
74.697478
75.778681
76.990916
78.328758
79.839012
81.434364
83.157085
84.985037
86.920913
88.923647
90.993633
93.110883
95.268483
97.427769
99.596325
73.616988
74.053125
74.590685
75.363879
76.233001
77.304357
78.539501
79.877047
81.365587
82.95227
84.653006
86.445466
88.313599
90.258729
92.249657
94.245454
96.270534
98.28664
100.28929
75.081679
75.50762
76.075542
76.837852
77.763782
78.830273
80.060771
81.420863
82.878678
84.449701
86.1191
87.863095
89.677497
91.547848
93.44163
95.337484
97.212613
99.067703
100.92818
76.539424
76.957886
77.554187
78.315661
79.240263
80.334878
81.548178
82.887885
84.359279
85.910272
87.523017
89.23035
90.9853
92.764745
94.567216
96.358629
98.106555
99.80626
101.47559
77.967458
78.391516
78.99443
79.766289
80.698327
81.770043
82.992737
84.330802
85.772396
87.307263
88.885343
90.523826
92.208668
93.913402
95.614962
97.282022
98.903806
100.45769
101.96521
79.379018
79.811598
80.42482
81.185523
82.120073
83.195599
84.401795
85.741218
87.157885
88.636928
90.16772
91.750228
93.360029
94.966185
96.553711
98.111354
99.603447
101.044
102.41282
80.750465
81.200436
81.811539
82.570898
83.490834
84.568617
85.759367
87.065581
88.450925
89.892835
91.37734
92.888361
94.409475
95.93258
97.414577
98.852306
100.22579
101.54734
102.79319
82.120151
82.553731
83.158321
83.924347
84.838598
85.895909
87.058272
88.332498
89.688143
91.090319
92.519727
93.959321
95.384028
96.806186
98.196355
99.535485
100.78481
101.97559
103.11272
83.391252
83.862776
84.471468
85.226654
86.119525
87.158469
88.3035
89.547181
90.867187
92.220327
93.579854
94.938932
96.281926
97.611982
98.891711
100.11075
101.24833
102.32279
103.37242
84.722569
85.1408
85.73191
86.475819
87.363085
88.377849
89.500304
90.703083
91.967029
93.265337
94.550696
95.827609
97.085352
98.316226
99.502929
100.63048
101.68888
102.66145
103.60287
85.927118
86.360371
86.950006
87.680106
88.545004
89.528423
90.608799
91.771406
92.984007
94.228168
95.461214
96.657117
97.830872
98.972179
100.08173
101.1094
102.06514
102.94139
103.77042
87.110826
87.529399
88.106237
88.820136
89.662278
90.626347
91.675801
92.786568
93.96029
95.136561
96.296224
97.415719
98.505055
99.553703
100.55489
101.48714
102.36404
103.1785
103.92822
88.226188
88.63532
89.207558
89.910843
90.733454
91.659592
92.671051
93.728923
94.839112
95.947615
97.040928
98.089251
99.093117
100.06149
100.99524
101.87981
102.67321
103.40015
104.0676
89.293484
89.696138
90.253407
90.932596
91.72752
92.616259
93.579815
94.595195
95.650492
96.709264
97.733006
98.708767
99.646403
100.55466
101.40317
102.18515
102.88955
103.53942
104.14908
90.316843
90.696568
91.23361
91.894935
92.662193
93.523505
94.443513
95.414848
96.411598
97.40341
98.358383
99.265848
100.1252
100.9572
101.73085
102.4469
103.11127
103.72176
104.28177
91.250091
91.624624
92.14671
92.789686
93.528524
94.355305
95.227512
96.148303
97.086509
98.016623
98.916381
99.76802
100.56728
101.32773
102.04928
102.7176
103.31297
103.82688
104.3047
92.141701
92.509533
93.006821
93.6279
94.339197
95.128158
95.959254
96.827751
97.714667
98.587542
99.433149
100.22588
100.96455
101.6512
102.3091
102.91044
103.45645
103.9412
104.37985
92.964804
93.317962
93.793858
94.389111
95.077052
95.826132
96.620844
97.439309
98.276269
99.095525
99.88689
100.62535
101.30959
101.94664
102.55565
103.12161
103.6257
104.0636
104.44748
93.715461
94.052622
94.518877
95.093358
95.753912
96.469605
97.227334
98.007409
98.795663
99.569112
100.30892
100.99422
101.63012
102.22324
102.78377
103.3001
103.75508
104.14847
104.49268
94.390892
94.731353
95.191751
95.741612
96.370549
97.056164
97.775737
98.514505
99.258746
99.980117
100.67333
101.31181
101.9069
102.46814
102.98622
103.46443
103.89257
104.26378
104.58226
95.046504
95.370884
95.801916
96.317301
96.917531
97.571971
98.259901
98.966924
99.678321
100.36183
101.01783
101.6261
102.18653
102.71673
103.19716
103.63622
104.02248
104.35177
104.6268
95.54974
95.843415