/*--------------------------------*- C++ -*----------------------------------*\
  =========                 |
  \\      /  F ield         | OpenFOAM: The Open Source CFD Toolbox
   \\    /   O peration     | Website:  https://openfoam.org
    \\  /    A nd           | Version:  11
     \\/     M anipulation  |
\*---------------------------------------------------------------------------*/
FoamFile
{
    format      ascii;
    class       surfaceScalarField;
    location    "10.6";
    object      phi;
}
// * * * * * * * * * * * * * * * * * * * * * * * * * * * * * * * * * * * * * //

dimensions      [0 3 -1 0 0 0 0];

internalField   nonuniform List<scalar> 
10792
(
0.067414276
-0.041879085
-0.067794436
0.042259245
0.066885607
-0.039862476
0.040391146
0.066256658
-0.037462435
0.038091384
0.065647872
-0.035373828
0.035982614
0.064900015
-0.032888898
0.033636755
0.06414412
-0.030397191
0.031153086
0.063398476
-0.028057776
0.02880342
0.062622751
-0.025481589
0.026257314
0.061831266
-0.022925943
0.023717429
0.06105669
-0.020355443
0.021130019
0.060297346
-0.017688172
0.018447516
0.059626781
-0.015085898
0.015756464
0.05900359
-0.012418267
0.013041458
0.058412787
-0.0096439739
0.010234777
0.057834234
-0.006952728
0.0075312811
0.057377177
-0.0041013708
0.0045584285
0.057053597
-0.0013833518
0.0017069324
0.056875007
0.0014686254
-0.0012900354
0.0042962044
0.056612881
-0.0040340786
0.071425939
-0.041455044
-0.07184998
0.070861328
-0.039297865
0.070324086
-0.036925193
0.069639527
-0.034689269
0.068843161
-0.032092531
0.068183005
-0.029737036
0.067403496
-0.027278267
0.066621934
-0.024700027
0.065877283
-0.022181292
0.065107549
-0.019585709
0.064403651
-0.016984274
0.063761522
-0.014443769
0.063095092
-0.011751836
0.062502608
-0.0090514899
0.061994672
-0.0064447923
0.061576779
-0.003683477
0.061200144
-0.0010067171
0.060919643
0.001749127
0.0045319596
0.060683888
0.076108057
-0.041100679
-0.076462422
0.075598298
-0.038788106
0.074975744
-0.036302639
0.074224816
-0.033938341
0.073593876
-0.031461592
0.072901805
-0.029044964
0.072037967
-0.026414429
0.07130605
-0.023968109
0.07051266
-0.021387903
0.06975564
-0.018828688
0.069032409
-0.016261043
0.068299486
-0.013710846
0.067599701
-0.011052051
0.067009174
-0.0084609628
0.066461744
-0.0058973623
0.065990474
-0.0032122064
0.065626801
-0.00064304457
0.065281853
0.0020940757
0.0047066557
0.065107157
0.080703395
-0.040589992
-0.081214082
0.080048752
-0.038133463
0.079455937
-0.035709824
0.078782988
-0.033265391
0.078087788
-0.030766392
0.077272055
-0.028229232
0.07656653
-0.025708904
0.075873419
-0.023274998
0.075092014
-0.020606498
0.07438074
-0.018117413
0.07358534
-0.015465643
0.072885445
-0.01301095
0.072237968
-0.010404575
0.071695259
-0.0079182534
0.071155366
-0.0053574683
0.070743999
-0.0028008392
0.070392951
-0.0002919967
0.070098579
0.0023884481
0.0048908925
0.069914342
0.085869042
-0.040026956
-0.086432078
0.085296268
-0.03756069
0.084737416
-0.035150972
0.084013742
-0.032541717
0.083293853
-0.030046503
0.082549879
-0.027485258
0.08187341
-0.025032435
0.08102831
-0.022429897
0.080247588
-0.019825776
0.079462112
-0.017331936
0.078695126
-0.014698658
0.078020144
-0.012335967
0.077359219
-0.0097436501
0.076795927
-0.0073549611
0.076238461
-0.0048000021
0.075813291
-0.0023756686
0.075326057
0.00019523696
0.07507054
0.0026439655
0.0051430231
0.07481841
0.091191895
-0.039336254
-0.091882597
0.090698334
-0.037067128
0.090008946
-0.034461584
0.089348021
-0.031880792
0.088693179
-0.029391661
0.087942153
-0.026734232
0.087219885
-0.024310166
0.086375366
-0.021585378
0.085713504
-0.019163914
0.084940107
-0.016558539
0.084311823
-0.014070374
0.08359594
-0.011620084
0.082924243
-0.009071953
0.082326924
-0.0067576415
0.081729787
-0.0042028651
0.081272147
-0.0019180281
0.080872408
0.00059497656
0.08062246
0.0028939132
0.005368949
0.080396534
0.097314601
-0.038805781
-0.097845073
0.096656983
-0.03640951
0.095824976
-0.033629578
0.095216331
-0.031272147
0.094498008
-0.028673338
0.093816478
-0.026052701
0.093020419
-0.023514107
0.092257092
-0.020822052
0.091567512
-0.018474334
0.090716654
-0.015707681
0.090021676
-0.013375395
0.08920053
-0.010798938
0.088590179
-0.0084616014
0.087920584
-0.0060880471
0.087463801
-0.0037460812
0.086999955
-0.0014541822
0.086644521
0.00095041078
0.086362627
0.0031758076
0.0055600555
0.086171521
0.10349422
-0.038101738
-0.10419826
0.10291905
-0.035834341
0.10230243
-0.033012961
0.10160973
-0.030579447
0.10072538
-0.027788992
0.10004311
-0.02537043
0.099257394
-0.022728388
0.098565563
-0.02013022
0.097770029
-0.0176788
0.09704244
-0.014980092
0.09635385
-0.012686806
0.09563233
-0.010077418
0.095063811
-0.007893082
0.094383524
-0.00540776
0.093963384
-0.0033259411
0.093421736
-0.00091253356
0.093113394
0.0012587527
0.092726894
0.0035623082
0.00571322
0.09257373
0.11027699
-0.037424075
-0.11095465
0.10949162
-0.035048972
0.1087176
-0.032238936
0.10803575
-0.029897602
0.10730618
-0.027059418
0.10658218
-0.02464643
0.10576093
-0.021907139
0.10505419
-0.01942348
0.10424506
-0.01686967
0.10358932
-0.014324351
0.102848
-0.011945487
0.10218132
-0.0094107412
0.10154061
-0.0072523738
0.10089188
-0.0047590229
0.10040379
-0.0028378559
0.099845364
-0.00035410539
0.099606666
0.0014974502
0.099311306
0.0038576692
0.0057448972
0.099279629
0.11781109
-0.03685384
-0.11838133
0.11706125
-0.034299128
0.11636715
-0.031544838
0.11558099
-0.029111441
0.1148309
-0.026309332
0.11417412
-0.023989642
0.11339365
-0.021126673
0.1126586
-0.018688424
0.11179005
-0.016001126
0.11107971
-0.013614004
0.11026103
-0.011126814
0.10962134
-0.008771045
0.10890742
-0.0065384547
0.10835512
-0.004206722
0.1077869
-0.0022696367
0.10733566
9.7134554e-05
0.10695316
0.0018799498
0.10660565
0.0042051825
0.0059271188
0.10642342
0.12548206
-0.036117786
-0.12621811
0.12465657
-0.03347364
0.12390651
-0.030794782
0.12298989
-0.028194823
0.1221951
-0.025514543
0.12132393
-0.023118464
0.12055113
-0.020353875
0.1198579
-0.017995193
0.11906543
-0.015208656
0.11838311
-0.01293169
0.11756124
-0.010304942
0.11696398
-0.0081737889
0.11623348
-0.0058079526
0.11578195
-0.0037551901
0.11516852
-0.0016562069
0.11481385
0.00045180786
0.11440915
0.0022846505
0.11423228
0.0043820488
0.0060661049
0.1140933
0.13404045
-0.035265391
-0.13489285
0.13317454
-0.032607733
0.13249584
-0.030116076
0.13169216
-0.027391147
0.13099344
-0.024815818
0.13004537
-0.022170401
0.12930327
-0.019611772
0.12850896
-0.017200878
0.12781736
-0.014517062
0.12705585
-0.012170178
0.12631525
-0.0095643406
0.12565859
-0.0075171323
0.12492848
-0.005077836
0.12440566
-0.0032323719
0.12376445
-0.0010150008
0.12342981
0.000786447
0.12289563
0.0028188337
0.12268861
0.0045890731
0.0063876126
0.1223671
0.14282461
-0.034275924
-0.14381407
0.14188918
-0.031672305
0.14096736
-0.029194254
0.1401146
-0.026538394
0.13935886
-0.024060074
0.13846415
-0.021275693
0.13770696
-0.018854578
0.13680779
-0.016301708
0.13614362
-0.013852891
0.13536773
-0.011394293
0.13476645
-0.0089630583
0.13402678
-0.0067774564
0.13343892
-0.004489984
0.13291991
-0.0027133582
0.13247261
-0.00056769924
0.13218787
0.0010711911
0.13186781
0.0031388905
0.13177928
0.0046776079
0.0066034914
0.1315634
0.15310357
-0.033167171
-0.15421233
0.15212196
-0.030690692
0.15116587
-0.028238162
0.15031193
-0.025684454
0.1494153
-0.023163444
0.14856122
-0.020421613
0.14770284
-0.017996198
0.14679581
-0.015394678
0.14605302
-0.01311011
0.14529221
-0.010633475
0.14470435
-0.0083752062
0.14388575
-0.0059588548
0.14329055
-0.0038947784
0.14250681
-0.0019296224
0.14201637
-7.725392e-05
0.14152154
0.0015660167
0.14129031
0.0033701217
0.14113137
0.0048365472
0.0066213102
0.14111355
0.16294707
-0.031995659
-0.16411858
0.16190097
-0.02964459
0.16080224
-0.027139437
0.15985518
-0.024737392
0.15893046
-0.02223872
0.15818623
-0.019677388
0.15738776
-0.01719772
0.15656594
-0.01457286
0.15577675
-0.012320922
0.15509185
-0.0099485705
0.15452825
-0.0078116095
0.15403457
-0.005465174
0.15364767
-0.0035078756
0.15304783
-0.0013297891
0.15264528
0.00032529827
0.15210737
0.002103931
0.15189842
0.0035790718
0.15164066
0.0050943023
0.0065058327
0.15175614
0.17515952
-0.03076285
-0.17639233
0.17392911
-0.028414177
0.17279809
-0.026008416
0.17171945
-0.023658753
0.17072191
-0.021241183
0.16986549
-0.018820964
0.16895046
-0.016282691
0.16808426
-0.013706661
0.16711485
-0.011351511
0.16624562
-0.0090793405
0.16542639
-0.0069923849
0.16482824
-0.0048670206
0.16432416
-0.0030037921
0.16388171
-0.00088734019
0.1635385
0.00066850172
0.16318033
0.0024621018
0.16298229
0.0037771209
0.16280881
0.0052677816
0.0063936333
0.16292101
0.18664779
-0.02943641
-0.18797423
0.18531855
-0.027084936
0.18413983
-0.024829697
0.18298238
-0.022501303
0.18195222
-0.020211016
0.18101008
-0.017878827
0.18021746
-0.015490068
0.17956643
-0.013055637
0.17887707
-0.010662151
0.17820252
-0.0084047838
0.17745695
-0.0062468194
0.17683277
-0.0042428358
0.17620931
-0.0023803373
0.17578807
-0.00046610102
0.17538729
0.0010692871
0.17513549
0.0027138997
0.17495635
0.0039562647
0.17491371
0.0053104167
0.0063205853
0.17498676
0.20062226
-0.027868143
-0.20219053
0.19914927
-0.025611938
0.19788551
-0.023565942
0.1966222
-0.021237991
0.19541857
-0.019007386
0.19417549
-0.016635745
0.19310347
-0.014418051
0.19212522
-0.012077389
0.19132029
-0.0098572226
0.19061256
-0.0076970482
0.18995256
-0.0055868194
0.18936216
-0.0036524339
0.18880509
-0.001823271
0.1884118
-7.2806438e-05
0.18804315
0.0014379315
0.1878763
0.0028807548
0.18776354
0.004069018
0.18784437
0.0052295918
0.0062277276
0.18793723
0.21422446
-0.026050006
-0.21604259
0.21261884
-0.02400632
0.21116163
-0.022108738
0.20986384
-0.019940198
0.20877587
-0.017919415
0.20775477
-0.015614647
0.20675739
-0.01342067
0.20577799
-0.011097984
0.20493678
-0.0090160178
0.20418088
-0.0069411453
0.20355703
-0.0049629678
0.20299795
-0.0030933562
0.20252204
-0.0013473597
0.20216348
0.00028575771
0.20189211
0.001709302
0.2017418
0.0030310607
0.20168759
0.0041232275
0.20180494
0.0051122476
0.006072551
0.20196011
0.23025584
-0.023861103
-0.23244474
0.22837503
-0.022125514
0.22658335
-0.020317053
0.22507336
-0.018430213
0.22367057
-0.016516627
0.22252872
-0.014472792
0.2215055
-0.01239745
0.22061804
-0.010210522
0.2197981
-0.0081960821
0.21901891
-0.0061619563
0.21835822
-0.0043022768
0.21778665
-0.0025217842
0.2172899
-0.00085060702
0.21690705
0.00066860709
0.21667164
0.0019447124
0.21658235
0.003120352
0.21661807
0.0040875053
0.21679551
0.0049348037
0.0057373899
0.21713068
0.2468888
-0.02159879
-0.24915111
0.24481522
-0.020051933
0.24290664
-0.018408476
0.24117005
-0.016693626
0.23955674
-0.014903314
0.23819701
-0.013113058
0.23699586
-0.011196306
0.23609941
-0.009314072
0.23528464
-0.0073813064
0.2346618
-0.0055391232
0.23406399
-0.0037044602
0.23355393
-0.0020117232
0.23318873
-0.00048541109
0.23292819
0.00092914782
0.23274362
0.0021292815
0.23271016
0.0031538127
0.23278323
0.004014433
0.23297714
0.0047408977
0.0053852382
0.23332929
0.26528499
-0.01883675
-0.26804703
0.26278407
-0.017551011
0.26062879
-0.016253203
0.25876433
-0.014829162
0.2571083
-0.013247282
0.25558888
-0.011593638
0.25425331
-0.0098607364
0.2530785
-0.008139268
0.2521317
-0.0064344998
0.25142029
-0.0048277121
0.25087073
-0.0031549038
0.25047386
-0.0016148485
0.25011909
-0.00013064792
0.24996685
0.0010813941
0.24990187
0.0021942608
0.25002492
0.0030307631
0.25024622
0.0037931323
0.25065318
0.0043339408
0.0048553774
0.25118304
0.28559193
-0.015756672
-0.28867201
0.28273912
-0.014698198
0.2801072
-0.013621283
0.27780103
-0.012522995
0.27584622
-0.011292471
0.27415188
-0.0098992956
0.27275915
-0.0084680112
0.27151388
-0.0068939955
0.27048538
-0.005405999
0.26960368
-0.0039460145
0.26896273
-0.0025139468
0.2685482
-0.00120032
0.26838915
2.8398789e-05
0.26831894
0.0011516024
0.26836859
0.0021446148
0.2685656
0.0028337479
0.26887072
0.0034880131
0.26931448
0.0038901873
0.0042297896
0.26994007
0.30702112
-0.012411232
-0.31036656
0.30389072
-0.011567802
0.301002
-0.010732564
0.29828488
-0.0098058699
0.29591549
-0.008923086
0.29392687
-0.0079106746
0.29229118
-0.0068323217
0.29104082
-0.0056436278
0.29006687
-0.0044320524
0.28934749
-0.0032266346
0.28883919
-0.0020056439
0.28850764
-0.00086877225
0.28832042
0.00021562143
0.28839186
0.0010801583
0.2886457
0.0018907737
0.28900944
0.0024700088
0.28950697
0.0029904903
0.29009015
0.003307005
0.0034799818
0.29083995
0.33074752
-0.0086963633
-0.33446239
0.3272758
-0.0080960863
0.32408556
-0.0075423191
0.32113716
-0.0068574759
0.31844685
-0.0062327711
0.31606462
-0.0055284431
0.31400303
-0.0047707393
0.31232007
-0.0039606593
0.31099718
-0.0031091616
0.31002728
-0.0022567389
0.30942866
-0.0014070237
0.30917411
-0.00061422653
0.30927669
0.00011304845
0.30956983
0.0007870191
0.31003548
0.0014251219
0.31065568
0.001849807
0.31133175
0.0023144186
0.31212279
0.0025159643
0.0025832248
0.31301955
0.3559837
-0.004534889
-0.36014517
0.35215866
-0.0042710457
0.34858438
-0.0039680468
0.34535448
-0.0036275735
0.34240272
-0.0032810141
0.33978071
-0.0029064307
0.33750402
-0.0024940462
0.33562563
-0.0020822651
0.33415365
-0.0016371814
0.33309846
-0.0012015517
0.33246749
-0.00077605569
0.33220375
-0.0003504878
0.33228664
3.0158603e-05
0.33275233
0.00032133164
0.33350418
0.00067327531
0.33446951
0.00088447885
0.33540695
0.0013769746
0.33655515
0.0013677594
0.001435737
0.33770264
0.38399184
-0.38852673
0.37972079
0.37575275
0.37212517
0.36884416
0.36593773
0.36344368
0.36136142
0.35972424
0.35852269
0.35774663
0.35739614
0.3574263
0.35774763
0.35842091
0.35930539
0.36068236
0.36205012
0.36348586
0.056360666
0.0074423421
-0.0071901267
0.056178195
0.010102137
-0.0099196654
0.056217692
0.013089565
-0.013129062
0.056372629
0.015765127
-0.015920063
0.056775358
0.018706642
-0.019109371
0.057302308
0.021395314
-0.021922264
0.057981917
0.024491257
-0.025170866
0.058744086
0.027210349
-0.027972519
0.05957312
0.030206299
-0.031035332
0.060455407
0.032789547
-0.033671834
0.061395226
0.035656176
-0.036595995
0.06237557
0.03816017
-0.039140514
0.063348419
0.040873282
-0.041846131
0.064408911
0.043462523
-0.044523016
0.065429767
0.045982997
-0.047003852
0.066291359
0.048496016
-0.049357608
0.066832017
0.050904934
-0.051445592
0.067136
0.052872105
-0.053176089
0.055289042
0.066853286
-0.055006327
0.060437762
0.0076884688
0.060302859
0.01023704
0.060477802
0.012914623
0.060734381
0.015508547
0.061183777
0.018257246
0.061731894
0.020847198
0.062440841
0.02378231
0.063204637
0.026446554
0.064048795
0.029362141
0.06487434
0.031964002
0.065670727
0.034859789
0.066368093
0.037462805
0.067010786
0.040230588
0.067527805
0.042945505
0.067959084
0.045551718
0.068162342
0.048292758
0.067985149
0.051082127
0.06739725
0.053460005
0.056696186
0.065990105
0.064793237
0.0080023886
0.064682548
0.010347729
0.064823941
0.01277323
0.065078758
0.01525373
0.065523761
0.017812243
0.066057591
0.020313367
0.066746199
0.023093702
0.067503926
0.025688826
0.06835386
0.028512207
0.069166765
0.031151098
0.069914109
0.034112446
0.070504253
0.036872661
0.070894359
0.039840483
0.071063855
0.042776008
0.07098061
0.045634964
0.070468784
0.048804585
0.069706348
0.051844563
0.068081014
0.055085339
0.058835904
0.065941296
0.069574447
0.0083422843
0.069477747
0.010444429
0.069545494
0.012705484
0.069825309
0.014973915
0.070265066
0.017372487
0.070810793
0.01976764
0.071456767
0.022447728
0.072128822
0.025016771
0.07286487
0.02777616
0.073575404
0.030440564
0.074199954
0.033487896
0.07467622
0.036396395
0.07491284
0.039603864
0.074910937
0.042777911
0.074338495
0.046207406
0.073392421
0.049750658
0.071829853
0.053407131
0.069534545
0.057380647
0.061777073
0.066593376
0.074513483
0.008647211
0.074391115
0.010566798
0.074475312
0.012621287
0.074736063
0.014713164
0.075162213
0.016946337
0.07568745
0.019242403
0.076340366
0.021794812
0.076986118
0.024371019
0.077622192
0.027140087
0.078125826
0.02993693
0.078589135
0.033024587
0.078864629
0.036120901
0.078889783
0.03957871
0.07858164
0.043086054
0.077728885
0.047060162
0.076615982
0.050863561
0.07469017
0.055332943
0.072361324
0.059709493
0.065057679
0.069080718
0.080153078
0.0088906678
0.079950741
0.010769135
0.08008668
0.012485347
0.080285878
0.014513967
0.080732804
0.01649941
0.081150826
0.018824382
0.08173453
0.021211107
0.082263954
0.023841596
0.08280357
0.026600471
0.083180754
0.029559748
0.0835166
0.032688742
0.083537758
0.036099743
0.083407106
0.039709363
0.082826011
0.043667148
0.082171621
0.047714552
0.080968867
0.052066315
0.079516535
0.056785274
0.077814935
0.061411094
0.067116367
0.075756246
0.085870968
0.0091912202
0.085694128
0.010945975
0.085869473
0.012310002
0.086100914
0.014282526
0.086588661
0.016011664
0.087023602
0.018389441
0.087622047
0.020612662
0.088138893
0.023324749
0.088611262
0.026128103
0.088951264
0.029219747
0.089139647
0.03250036
0.08909388
0.03614551
0.088985761
0.039817482
0.088560455
0.044092455
0.088354911
0.047920096
0.087615805
0.052805421
0.087764801
0.056636278
0.087622981
0.061552915
0.065504614
0.089234734
0.092114609
0.0096503416
0.092042101
0.011018483
0.092130292
0.012221812
0.092394781
0.014018037
0.092792797
0.015613648
0.093244917
0.01793732
0.093800728
0.020056852
0.094286445
0.022839032
0.094732992
0.025681557
0.095095214
0.028857526
0.095362883
0.032232692
0.095556124
0.03595227
0.095813619
0.039559987
0.096012157
0.043893917
0.096678509
0.047253745
0.097659125
0.051824805
0.099988488
0.054306915
0.10291347
0.058627932
0.059598041
0.10882004
0.098856418
0.010073553
0.098997913
0.010876988
0.098989091
0.012230634
0.099338467
0.01366866
0.099702465
0.015249651
0.10018157
0.01745822
0.1007286
0.019509821
0.10117817
0.022389464
0.10167849
0.025181228
0.10216534
0.028370685
0.10275974
0.031638289
0.10341016
0.035301849
0.10434016
0.038629985
0.1055768
0.04265728
0.10768201
0.045148535
0.11088453
0.048622286
0.11539724
0.0497942
0.12181004
0.052215138
0.050794825
0.13061325
0.10595062
0.010546359
0.10600622
0.010821386
0.10592895
0.012307905
0.10638036
0.01321725
0.10671215
0.014917864
0.10735807
0.016812301
0.10793573
0.018932164
0.10849052
0.02183467
0.10926114
0.024410612
0.11010418
0.027527641
0.11112581
0.030616659
0.11233293
0.034094731
0.11416903
0.036793889
0.1169585
0.039867812
0.12073945
0.041367579
0.12612107
0.043240668
0.13264528
0.043269988
0.14137375
0.043486673
0.040799984
0.15136859
0.11398996
0.01064969
0.11405121
0.010760139
0.11415266
0.012206455
0.11459467
0.012775244
0.11490198
0.014610551
0.11564643
0.016067855
0.11620358
0.018375015
0.11709665
0.020941594
0.11812466
0.023382604
0.11929065
0.02636165
0.12078569
0.029121621
0.12298615
0.031894272
0.12597047
0.033809574
0.13037207
0.035466206
0.13557782
0.03616183
0.14251424
0.036304249
0.15015001
0.035634216
0.15943424
0.034202441
0.031485081
0.16874914
0.12225387
0.010762917
0.12212793
0.010886085
0.1224683
0.011866084
0.12284803
0.012395516
0.12334355
0.014115032
0.12409538
0.015316021
0.12484367
0.017626724
0.12612325
0.019662023
0.12736321
0.022142642
0.12916939
0.024555471
0.13144619
0.026844823
0.13491521
0.028425247
0.13891007
0.029814718
0.14452234
0.029853933
0.15056965
0.030114522
0.15819336
0.028680539
0.16586203
0.027965543
0.17436487
0.025699608
0.024140883
0.18170906
0.13157909
0.010747226
0.13132226
0.01114291
0.13184118
0.011347163
0.13214269
0.012094011
0.1329095
0.013348222
0.13375455
0.014470966
0.13487301
0.016508264
0.13636316
0.018171882
0.13803887
0.020466927
0.14060616
0.02198819
0.1436428
0.023808179
0.14794579
0.024122261
0.15277037
0.02499014
0.15899072
0.02363358
0.16524676
0.023858482
0.17258256
0.021344734
0.17909718
0.021450932
0.1856263
0.019170486
0.019136427
0.19063075
0.14111407
0.010746708
0.14106542
0.011191559
0.14167396
0.010738633
0.14203741
0.011730555
0.14305006
0.012335576
0.14400319
0.013517834
0.1454933
0.015018153
0.14729058
0.016374604
0.14962399
0.018133517
0.15266091
0.018951273
0.15649406
0.01997503
0.16125959
0.019356735
0.16654994
0.019699787
0.17251891
0.017664605
0.17829837
0.018079028
0.18441946
0.015223641
0.18919786
0.016672533
0.19350855
0.014859795
0.017069656
0.19557532
0.15150321
0.010999636
0.15180584
0.01088893
0.15224922
0.010295253
0.15281362
0.011166153
0.15399615
0.011153049
0.15514041
0.012373578
0.15701238
0.013146184
0.15907472
0.014312257
0.16203096
0.015177285
0.16549391
0.015488324
0.16991553
0.015553407
0.17463135
0.014640919
0.17986141
0.014469727
0.18497534
0.01255067
0.18976225
0.013292119
0.19378221
0.011203685
0.19630702
0.014147723
0.19809082
0.013075993
0.018017273
0.1971432
0.16271169
0.011208948
0.16333127
0.010269355
0.16361967
0.010006851
0.16471506
0.010070769
0.16595909
0.0099090173
0.16746316
0.010869506
0.16967915
0.010930199
0.17201741
0.011973996
0.17552035
0.011674338
0.17900398
0.012004699
0.18360055
0.010956842
0.18796584
0.010275621
0.19268863
0.009746946
0.19646248
0.0087768148
0.19962735
0.010127255
0.20102642
0.0098046104
0.20125364
0.0139205
0.20017996
0.014149677
0.021185166
0.19701207
0.17499485
0.011200857
0.1754908
0.009773403
0.17589908
0.0095985788
0.17722858
0.0087412628
0.17823615
0.0089014512
0.18030821
0.0087974432
0.18255673
0.0086816772
0.18541121
0.0091195151
0.1889655
0.0081200561
0.1924406
0.0085295919
0.19684492
0.0065525282
0.200218
0.0069025415
0.20384395
0.0061209951
0.20575466
0.0068661085
0.20701517
0.0088667442
0.20621648
0.010603292
0.20459142
0.015545567
0.20089877
0.017842321
0.02679581
0.19528813
0.18825545
0.010882634
0.18877648
0.0092523683
0.1896458
0.0087292609
0.19096537
0.0074216969
0.1923257
0.0075411245
0.19480819
0.0063149516
0.19700988
0.0064799846
0.20041068
0.0057187194
0.20339782
0.0051329086
0.20707742
0.0048499917
0.21025684
0.0033731064
0.21242321
0.0047361757
0.21436269
0.0041815171
0.21408154
0.0071472597
0.21361797
0.0093303115
0.21061608
0.013605179
0.20718923
0.018972425
0.20098629
0.024045251
0.034241197
0.19354091
0.20242073
0.010422018
0.2028452
0.0088278938
0.20386919
0.007705271
0.20506442
0.006226472
0.20685844
0.005747102
0.2090273
0.0041460953
0.21124057
0.0042667108
0.21442861
0.0025306749
0.2170012
0.0025603258
0.22028423
0.0015669542
0.22180191
0.0018554353
0.22340522
0.0031328583
0.22345972
0.0041270248
0.22190139
0.008705586
0.2195908
0.011640896
0.21455116
0.018644823
0.20953603
0.023987551
0.20187329
0.031707993
0.040677928
0.19543656
0.21774009
0.0098126036
0.21852876
0.0080392247
0.21986036
0.0063736652
0.22117981
0.0049070249
0.22327743
0.0036494848
0.22514576
0.0022777671
0.22770437
0.0017080942
0.23026989
-3.4844041e-05
0.23244132
0.00038889099
0.23443247
-0.00042418946
0.2349151
0.0013728044
0.23539149
0.0026564674
0.23327131
0.0062472069
0.23090951
0.011067386
0.22652521
0.016025198
0.22133242
0.023837607
0.21657053
0.028749448
0.21122409
0.037054426
0.041521737
0.21038028
0.23393802
0.0092038757
0.23477315
0.0072040958
0.2359317
0.0052151139
0.23745343
0.0033852965
0.23937786
0.001725056
0.24109901
0.0005566116
0.24356837
-0.00076127052
0.24498306
-0.0014495257
0.24657345
-0.0012015019
0.24719416
-0.0010448997
0.24700376
0.0015632002
0.24578258
0.0038776501
0.24259849
0.009431291
0.23954926
0.014116615
0.23503151
0.020542954
0.23254654
0.026322578
0.23068766
0.030608323
0.23200075
0.03574134
0.034698736
0.23882375
0.25215139
0.0082355266
0.25320791
0.0061475664
0.25452231
0.0039007186
0.25610801
0.0017995935
0.25763975
0.00019331612
0.25942626
-0.0012298987
0.26100573
-0.0023407407
0.26184782
-0.0022916156
0.2628727
-0.0022263885
0.26239906
-0.00057126035
0.26154914
0.0024131268
0.25907761
0.0063491754
0.25623314
0.01227576
0.25360019
0.01674957
0.251884
0.022259146
0.25297041
0.025236166
0.25560537
0.027973365
0.26372025
0.027626455
0.024657412
0.27376157
0.27105505
0.0071205411
0.27223464
0.0049679764
0.27363256
0.002502797
0.27483375
0.00059839943
0.27598076
-0.00095368723
0.27712633
-0.0023754743
0.27761531
-0.0028297193
0.27802538
-0.0027016863
0.2776128
-0.0018138143
0.27642302
0.00061852722
0.27487246
0.0039636846
0.27264002
0.0085816097
0.27173973
0.013176052
0.27185976
0.016629543
0.27428428
0.019834623
0.27882902
0.020691425
0.28603849
0.020763899
0.29576706
0.017897884
0.017400449
0.30302402
0.29218773
0.0057727637
0.29351835
0.0036373584
0.2947644
0.0012567433
0.29576514
-0.00040234043
0.29661689
-0.0018054367
0.29713834
-0.0028969273
0.29752939
-0.0032207699
0.2976574
-0.0028296999
0.29688492
-0.0010413349
0.29574425
0.0017591994
0.29418846
0.0055194802
0.29331372
0.0094563435
0.29411236
0.012377409
0.29625464
0.014487263
0.3006506
0.015438664
0.30674422
0.014597808
0.31442344
0.01308468
0.32068339
0.011637932
0.01390056
0.32418328
0.31451253
0.0042797869
0.3159576
0.0021922886
0.31690868
0.00030565839
0.3172846
-0.00077826328
0.31718517
-0.0017060058
0.31669084
-0.002402594
0.31587037
-0.0024003102
0.3147986
-0.0017579288
0.31380855
-5.1284407e-05
0.31315033
0.0024174194
0.31348016
0.005189651
0.31556787
0.0073686281
0.31927262
0.008672667
0.32441824
0.0093416393
0.33073046
0.0091264415
0.33690534
0.0084229307
0.34172486
0.0082651594
0.34381179
0.0095510065
0.013398625
0.34431372
0.33958093
0.0024014962
0.3410718
0.00070141679
0.34169368
-0.00031622375
0.34164163
-0.00072621458
0.34101104
-0.0010754133
0.34018155
-0.0015731089
0.33951822
-0.0017369805
0.33910774
-0.0013474431
0.33883853
0.0002179236
0.33951339
0.0017425534
0.34110627
0.0035967696
0.34405074
0.0044241585
0.34739687
0.0053265428
0.35153948
0.0051990209
0.35505042
0.0056155091
0.35807304
0.005400305
0.3601542
0.0061839968
0.36246337
0.0072418403
0.0081301863
0.36773181
0.36588735
0.36658877
0.36627255
0.36554633
0.36447092
0.36289781
0.36116083
0.35981338
0.36003131
0.36177386
0.36537063
0.36979479
0.37512133
0.38032035
0.38593586
0.39133617
0.39752016
0.404762
0.41289219
0.062137256
0.060823441
-0.05610741
0.056702699
0.062565907
-0.057131351
0.051497886
0.063276805
-0.058071991
0.045479852
0.063707251
-0.057689217
0.038940447
0.06429941
-0.057760005
0.032175236
0.062588594
-0.055823382
0.022969283
0.062116861
-0.052910908
0.014434456
0.058161211
-0.049626384
0.0089254224
0.040458707
-0.034949673
-0.0028790533
0.032660776
-0.020856301
-0.021363231
0.039178284
-0.020694107
-0.039518714
0.042871324
-0.02471584
-0.056927095
0.041910776
-0.024502395
-0.073455818
0.044320664
-0.027791941
-0.087342277
0.045470696
-0.031584238
-0.099958445
0.04560941
-0.032993242
-0.11087919
0.046371061
-0.035450313
-0.11929071
0.047087967
-0.038676452
0.048604182
-0.12562726
-0.042267627
0.060222148
0.066591398
0.053739319
0.069048736
0.047313965
0.069702159
0.040149383
0.070871833
0.032753566
0.071695228
0.024501172
0.070840988
0.015437012
0.071181021
0.0095221134
0.06407611
0.0013297244
0.048651096
-0.015476773
0.049467273
-0.03417476
0.057876272
-0.052539911
0.061236474
-0.072025137
0.061396003
-0.089383333
0.06167886
-0.10242355
0.058510917
-0.11332176
0.056507616
-0.12224877
0.055298067
-0.12877722
0.053616425
0.05250875
-0.13268179
0.059046857
0.073485838
0.051773462
0.076322131
0.043905226
0.077570395
0.035352474
0.079424585
0.026697623
0.080350079
0.017364732
0.080173878
0.0097587727
0.07878698
0.003570321
0.070264562
-0.0130511
0.065272517
-0.035013165
0.071429338
-0.054109319
0.076972426
-0.0724259
0.079553055
-0.089648306
0.078618409
-0.10382951
0.075860059
-0.11558797
0.070269377
-0.12507686
0.06599651
-0.13117549
0.061396695
-0.13495288
0.057393817
0.054303979
-0.13674811
0.058641201
0.081438013
0.050319874
0.084643458
0.040885842
0.087004428
0.030656718
0.089653708
0.019529397
0.091477401
0.0071542324
0.092549042
-0.0024514811
0.088392694
-0.014666019
0.082479099
-0.038083042
0.088689541
-0.062701858
0.096048154
-0.083352689
0.097623258
-0.10288051
0.099080874
-0.11905943
0.094797328
-0.13122469
0.088025322
-0.14008987
0.079134562
-0.14566795
0.071574587
-0.14802349
0.063752233
-0.14793899
0.057309322
0.052605301
-0.14624032
0.060337805
0.090180926
0.050873344
0.094107918
0.03990338
0.097974392
0.027407458
0.10214963
0.01285345
0.10603141
-0.0046849092
0.1100874
-0.022947215
0.106655
-0.042355943
0.10188783
-0.064780583
0.11111418
-0.087979135
0.11924671
-0.10902316
0.11866728
-0.12800049
0.1180582
-0.14432413
0.11112097
-0.15755014
0.10125133
-0.16664476
0.088229186
-0.17185914
0.07678896
-0.17284786
0.064740958
-0.17058312
0.055044576
0.047810372
-0.16578819
0.067122625
0.098814548
0.057468063
0.10376248
0.046605991
0.10883646
0.034020594
0.11473503
0.019082761
0.12096924
0.0005981474
0.12857201
-0.024875087
0.13212824
-0.052006302
0.12901904
-0.073774969
0.13288285
-0.09413207
0.13960381
-0.11451023
0.13904545
-0.13262692
0.13617489
-0.14981871
0.12831276
-0.16448591
0.11591853
-0.17511377
0.098857051
-0.1808265
0.082501688
-0.18160005
0.065514513
-0.1778813
0.051325822
0.041096007
-0.17116694
0.081762683
0.1062866
0.07392338
0.11160178
0.065484336
0.11727551
0.056228796
0.12399057
0.045995624
0.13120242
0.034676839
0.1398908
0.017067433
0.14973764
-0.0086989709
0.15478544
-0.033529021
0.1577129
-0.055149963
0.16122475
-0.076019548
0.15991503
-0.094337875
0.15449322
-0.10942753
0.14340242
-0.1207864
0.12727739
-0.12853746
0.10660812
-0.13048499
0.084449213
-0.12821208
0.063241602
-0.12330561
0.046419356
0.035935517
-0.11814512
0.10334188
0.11176476
0.09853653
0.11640713
0.093793279
0.12201876
0.089991736
0.12779211
0.086686972
0.13450718
0.08480779
0.14176998
0.0847232
0.14982223
0.082070827
0.15743782
0.077555852
0.16222787
0.072984521
0.16579608
0.067454704
0.16544485
0.061540367
0.16040755
0.055422971
0.14951982
0.048075322
0.13462504
0.039921092
0.11476235
0.031574528
0.092795777
0.022527794
0.072288336
0.012532531
0.056414619
0.046692146
0.0017759019
0.12735952
0.11501849
0.1247287
0.11903795
0.12296083
0.12378663
0.12251788
0.12823506
0.12378614
0.13323893
0.12709668
0.13845943
0.13338667
0.14353225
0.14123706
0.14958743
0.14947067
0.15399426
0.15870714
0.1565596
0.16728313
0.15686886
0.17393552
0.15375516
0.17699489
0.14646045
0.17626551
0.13535442
0.17140672
0.11962113
0.16101587
0.10318663
0.14534692
0.087957285
0.12599196
0.075769578
0.06689248
0.10579163
0.14900168
0.1173854
0.14748376
0.12055588
0.14684669
0.12442371
0.14728471
0.12779703
0.14980281
0.13072082
0.15396669
0.13429555
0.15995633