/*--------------------------------*- C++ -*----------------------------------*\
  =========                 |
  \\      /  F ield         | OpenFOAM: The Open Source CFD Toolbox
   \\    /   O peration     | Website:  https://openfoam.org
    \\  /    A nd           | Version:  11
     \\/     M anipulation  |
\*---------------------------------------------------------------------------*/
FoamFile
{
    format      ascii;
    class       volVectorField;
    location    "10.6";
    object      U;
}
// * * * * * * * * * * * * * * * * * * * * * * * * * * * * * * * * * * * * * //

dimensions      [0 1 -1 0 0 0 0];

internalField   nonuniform List<vector> 
5472
(
(10.037345 2.4527324 1.6614056e-18)
(10.230694 2.4464848 -1.7299787e-18)
(10.407497 2.4670181 -1.7443629e-18)
(10.598079 2.432075 -1.7723835e-18)
(10.770689 2.4121283 5.4969038e-18)
(10.930471 2.3730197 -3.6150047e-20)
(11.110217 2.3040654 -2.8976313e-18)
(11.280181 2.2340201 1.0092722e-18)
(11.429518 2.1431666 0)
(11.575593 2.0402396 0)
(11.71461 1.9300849 0)
(11.827011 1.8035508 -3.1339297e-18)
(11.957354 1.6707009 1.6083615e-18)
(12.05385 1.5316377 -2.3258085e-20)
(12.151936 1.367343 1.0829414e-18)
(12.208676 1.2217262 -5.5696093e-19)
(12.289942 1.0549091 -8.3177604e-19)
(12.308541 0.90062269 2.8550511e-19)
(12.36927 0.73137136 0)
(10.01766 2.2509369 -1.519099e-18)
(10.179048 2.2516729 3.1337767e-18)
(10.354996 2.2836796 -1.6166353e-18)
(10.536865 2.2456887 -1.6233383e-18)
(10.689746 2.231912 2.3794356e-20)
(10.844857 2.1931367 0)
(11.039257 2.1379794 1.7375933e-18)
(11.173329 2.0777879 -3.5417206e-18)
(11.329021 2.0008935 4.5689729e-18)
(11.478954 1.9098078 9.31222e-19)
(11.604485 1.8149934 0)
(11.750059 1.6934703 1.9311978e-18)
(11.860942 1.5691534 0)
(11.963917 1.4394354 4.8756196e-19)
(12.054911 1.2955184 -5.0214405e-19)
(12.119446 1.158527 0)
(12.193476 1.0181768 0)
(12.229536 0.86919244 -2.512559e-19)
(12.273777 0.72675437 0)
(10.05252 2.0704422 0)
(10.209659 2.1076487 1.4266011e-18)
(10.363929 2.1278916 1.4607677e-18)
(10.495447 2.1053334 0)
(10.654035 2.1224746 -1.9475312e-20)
(10.832133 2.0815309 -2.6801581e-20)
(10.970158 2.0547943 -1.6029549e-18)
(11.107477 1.9995189 0)
(11.267385 1.9337739 -1.6420345e-18)
(11.395026 1.8646043 -4.1994072e-18)
(11.540138 1.7696787 1.3167484e-20)
(11.667786 1.6630361 -8.4955375e-19)
(11.762649 1.5566506 -8.7517787e-19)
(11.867663 1.4399941 1.7938172e-18)
(11.955533 1.3012 1.3511865e-18)
(12.020882 1.1832241 4.5521549e-19)
(12.102288 1.0338982 2.2697904e-19)
(12.132621 0.89554185 -3.4284764e-19)
(12.189979 0.75245765 1.1419762e-19)
(10.031185 1.9123442 0)
(10.173249 1.9291668 -1.287628e-18)
(10.297019 1.9549368 -1.317052e-18)
(10.432346 1.9561179 2.6819351e-18)
(10.614947 1.957228 -1.4100247e-18)
(10.72026 1.9305248 0)
(10.874092 1.9159067 -1.4488053e-18)
(11.028876 1.8524463 1.4584817e-18)
(11.174801 1.8117813 -1.510209e-18)
(11.317015 1.7352516 -1.9212748e-20)
(11.445449 1.6568421 -1.5579089e-18)
(11.56226 1.5622698 0)
(11.665192 1.4590801 0)
(11.785954 1.3421419 -7.9829174e-19)
(11.862801 1.2221746 -8.0539151e-19)
(11.953042 1.0991948 0)
(12.021031 0.95743636 -2.0443116e-19)
(12.068724 0.83870616 1.0364288e-19)
(12.117088 0.68523168 2.0597534e-19)
(10.061082 1.7420706 0)
(10.149011 1.7912408 0)
(10.302996 1.8085712 0)
(10.435345 1.8260452 -2.4294291e-18)
(10.554677 1.8453283 1.2649248e-18)
(10.672286 1.8280112 -3.8210396e-18)
(10.839491 1.8126618 5.2229335e-18)
(10.954857 1.7690166 -2.6607811e-18)
(11.095716 1.744581 3.5369416e-21)
(11.213424 1.6776679 1.368327e-18)
(11.338372 1.6265811 1.3888566e-18)
(11.461177 1.5276033 -2.8339252e-18)
(11.569818 1.4412174 2.156841e-18)
(11.685041 1.337221 -7.2893966e-19)
(11.762901 1.2231645 0)
(11.862245 1.1006178 7.3947567e-19)
(11.907287 0.97618532 -3.7115887e-19)
(11.969721 0.8489933 1.8427153e-19)
(11.996559 0.71190694 -1.8336031e-19)
(10.008749 1.6055589 0)
(10.150714 1.6263826 -4.2071438e-18)
(10.274635 1.6696986 2.1745959e-18)
(10.366782 1.7067592 2.216529e-18)
(10.514835 1.7015312 1.1261782e-18)
(10.626802 1.6985912 -1.1436417e-18)
(10.77929 1.6803283 2.3739502e-18)
(10.875958 1.6591637 1.1920057e-18)
(11.035346 1.6281715 2.4248461e-18)
(11.150503 1.5687973 -2.4833672e-18)
(11.296716 1.5214828 1.7677561e-20)
(11.411997 1.4293192 2.5527421e-18)
(11.522688 1.360139 0)
(11.61942 1.2466204 -6.5523995e-19)
(11.706809 1.1546613 6.526591e-19)
(11.778855 1.0351261 -1.6464746e-18)
(11.84166 0.92586631 6.6091813e-19)
(11.901193 0.79483402 -1.6531436e-19)
(11.935534 0.67537635 4.4346411e-22)
(10.045986 1.451965 3.7352011e-18)
(10.166999 1.5102343 3.8056204e-18)
(10.227862 1.5445381 0)
(10.36771 1.5564999 -6.4100237e-21)
(10.46621 1.571695 -4.0759374e-18)
(10.581977 1.5942827 4.1835919e-18)
(10.706809 1.5756889 0)
(10.806966 1.5743386 -1.0861308e-18)
(10.966178 1.5383939 -4.383942e-18)
(11.055317 1.5121767 2.2498791e-18)
(11.202561 1.4522134 1.12505e-18)
(11.285555 1.3897349 -1.1541242e-18)
(11.407184 1.3197949 0)
(11.491943 1.2199179 5.8052356e-19)
(11.590947 1.1353756 0)
(11.674463 1.0135598 -5.8876898e-19)
(11.746597 0.9148688 8.9067532e-19)
(11.804009 0.78573602 8.9331065e-22)
(11.844864 0.67629716 -9.6340604e-22)
(10.033425 1.3262778 1.6732131e-18)
(10.156327 1.3552005 -3.4242535e-18)
(10.234535 1.4102691 -3.4865868e-18)
(10.360384 1.4438403 3.5914002e-18)
(10.42544 1.4510129 -1.8423092e-18)
(10.560238 1.4621172 -1.8648069e-18)
(10.643122 1.4655075 0)
(10.772307 1.4653119 2.8989563e-18)
(10.902478 1.4301598 -1.3841729e-20)
(10.992995 1.4150085 -2.9995884e-18)
(11.148202 1.3639601 3.0665535e-18)
(11.219391 1.3182628 0)
(11.37382 1.2372374 0)
(11.426855 1.1586777 1.0407564e-18)
(11.566439 1.0641219 -5.3436103e-19)
(11.605414 0.96838256 -1.0577889e-18)
(11.704283 0.86845423 2.6793643e-19)
(11.730222 0.75572648 2.6935823e-19)
(11.790487 0.64473465 6.5618163e-20)
(10.032885 1.195556 -1.5015708e-18)
(10.133413 1.2336526 4.598636e-18)
(10.186791 1.2876137 -4.7383348e-18)
(10.304902 1.3007502 3.2191308e-18)
(10.371365 1.3470782 0)
(10.501045 1.3579957 1.6703321e-18)
(10.569808 1.3533123 -1.7215197e-18)
(10.711477 1.3628815 0)
(10.788529 1.34108 8.7792688e-19)
(10.929916 1.3335232 -1.8160219e-18)
(11.033297 1.2835856 -9.048654e-19)
(11.144237 1.2457665 -9.7049944e-21)
(11.2573 1.1736147 -2.7895604e-18)
(11.329655 1.120601 4.7976544e-19)
(11.448527 1.0166167 -4.637585e-19)
(11.485623 0.94363 9.4821505e-19)
(11.596114 0.83183746 -4.7156858e-19)
(11.622281 0.73991837 2.4140001e-19)
(11.705796 0.621537 2.3620179e-19)
(10.06127 1.069041 -2.7013377e-18)
(10.146826 1.110747 0)
(10.21435 1.1608029 1.4089316e-18)
(10.320041 1.1944982 -4.3115552e-18)
(10.377586 1.2294664 1.483564e-18)
(10.498662 1.2370344 -1.5068169e-18)
(10.568855 1.2653503 1.5238945e-18)
(10.70406 1.262623 -1.5676069e-18)
(10.773934 1.2511521 0)
(10.915653 1.2440824 7.9880241e-19)
(10.979466 1.2032357 0)
(11.116362 1.18456 8.1663463e-19)
(11.182796 1.1091801 -3.8305831e-23)
(11.302483 1.062324 -4.1419891e-19)
(11.37827 0.96306502 4.1664838e-19)
(11.455952 0.9054969 4.1900024e-19)
(11.523115 0.7853211 -2.8288146e-21)
(11.571243 0.71394741 -6.3210221e-19)
(11.61829 0.58918267 0)
(10.064125 0.93388222 0)
(10.121078 0.98930912 1.2344378e-18)
(10.184641 1.0548433 0)
(10.262662 1.0778179 1.277752e-18)
(10.324062 1.1162079 -3.9539054e-18)
(10.423327 1.1213978 4.0403464e-18)
(10.479283 1.1535007 -1.3511279e-18)
(10.599985 1.1607058 4.1922806e-18)
(10.670261 1.1770115 0)
(10.805938 1.1547733 7.1826637e-19)
(10.874912 1.1413372 0)
(11.008924 1.097865 -1.4551565e-18)
(11.071148 1.0520848 2.9499101e-18)
(11.198675 1.0012525 -8.1810675e-21)
(11.25815 0.91888473 -3.745934e-19)
(11.35886 0.86008863 0)
(11.411109 0.75606903 0)
(11.479725 0.68462139 0)
(11.519848 0.56722825 -4.68708e-20)
(10.07857 0.82644509 4.2936638e-18)
(10.119582 0.88182963 -5.5241569e-18)
(10.206121 0.92858859 2.2457734e-18)
(10.252642 0.98105939 -8.2804493e-21)
(10.333758 1.0201297 0)
(10.41031 1.0387924 -2.3864113e-18)
(10.482324 1.0599564 1.2338725e-18)
(10.599016 1.0576136 -1.2363234e-18)
(10.669301 1.0768643 0)
(10.791563 1.0637877 -6.3484548e-19)
(10.859488 1.0641416 1.2817999e-18)
(10.981465 1.0249519 -1.3388846e-20)
(11.043286 1.0004649 -1.3169512e-18)
(11.162717 0.93762696 -2.6300744e-18)
(11.211288 0.88527167 2.3192159e-18)
(11.320668 0.81064368 -1.3283175e-18)
(11.35069 0.73017321 8.3410142e-19)
(11.430267 0.65109381 1.6699434e-19)
(11.439658 0.55305193 4.1137461e-20)
(10.060948 0.71552614 -6.7299452e-18)
(10.106158 0.77212903 3.9424622e-18)
(10.16566 0.81530154 0)
(10.212662 0.85285684 -5.113317e-18)
(10.297379 0.88634394 4.1998689e-18)
(10.341963 0.92941455 1.0679909e-18)
(10.425544 0.95081986 3.2484789e-18)
(10.500719 0.97094948 -2.2143057e-18)
(10.580528 0.9845383 -2.7859547e-18)
(10.682087 0.98687495 1.707328e-18)
(10.761802 0.98764639 2.276767e-18)
(10.878178 0.94950794 -3.4689614e-18)
(10.941781 0.92889628 2.3244954e-18)
(11.062247 0.86539312 -5.9241651e-19)
(11.119139 0.82723181 2.8983833e-19)
(11.232768 0.75277374 -4.2427239e-21)
(11.271087 0.6989599 -7.3711429e-19)
(11.367201 0.60898383 -1.4639659e-19)
(11.380374 0.53467458 -3.6803508e-20)
(10.080484 0.63394337 2.5733399e-18)
(10.123528 0.68494293 3.4909591e-18)
(10.178314 0.72101489 -3.5840172e-18)
(10.227564 0.77249862 9.1270387e-19)
(10.293322 0.80654918 -2.7760498e-18)
(10.340204 0.84785864 2.8554766e-18)
(10.426637 0.86670332 9.5755272e-19)
(10.48716 0.88714463 -4.8922559e-18)
(10.580099 0.89515628 3.4667028e-18)
(10.653848 0.90669661 -1.5157148e-18)
(10.754928 0.90352555 0)
(10.827444 0.89995323 -5.1282296e-19)
(10.910997 0.8756657 -1.5412688e-18)
(10.998185 0.82618475 5.2805181e-19)
(11.055389 0.78120598 1.5614077e-18)
(11.146134 0.70778704 5.1847283e-19)
(11.187697 0.65835006 -1.0415337e-18)
(11.270848 0.57153018 2.6207343e-19)
(11.296737 0.51829928 2.9168544e-19)
(10.051172 0.52698023 -3.7998209e-18)
(10.094509 0.5682769 3.11708e-18)
(10.132247 0.61880791 0)
(10.177391 0.65772184 -8.090435e-19)
(10.226581 0.69766985 3.2918668e-18)
(10.276866 0.74177256 -6.7185948e-18)
(10.353353 0.76821078 8.7861912e-19)
(10.419384 0.79905175 3.484424e-18)
(10.507326 0.80269027 2.6378406e-18)
(10.581154 0.81368039 -4.4492124e-19)
(10.681025 0.80976672 0)
(10.75363 0.81275159 2.2498834e-18)
(10.870346 0.78977968 -9.1744371e-19)
(10.939793 0.76905952 9.1336375e-19)
(11.02925 0.72296089 -1.3783518e-18)
(11.09102 0.67063038 -2.3041636e-19)
(11.155523 0.60623452 0)
(11.20776 0.53494322 0)
(11.255745 0.46817644 -2.8692003e-20)
(10.085143 0.45584605 6.5577826e-19)
(10.120056 0.49866002 -6.222406e-18)
(10.159585 0.54213299 2.8095765e-18)
(10.205833 0.57414228 -3.5935108e-18)
(10.251794 0.6112606 -7.299855e-19)
(10.305622 0.64682556 0)
(10.356651 0.68553546 -3.764344e-18)
(10.415851 0.72629355 2.3090098e-18)
(10.481547 0.74120938 -7.7683932e-19)
(10.549453 0.75163307 -1.8074318e-21)
(10.624543 0.74503838 0)
(10.692173 0.74465514 0)
(10.788729 0.72447228 -3.9966733e-19)
(10.856745 0.71739725 -4.0127235e-19)
(10.95549 0.67085931 2.0118159e-19)
(11.013948 0.63481903 1.2112485e-18)
(11.093924 0.57135691 -8.1197873e-19)
(11.132574 0.51633266 1.0151322e-19)
(11.200128 0.44082673 2.5066336e-20)
(10.050257 0.36566733 4.1848099e-18)
(10.078542 0.41169613 -4.2887252e-18)
(10.109641 0.45393343 0)
(10.145295 0.4921785 6.3443598e-19)
(10.192219 0.52503042 0)
(10.243768 0.55376592 6.5735433e-19)
(10.299651 0.58686366 6.6742106e-19)
(10.37316 0.61913736 0)
(10.442003 0.6464385 3.4084787e-18)
(10.522501 0.66413249 -2.42889e-18)
(10.587966 0.66993219 1.7385645e-18)
(10.667204 0.66707273 -1.4097331e-18)
(10.739741 0.65107701 1.4069729e-18)
(10.815394 0.64164614 -1.0333589e-20)
(10.893945 0.60443771 -1.4266542e-18)
(10.958921 0.57519289 -1.7728011e-19)
(11.030955 0.51850249 -1.7859571e-19)
(11.077318 0.46897372 -8.8597295e-20)
(11.14121 0.39670635 0)
(10.090436 0.29124205 4.7745888e-18)
(10.110562 0.33615522 0)
(10.146742 0.37116729 0)
(10.176275 0.41346012 5.6112785e-19)
(10.20617 0.45125896 0)
(10.239761 0.4864291 -5.7886942e-19)
(10.28285 0.5170179 -5.8701567e-19)
(10.333611 0.54886087 -2.3741443e-18)
(10.390417 0.57517441 2.4158338e-18)
(10.460789 0.59363258 0)
(10.524812 0.60586502 -2.7504102e-18)
(10.605205 0.60837571 2.1688877e-18)
(10.669671 0.60287927 1.2367937e-18)
(10.753187 0.5926117 -2.4916666e-18)
(10.820074 0.56332682 2.4977258e-18)
(10.896412 0.53288234 -1.8774664e-18)
(10.959592 0.48431509 6.2589101e-19)
(11.020954 0.43693487 0)
(11.073793 0.37486998 0)
(10.050173 0.23152814 7.5093441e-18)
(10.063845 0.26991604 -3.8294931e-18)
(10.105822 0.29604878 3.8861323e-18)
(10.127264 0.33341506 -4.459337e-18)
(10.169557 0.36104836 -4.0138758e-18)
(10.212505 0.40405281 4.0903513e-18)
(10.258854 0.43278947 2.0637165e-18)
(10.310729 0.46665454 -1.1069779e-20)
(10.365402 0.48947889 -2.1230076e-18)
(10.425999 0.50836652 0)
(10.489228 0.52354768 0)
(10.561709 0.5281556 2.7035051e-19)
(10.632539 0.52485092 0)
(10.709235 0.51657826 1.0892547e-18)
(10.772916 0.49640925 -1.0984913e-18)
(10.850532 0.46921911 -5.4667987e-19)
(10.903802 0.43029134 6.861023e-19)
(10.972277 0.38491597 -3.4203654e-19)
(11.013183 0.33663678 2.7314704e-19)
(10.063239 0.1789727 0)
(10.082651 0.2107448 0)
(10.102528 0.23831999 3.4271799e-18)
(10.119633 0.27023765 -3.4925858e-18)
(10.155809 0.29857031 3.9767911e-18)
(10.184578 0.33246826 -4.0464136e-18)
(10.231217 0.36583241 0)
(10.278067 0.40403962 4.6028805e-19)
(10.33653 0.42732449 1.8532462e-18)
(10.391413 0.45089131 -1.879862e-18)
(10.452667 0.46424079 1.8830987e-18)
(10.516755 0.47379382 -1.1774304e-20)
(10.583821 0.47634148 -3.8163736e-18)
(10.655185 0.4699547 1.9198955e-18)
(10.719497 0.45004072 0)
(10.792458 0.42634583 -9.5719298e-19)
(10.850171 0.39010981 1.5006704e-18)
(10.913852 0.3483983 -6.5983487e-19)
(10.960573 0.30520869 2.3905272e-19)
(10.042928 0.1328863 1.1327243e-17)
(10.072014 0.15442839 -5.9542274e-18)
(10.084282 0.18017379 0)
(10.11324 0.20488724 -3.8363305e-19)
(10.131891 0.23105982 -3.8882324e-19)
(10.166533 0.25721401 3.9395025e-19)
(10.20197 0.286355 0)
(10.249254 0.31612349 -4.0289019e-19)
(10.301793 0.34260203 3.2493652e-18)
(10.354482 0.3672726 -3.2928565e-18)
(10.420483 0.38606071 0)
(10.478416 0.39850925 0)
(10.547487 0.40383568 2.089965e-19)
(10.61396 0.40195304 1.0479844e-19)
(10.681755 0.38966089 -1.0497734e-19)
(10.747461 0.36930596 0)
(10.807109 0.34078132 -4.7073279e-19)
(10.862508 0.30600188 4.1970958e-19)
(10.909869 0.26668566 0)
(10.042041 0.096383142 -1.0308359e-17)
(10.055414 0.11461713 1.0797472e-17)
(10.071077 0.13165297 -1.2293046e-20)
(10.092561 0.15572934 -5.0609138e-18)
(10.115185 0.18149308 0)
(10.146517 0.20688411 2.7614378e-18)
(10.17719 0.23648299 -5.7701518e-18)
(10.222884 0.25944193 2.8320045e-18)
(10.259347 0.28550321 0)
(10.318615 0.30333796 -2.8661341e-18)
(10.367822 0.32451457 2.898914e-18)
(10.43514 0.33834072 1.4487795e-18)
(10.498387 0.34461098 -1.4615026e-18)
(10.567293 0.3438507 1.2748497e-18)
(10.634036 0.3339727 -1.3760947e-18)
(10.699272 0.31625645 0)
(10.763965 0.29101138 -4.581962e-20)
(10.8204 0.25941555 -1.3667585e-19)
(10.874619 0.22463494 1.9367541e-19)
(10.043509 0.070484667 2.833334e-19)
(10.055033 0.082688035 -5.7528058e-19)
(10.070752 0.094349093 4.6627708e-18)
(10.085163 0.10437263 2.8462206e-19)
(10.110436 0.12167233 -3.1269968e-19)
(10.129685 0.14376562 -4.8548665e-18)
(10.166071 0.16625314 1.5297567e-19)
(10.200334 0.19492671 2.6222599e-18)
(10.239554 0.21659924 -2.4982829e-18)
(10.289939 0.23741716 -1.5707214e-19)
(10.333686 0.25562516 0)
(10.398394 0.26948581 2.6891456e-18)
(10.453403 0.28196745 -2.7107777e-18)
(10.524788 0.28397599 -1.1922527e-18)
(10.585901 0.28388541 8.6410265e-20)
(10.653708 0.26801547 1.9163739e-18)
(10.712353 0.25291528 -5.9943696e-19)
(10.769388 0.2255366 -5.9661973e-20)
(10.818385 0.19840184 -9.8929885e-21)
(10.022847 0.048436725 0)
(10.034597 0.057968226 2.5248432e-19)
(10.046994 0.067834286 4.0912991e-18)
(10.062672 0.078780939 -4.5406894e-18)
(10.077337 0.089863284 4.3223131e-18)
(10.098991 0.10501176 -4.2487569e-18)
(10.129181 0.12179381 1.340074e-19)
(10.162768 0.14055965 -1.3493289e-19)
(10.209671 0.15915307 2.0361404e-18)
(10.254957 0.17546566 -2.0587915e-18)
(10.311049 0.19117339 2.0585162e-18)
(10.369489 0.20256791 -2.2845883e-18)
(10.432727 0.20974175 0)
(10.499122 0.21160702 1.107035e-18)
(10.562957 0.2072688 -1.252244e-18)
(10.630862 0.19689598 5.5404508e-19)
(10.689537 0.18144855 -5.2125298e-19)
(10.747953 0.15968134 -2.4199929e-19)
(10.792948 0.13230685 2.8068814e-19)
(10.023617 0.026818187 -7.2961501e-21)
(10.031657 0.034556841 -7.0924966e-18)
(10.044114 0.038493667 1.1221924e-19)
(10.061667 0.048675519 -1.2632144e-22)
(10.075127 0.054722522 1.1469181e-19)
(10.097934 0.064500709 0)
(10.118246 0.075733666 3.7380475e-18)
(10.147061 0.090693845 -3.898482e-18)
(10.182412 0.10639317 1.1861628e-19)
(10.218546 0.12226745 -1.8475713e-18)
(10.266537 0.13840702 3.9004337e-18)
(10.316449 0.15108447 -3.8541432e-18)
(10.376879 0.16318048 1.9364735e-18)
(10.444498 0.16915107 0)
(10.512519 0.17496627 -9.3427109e-19)
(10.582456 0.1696972 9.6844449e-19)
(10.645708 0.16468174 -1.5016299e-20)
(10.704435 0.15128565 3.4246658e-23)
(10.756281 0.13288027 -3.7423705e-21)
(10.008044 0.014987163 6.1809622e-18)
(10.015581 0.017452519 -6.2059146e-18)
(10.026917 0.02067206 6.1907688e-18)
(10.039367 0.024932851 9.9234683e-20)
(10.055832 0.028534163 0)
(10.074868 0.032801275 0)
(10.096966 0.038311941 -5.089584e-20)
(10.12705 0.043148652 -3.2328404e-18)
(10.160632 0.049484546 3.3682129e-18)
(10.20347 0.055308054 3.2929026e-18)
(10.251996 0.060740371 -1.6026664e-18)
(10.306097 0.066296095 -1.7564111e-18)
(10.368024 0.068232795 0)
(10.43134 0.067521276 2.6267566e-20)
(10.501082 0.065878314 2.6197945e-20)
(10.570458 0.062571986 8.2305405e-19)
(10.635949 0.060775855 -8.5164612e-19)
(10.694115 0.050635886 1.8896889e-19)
(10.745093 0.037143615 -2.0835082e-19)
(10.006825 0.0039716833 -4.1647908e-20)
(10.011538 0.0061078679 5.3722048e-18)
(10.019325 0.0090848637 -5.304004e-21)
(10.030141 0.012512642 -7.4467842e-21)
(10.044188 0.016427673 -5.5540374e-18)
(10.061934 0.020725857 0)
(10.084273 0.025345472 2.7735736e-18)
(10.112077 0.030094788 -2.800533e-18)
(10.146051 0.034574753 -4.4537491e-20)
(10.186625 0.038461316 -2.2363073e-20)
(10.233643 0.041438232 -2.243279e-20)
(10.287463 0.043373314 2.2478394e-20)
(10.344133 0.045286873 0)
(10.40138 0.048644098 1.4206758e-18)
(10.46061 0.055188106 -1.4548831e-18)
(10.520883 0.053710978 -7.1292454e-19)
(10.587325 0.067786841 7.2724603e-19)
(10.653848 0.059459563 3.67255e-19)
(10.699513 0.0592225 -3.6127599e-19)
(12.374822 0.60102581 -1.356959e-19)
(12.389049 0.42631564 -5.4414777e-19)
(12.373133 0.30944336 5.31168e-19)
(12.352055 0.1561201 0)
(12.322765 0.051069694 -9.8980847e-19)
(12.27592 -0.086841962 -1.9146593e-18)
(12.233985 -0.16564101 0)
(12.171562 -0.28795976 -2.4400315e-20)
(12.094368 -0.36566608 3.2722922e-18)
(12.01237 -0.48746807 1.5704317e-18)
(11.888743 -0.54435929 -1.4752291e-18)
(11.803706 -0.65685223 2.8136854e-18)
(11.646545 -0.69368482 -2.6305112e-18)
(11.564723 -0.77022856 0)
(11.404341 -0.8125801 1.2145348e-18)
(11.294904 -0.86724433 -1.127226e-18)
(11.097642 -0.89154248 -2.2087143e-18)
(10.904625 -0.90771209 2.0722325e-18)
(10.677789 -0.88112019 -9.9420413e-19)
(12.28587 0.57351038 -1.1760704e-19)
(12.299075 0.41068381 7.0255535e-19)
(12.282739 0.27291743 -4.6030769e-19)
(12.269588 0.12171522 0)
(12.224494 0.0051529804 -8.7312529e-19)
(12.181575 -0.13414497 2.5107621e-18)
(12.119747 -0.22214885 0)
(12.051601 -0.33641191 0)
(11.976448 -0.40403585 0)
(11.887065 -0.50327752 0)
(11.771253 -0.55123226 2.646562e-18)
(11.651154 -0.62345131 -3.7924615e-18)
(11.507603 -0.64697584 -3.6549712e-18)
(11.376254 -0.67838299 2.2795944e-18)
(11.219802 -0.67485969 -2.1957346e-18)
(11.11296 -0.68142311 2.1325408e-18)
(10.971393 -0.62067879 -6.2362445e-21)
(10.784517 -0.61567894 -1.9187356e-18)
(10.653135 -0.48006538 1.8933279e-18)
(12.196724 0.5954154 0)
(12.220628 0.44200253 -4.1020966e-19)
(12.202744 0.29132819 -8.0328283e-19)
(12.189215 0.14696156 -4.1561872e-21)
(12.140891 0.021919575 -8.2611104e-21)
(12.096655 -0.10954458 1.4943789e-18)
(12.023744 -0.20595038 -2.8432014e-18)
(11.948251 -0.31444042 1.3539065e-18)
(11.866725 -0.39008112 2.1771535e-20)
(11.768887 -0.47341868 0)
(11.676079 -0.5153403 3.6029572e-18)
(11.55535 -0.55862733 1.7476471e-20)
(11.430573 -0.57360514 2.1926436e-18)
(11.289225 -0.56141194 2.1264788e-18)
(11.13962 -0.54798706 3.0280323e-18)
(11.00584 -0.49148248 -3.819997e-18)
(10.866574 -0.42227445 -4.6168226e-20)
(10.727301 -0.32627055 3.5433947e-18)
(10.648923 -0.16236243 1.7858581e-18)
(12.124943 0.5480072 3.5638603e-19)
(12.144164 0.3930537 -7.1109281e-19)
(12.110833 0.24537175 1.047458e-18)
(12.092324 0.11202864 0)
(12.039899 -0.014266094 2.0008792e-18)
(11.983513 -0.13646015 -3.2341718e-18)
(11.912925 -0.22667134 2.5094968e-18)
(11.831251 -0.31649224 -3.9856627e-21)
(11.731409 -0.38087961 2.3002894e-20)
(11.635078 -0.44736334 -1.1326241e-18)
(11.543369 -0.47210658 0)
(11.434452 -0.49646518 -1.0231014e-18)
(11.330473 -0.48233086 1.025881e-18)
(11.229182 -0.45556344 -1.887156e-18)
(11.09579 -0.40560671 0)
(10.998945 -0.31595056 0)
(10.873823 -0.2105526 -1.6810377e-18)
(10.785485 -0.055138907 0)
(10.734036 0.13445063 1.6010232e-18)
(12.033364 0.5783938 3.0905662e-19)
(12.035296 0.41109705 -3.071311e-19)
(12.027819 0.27254509 4.2422975e-21)
(11.99879 0.13262477 -5.9641134e-19)
(11.949062 0.012686236 5.741598e-19)
(11.886746 -0.10630018 -1.6293955e-21)
(11.824468 -0.18997407 -1.0985756e-18)
(11.738067 -0.27572363 0)
(11.648866 -0.33084596 -2.0723735e-18)
(11.548095 -0.37862648 9.9110367e-19)
(11.449031 -0.38473352 0)
(11.357915 -0.39093761 0)
(11.269474 -0.35282898 -1.7743681e-18)
(11.182215 -0.31460023 -1.7397836e-18)
(11.116447 -0.21955892 1.6735647e-18)
(11.039423 -0.11797422 3.2296521e-18)
(11.011578 0.01633881 1.601044e-18)
(10.960404 0.20122998 -1.4557938e-18)
(11.022058 0.39604829 -7.4253768e-21)
(11.979479 0.52676601 0)
(11.970233 0.37976294 2.682305e-19)
(11.970234 0.24057994 -1.318787e-18)
(11.921905 0.10728053 5.1998603e-19)
(11.873766 -0.014450024 1.5303604e-18)
(11.808235 -0.11383555 -1.007139e-18)
(11.724358 -0.19481105 -1.9603885e-18)
(11.64121 -0.25694086 1.879919e-18)
(11.557026 -0.29858513 -9.4342746e-19)
(11.457843 -0.32262939 1.7671485e-18)
(11.37426 -0.32105215 0)
(11.293353 -0.29584307 0)
(11.229208 -0.24339717 -1.6198806e-18)
(11.176516 -0.17029047 4.6693645e-18)
(11.162675 -0.068812906 -5.9637575e-18)
(11.131194 0.034534636 2.8575558e-18)
(11.192561 0.19658708 -5.5596251e-18)
(11.214017 0.3446447 1.3180362e-18)
(11.407051 0.55752896 2.5555414e-18)
(11.879756 0.5242753 5.8448716e-20)
(11.888045 0.39835594 2.3362292e-19)
(11.879962 0.2398827 -4.5723616e-19)
(11.845392 0.12379212 0)
(11.80554 -0.0034690486 -8.9586658e-19)
(11.744428 -0.086837687 2.6252706e-18)
(11.665393 -0.1692456 -1.698397e-18)
(11.597839 -0.21673881 8.4095689e-19)
(11.513073 -0.25203329 -1.6405618e-18)
(11.433732 -0.25648596 4.7586645e-18)
(11.3611 -0.24606035 -3.0431708e-18)
(11.291952 -0.20074078 0)
(11.260818 -0.15178425 1.4272576e-18)
(11.238519 -0.055325458 2.7959955e-18)
(11.265771 0.012209003 -3.988575e-18)
(11.311102 0.14885188 3.8815908e-18)
(11.416289 0.24373541 -3.7156263e-18)
(11.55636 0.36018579 -2.4020811e-18)
(11.815916 0.48688892 -1.162987e-18)
(11.795596 0.50484993 1.5140449e-19)
(11.822314 0.3776593 2.0138763e-19)
(11.785392 0.2200663 -3.9716899e-19)
(11.778954 0.11165354 0)
(11.709945 -0.010688012 1.552089e-18)
(11.657066 -0.081616195 -7.690974e-19)
(11.579572 -0.15995514 0)
(11.509326 -0.19369368 -1.468763e-18)
(11.442881 -0.21624855 7.2252101e-19)
(11.372822 -0.21081534 0)
(11.328058 -0.18605639 -1.3686992e-18)
(11.301774 -0.13508532 1.326854e-18)
(11.307449 -0.092473588 1.282526e-18)
(11.325832 -0.0022037079 -2.4835684e-18)
(11.3898 0.03248499 2.3640449e-18)
(11.510899 0.15044418 -1.1423823e-18)
(11.649208 0.12914552 -1.096142e-18)
(11.886771 0.22121449 -1.0468282e-18)
(12.113997 0.11224369 -9.9780253e-19)
(11.707661 0.50367087 3.4910284e-19)
(11.768408 0.35488954 -1.7289922e-19)
(11.723962 0.21604673 0)
(11.728689 0.10870546 0)
(11.651104 -0.0034745925 -1.3528706e-18)
(11.614539 -0.069129706 1.3346398e-18)
(11.533623 -0.13646393 0)
(11.477315 -0.16009703 6.4081259e-19)
(11.417873 -0.17453855 -6.277188e-19)
(11.362114 -0.16240201 0)
(11.346447 -0.14148045 1.1959492e-18)
(11.349531 -0.10293396 1.016217e-20)
(11.381037 -0.078966392 7.3861516e-21)
(11.451207 -0.0075407447 0)
(11.531889 -0.01952045 -4.2233908e-18)
(11.706229 0.021823374 4.03423e-18)
(11.817982 -0.076679809 4.850306e-18)
(12.087687 -0.098351719 -6.4717558e-18)
(12.223414 -0.35941242 4.42726e-18)
(11.625311 0.49876989 0)
(11.664857 0.33446985 1.7718209e-21)
(11.625866 0.22774358 0)
(11.625427 0.09984264 0)
(11.551295 0.0044712244 5.854382e-19)
(11.52799 -0.058679475 7.1478871e-21)
(11.455497 -0.12559121 -5.7805083e-19)
(11.415401 -0.13329239 -1.7113426e-18)
(11.365847 -0.15051547 2.1984375e-18)
(11.349701 -0.14041478 0)
(11.35516 -0.13191633 -1.044897e-18)
(11.380989 -0.10235263 -6.1699988e-18)
(11.427544 -0.10298829 2.9719722e-18)
(11.541402 -0.077346738 0)
(11.611318 -0.14828171 -3.716922e-18)
(11.809772 -0.19658789 4.4487005e-18)
(11.86301 -0.34283747 -3.4119349e-18)
(12.097971 -0.50309951 4.0761284e-18)
(12.066201 -0.81059043 0)
(11.571809 0.47370089 -2.6191329e-19)
(11.60442 0.30287986 1.3134538e-19)
(11.598611 0.21906939 0)
(11.589012 0.082263689 -1.0380635e-18)
(11.525807 0.016862473 1.5350468e-18)
(11.494863 -0.063458745 -5.0460465e-19)
(11.431853 -0.10708918 -1.5233291e-18)
(11.404909 -0.11902761 3.4628041e-18)
(11.370255 -0.14627844 -1.9034958e-18)
(11.370723 -0.1421172 0)
(11.383241 -0.14355952 9.1130593e-19)
(11.439764 -0.13228667 5.4150641e-18)
(11.481393 -0.17581993 -3.4901959e-18)
(11.611129 -0.22223247 0)
(11.650757 -0.32243075 0)
(11.822305 -0.46156976 -1.5690802e-18)
(11.796891 -0.63015651 7.5201457e-19)
(11.926096 -0.86659288 -2.1600856e-18)
(11.750814 -1.1465384 0)
(11.50306 0.45252191 -2.2673129e-19)
(11.491905 0.3014401 6.7958753e-19)
(11.529826 0.21213132 -6.7570995e-19)
(11.492935 0.083245594 0)
(11.462876 0.022837417 1.3499166e-18)
(11.41593 -0.066263024 -1.7569662e-18)
(11.372613 -0.091617096 0)
(11.356696 -0.1249094 8.6670827e-19)
(11.343901 -0.14718341 8.4205953e-19)
(11.360334 -0.1507406 0)
(11.380342 -0.17461188 0)
(11.455281 -0.21626482 -7.896389e-19)
(11.488797 -0.27888667 -2.3108188e-18)
(11.604679 -0.39463976 -8.7241943e-21)
(11.594269 -0.50963441 2.1483079e-18)
(11.697553 -0.70371565 1.3810758e-18)
(11.606653 -0.86804562 -6.647133e-19)
(11.626783 -1.1165212 1.2745819e-18)
(11.362107 -1.3152086 0)
(11.46514 0.41184048 0)
(11.438363 0.28891455 -7.8465e-19)
(11.487871 0.18669218 1.5597919e-18)
(11.432481 0.077590972 -1.1646019e-18)
(11.434234 0.014653639 0)
(11.375728 -0.065040895 0)
(11.369215 -0.097217036 0)
(11.336739 -0.14636153 -7.4974276e-19)
(11.347587 -0.16104152 -7.3619018e-19)
(11.356713 -0.20388705 0)
(11.390831 -0.23743118 -7.1217952e-19)
(11.437241 -0.33071643 -6.9351006e-19)
(11.463999 -0.40195832 -6.7235142e-19)
(11.51882 -0.5729949 2.6076044e-18)
(11.470141 -0.67816948 -2.5170836e-18)
(11.48186 -0.90569709 -6.0787146e-19)
(11.328257 -1.0180954 3.5183428e-18)
(11.25424 -1.2449229 -5.644176e-18)
(10.938168 -1.3259749 3.263061e-18)
(11.383376 0.389622 -4.2563392e-20)
(11.374447 0.29806702 8.5018664e-20)
(11.423146 0.16261584 8.4590602e-19)
(11.367763 0.081394781 -2.027285e-18)
(11.389436 -0.00085493763 9.9736593e-19)
(11.324481 -0.06543552 0)
(11.339251 -0.10801207 0)
(11.307024 -0.15687806 6.5447648e-19)
(11.337311 -0.1884128 -2.5824697e-18)
(11.33097 -0.25588867 -6.5520802e-19)
(11.369059 -0.30757582 6.0373247e-19)
(11.381353 -0.43147988 3.0180227e-18)
(11.387646 -0.51700737 5.8868309e-19)
(11.364402 -0.70541485 0)
(11.284132 -0.78768319 1.6594909e-18)
(11.198767 -1.0084121 0)
(11.030558 -1.0535433 -3.1111159e-18)
(10.905111 -1.2206815 9.0001385e-18)
(10.594266 -1.2249817 -7.7396797e-18)
(11.31393 0.36068941 7.3250647e-20)
(11.32064 0.27111906 -7.2839973e-20)
(11.356542 0.13293646 0)
(11.31754 0.074740393 -8.8125266e-19)
(11.335497 -0.020366521 2.7713387e-19)
(11.274357 -0.079262659 1.1506036e-18)
(11.298817 -0.13593628 0)
(11.257497 -0.18952629 -2.8433462e-18)
(11.29314 -0.23840439 1.6661936e-18)
(11.269285 -0.31827653 -1.8873184e-21)
(11.306666 -0.40085634 0)
(11.261073 -0.52960922 0)
(11.243691 -0.6202321 -5.1373373e-19)
(11.146272 -0.79015186 0)
(11.049916 -0.84893847 1.7892223e-21)
(10.873743 -1.0270621 9.4320259e-19)
(10.712904 -0.9998082 -2.7448187e-18)
(10.524488 -1.1213566 7.0857851e-18)
(10.26045 -1.0110534 -3.4335913e-18)
(11.228693 0.35868326 2.2171618e-19)
(11.281075 0.23991109 -1.8944599e-19)
(11.287495 0.1325627 0)
(11.287537 0.066619681 0)
(11.288743 -0.041815446 0)
(11.259608 -0.08329656 0)
(11.275535 -0.1626823 -1.9998652e-18)
(11.23568 -0.21159618 1.9600779e-18)
(11.269464 -0.28861075 2.4356811e-18)
(11.215433 -0.36789531 -9.5250968e-19)
(11.2328 -0.47208997 0)
(11.145645 -0.58093778 3.6878675e-18)
(11.105863 -0.67719634 -6.7332285e-18)
(10.950314 -0.80083561 3.4961361e-18)
(10.842779 -0.83487112 -4.2625113e-18)
(10.619058 -0.93432953 2.4836787e-18)
(10.467246 -0.85496783 -8.048701e-19)
(10.236142 -0.91804273 -7.8351844e-19)
(10.03524 -0.72089391 7.5849729e-19)
(11.169386 0.32835795 2.1862441e-19)
(11.229594 0.20435685 -7.1051476e-19)
(11.215557 0.12593757 4.3536065e-19)
(11.242077 0.025807689 -8.7532847e-19)
(11.203753 -0.052930795 8.6619165e-19)
(11.207178 -0.10842675 0)
(11.186576 -0.19864126 -4.322179e-19)
(11.176473 -0.24165361 1.7145659e-18)
(11.169751 -0.35237092 -1.6818093e-18)
(11.111163 -0.40492762 -4.1564822e-19)
(11.090914 -0.53262808 -3.2771694e-18)
(10.957752 -0.61042722 3.2004742e-18)
(10.885658 -0.69776205 -3.9150791e-19)
(10.695559 -0.75869355 2.3000775e-18)
(10.589161 -0.75455895 -2.2360341e-18)
(10.357273 -0.77138786 0)
(10.253301 -0.66492135 -5.6812939e-18)
(10.029732 -0.65501864 6.2047438e-18)
(9.9019116 -0.41702772 0)
(11.122006 0.30780248 -3.7725314e-19)
(11.174755 0.18868094 3.7695057e-19)