/*--------------------------------*- C++ -*----------------------------------*\
  =========                 |
  \\      /  F ield         | OpenFOAM: The Open Source CFD Toolbox
   \\    /   O peration     | Website:  https://openfoam.org
    \\  /    A nd           | Version:  11
     \\/     M anipulation  |
\*---------------------------------------------------------------------------*/
FoamFile
{
    format      ascii;
    class       volScalarField;
    location    "0.045";
    object      Ma;
}
// * * * * * * * * * * * * * * * * * * * * * * * * * * * * * * * * * * * * * //

dimensions      [0 0 0 0 0 0 0];

internalField   nonuniform List<scalar> 
880
(
1.443353270571932
1.443353270571932
1.443353270571932
1.443353268062024
1.443353270571932
1.443353270571932
1.443353270571934
1.443353389315593
1.443353270571932
1.443353270571933
1.443353270571932
1.443352501997153
1.443353270571932
1.443353270571932
1.443353270572149
1.44332241214015
1.443353270571932
1.443353270571932
1.443353270571933
1.443353270571932
1.443353270571932
1.443353270571932
1.443353270571935
1.443353270571932
1.443353270592647
1.443353270261752
1.443353526782162
1.443352938828702
1.442278486094662
1.43757947155314
1.433816650238387
1.433620114406348
1.443353270383773
1.443353270291324
1.443353270248585
1.443353270482373
1.443353264176563
1.44335326349019
1.443353262955848
1.443353261859374
1.443341026937435
1.443339512211692
1.4433389272161
1.443334638692748
1.433085717219373
1.43274176161933
1.432831088703358
1.429393423859149
1.436637018598563
1.443040704028779
1.445042707190848
1.443926606103878
1.443330220741585
1.443343205071619
1.443354217497597
1.44335453706161
1.443353250004516
1.44335325973746
1.443353270045612
1.443353271348996
1.443353269386283
1.443353269523897
1.443353270065576
1.443353270477783
1.443353270570348
1.443353270571933
1.443353270571932
1.443353270571932
1.443353270652738
1.443353270572289
1.443353270571932
1.443353270571932
1.443353396736555
1.443353272288132
1.443353270603547
1.443353270563533
1.443400011632034
1.443354050044123
1.443353275124118
1.443353261703853
1.443353269081433
1.443353270565461
1.443353270571932
1.443353270571932
1.443353265406046
1.443353270580926
1.443353270576688
1.443353270571932
1.443352030217747
1.443353180002781
1.443353270140324
1.443353270559686
1.445290816455563
1.443370210617963
1.443353281434972
1.443353270578649
1.443353270572637
1.443353259504813
1.443337223760688
1.415096763817653
1.443353269881211
1.443353225867461
1.44325817227292
1.366047001475977
1.443353269231654
1.443353206435703
1.443219261978617
1.355144175827321
1.443353268857049
1.44335319100728
1.443197352485886
1.351416942137486
1.347092941993196
1.443172239175679
1.443353171333148
1.443353268382196
1.342588853293934
1.443141459639622
1.443353145718636
1.44335326770807
1.336829905451543
1.443101673844888
1.443353109655865
1.443353266925043
1.331258076387833
1.443048797575331
1.44335306026622
1.443353265209418
1.443353266185212
1.443353103661197
1.443068378079444
1.328231875715673
1.44335326581218
1.443353075724064
1.443047637593456
1.328885583227637
1.443353265484641
1.443353049293736
1.443037745480649
1.33628293836824
1.443353265580753
1.443353143701959
1.443192216597974
1.381671019893931
1.44335323778873
1.443353553072754
1.44350744942997
1.444914128571402
1.443353276611008
1.443353735010493
1.442494165982088
1.412024530251497
1.443353267336307
1.443348378637645
1.441238227749491
1.349995680607925
1.443353266991692
1.443345877452786
1.439804980032163
1.303397191549473
1.324291117956079
1.44156347070158
1.443350527380104
1.443353268972657
1.340427584563403
1.441762722470842
1.443350718293679
1.443353268950899
1.356203966405682
1.442319184362919
1.443351957409794
1.443353269790197
1.339058769332253
1.441894941377833
1.44335125361774
1.443353269475174
1.397271777354446
1.442989792324965
1.443352840414807
1.443353270323689
1.434651618130066
1.443324777237661
1.443353249105855
1.44335327055779
1.443319148188382
1.443353836755717
1.443353271873077
1.44335327057299
1.445053457211292
1.44336110275614
1.443353283918368
1.443353270554841
1.431707605409116
1.443239832134556
1.443352924738535
1.443353270525749
1.431739176618772
1.443240052429518
1.443352925059277
1.443353270513994
1.431802633304617
1.443240305213787
1.443352923108266
1.443353270444438
1.431461314603094
1.443240291241384
1.443352920867322
1.443353270305701
1.445053457215222
1.443361102758888
1.443353283922179
1.443353270552977
1.443319148192926
1.44335383675898
1.443353271880584
1.443353270572611
1.434651618130419
1.443324777236614
1.443353249105524
1.443353270558189
1.397271777349313
1.442989792317354
1.443352840414219
1.443353270325513
1.443353268967749
1.44335052737051
1.441563470698413
1.324291117953382
1.443353268947427
1.443350718292822
1.441762722467338
1.340427584562449
1.443353269794313
1.443351957405107
1.442319184362759
1.356203966397882
1.443353269474575
1.443351253615702
1.44189494137177
1.339058769334763
1.303397191554242
1.439804980037132
1.443345877457794
1.44335326699329
1.349995680612874
1.441238227754103
1.443348378645783
1.443353267344825
1.412024530251688
1.44249416598791
1.443353735010351
1.443353276617439
1.444914128569798
1.443507449432107
1.443353553075202
1.44335323777806
1.443353266187207
1.44335310365648
1.443068378077124
1.328231875710271
1.44335326581116
1.4433530757218
1.443047637593171
1.328885583227454
1.443353265479906
1.443353049294011
1.443037745484492
1.336282938368569
1.443353265572543
1.443353143702206
1.443192216600747
1.381671019894499
1.331258076378463
1.443048797580137
1.443353060259225
1.443353265210378
1.336829905443518
1.443101673834163
1.443353109654951
1.443353266923823
1.342588853297372
1.443141459630987
1.44335314571218
1.443353267709092
1.347092941987294
1.443172239185235
1.44335317133343
1.443353268383416
1.443353270569365
1.443353259499611
1.443337223761733
1.415096763824536
1.443353269884709
1.443353225872575
1.443258172269735
1.366047001477661
1.443353269233301
1.443353206435363
1.443219261977191
1.355144175822706
1.443353268858995
1.44335319100608
1.443197352488258
1.351416942138038
1.443353270579204
1.443353270559056
1.443353270571932
1.443353270571932
1.443353281441289
1.443353270141202
1.443353270573294
1.443353270571932
1.443370210616128
1.443353179999479
1.44335327058367
1.443353270566345
1.445290816455337
1.443352030217434
1.443353265405817
1.443353269081298
1.443353270571934
1.443353270571932
1.443353270562272
1.443353261702385
1.443353270571932
1.443353270571932
1.443353270596829
1.44335327512392
1.443353270571932
1.443353270572278
1.44335327229171
1.443354050043444
1.443353270570229
1.443353270652908
1.443353396731573
1.443400011633792
1.443353269391163
1.443353250009432
1.443330220745549
1.4366370185996
1.443353269528212
1.44335325973697
1.443343205072237
1.443040704033213
1.443353270066705
1.443353270039204
1.443354217499182
1.445042707191773
1.443353270478623
1.443353271346343
1.443354537061456
1.443926606108536
1.429393423857334
1.443334638682581
1.443353261862233
1.443353270484516
1.432831088705132
1.443338927203885
1.443353262956879
1.443353270247432
1.432741761611515
1.443339512206963
1.443353263489688
1.443353270292619
1.433085717221528
1.44334102695714
1.443353264177854
1.443353270382706
1.433620114403518
1.443352938825795
1.443353270571932
1.443353270571932
1.433816650240028
1.443353526789082
1.443353270571932
1.443353270571933
1.437579471550153
1.443353270264047
1.443353270571932
1.443353270571933
1.442278486095391
1.443353270591669
1.443353270571932
1.443353270571934
1.443353270571932
1.443353270571933
1.443353270571932
1.443353267956494
1.443353270571931
1.443353270571932
1.443353270571932
1.443353389334794
1.443353270571932
1.443353270571932
1.443353270571932
1.443352502009706
1.443353270571932
1.443353270571932
1.4433532705721
1.443322412141915
1.443353531329737
1.443355521104731
1.443358414332647
1.442937905082408
1.443355521097041
1.443363615538732
1.443367957778731
1.441636095948801
1.443358414331993
1.443367957783794
1.442844744095161
1.419306174567567
1.442937905071603
1.441636095953305
1.419306174569997
1.262120595591281
1.115953895423137
1.216491337663892
1.358918126145508
1.415861207226554
1.168221812438835
1.196243033046171
1.270418697178946
1.32808385857073
1.229422227322462
1.25398115051366
1.280547469835904
1.308413613961888
1.250655944955272
1.293140066447341
1.304556679108973
1.318677006404424
1.320093832702248
1.320744685128835
1.321233087220173
1.300724152372735
1.309706129281904
1.311248560847089
1.311956986094561
1.309085749217881
1.302846931370543
1.305318766977389
1.306268766834223
1.355090297468135
1.250443261046617
1.251087743281577
1.251536816647365
1.453232772887507
1.428905271983349
1.485121032097657
1.472038356309922
1.449521733913547
1.502324599579939
1.584003167371021
1.497659270037009
1.45410638630249
1.636102033543472
1.624792113034534
1.524511004103099
1.463700121573116
1.25805884427483
1.294639942532818
1.370259466656576
1.423095487131319
1.443770217502373
1.443362355230754
1.443353664982638
1.443353219142883
1.444102908732428
1.443375033770961
1.443355007793506
1.443353276637425
1.444861388959723
1.443407506444562
1.443356136333492
1.443353342335958
1.441205822874819
1.443242548752214
1.443348065981876
1.443353137501446
1.443353264721948
1.443353276267325
1.443351351784109
1.448048031670724
1.44335326832073
1.443353271501571
1.443352779577916
1.368440287166007
1.443353269700965
1.44335327059413
1.443353241884689
1.231718847109435
1.443353269923509
1.443353270540639
1.443353144064496
1.119393230222064
0.9525664600911892
0.9803219156247749
1.022964124514796
1.032459812227428
0.8029562729876256
0.9485393156710314
1.021715667303525
1.037133873623003
0.7077850737158384
0.9285265156012379
1.031245069371854
1.04884638080669
0.6508915869268336
0.8224665138218082
0.8960733765982158
0.9130554020617659
1.03283359864232
1.032647324378965
1.032161545499435
1.033337319926672
1.038132248142265
1.038214631512301
1.038350047944184
1.039846651892198
1.049440927561815
1.049328541138752
1.049328813590438
1.050217511758747
0.9146858836308839
0.9145207490695184
0.9144217075717962
0.9122610450728024
1.033067340966563
1.03579581562269
1.055806998722289
1.106542311960835
1.039543929200969
1.040729721208586
1.065566150548045
1.14849682518018
1.048784648153151
1.049749854703864
1.089042148908475
1.395275185497453
0.9205113097552782
0.9268607938226379
1.027178775918089
1.80834400722755
1.403810377437959
1.19756957085819
0.4895435988600585
0.2386997170509595
1.334525086483711
1.007463405669802
0.3125967453338292
0.2580499420326515
1.345389766646356
0.9774495524151806
0.3470101324869374
0.3407900783878997
1.131313714923357
0.6497946179478676
0.2534775604452793
0.2106966585949992
0.2797645542265945
0.3026849104582187
0.3332579772877048
0.3387170811941315
0.2608402051887997
0.2562586957629196
0.2440701745816811
0.5051072648797271
0.3701725334533192
0.3704076899024688
0.3827520803742212
0.6810458542076678
0.2105702905503322
0.2278242187304564
0.3633499329843174
0.8525209431180216
1.226924750706705
1.35927619550548
1.443524984284767
1.481177183250324
0.8723216678564654
1.230067407305115
1.41439030485882
1.525849811070936
0.4574343212267811
0.973186476080443
1.319969905457028
1.65381340226819
0.5363796963206729
0.8291077428372282
1.115480053394686
2.052230244977076
1.545009439471971
1.493145913626808
1.241940235286238
0.9677762906772795
1.866115810226519
2.264217961285587
1.520426145624212
1.051866189983144
2.104385806967823
2.476423766257259
1.792370119224165
1.218945274626853
1.617775370474753
1.817990844887208
1.163057413527879
0.7871322370777903
0.630439482307621
0.5024519057355992
0.1983242522295652
0.1222194149133105
1.010583639943762
0.7387244553974925
0.2590707307223747
0.08019693872080071
0.712740921116
0.4081825848078706
0.2557633613365214
0.2366149059544117
0.7600707245774322
0.7091385397618007
0.7014955517441517
0.699668493783111
0.1222194149125552
0.08019693872307861
0.2366149059551095
0.6996684937811899
0.1983242522298999
0.2590707307242875
0.2557633613387196
0.7014955517476207
0.502451905735472
0.7387244553977678
0.4081825848081783
0.7091385397623202
0.6304394823070149
1.010583639943314
0.7127409211175384
0.7600707245785003
0.9677762906783095
1.241940235288213
1.493145913630428
1.54500943948005
1.051866189985263
1.520426145621149
2.264217961278535
1.866115810231468
1.21894527462569
1.792370119222346
2.476423766256589
2.104385806968956
0.7871322370766761
1.163057413527517
1.817990844886338
1.617775370475043
2.052230244978019
1.115480053394026
0.8291077428372415
0.5363796963191014
1.65381340227047
1.319969905460627
0.9731864760802498
0.4574343212266218
1.525849811073796
1.4143903048636
1.230067407305146
0.8723216678556405
1.481177183253046
1.443524984288353
1.359276195505831
1.226924750703578
0.3387170811915214
0.3332579772849668
0.3026849104570214
0.2797645542260588
0.5051072648772116
0.2440701745810511
0.2562586957619198
0.2608402051874616
0.6810458542059653
0.3827520803737908
0.3704076899007751
0.3701725334503942
0.8525209431180716
0.3633499329860627
0.227824218730616
0.2105702905493645
0.2386997170528913
0.4895435988590355
1.197569570849823
1.403810377437656
0.2580499420261839
0.3125967453324358
1.007463405665596
1.334525086487
0.3407900783797416
0.3470101324862003
0.9774495524098644
1.345389766650317
0.2106966585909986
0.2534775604464328
0.6497946179447489
1.131313714924921
1.106542311962004
1.055806998722215
1.035795815622048
1.033067340963308
1.148496825181955
1.065566150547997
1.040729721207693
1.039543929198616
1.395275185499762
1.089042148908728
1.049749854703221
1.048784648152453
1.808344007231264
1.027178775919713
0.9268607938246013
0.9205113097598608
1.033337319923994
1.03216154549613
1.032647324379428
1.032833598640511
1.039846651891051
1.038350047941871
1.03821463151155
1.038132248141682
1.050217511758951
1.049328813589069
1.049328541138307
1.049440927562183
0.9122610450777325
0.9144217075729951
0.9145207490699354
0.9146858836329634
1.032459812228457
1.022964124512538
0.98032191562606
0.952566460092418
1.037133873623836
1.021715667301639
0.9485393156726937
0.8029562729877657
1.048846380807479
1.03124506937035
0.9285265156025855
0.7077850737160574
0.9130554020623534
0.8960733765989597
0.8224665138224491
0.6508915869261975
1.448048031670377
1.443351351785149
1.443353276267901
1.443353264721748
1.368440287165455
1.443352779578324
1.443353271501869
1.443353268320602
1.231718847108919
1.443353241884753
1.443353270594316
1.443353269700883
1.1193932302214
1.443353144064668
1.443353270540699
1.443353269923359
1.443353219141817
1.44335366498112
1.443362355230374
1.44377021750392
1.443353276636714
1.443355007789966
1.443375033773626
1.444102908730441
1.443353342335373
1.443356136328322
1.443407506449538
1.444861388955553
1.443353137501668
1.443348065981388
1.443242548753334
1.441205822879958
1.449521733918566
1.472038356310293
1.485121032100296
1.428905271984174
1.454106386305857
1.497659270036851
1.58400316737263
1.502324599580574
1.463700121576459
1.524511004102568
1.624792113036502
1.636102033544395
1.423095487126837
1.370259466657697
1.294639942533606
1.258058844275587
1.300724152372509
1.321233087220324
1.320744685126434
1.320093832700685
1.309085749220406
1.311956986094656
1.311248560846575
1.309706129279252
1.355090297471962
1.306268766835179
1.305318766979314
1.302846931369365
1.453232772892151
1.251536816652641
1.251087743286967
1.250443261044242
1.318677006402888
1.308413613963119
1.328083858568476
1.415861207226109
1.304556679108584
1.280547469836925
1.270418697178617
1.358918126146375
1.293140066445596
1.253981150516248
1.196243033046871
1.216491337664794
1.250655944958276
1.229422227328735
1.168221812439371
1.115953895423241
1.442378127669211
1.443340413557013
1.44335323132224
1.443353270561604
1.438409309276873
1.443312454107258
1.443353151705291
1.443353270531369
1.43193338428066
1.443265487360238
1.443353017180224
1.443353270353151
1.426540673673494
1.443217279204133
1.443352887971575
1.443353270192102
1.443353270522968
1.443352924740202
1.443239832133958
1.431707605408372
1.443353270511828
1.443352925055613
1.443240052434002
1.431739176616451
1.443353270446976
1.443352923104054
1.443240305214844
1.431802633308959
1.443353270313791
1.443352920862725
1.443240291258409
1.431461314605396
1.44335327019311
1.443353270354498
1.44335327053982
1.443353270570958
1.443352887970841
1.443353017180266
1.443353151707134
1.443353231327479
1.443217279198854
1.443265487365263
1.443312454101562
1.443340413561612
1.426540673679649
1.43193338428565
1.438409309274517
1.442378127668966
)
;

boundaryField
{
    back
    {
        type            empty;
    }
    inlet
    {
        type            calculated;
        value           nonuniform List<scalar> 
16
(
1.443353270571932
1.443353270571932
1.443353270571932
1.443353270571932
1.443353270571932
1.443353270571932
1.443353270571932
1.443353270571932
1.443353270571932
1.443353270571932
1.443353270571932
1.443353270571933
1.443353270571932
1.443353270571932
1.443353270571932
1.443353270571932
)
;
    }
    front
    {
        type            empty;
    }
    top
    {
        type            calculated;
        value           uniform 0;
    }
    outlet
    {
        type            calculated;
        value           nonuniform List<scalar> 
16
(
1.443353270532465
1.443353270518494
1.443353270417743
1.443353270226413
1.443353270556317
1.443353270523165
1.443353270278644
1.443353270066168
1.443353270530645
1.443353270517059
1.44335327041938
1.443353270231733
1.443353270066826
1.443353270279453
1.443353270528628
1.443353270562434
)
;
    }
    bottom
    {
        type            calculated;
        value           uniform 0;
    }
    wall
    {
        type            calculated;
        value           uniform 0;
    }
}


// ************************************************************************* //
