/*--------------------------------*- C++ -*----------------------------------*\
  =========                 |
  \\      /  F ield         | OpenFOAM: The Open Source CFD Toolbox
   \\    /   O peration     | Website:  https://openfoam.org
    \\  /    A nd           | Version:  11
     \\/     M anipulation  |
\*---------------------------------------------------------------------------*/
FoamFile
{
    format      ascii;
    class       surfaceScalarField;
    location    "0.35895";
    object      phi;
}
// * * * * * * * * * * * * * * * * * * * * * * * * * * * * * * * * * * * * * //

dimensions      [0 3 -1 0 0 0 0];

internalField   nonuniform List<scalar> 
1652
(
1.706212168242977
0.5337381654478577
-1.740829702612245e-13
1.172474003760538
0.533738158480199
9.36362098968857e-13
0.638744591026013
0.533557507507924
6.536993168992922e-13
0.5291693940703082
-8.976375198699316e-12
0.1057107339490769
1.706212168247668
1.067476330876325
1.172474005808123
1.067476303043421
0.6387503070180107
1.067106426064216
1.05346958188182
0.1084997618610865
1.706212168244331
1.601214496297634
1.172474013637305
1.601214387567434
0.6388068300275687
1.600475508317262
1.57503568060715
0.1089066453718502
1.7062121683191
2.134952661524866
1.172474043554728
2.134952230858837
0.6388941063141358
2.133496016748116
2.097343335431239
0.105229206319984
2.65119121482227
1.723711780178522
3.167429763832909
1.723711779114065
3.683668091887849
1.723711850828785
1.723712858341632
4.199906979710147
2.651189467366561
1.207473398621942
3.167421589043142
1.207473278785421
3.683647113985745
1.207475958488336
1.207511734216536
4.199820908121031
2.649584224862604
0.6899972156026604
3.166043789768335
0.6888434989506752
3.682705600867721
0.6872940038352512
0.6887265426174737
4.194532440055911
2.650849317849747
0.1168510358271959
3.273894283911363
0.04173208891780011
3.912898526441735
0.01813166447021058
4.55436995518223
0.01129354044127351
4.164891521539245
0.03501635059767549
4.129861330567999
0.03500467352887326
4.094845689432359
0.03485886554854145
0.03478344238988262
4.059708805771898
4.164990239266108
0.06971425949348919
4.130355957865675
0.06893804417549404
4.096342738296459
0.06750418144057957
0.06568523133038184
4.062542106282267
4.17476060885885
0.08243500503645018
4.160185840802829
0.07412361351567071
4.152902771957503
0.06158034448652594
0.05301372347871197
4.147911428593893
4.602969606422517
0.006231060684722678
4.647466079277343
0.005266565293532477
4.680618802253913
0.006628858692294681
4.712868497920618
0.007741444280942589
4.670338894222428
0.1043948820735911
-0.06872281843457828
4.585723893955662
0.1015074324736498
-0.01838030937362942
4.503756608681239
0.09664241574476223
-0.008940845221183602
0.08784507613300069
4.431633174003221
-0.006797029275823901
4.220021613106396
0.013593074116379
4.27509069625324
0.02648796921948726
4.314272013300469
0.03724658279070797
0.04538646660634549
4.338080897155759
4.068833766698983
0.001071764575994005
4.081295037692156
0.002959991169907528
4.098814997422419
0.005651277952749112
0.009943092000231801
4.118379229069482
4.059562642670826
4.05993527829399
4.061253581408518
4.064428459795125
4.069784195926857
-0.01553285644082514
4.077656072389584
-0.02160827158485523
4.087575193431543
-0.02799799523313407
-0.03207552791204293
4.096821209475729
4.138781821655617
-0.05366948105033553
4.158746027440381
-0.05999801918625941
4.176925705316708
-0.06318382038747378
-0.06152384815549539
4.190900987168151
4.347572205817236
-0.07863047636216502
4.345707326199784
-0.06822022267817046
4.333672148859351
-0.05401230553904157
-0.04806454525759835
4.319238646114107
4.365156876156725
-0.007522037075654298
4.316547092317295
-0.005963158369231308
4.27337865074897
-0.003549778351969429
4.244504253073332
-0.002877147642525807
0.04261700576471039
4.228851651563621
-0.01732413672854194
0.05770463508479901
4.308774533421168
0.03443319334241968
4.199766842386773
4.101652853476978
0.04036614887699608
4.250010081358611
-0.1453468963291296
0.04755010088054656
4.301700137667362
0.0336369278935873
4.206086545154263
4.102643779053499
0.07788163143817239
3.986350880538417
-0.1402552936790543
0.04616416523117994
4.308954692189351
0.02805581366659637
4.211312991415847
4.097843900617137
0.1743209361189845
3.683601676377986
-0.04239700928131424
0.06559293221613538
4.316509438542933
0.02797929650606956
4.22624841142938
4.100420158532421
0.07038553754472288
3.979525292420189
0.1237340825442564
4.132110220988215
0.08050417923635
4.217707924071243
3.561998979907628
0.1474156151069759
0.06637320178493578
3.87668060000277
0.08955241035313455
4.042404744443915
0.008835861778437426
4.095331466467406
3.435701359986373
0.1118040956603905
0.05296691741826964
3.784828663508149
0.0189604923727289
3.955244431307456
-0.06988739815603184
3.935395478569232
3.333789740732991
0.05846090852345431
0.02179644129299751
3.70530117868694
-0.08785999177679815
3.860984111773031
-0.1185006315985224
3.745991064475888
3.239727301268093
0.0271379174250066
0.1402600965377724
3.155426700290969
0.002381669484498916
0.1876345194595724
3.58447722971701
0.03353037097951739
3.734191559157072
3.641933340499337
0.1485916225164986
3.07797791390354
-0.00661859935834086
0.2557340726011668
3.473133737382864
0.1022526684935967
3.584912645386888
3.59182399689839
0.1405733559313114
2.995572370832778
0.00240065581907789
0.2945151808450858
3.345997053126878
0.1902854194258343
3.449838165850895
3.556859168739017
0.1101453227190012
2.890654837800363
0.01568988815989825
0.2667231490395854
3.221085586616302
0.250422293326686
3.304827785137985
3.51481486481813
-0.2199015691621311
3.463828770755331
-0.187454342731547
3.230006150320596
-0.04691752747896238
3.107068684668189
2.789277215983861
0.04415991806485831
-0.1620771398293213
3.401820080481119
-0.1271389111857782
3.139587904341782
0.001607432195023351
3.005061938213671
2.707059248384558
0.06646130949329365
-0.1025592703246845
3.328243584926924
-0.05285990696817189
3.057074474408898
0.0692924635807724
2.911837501229675
2.641155523155595
0.1220123726429503
-0.03611348628027933
3.223569238890613
0.03382849536872701
2.966725308664487
0.1557498640239649
2.820053987616047
2.569321927322231
0.2296768915035639
-0.3469337111685803
3.453972077455958
-0.5765022227470457
3.185429781198077
-0.7153312409220317
3.000237772680298
2.63320717238038
-0.7690552024430436
-0.3003920526147831
3.658746668594247
-0.5257673569061867
3.406872098203078
-0.6287237255464624
3.177015152650583
2.281517615359382
-0.2632447452100209
-0.2737943308031927
3.84366404322359
-0.4821513674372743
3.620953143935195
-0.51407486500602
3.331716259163926
1.8024387040682
-0.02970345683429496
-0.2407580515997838
4.010199050039685
-0.4395523904431146
3.827328615741771
-0.3626950542343443
3.43980589316949
1.419994141947371
-0.0123083639106736
0.1581576451038492
1.463269458994767
-0.01045740542609487
0.2076367883809603
3.530855566747554
0.1042487682765812
3.937760724590084
4.062086286051039
0.1657274562432992
1.440620100303916
-0.007956337254083951
0.1877842172338466
3.626619941327818
0.0947719774764943
4.050551194493789
4.10711323112698
0.1504032054247427
1.343467305510975
-0.003385023236202871
0.1686713465950571
3.72417298808629
0.08932173468854065
4.15989541375303
4.148977882019103
0.1198993525777315
1.254046043696474
0.002223171369120636
0.1500947649460254
3.817469079467727
0.08909413610477285
4.257356227259219
4.195755095694273
-0.2361756807417315
1.570924593296071
-0.01565436875001119
-0.1844520962908357
3.985713413346384
-0.04679895719031735
4.197475806401772
4.097343334855335
-0.2650942293036637
1.92944961296835
0.006071626467758537
-0.1778751832886678
4.068989847090474
-0.03199049419027822
4.112860733358385
4.060006140606797
-0.2624629917761018
2.246897949903183
0.03371332103199617
-0.1341971314174207
4.102062722274114
-0.02055332303877067
4.067201139809667
4.056525470373655
-0.2320533855508662
0.08797395354815804
2.499336944156787
-0.1111430238364148
4.099166926111921
-0.01642390856412779
4.039751646147986
4.056703228630587
0.3370989752726944
-0.4392301342572307
-0.01288535916654589
5.60440582830779e-12
0.893362055789733
-0.4125279867358005
-2.930988785010413e-13
1.634222067412429
-0.4648029596211587
7.394085344003543e-13
-0.5171480708757943
-1.282218775600086e-11
0.3341536014681158
-0.892848800022898
-0.01279731648324069
0.9072618556259033
-0.8647080796770155
1.635121649532402
-0.9426034395771623
-1.03585486689744
0.3307478604023989
-1.352100685433738
-0.01563669389104142
0.9270340299550353
-1.342518808197883
1.63916463748329
-1.451641022543487
-1.556810204951284
0.324231845091248
-0.01609908104622308
-1.703794466797909
0.9571561747560254
-1.85048835548178
1.647776713331869
-1.983872861891438
-2.082348031763674
-0.2320533855497232
-2.246897949903923
0.08797395354814842
2.499336944154702
-0.1111430238350947
-4.10206272227931
4.099166926110413
-0.01642390855972375
-4.067201139808189
4.039751646144815
-4.056525470374629
4.056703228626288
-0.2624629917753416
-1.92944961297247
0.03371332103224987
-0.1341971314186668
-4.06898984709825
-0.02055332304126756
-4.112860733361249
-4.060006140610728
-0.2650942293046339
-1.570924593301587
0.006071626467989408
-0.1778751832929663
-3.985713413354056
-0.03199049419491251
-4.197475806403095
-4.097343334858597
-0.2361756807424473
-1.254046043699669
-0.01565436874981398
-0.1844520962948336
-3.817469079477982
-0.04679895719446314
-4.257356227258273
-4.195755095684156
-0.1042487682717388
4.062086286067625
-4.010199050064813
-0.2076367883690457
3.937760724611966
-3.827328615771719
-0.158157645097325
3.530855566724496
-3.439805893139687
1.463269458973086
-1.419994141924484
-0.01045740542632331
-0.09477197747054678
4.107113231130873
-0.1877842172200952
4.050551194509948
-0.165727456238171
3.62661994131538
1.440620100293969
-0.007956337254228812
-0.08932173468285676
4.148977882013599
-0.1686713465781628
4.159895413760521
-0.1504032054194378
3.724172988083944
1.343467305507299
-0.003385023236051339
-0.08909413609805267
-0.1500947649294987
-0.1198993525728389
0.00222317136913416
0.3626950542380793
-1.802438704055071
-0.01230836391066047
0.4395523904583626
-3.331716259150066
0.240758051614519
-3.620953143962813
-3.843664043243516
0.5140748650101293
-2.281517615347289
-0.02970345683354207
0.482151367452005
-3.177015152646008
0.273794330814477
-3.406872098224349
-3.658746668608829
0.6287237255537403
-2.633207172375871
-0.2632447452089236
0.5257673569207726
-3.000237772678507
0.3003920526251912
-3.185429781210808
-3.453972077462023
0.7153312409290123
-2.569321927322097
-0.7690552024448823
0.5765022227588752
-2.820053987617511
0.3469337111731652
-2.966725308670055
-3.223569238890093
-0.2199015691620162
3.463828770766844
-3.514814864834159
-0.1874543427243155
3.230006150335242
-3.304827785161175
-0.04691752747456568
3.107068684656928
-3.221085586599282
2.78927721597333
-2.89065483778818
0.04415991806499708
-0.1620771398229265
3.401820080488184
-0.1271389111774356
3.139587904350635
0.001607432199643877
3.005061938204668
2.707059248378434
0.06646130949479101
-0.1025592703223099
3.328243584929382
-0.05285990695982001
3.057074474415571
0.06929246358484398
2.911837501224615
2.641155523152184
0.1220123726434365
-0.03611348627620459
0.03382849537758259
0.1557498640275558
0.229676891503802
0.1101453227217742
-2.99557237082333
0.01568988816023809
0.266723149046322
-3.3459970531171
0.2504222933289868
-3.449838165865179
-3.556859168750783
0.1405733559342575
-3.07797791389647
0.002400655818871944
0.294515180853257
-3.473133737379223
0.1902854194295642
-3.584912645395311
-3.591823996905028
0.1485916225199971
-3.155426700286351
-0.006618599359146771
0.2557340726086866
-3.584477229718821
0.1022526684943637
-3.73419155915996
-3.641933340501842
0.1402600965399382
-3.239727301267289
0.002381669484054938
0.1876345194670394
-3.745991064483201
0.03353037098286049
-3.860984111773815
-3.705301178684469
0.07038553754615584
3.979525292421433
-4.100420158530665
0.1237340825447406
4.132110220989498
-4.226248411427438
0.08050417923671926
4.217707924074694
-4.316509438545118
3.5619989799111
-3.683601676381983
0.1474156151069583
0.06637320178680495
3.876680600004514
0.08955241035501665
4.042404744446088
0.00883586177868767
4.095331466469854
3.435701359988376
0.1118040956594863
0.05296691742010062
3.784828663509559
0.01896049237714847
3.955244431311765
-0.06988739815518963
3.935395478577471
3.333789740733748
0.05846090852453178
0.02179644129604552
-0.08785999177464388
-0.1185006315970357
0.02713791742542304
-4.097843900616559
-0.02797929650527076
-4.102643779054817
-0.02805581366577947
-4.101652853478302
-0.03363692789175998
-0.03443319334249906
-4.096821209476396
-4.211312991416986
-0.06559293221857576
-4.206086545152877
-0.04616416523172012
-4.199766842380798
-0.04755010088098161
-0.05770463508475115
-4.190900987163227
-4.308954692192169
-0.1743209361184141
-4.30170013766784
-0.07788163143743232
-4.308774533420367
-0.04036614887755408
-0.04261700576460065
-4.319238646115278
-3.986350880543729
-0.04239700928141882
-4.250010081359365
-0.1402552936797313
-4.228851651562456
-0.1453468963274335
-4.24450425307403
-0.01732413672826399
-0.03207552791059753
-4.087575193431342
-0.06152384815476658
-4.176925705311603
-0.04806454525664161
-4.333672148863023
-4.273378650749907
-0.002877147641721173
-0.02799799523358804
-4.077656072389316
-0.06318382038679982
-4.158746027434907
-0.05401230553702679
-4.345707326205994
-4.316547092315252
-0.003549778351067817
-0.02160827158371814
-4.069784195928324
-0.05999801918586939
-4.138781821649133
-0.06822022267712347
-4.347572205825357
-4.36515687615538
-0.005963158369472615
-0.01553285643814484
-4.064428459800019
-0.05366948105087971
-4.118379229061957
-0.07863047636175463
-4.338080897164
-4.431633174004157
-0.007522037075393201
-0.001071764577840528
4.059562642669171
-4.059708805767622
-0.01359307411933519
4.06883376668216
-4.062542106262391
-0.1043948820769315
4.220021613120355
-4.147911428609868
4.670338894231826
-4.712868497932124
-0.06872281843394148
-0.002959991176134436
4.059935278293714
-0.02648796922367502
4.081295037677811
-0.1015074324770324
4.275090696267632
4.585723893963075
-0.01838030937382842
-0.005651277954777156
4.061253581410481
-0.03724658279605703
4.098814997410909
-0.09664241574903681
4.314272013312005
4.503756608685589
-0.008940845222374288
-0.009943092004116361
-0.0453864666122144
-0.08784507613551851
-0.006797029275806415
-0.05301372348323974
-4.680618802262151
0.007741444280914722
-0.06568523134301196
-4.15290277196479
-0.03478344239510012
-4.096342738287634
-4.094845689432171
-0.06158034449222616
-4.647466079282721
0.006628858692152073
-0.06750418145347348
-4.160185840801659
-0.03485886555177997
-4.130355957870224
-4.12986133057285
-0.07412361352213109
-4.602969606419721
0.005266565293809533
-0.06893804418726868
-4.174760608849807
-0.03500467352939551
-4.164990239283381
-4.164891521543058
-0.08243500504097712
-4.554369955168736
0.006231060685681911
-0.06971425950605087
-4.194532440040248
-0.03501635060123909
-4.199820908148872
-4.199906979713437
-0.6887265426156873
-3.912898526412896
0.01129354044259334
-1.207511734208912
-3.682705600856322
-1.723712858346643
-3.683647114001011
-3.683668091887991
-0.6872940038331419
-3.273894283877401
0.01813166447210712
-1.207475958480914
-3.16604378976432
-1.723711850830175
-3.16742158905646
-3.167429763836754
-0.6888434989503243
-2.65084931782118
0.0417320889152839
-1.20747327878151
-2.649584224863186
-1.723711779114463
-2.651189467375315
-2.651191214828426
-0.6899972156027038
-2.097343335418924
0.1168510358191561
-1.207473398621744
-2.1334960167512
-1.723711780189419
-2.134952230858669
-2.134952661529368
1.706212168246032
0.5337381654428968
1.172474003765146
0.5337381584845411
0.6387445910292301
0.5335575075118291
0.5291693940552362
0.1057107339527898
1.706212168248592
1.067476330870409
1.172474005808824
1.067476303043533
0.6387503070184153
1.067106426067792
1.053469581874835
0.1084997618635074
1.706212168246488
1.601214496294186
1.172474013637454
1.601214387567822
0.6388068300268469
1.60047550832118
1.575035680605308
0.1089066453710164
1.706212168320006
1.172474043552398
0.6388941063112386
0.1052292063175591
0.1054758467705839
0.10547584677477
0.1054644376191964
0.1079715218690736
0.1059214617782266
0.1078290130688712
0.1026831111861783
0.1077852027698044
0.1079715218665167
0.1054644376234987
0.107677583445937
0.1076775834483338
0.1081680968148782
0.106696140926522
0.09904331899228322
0.1111315441658086
0.1078290130698493
0.1059214617817009
0.1066961409272403
0.1081680968174248
0.106368689686974
0.1063686896873715
0.09590099391438059
0.1089254145806429
0.1026831111898898
0.1077852027716015
0.09904331899579157
0.1111315441679684
0.09590099391860703
0.1089254145803023
0.09568120791528638
0.09568120792033236
-0.03916599316406616
0.1340461290145962
-0.06253711264117146
0.1313169123754533
-0.08852500441822603
0.1359945626797325
0.1348762627410035
-0.005685231261867429
0.1388663058792038
-0.01617816322836851
0.1408702099506459
-0.02706353476740853
0.1459017525235622
0.1484370450594955
-0.0009937945868077058
0.1391941244522022
-0.007350506593595374
0.1465028270662291
-0.01314360083492222
0.1509099945173547
0.1525121918048236
-0.001217709072965201
0.1398110853831515
-0.006135061315598767
0.1507800677047343
-0.00921984909404866
0.1533122447350529
0.1538263313776599
0.1533078974091122
0.006170374149453262
0.1533781026348158
0.004949649789393884
0.1526250977208566
0.007181574971830307
0.006669619909203783
0.1537798680732342
0.1535242546015586
0.005391769367240562
0.1538421366073691
0.004325540002325601
0.15392033783951
0.006912852483243248
0.003199203182544186
0.1574363706623276
0.1528845359531524
0.002725400422526947
0.1538672722015187
0.003031523612321285
0.1547099865298348
0.005883157972099762
-0.009752107930333931
0.1676885410750662
0.1419843155382574
0.144655327679688
0.1502922400404492
0.1404657562072096
0.1403056281546602
-0.05509980900353989
0.1311013052077026
-0.008869322378156019
0.1296783398723661
-0.006959712698715592
-0.006210037550391401
0.1296645681790892
0.1446541257310867
-0.04222834466813374
0.1388163874765198
-0.002738844589879996
0.1356503750408575
-0.003209083170324062
-0.003925908866511618
0.1339666389522236
0.1512000629594988
-0.02569816894551188
0.1456065364361441
0.003131575701255607
0.1416451808480757
0.001325625011754678
8.725415718702223e-05
0.1382266388453116
0.1147594402931241
0.1181817565886177
0.1201111277412984
0.1208155496793498
0.1299286983170731
-0.006884351667219069
0.1308553350232139
-0.005827671336079643
0.1320243212271092
-0.003778155360073115
-0.003041982261265425
0.1331330523242627
0.1327239211516586
-0.004749065843884209
0.1322539007040282
-0.004286113330612684
0.1322788023596995
-0.002838556657015018
-0.002535735143204015
0.1327048945213692
0.1355212656190574
-0.001149718917706294
0.1336163540953556
-0.001296784277333651
0.1325575373700188
-0.0007930375506631226
-0.001119238763611308
0.1322035745462389
0.1205658846342145
0.1203370280417282
0.1204741171786999
0.1203699634580051
0.1377949721908215
-0.02463573640741581
0.1349714180759165
-0.1502240323927841
0.110890561917506
-0.123269140859359
-0.01110049758167408
0.08059755390511121
0.1322429298327469
-0.02812711979007071
0.1025059881030525
-0.1268652166812111
0.05621893893691357
-0.08170005277661574
-0.002657939087613859
0.04686440853231288
0.1240296618303392
-0.02428486422215206
0.05415256993918036
-0.06297591522023771
0.002646207344166387
-0.03535130882226178
-0.006663745651497466
0.004899575318186855
0.09111684463661951
0.02221730515742254
-0.01728442897265944
-0.02687407178175966
0.1047741124053121
0.1254936311309014
0.1177081751921723
0.1030414430186859
0.1246123894302836
0.05759885179284607
0.02673199387129443
0.1298656254458357
0.08619325044697693
0.08820566517441597
0.1121891249890501
0.08108911543277664
0.1233730616088386
0.05046271388166212
0.02491584735612995
0.1296163256816614
0.05325569982344304
0.0416759816580734
0.0977048721426259
0.04057657364120626
0.117553424249288
0.03380385259140695
0.02009481057075202
0.1261714583135818
0.0160951619994612
0.06054503289903643
0.09672402373048569
0.1200180238215292
0.1351073190019622
0.003141089634820848
0.1400585613341306
-0.006442748790215447
0.1434932326450357
0.001327124481949049
0.01110429598924623
0.1477662999420797
0.1348113648058281
0.005094049532267331
0.1396073648776051
-0.002724131478709979
0.1424841265203072
0.001704760064248578
0.006771078968598854
0.1464972228532802
0.1320494307122013
0.006223332527266479
0.137764749178024
0.0001220177754224228
0.1417414613376948
0.001425918795408654
0.003103875809321921
0.1452972749824657
0.1330893081669685
0.1388615202432568
0.1430144166668245
0.1462929037199833
0.1586581037913397
0.03178006199257666
0.1726486524731892
0.05120145927401343
0.1922536096382683
0.1023453265859969
0.1805502241492832
0.2412438283809164
0.1566664014312368
0.01992449065485113
0.1704521522571709
0.0360928551085139
0.1915018870549648
0.08114646933638675
0.1229342888205143
0.2492190860687701
0.1538874304474822
0.009762328133759657
0.1672257503970597
0.02140540976891736
0.1942603578914568
0.05345347935402295
0.03430930795414755
0.2830987199350735
0.1546643445517144
0.1746485692768097
0.2273539898114809
0.2615287593264974
0.1220083959291569
-0.6494791959812897
0.01214799393384804
-0.152671562340511
-0.002610863805492847
-0.01387260178823279
-0.009787633745328986
-0.003878876774513112
0.08464399829282003
-0.484514305324152
0.001803775049552037
-0.069136558248064
-0.004320964711403814
-0.006817914392044752
-0.006331467131005197
-0.006759968405376478
0.04503329791253086
-0.2463247132688059
-0.002599491584865468
-0.02081223890933168
-0.005887846303113697
-0.002586833273860882
-0.003325131251715639
-0.008057095774298754
0.01518217365446323
-0.004928876918693172
-0.006667672204943489
-0.009093320633362019
-0.005372101935873198
-0.007906100824141424
-0.006845384769153761
-0.005023305020757339
-0.008526555419531311
-0.0007921590775558929
0.00355412687738238
-0.009126638614952692
-0.008203814540162214
-0.005613867229498231
-0.00915003588151439
-0.002746739836132443
-0.009659530314377093
0.0007301760730834828
0.003176102011603031
-0.008470161256598611
-0.009701606203576116
-0.002880129832028341
-0.009479173039982953
-0.001535965960484602
-0.008702957649555637
0.0009428305157084052
0.002634477462567696
-0.007318006528339431
-0.01080324206547942
-0.01095714079455156
-0.0091175857196321
-0.005719952987574767
-0.008397565381635072
-0.01574070268322791
0.002008694721016852
-0.002773735230361299
0.02255081487120592
0.0147344914541178
0.07058159145123409
0.04249922590664417
-0.00947585081738379
-0.01393882478938448
-0.006994427170038738
-0.003627253282671238
0.008994281481425233
0.0001133357909243043
0.04781142057675755
0.03395409468560266
-0.01173957894243527
-0.008562082932337983
-0.01141218934449114
-0.002523794831086792
-0.003532565810112562
-0.006431767848507436
0.02564492558966967
0.02042782322055048
-0.01307331239291671
-0.01384540812659222
-0.01897825956055353
0.009111350193896119
0.0413417932979001
-0.006390153994982752
0.01067769734492622
0.04004506862965927
-0.007475975821052139
0.01129763145141513
0.03682883277857363
-0.01240374007411806
0.01707195825108422
-0.01700124772772264
0.02825314502970713
0.02549783557693805
0.03272446696751527
-0.003815501249604995
0.03084166712733544
-0.004821829121178504
0.02755063003306362
-0.008769277769365431
-0.01085827384499564
0.02116966638308037
0.01856607440298564
-0.001735916286830598
0.01646322984218445
-0.002258303620027564
0.01261237137004537
-0.00446966325686457
-0.005029811524938997
0.006870617343674362
0.006623975044798933
0.004620116793581729
0.0002883262376216292
-0.004429128096138192
-0.00643152465801005
0.002588903758922657
-0.006070603324632405
0.0007797776988451022
-0.003641970304028221
-0.0008834570098293637
-0.001881119275403208
-6.228351168147128e-14
0.003517748452026043
0.006027229560916347
0.001037076366423022
0.003655395694937825
-3.800057745686342e-05
0.0009335377656019515
-0.0009154178680858306
-2.609717997259509e-14
0.01675852738660544
0.0102026785453943
0.01137045981449528
0.008958887813109915
0.005700482157111643
0.006688995260024443
0.005092528825994577
1.757621825859701e-14
0.02181154434944781
0.01435153437639098
0.00770535734268004
5.657974089245954e-14
-0.001881119275411496
0.003641970303914471
-0.0009154178680892376
3.800057741278062e-05
0.005092528825997384
-0.005700482157096003
-0.007705357342558616
0.01288535916653776
-0.0008834570098373365
0.006070603324549784
0.0009335377655986729
-0.001037076366472059
0.006688995260076248
-0.01137045981449678
-0.01435153437635601
0.01279731648334535
0.0007797776988369975
0.006431524657952901
0.003655395694937644
-0.003517748452058211
0.008958887813148075
-0.01675852738665547
-0.0218115443494912
0.01563669389114437
0.002588903758925763
0.004429128096119804
0.006027229560917446
-0.006870617343684819
0.01020267854540239
-0.02116966638310248
-0.02825314502976369
0.01609908104622413
-0.03682883277856451
-0.01700124772770316
0.02549783557693416
-0.04004506862966035
-0.01240374007415693
0.01707195825111927
-0.04134179329786606
-0.007475975821112792
0.01129763145144808
-0.006390153995071424
-0.04249922590666651
0.01067769734501434
-0.02755063003307989
-0.01085827384501101
-0.03084166712735458
-0.008769277769404768
-0.03272446696750769
-0.004821829121226695
-0.003815501249667411
-0.03395409468569292
-0.01261237137006276
-0.005029811524956695
-0.01646322984220691
-0.004469663256888103
-0.01856607440302564
-0.002258303620060725
-0.001735916286852716
-0.02042782322062752
-0.0002883262376334461
-0.004620116793620795
-0.006623975044869626
-0.009111350193986081
0.01897825956048247
-0.02564492558973155
0.01384540812655758
0.006431767848460473
0.01307331239290705
0.002523794831029214
0.008562082932287621
0.0057199529876047
0.003532565810000256
-0.04781142057680761
0.01141218934443338
-0.0001133357911017596
0.01173957894238385
0.003627253282578367
0.01393882478930417
0.007318006528337313
-0.008994281481563074
-0.07058159145126679
0.006994427169934259
-0.01473449145437929
0.009475850817284231
0.002773735230246432
0.01574070268305403
0.008470161256581829
-0.02255081487133218
-0.00200869472115894
0.008397565381540895
0.009126638614931862
0.008526555419538527
0.003554126877382064
0.006845384769229941
-0.0007921590775037748
0.005372101935922954
-0.005023305020886128
-0.007906100824191343
0.003878876774472544
0.009659530314376188
0.003176102011596883
0.009150035881550816
0.0007301760731031719
0.008203814540174055
-0.002746739836222912
-0.005613867229546403
0.006759968405382832
0.008702957649567708
0.00263447746258149
0.009479173040003008
0.0009428305157190078
0.009701606203583778
-0.001535965960530992
-0.002880129832062183
0.008057095774297146
0.00911758571966886
0.01095714079459567
0.01080324206550407
0.009093320633363215
0.002610863805467515
-0.009787633745241442
-0.01214799393334998
-0.01387260178798818
-0.1220083959281785
-0.1526715623398306
-0.6494791959819182
-0.2412438283809758
0.004320964711446045
-0.006331467130932631
-0.001803775049373244
-0.006817914391940306
-0.08464399829218186
-0.0691365582478112
-0.4845143053241632
-0.2492190860685517
0.005887846303142453
-0.003325131251703833
0.002599491584939988
-0.002586833273818215
-0.04503329791224173
-0.02081223890929162
-0.2463247132687612
-0.2830987199347996
0.006667672204949008
0.00492887691872413
-0.01518217365439673
-0.2615287593263813
-0.1922536096382255
0.1805502241494594
-0.1726486524732729
0.1023453265863648
-0.1586581037912268
0.05120145927505593
0.03178006199272621
-0.1477662999422023
-0.191501887054878
0.122934288820676
-0.1704521522570566
0.08114646933680736
-0.1566664014311502
0.03609285510914473
0.01992449065501622
-0.1464972228533559
-0.1942603578912471
0.03430930795418313
-0.1672257503968864
0.05345347935412098
-0.1538874304473734
0.02140540976945471
0.009762328133779641
-0.145297274982514
-0.2273539898112418
-0.1746485692767082
-0.1546643445516193
-0.1462929037199782
-0.1434932326450535
0.011104295989253
-0.1400585613338451
0.001327124481661945
-0.135107319001582
-0.006442748790632224
0.003141089634709715
-0.1298656254456459
-0.1424841265203152
0.006771078968308197
-0.1396073648773269
0.001704760064279887
-0.134811364805485
-0.002724131477917391
0.005094049532510248
-0.1296163256814685
-0.141741461337643
0.003103875809453038
-0.1377647491775889
0.001425918795544989
-0.1320494307118245
0.0001220177753882279
0.006223332527286574
-0.1261714583134718
-0.1430144166668066
-0.1388615202431533
-0.1330893081667822
-0.1200180238212621
-0.1246123894303382
0.02673199387126413
-0.117708175192256
0.05759885179247515
-0.1047741124053878
0.1030414430179621
0.1254936311312801
-0.08059755390538458
-0.1233730616090793
0.02491584735606311
-0.1121891249890864
0.05046271388065704
-0.08619325044716397
0.08108911543198372
0.08820566517476114
-0.04686440853253199
-0.1175534242493831
0.02009481057085738
-0.09770487214260846
0.03380385259111585
-0.05325569982367141
0.04057657364080691
0.04167598165827968
-0.004899575318326271
-0.09672402373017835
-0.06054503289874745
-0.01609516199960151
0.02687407178173359
-0.1108905619179684
-0.0111004975816717
-0.1349714180763717
-0.1232691408600016
-0.1377949721910169
-0.1502240323917182
-0.02463573640707656
-0.1331330523245347
-0.0562189389372638
-0.002657939087556127
-0.1025059881037073
-0.08170005277703196
-0.1322429298330128
-0.12686521668076
-0.02812711978978863
-0.1327048945215775
-0.002646207344382853
-0.006663745651465935
-0.05415256993979284
-0.03535130882231224
-0.1240296618306108
-0.06297591522015089
-0.02428486422198955
-0.1322035745463797
0.01728442897256002
-0.02221730515764586
-0.09111684463674721
-0.1203699634579693
-0.132024321227191
-0.003041982260598403
-0.1308553350230254
-0.003778155359385277
-0.1299286983170785
-0.005827671336262608
-0.006884351667239608
-0.129664568178927
-0.1322788023597151
-0.00253573514267294
-0.1322539007038662
-0.002838556656506813
-0.1327239211515565
-0.004286113330868674
-0.004749065843821176
-0.1339666389522004
-0.1325575373698904