/*--------------------------------*- C++ -*----------------------------------*\
  =========                 |
  \\      /  F ield         | OpenFOAM: The Open Source CFD Toolbox
   \\    /   O peration     | Website:  https://openfoam.org
    \\  /    A nd           | Version:  11
     \\/     M anipulation  |
\*---------------------------------------------------------------------------*/
FoamFile
{
    format      ascii;
    class       volScalarField;
    location    "0.35895";
    object      rho;
}
// * * * * * * * * * * * * * * * * * * * * * * * * * * * * * * * * * * * * * //

dimensions      [0 0 0 0 0 0 0];

internalField   nonuniform List<scalar> 
880
(
0.2239950333699092
0.2239950336951131
0.2240218148589073
0.2277322584009869
0.2239950333702081
0.2239950343260522
0.2240282762558397
0.2294830235075667
0.2239950333717012
0.2239950371047167
0.2240565671856666
0.2315783558175219
0.2239950333939876
0.2239950498035904
0.2241219561937889
0.2346990611388148
0.2239950332596461
0.2239950334122847
0.2239950458736168
0.2239952241129792
0.2239951092965975
0.2239953252234601
0.2239968578853545
0.2239977403617089
0.2242811709386533
0.2244558343155279
0.2247500722720067
0.2250660094164012
0.2401803247924693
0.2455212068433331
0.2499937936820718
0.2520043563330981
0.2239955040617385
0.2239988361009906
0.2240093659527863
0.2240394763282442
0.22402011865465
0.2241019974399942
0.2242083235540674
0.2244449656143712
0.2264551316785905
0.2276482245576237
0.2291674046468183
0.2311855401893531
0.2539787083658978
0.2568296305929084
0.257438497149975
0.2560279038475862
0.2436234288304835
0.2366711116245289
0.2331423234724252
0.2308308721758677
0.2347354648408955
0.2358505938964877
0.2365281392323924
0.2365636056391088
0.2252507473063084
0.226204260527009
0.2272113431420663
0.2279363883227401
0.2241527841561821
0.2243769013128085
0.22471657832203
0.2251925580949058
0.2257460465866896
0.226302319253209
0.2268524922596557
0.2272669070858533
0.2284564857629638
0.2287608279698777
0.2289107736682493
0.2289499374572063
0.2358791386438014
0.2349307131530516
0.2336831999269393
0.2323887289087173
0.2284574511559264
0.2271089386388927
0.2263649320016946
0.2255364478259395
0.225797767494602
0.231488889772821
0.2288676689770164
0.2275221302395013
0.2365327294508109
0.231097257919993
0.2286209077052515
0.227483986449007
0.2951988323771356
0.2338363960295662
0.2283204239733644
0.2269865932617243
0.357239837758472
0.2486200716350107
0.2292700536798434
0.2268024492112832
0.2267350747576972
0.2306798565940744
0.26652727641581
0.3844934142978877
0.2257412405401177
0.2332632635119012
0.2861144506978056
0.3840997268965833
0.2261634230024104
0.2391570840324641
0.3115466400029474
0.3876155479103998
0.2277547627703057
0.2495282446074066
0.3347675680394104
0.3833000624758882
0.3737188002909056
0.347031635636206
0.2650215827573071
0.2312274427852097
0.3619446560852383
0.3484395060118846
0.2819441070206417
0.237312614345849
0.3494041993066748
0.3444583626145281
0.2964849181396635
0.2468910807360958
0.3361055342748416
0.3272656415683197
0.2987094941629692
0.2585457950691376
0.2687323597677514
0.2915077843032462
0.3056451997269017
0.3202548423806219
0.2673711726188074
0.276930112805926
0.2821562791920922
0.2973457426904902
0.2633730233124316
0.2629264026645458
0.2588787863324394
0.2680222451718035
0.2580783909373706
0.2515956007802664
0.2376774185458544
0.2330836164037317
0.2536748702437975
0.2402776555396763
0.2167681513510418
0.1875894319656301
0.2465184396748242
0.2298974413492879
0.1990476342981118
0.1311188828935912
0.2410139873029761
0.225600906644185
0.1853139540920944
0.08692231288915549
0.2362873330813465
0.2232449387703864
0.1729870424259892
0.05196339461388564
0.05339584558526524
0.1742678295663524
0.2213975059908743
0.2320521805653871
0.0726551409563337
0.1743153991990009
0.2201294341393669
0.2291809968567555
0.0740359862483546
0.1724597261272867
0.2184076148176899
0.22724951994126
0.06825667144729097
0.169154353064424
0.216995517448746
0.2262348070798686
0.08124378468533901
0.1751244595789464
0.2166237473808715
0.2244823785145977
0.09697166430235726
0.1821796069768089
0.2169468018826051
0.2234639394515341
0.1161166289817829
0.1914824804652185
0.2176745438832343
0.2234219747921709
0.1390951271641119
0.1994545288272043
0.218843957709139
0.223533568001461
0.1554061834602357
0.1758240316728368
0.2098955819870722
0.2225223008229878
0.1532323605243781
0.1786921742463506
0.210325393136619
0.2224989491892295
0.1488568996083152
0.1829683134873849
0.2113597059553171
0.2224971587870423
0.143700339153972
0.1876391645527078
0.2129429388914301
0.2226199912529158
0.1390951271640899
0.1994545288269881
0.218843957709093
0.2235335680006723
0.1161166289818155
0.1914824804646493
0.2176745438829672
0.2234219747913214
0.09697166430238735
0.182179606976392
0.216946801881978
0.2234639394505141
0.08124378468547121
0.1751244595786235
0.2166237473806139
0.2244823785139944
0.2320521805656576
0.2213975059909749
0.1742678295663288
0.05339584558445253
0.2291809968567285
0.220129434139299
0.1743153991987863
0.07265514095573131
0.2272495199412709
0.2184076148177718
0.1724597261263953
0.07403598624810966
0.2262348070796566
0.2169955174491009
0.1691543530641714
0.06825667144730249
0.05196339461370494
0.1729870424256856
0.2232449387702034
0.2362873330815338
0.08692231288883191
0.1853139540921123
0.2256009066444863
0.241013987303049
0.1311188828933436
0.1990476342984223
0.2298974413495126
0.2465184396752997
0.1875894319656459
0.2167681513508472
0.2402776555393547
0.2536748702442484
0.2687323597683469
0.29150778430448
0.3056451997276916
0.3202548423804461
0.2673711726187104
0.2769301128058824
0.2821562791924001
0.297345742690604
0.2633730233116372
0.2629264026644647
0.2588787863324133
0.2680222451717726
0.2580783909373175
0.2515956007800611
0.2376774185457698
0.2330836164038298
0.3361055342747111
0.3272656415684896
0.2987094941637408
0.2585457950709424
0.3494041993065029
0.3444583626147808
0.2964849181398517
0.2468910807363303
0.3619446560850402
0.3484395060119211
0.2819441070204349
0.2373126143462157
0.3737188002904642
0.3470316356365227
0.2650215827579637
0.2312274427854853
0.2267350747577289
0.2306798565939303
0.2665272764155455
0.3844934142974587
0.2257412405412089
0.2332632635124625
0.2861144506977443
0.384099726896136
0.2261634230039569
0.2391570840338172
0.3115466400031925
0.3876155479100408
0.2277547627707216
0.2495282446072127
0.3347675680395556
0.3833000624755336
0.2268024492111647
0.2269865932616323
0.227483986449573
0.2275221302395985
0.2292700536788476
0.2283204239730712
0.2286209077050383
0.2288676689767048
0.2486200716340433
0.2338363960294714
0.2310972579192663
0.2314888897724604
0.3572398377577697
0.2951988323764209
0.2365327294508249
0.2257977674946761
0.2272669070862136
0.2289499374574968
0.2323887289092349
0.22553644782637
0.226852492259263
0.2289107736684804
0.2336831999274286
0.2263649320017673
0.226302319253117
0.2287608279698529
0.234930713153016
0.2271089386380028
0.2257460465861062
0.228456485762468
0.235879138644302
0.2284574511560231
0.2241527841558852
0.2252507473055307
0.2347354648415294
0.2436234288308437
0.2243769013122155
0.2262042605263352
0.2358505938971477
0.2366711116245528
0.2247165783224273
0.2272113431415498
0.2365281392323753
0.2331423234714889
0.2251925580944638
0.2279363883222398
0.2365636056398468
0.2308308721750635
0.2560279038473963
0.231185540189531
0.2244449656140056
0.2240394763288863
0.2574384971497959
0.2291674046470583
0.2242083235535244
0.2240093659527977
0.2568296305931329
0.2276482245574895
0.2241019974385824
0.2239988361004794
0.2539787083658793
0.226455131678111
0.224020118654104
0.2239955040625854
0.2520043563327145
0.2250660094165825
0.2239977403618234
0.2239952241138326
0.2499937936811256
0.224750072271839
0.2239968578847999
0.2239950458740673
0.2455212068423088
0.2244558343153384
0.2239953252231055
0.2239950334120864
0.2401803247916421
0.2242811709385265
0.2239951092965748
0.2239950332613753
0.2239950333699093
0.2239950336952781
0.2240218148589742
0.2277322584007836
0.2239950333704065
0.2239950343256813
0.2240282762558584
0.2294830235076885
0.2239950333721685
0.2239950371044943
0.2240565671856993
0.2315783558181389
0.2239950333946451
0.223995049803272
0.2241219561937075
0.2346990611389948
0.2309756009408758
0.2340686451676577
0.2390453183990092
0.2488770714186691
0.2340686451682078
0.2381013587660894
0.2455551001934776
0.2600104215118221
0.2390453183992741
0.2455551001935442
0.2575659549646053
0.2748377804454559
0.2488770714188305
0.2600104215115619
0.2748377804458806
0.2927912929508744
0.3103988657816826
0.2953020049186823
0.2890905441536039
0.2745130765347884
0.3071939073876871
0.3028434051571627
0.3033864169426146
0.2963481294405781
0.3073301134654414
0.3058903466453779
0.3051062101686269
0.3025615400709674
0.3028442358034333
0.3020775047615246
0.3017914211678029
0.3000773864083412
0.2950107744445972
0.2917344836382025
0.2853835432167569
0.2766628295227465
0.295844493256123
0.2923952274697678
0.2858340436146755
0.2774984785706659
0.2966640541777913
0.292928704439307
0.2859208402928806
0.2782985261472999
0.2970627600712509
0.2927923064846681
0.286194901758418
0.2758393688257413
0.2263194527443024
0.2042740340082516
0.2017572090090151
0.2026380509887253
0.2115230848351644
0.197753339638705
0.1990410988349826
0.2006508197611505
0.1993461276909939
0.1972990411927916
0.2000276384159548
0.2014991703847114
0.1809415672341295
0.1925920310452679
0.1978715529556834
0.1999243190387372
0.2023459411212231
0.2029623360307063
0.2046472127051184
0.2066901367924875
0.200954988011608
0.2018413480786488
0.2037856996380743
0.2063383867572128
0.2016470477072842
0.2022955138261092
0.2040078295473218
0.2060477829993245
0.2003540702527411
0.2012030674433527
0.2033248246274035
0.2061157266353489
0.2180287969423032
0.2810478413575205
0.3612820416688442
0.38223002708969
0.2228418393339108
0.2925868615664334
0.3543270062864367
0.3674261411554795
0.2262450077729197
0.2974234819139314
0.3516614130683677
0.364267722700198
0.228257611509827
0.3059937880204357
0.3523251522280936
0.3639647490261834
0.4399490807972942
0.4301610235787021
0.4216920999831851
0.4061951034476211
0.436981201315875
0.4304601603652334
0.4218995317834199
0.406596864146542
0.4313073346179334
0.4289238461120277
0.4203590634757345
0.4055893863821858
0.4224251280902612
0.4304280054023372
0.4217016747038765
0.4069070685711669
0.3876389611491818
0.3714266174115379
0.3555950073856871
0.3469197671244343
0.3889322380945786
0.3721686314122509
0.3556076685919027
0.3465883665957945
0.3883176723137376
0.3705858410978206
0.3548272570281302
0.3453415706841078
0.3908264217772535
0.371850794366658
0.3565225530837367
0.3464691836182101
0.3381354850999573
0.3240422175452849
0.3003132149390867
0.262358164281203
0.3387303189430021
0.3266962435791716
0.3038942841935536
0.2701450011057532
0.3380595827102529
0.3271835119598031
0.3035215542147415
0.270034072275857
0.33965340027256
0.3304750795194728
0.3044490353507628
0.3119485042711356
0.1731448445152235
0.05035563359477763
0.008929672492339349
0.00423352360619691
0.1365726067664395
0.03449710729464969
0.01029066986530143
0.008122506717659619
0.1037570388428141
0.02500813027800195
0.01091844883892672
0.009803094195395979
0.07437565499381255
0.01517977121992162
0.01062549210105835
0.01061468974077105
0.007212110997331916
0.01443830424215589
0.02019238775015461
0.02859120701458806
0.01252181341719836
0.0187626889007764
0.02474514305559261
0.03403076953565964
0.01538497632171544
0.0218713925859074
0.02995596936362453
0.03979684646344051
0.01760757116761281
0.02472895057012549
0.03515924814684611
0.04480501526339752
0.03599041334534131
0.0519856743276977
0.07159212584777877
0.09547222430705979
0.03898389787822665
0.05284112804850311
0.07027080402092173
0.09116252447566187
0.04277482956004168
0.05290655820621218
0.06808622463607295
0.08781797430185795
0.0417430654106991
0.04962489735931122
0.05998554938184392
0.08270403079215626
0.09979928957623542
0.09884721204386565
0.09922286281529924
0.1010357169737389
0.09012741506433254
0.09158163526289391
0.09366953551985575
0.0951701814379334
0.08611132272252273
0.0901186639594679
0.09207925234692557
0.09461755149983693
0.0812457339618982
0.08659509987975288
0.0892042951260225
0.09400831975765576
0.09894172094225633
0.1032922322753296
0.1060925510028969
0.1070696030691762
0.09791732566967321
0.101204832159443
0.1034980111295715
0.1046361728273037
0.09811479738831734
0.1013535226122728
0.1046620146572135
0.1063214985843891
0.1050980631048339
0.1088730663337311
0.1122868721816563
0.1130990293549495
0.1070696030691915
0.1046361728273233
0.106321498584394
0.1130990293549398
0.1060925510029478
0.1034980111296129
0.1046620146572603
0.1122868721816579
0.103292232275417
0.1012048321595274
0.1013535226123424
0.1088730663337735
0.09894172094237552
0.09791732566978195
0.09811479738842789
0.1050980631049278
0.1010357169738971
0.09922286281541866
0.0988472120439722
0.09979928957625803
0.09517018143803482
0.0936695355199776
0.0915816352630371
0.09012741506442047
0.09461755149993394
0.09207925234703691
0.09011866395959127
0.08611132272267077
0.09400831975776527
0.08920429512611922
0.0865950998798766
0.08124573396204456
0.08270403079237473
0.0599855493821222
0.049624897359583
0.04174306541094025
0.08781797430205085
0.06808622463631663
0.05290655820648479
0.0427748295602864
0.09116252447584329
0.07027080402116728
0.05284112804877823
0.03898389787848089
0.09547222430720498
0.07159212584805609
0.0519856743279573
0.03599041334563739
0.02859120701474353
0.0201923877502502
0.01443830424207957
0.007212110997268987
0.03403076953582084
0.02474514305570404
0.01876268890076468
0.01252181341719903
0.03979684646361387
0.02995596936376279
0.02187139258591675
0.01538497632170205
0.0448050152635592
0.03515924814700443
0.02472895057017579
0.01760757116760076
0.004233523606103376
0.00892967249217351
0.05035563359444035
0.1731448445151503
0.008122506717643497
0.01029066986524846
0.03449710729451933
0.1365726067662195
0.009803094195391212
0.01091844883887642
0.02500813027793045
0.1037570388426897
0.01061468974073793
0.01062549210101038
0.01517977121988511
0.07437565499370249
0.2623581642810358
0.3003132149386424
0.3240422175448377
0.3381354850995004
0.2701450011055095
0.3038942841932227
0.3266962435787941
0.3387303189427137
0.2700340722755841
0.3035215542144734
0.3271835119596063
0.3380595827100273
0.3119485042708018
0.3044490353505086
0.3304750795193709
0.3396534002724169
0.3469197671241103
0.35559500738504
0.3714266174105185
0.3876389611481139
0.3465883665954502
0.3556076685912972
0.3721686314108613
0.3889322380934748
0.345341570683926
0.3548272570275504
0.3705858410965016
0.3883176723128234
0.3464691836179495
0.3565225530832686
0.3718507943659389
0.3908264217764107
0.4061951034467905
0.4216920999824394
0.4301610235783371
0.4399490807973276
0.4065968641459673
0.4218995317833145
0.4304601603647844
0.4369812013158975
0.4055893863819462
0.4203590634756254
0.4289238461116021
0.4313073346179949
0.4069070685709654
0.4217016747039072
0.4304280054018815
0.4224251280903985
0.3822300270896951
0.3612820416684179
0.2810478413576865
0.21802879694289
0.3674261411553664
0.3543270062862078
0.2925868615665736
0.2228418393344851
0.3642677227001391
0.3516614130682287
0.2974234819140117
0.2262450077735206
0.3639647490260975
0.3523251522279721
0.3059937880205172
0.2282576115104496
0.2066901367928422
0.2046472127046707
0.2029623360295383
0.2023459411206417
0.2063383867576681
0.2037856996375957
0.2018413480775467
0.200954988011146
0.2060477829998424
0.2040078295467233
0.2022955138250724
0.2016470477068736
0.2061157266358605
0.2033248246269042
0.2012030674422844
0.2003540702523283
0.2026380509877814
0.2017572090082889
0.2042740340084616
0.2263194527445118
0.200650819760235
0.1990410988341346
0.1977533396391228
0.2115230848352847
0.2014991703838114
0.2000276384151217
0.1972990411933426
0.1993461276910472
0.1999243190378295
0.197871552954683
0.1925920310458113
0.1809415672342845
0.2766628295226314
0.2853835432166204
0.2917344836386577
0.2950107744444016
0.2774984785704712
0.2858340436147319
0.2923952274701969
0.2958444932559327
0.2782985261471861
0.2859208402931039
0.2929287044396381
0.296664054177477
0.2758393688255317
0.2861949017585744
0.2927923064849827
0.2970627600709885
0.3000773864072209
0.3025615400692386
0.2963481294386744
0.2745130765346088
0.3017914211665357
0.3051062101668507
0.3033864169400823
0.289090544152925
0.3020775047604458
0.3058903466436912
0.3028434051547191
0.2953020049169492
0.3028442358022753
0.3073301134638958
0.3071939073849794
0.310398865778336
0.1500162741064314
0.2006900846652247
0.2185818529002686
0.223554206638513
0.1466765677494748
0.1988980366909009
0.217434838326405
0.2233553578564457
0.1436183994425938
0.1964363269984303
0.216317872009233
0.2231188416888114
0.1412146226563145
0.1921627831233066
0.2146498620951992
0.222850969405875
0.2225223008228448
0.2098955819869918
0.1758240316728558
0.1554061834602644
0.222498949189089
0.2103253931366675
0.178692174246468
0.153232360524351
0.2224971587869961
0.2113597059552512
0.1829683134874197
0.148856899608347
0.2226199912529084
0.2129429388912301
0.1876391645526399
0.1437003391540357
0.2228509694055462
0.223118841688423
0.223355357856155
0.2235542066377304
0.2146498620947595
0.2163178720089984
0.2174348383259567
0.2185818529001241
0.1921627831232587
0.1964363269983603
0.1988980366910169
0.2006900846653893
0.1412146226563199
0.1436183994425242
0.1466765677494599
0.1500162741064164
)
;

boundaryField
{
    back
    {
        type            empty;
    }
    inlet
    {
        type            calculated;
        value           nonuniform List<scalar> 
16
(
0.2239950333699092
0.2239950333702081
0.2239950333717012
0.2239950333939876
0.2239950332596461
0.2239950334122847
0.2239950458736168
0.2239952241129792
0.2239952241138326
0.2239950458740673
0.2239950334120864
0.2239950332613752
0.2239950333699093
0.2239950333704064
0.2239950333721685
0.2239950333946451
)
;
    }
    front
    {
        type            empty;
    }
    top
    {
        type            calculated;
        value           nonuniform List<scalar> 
40
(
0.2239955040617385
0.2239988361009906
0.2240093659527863
0.2240394763282442
0.2241527841561822
0.2243769013128085
0.22471657832203
0.2251925580949058
0.2257460465866896
0.226302319253209
0.2268524922596557
0.2272669070858532
0.2275221302395013
0.227483986449007
0.2269865932617243
0.2268024492112832
0.2267350747576972
0.2257412405401177
0.2261634230024104
0.2277547627703057
0.2312274427852097
0.237312614345849
0.2468910807360958
0.2585457950691376
0.2687323597677514
0.2673711726188074
0.2633730233124316
0.2580783909373706
0.2536748702437975
0.2465184396748242
0.2410139873029761
0.2362873330813465
0.2320521805653871
0.2291809968567555
0.22724951994126
0.2262348070798685
0.2244823785145977
0.2234639394515341
0.2234219747921709
0.223533568001461
)
;
    }
    outlet
    {
        type            calculated;
        value           uniform 0.2239950333699093;
    }
    bottom
    {
        type            calculated;
        value           nonuniform List<scalar> 
40
(
0.2235335680006723
0.2234219747913214
0.2234639394505141
0.2244823785139944
0.2320521805656576
0.2291809968567285
0.2272495199412709
0.2262348070796566
0.2362873330815338
0.241013987303049
0.2465184396752996
0.2536748702442484
0.2687323597683469
0.2673711726187104
0.2633730233116372
0.2580783909373175
0.2585457950709424
0.2468910807363303
0.2373126143462157
0.2312274427854853
0.2267350747577289
0.2257412405412089
0.2261634230039569
0.2277547627707216
0.2268024492111647
0.2269865932616323
0.227483986449573
0.2275221302395985
0.2272669070862136
0.226852492259263
0.226302319253117
0.2257460465861062
0.2241527841558852
0.2243769013122155
0.2247165783224273
0.2251925580944638
0.2240394763288862
0.2240093659527977
0.2239988361004794
0.2239955040625854
)
;
    }
    wall
    {
        type            calculated;
        value           nonuniform List<scalar> 
104
(
0.3103988657816826
0.3071939073876871
0.3073301134654414
0.3028442358034333
0.2970627600712509
0.2927923064846681
0.286194901758418
0.2758393688257413
0.1809415672341295
0.1925920310452679
0.1978715529556835
0.1999243190387372
0.2003540702527411
0.2012030674433527
0.2033248246274035
0.2061157266353489
0.228257611509827
0.3059937880204356
0.3523251522280936
0.3639647490261834
0.4224251280902612
0.4304280054023372
0.4217016747038765
0.4069070685711669
0.3908264217772535
0.371850794366658
0.3565225530837367
0.3464691836182101
0.33965340027256
0.3304750795194728
0.3044490353507628
0.3119485042711356
0.07437565499381255
0.01517977121992162
0.01062549210105835
0.01061468974077105
0.01760757116761281
0.02472895057012549
0.03515924814684611
0.04480501526339752
0.0417430654106991
0.04962489735931122
0.05998554938184392
0.08270403079215626
0.0812457339618982
0.08659509987975288
0.0892042951260225
0.09400831975765576
0.09894172094225633
0.1032922322753296
0.1060925510028969
0.1070696030691762
0.1070696030691915
0.1060925510029478
0.103292232275417
0.09894172094237552
0.09400831975776527
0.08920429512611922
0.0865950998798766
0.08124573396204456
0.08270403079237473
0.0599855493821222
0.049624897359583
0.04174306541094025
0.0448050152635592
0.03515924814700443
0.02472895057017579
0.01760757116760076
0.01061468974073793
0.01062549210101038
0.01517977121988511
0.07437565499370249
0.3119485042708018
0.3044490353505086
0.3304750795193709
0.3396534002724169
0.3464691836179495
0.3565225530832686
0.3718507943659389
0.3908264217764107
0.4069070685709654
0.4217016747039072
0.4304280054018815
0.4224251280903985
0.3639647490260975
0.3523251522279721
0.3059937880205171
0.2282576115104496
0.2061157266358605
0.2033248246269042
0.2012030674422844
0.2003540702523283
0.1999243190378295
0.197871552954683
0.1925920310458113
0.1809415672342845
0.2758393688255317
0.2861949017585744
0.2927923064849827
0.2970627600709885
0.3028442358022753
0.3073301134638958
0.3071939073849794
0.310398865778336
)
;
    }
}


// ************************************************************************* //
