/*--------------------------------*- C++ -*----------------------------------*\
  =========                 |
  \\      /  F ield         | OpenFOAM: The Open Source CFD Toolbox
   \\    /   O peration     | Website:  https://openfoam.org
    \\  /    A nd           | Version:  11
     \\/     M anipulation  |
\*---------------------------------------------------------------------------*/
FoamFile
{
    format      ascii;
    class       volVectorField;
    location    "0.35895";
    object      U;
}
// * * * * * * * * * * * * * * * * * * * * * * * * * * * * * * * * * * * * * //

dimensions      [0 1 -1 0 0 0 0];

internalField   nonuniform List<vector> 
880
(
(24.99999999999999 -2.760035307915729e-12 0)
(24.99999998218144 -1.203419076561712e-08 0)
(24.99829744187121 -0.0005558777784139548 0)
(24.71792623919598 0.007596609051210443 0)
(24.99999999998872 -2.795162163686373e-11 0)
(24.9999999449427 -6.983986610529318e-08 0)
(24.99748894763247 -0.001717413424980462 0)
(24.6333639114228 -0.1592979569315389 0)
(24.99999999963697 -2.412859440520976e-10 0)
(24.9999997630369 -2.852739342826082e-07 0)
(24.9951600718656 -0.003575825609057879 0)
(24.5144335537908 -0.2644504818209212 0)
(24.99999999830554 1.044173189065627e-09 0)
(24.99999882664484 -1.161464273150949e-06 0)
(24.98911239765808 -0.007001897422134274 0)
(24.13826806120331 -0.4137247638888895 0)
(25.00000001118162 -4.132624000205804e-09 0)
(24.99999998005287 8.943840780475493e-09 0)
(24.99999953462535 -9.243565339657478e-07 0)
(24.99999315166236 -1.178212397802973e-05 0)
(24.99999380086592 -4.427399528626891e-06 0)
(24.99996309941647 -1.864456346393551e-05 0)
(24.99985613075156 1.105423688636759e-05 0)
(25.00017471139498 -0.001105484978934242 0)
(24.97176673349895 -0.01018262300291454 0)
(24.95172659921089 -0.006340768715685677 0)
(24.9242779748814 0.01074772280065224 0)
(24.91426765761184 -0.06675674426792122 0)
(23.40384036857172 -0.0955645066620292 0)
(22.69153217801101 0.634575640708799 0)
(22.27014854287424 1.334604967025567 0)
(22.24585287384271 1.74577473939775 0)
(24.99988423596585 -6.34450033905458e-06 0)
(24.99960806703259 -0.0003635496609086196 0)
(24.99925743232689 -0.001523683238427847 0)
(24.99748456522903 -0.004511182826066757 0)
(24.99802384656564 -0.000691095006984364 0)
(24.99022059831508 -0.0003473656856145956 0)
(24.97720522785493 0.005491024824263671 0)
(24.95452951962193 0.008906344789520838 0)
(24.75616621839495 -0.01076641179472775 0)
(24.63063098166905 0.09833369628483879 0)
(24.46228965982056 0.2783508161392469 0)
(24.31916309123159 0.4059486096910888 0)
(21.98318969834305 2.340180679714702 0)
(21.98881934400773 2.779022837556108 0)
(21.88656420096371 3.316690968880901 0)
(22.34050880308348 3.757341744540781 0)
(23.38671508232548 4.322128920518011 0)
(24.1148727998604 4.171940920126727 0)
(24.45875020294655 3.765140384874725 0)
(24.81774523560836 3.315721935478747 0)
(24.07978117910829 0.7459898607965029 0)
(24.09466891464333 1.104118772472015 0)
(24.19715279405153 1.348902160217016 0)
(24.38292720763711 1.475161675172792 0)
(24.8758926494248 0.03525727899447863 0)
(24.77237152671816 0.1153784400375113 0)
(24.68012568985268 0.2410220349354453 0)
(24.63486591045435 0.3941694882284877 0)
(24.98790869152974 -0.01052991756307496 0)
(24.9724369035151 -0.02421340833650576 0)
(24.9503735408495 -0.04398418050591213 0)
(24.9242534130618 -0.0704842717953765 0)
(24.90177000524719 -0.1009173160310749 0)
(24.88804642904955 -0.130973794437036 0)
(24.88320401998634 -0.1442589861655257 0)
(24.88865221883043 -0.1376459038234428 0)
(24.633320402241 0.5569764965659015 0)
(24.67516614932408 0.7113678209477352 0)
(24.76166489121796 0.8373022728067718 0)
(24.87737564488004 0.8914519153979915 0)
(24.55033995044982 1.608129817986818 0)
(24.75336047326114 1.654065990662722 0)
(24.94112995561055 1.626232140398928 0)
(25.09373566822781 1.55436906595355 0)
(24.99114172393843 2.904997428949877 0)
(25.17915153120465 2.488909545657198 0)
(25.29117657057218 2.093763428754126 0)
(25.36395443792132 1.77757296019003 0)
(25.4289462164415 1.376496868186196 0)
(25.24488812128008 1.452466818061025 0)
(24.99975979577903 0.9114677388928175 0)
(24.89626945988663 -0.120900228045873 0)
(24.55533078443033 1.557562147246479 0)
(25.34382880087879 1.287842407215466 0)
(25.14392822866044 0.860353911520682 0)
(24.90343974845781 -0.09590835646955871 0)
(19.17444727568748 1.728415313716148 0)
(25.1612700289473 1.29527387511909 0)
(25.25837562730548 0.7504332109062781 0)
(24.91625046255636 -0.08028571697765004 0)
(14.13726119862386 2.094056058900014 0)
(23.70816101756806 1.625830454533472 0)
(25.27758613014672 0.7730788207833817 0)
(24.94930295366382 -0.09162376551362299 0)
(24.95394233770596 -0.06635350811740218 0)
(25.21773535752853 0.7162380118250549 0)
(22.05866422593832 2.265454781893787 0)
(12.4961791813073 3.857750109043981 0)
(24.83179944765801 -0.08846098798780419 0)
(24.99558655083383 0.8054640171666168 0)
(20.61518113538035 3.30949037888472 0)
(12.80354304307913 5.638931195592422 0)
(24.79034947984104 -0.1153791111468114 0)
(24.47703141902313 1.152589205601645 0)
(18.83611961917167 4.643343506076439 0)
(12.65183548578059 7.078463056932347 0)
(24.6997523539265 -0.1629847239016583 0)
(23.60460033983399 1.921980206691242 0)
(17.59684682953764 6.053106816144585 0)
(13.13686736479252 8.145545751520526 0)
(14.04739660974354 8.858016512069522 0)
(16.97151595881736 7.290771414980957 0)
(22.43710689391373 3.147481504864205 0)
(24.52070290680167 -0.1865114226971636 0)
(15.13501894775318 9.395694690015363 0)
(17.24352537592454 8.216795022541229 0)
(21.22549586811655 4.631917286532806 0)
(24.20209817245853 -0.07280240416100839 0)
(16.37573120147834 9.686723483162872 0)
(18.11055597873781 8.754367353963325 0)
(20.71334296765293 5.986980816593657 0)
(23.69945912389441 0.2332198224642716 0)
(17.54737555473451 9.758596769930802 0)
(19.39457889759933 8.855611041124019 0)
(20.87739026543196 7.029517720033986 0)
(23.20236010128318 0.7179990280884878 0)
(22.91550260556748 0.8468783216967386 0)
(22.05104411179639 7.088669460451984 0)
(21.11888863966953 8.807755132647777 0)
(18.96292238573801 9.898568001674898 0)
(23.45907854917927 0.6428474802928607 0)
(23.50881892284302 6.647002823516814 0)
(23.10662963856153 8.415867268019651 0)
(20.90612097721194 9.810428367116005 0)
(24.04116620229742 0.3411048455261027 0)
(24.93181380739552 5.874174895502651 0)
(25.19345351364747 7.620528512271985 0)
(23.44631721649925 9.237691373075366 0)
(24.51847023976358 -0.2512333448729525 0)
(26.0620033498412 4.606565713282393 0)
(27.16614536444055 6.226545895820571 0)
(26.39957003740633 7.615231175942121 0)
(24.88315370188231 -0.3081640595050229 0)
(26.92710248462519 3.628283064645641 0)
(29.04749436220998 4.804369222772142 0)
(30.68168098413761 4.757509891081576 0)
(25.298726552977 -0.4986739369900731 0)
(27.49512563140447 2.601772170681198 0)
(30.10648347127704 3.390253938019764 0)
(33.99995539466247 0.7025952299263891 0)
(25.54133342401274 -0.5416775930595533 0)
(27.54647696122433 1.647494275927692 0)
(30.82853340921437 1.255922170406559 0)
(36.34892204752157 -4.261108415778323 0)
(25.65157486011529 -0.5426047485801169 0)
(27.22081352023651 1.023171013053668 0)
(30.30371868439947 -0.3093077078056816 0)
(37.72924964754507 -9.225696106267829 0)
(34.02859888558001 -7.308252487844259 0)
(29.12560351977218 -1.414599377797793 0)
(26.93922480278477 0.3560846972384578 0)
(25.69141513590393 -0.5455350013542338 0)
(25.60931413915165 -3.211086659937946 0)
(28.24333171343001 -1.935388425750263 0)
(26.64504500118173 -0.0995582809652865 0)
(25.62681167043496 -0.4704951031886033 0)
(23.08091923257892 -3.614604299078742 0)
(27.74676780017527 -2.840691749968384 0)
(26.39043966630746 -0.5586704870731515 0)
(25.50415102651405 -0.3575445033447765 0)
(19.89414953605773 -3.657994332649945 0)
(26.974798202388 -3.449977027242407 0)
(26.04633139773055 -0.9524618832958791 0)
(25.38772445673505 -0.273580075136016 0)
(18.07559286819797 -4.764744233028083 0)
(25.71897507186835 -4.391154333572694 0)
(25.4832930591474 -1.287942997678981 0)
(25.17886211009639 -0.2144068410905699 0)
(15.42693128813971 -6.82318998374618 0)
(24.08294536631134 -4.632480701128699 0)
(24.89521326943244 -1.12310071338078 0)
(25.00094523089463 -0.1072903543010831 0)
(14.37743647832259 -6.984836713351837 0)
(23.02335360094921 -4.045278204772998 0)
(24.65187365215704 -0.7335736866444224 0)
(24.970858610092 -0.04886201711120536 0)
(14.33979746723999 -5.863260115622727 0)
(22.80126107910298 -3.59534410316642 0)
(24.67340651107582 -0.5995458565446024 0)
(24.97618242734342 -0.03588786742358106 0)
(14.22932649131273 -0.6652039870060682 0)
(20.34946097202366 -0.1118439709635367 0)
(23.65294858654056 0.01071707871850666 0)
(24.85650610085419 0.001974583779326461 0)
(14.21290127558807 -1.760982352581776 0)
(20.34575314695967 -0.5336745749626564 0)
(23.66762510291285 0.001245117636549037 0)
(24.85342496093554 0.004369485553897334 0)
(14.42778854069408 -3.262608697799252 0)
(20.35374788837029 -0.9823715087125702 0)
(23.70642436771086 -0.07059685941133477 0)
(24.85261570926708 0.0002905111729123764 0)
(14.4809856225293 -4.649239945353592 0)
(20.56211141576724 -1.346055215403046 0)
(23.80552091810057 -0.1932240046972553 0)
(24.8608789092194 -0.01125953042718346 0)
(14.33979746725889 5.86326011560426 0)
(22.80126107914069 3.5953441031608 0)
(24.67340651116646 0.5995458564969471 0)
(24.97618242745243 0.03588786740420097 0)
(14.37743647836506 6.984836713332784 0)
(23.02335360101508 4.045278204822612 0)
(24.65187365219403 0.7335736866285095 0)
(24.97085861013704 0.0488620171573047 0)
(15.42693128819037 6.823189983768839 0)
(24.08294536636438 4.632480701173623 0)
(24.89521326942258 1.123100713425047 0)
(25.00094523094244 0.1072903543515186 0)
(18.07559286821979 4.764744233029401 0)
(25.71897507193165 4.391154333635403 0)
(25.4832930591637 1.287942997713348 0)
(25.17886211010949 0.2144068411387478 0)
(25.69141513588639 0.5455350012959643 0)
(26.93922480280673 -0.3560846972728484 0)
(29.1256035197576 1.414599377788113 0)
(34.02859888551058 7.308252487971202 0)
(25.62681167042335 0.4704951031368718 0)
(26.64504500118633 0.09955828095823022 0)
(28.24333171343646 1.935388425752569 0)
(25.60931413919172 3.211086660037821 0)
(25.50415102647784 0.3575445032988456 0)
(26.39043966630183 0.5586704870996542 0)
(27.74676780025597 2.84069175010031 0)
(23.08091923255169 3.614604299128469 0)
(25.38772445670278 0.2735800751160692 0)
(26.04633139768379 0.9524618832683447 0)
(26.97479820243366 3.449977027323279 0)
(19.8941495360835 3.657994332670792 0)
(37.7292496477002 9.22569610643988 0)
(30.30371868442478 0.3093077078004414 0)
(27.22081352029494 -1.023171013062379 0)
(25.65157486010702 0.5426047485323862 0)
(36.3489220475115 4.261108415825934 0)
(30.82853340924969 -1.255922170365371 0)
(27.54647696124398 -1.647494275933081 0)
(25.54133342398455 0.5416775930709826 0)
(33.9999553946534 -0.7025952298842866 0)
(30.10648347126527 -3.390253938005821 0)
(27.4951256314302 -2.601772170657541 0)
(25.29872655287446 0.4986739370590103 0)
(30.68168098412466 -4.757509891066288 0)
(29.04749436222847 -4.804369222738528 0)
(26.92710248467035 -3.628283064609806 0)
(24.88315370176909 0.3081640595931955 0)
(22.91550260551081 -0.8468783216786467 0)
(22.05104411173833 -7.088669460456705 0)
(21.11888863963185 -8.807755132653162 0)
(18.96292238574357 -9.898568001667909 0)
(23.45907854916525 -0.6428474802485452 0)
(23.50881892283152 -6.647002823507373 0)
(23.10662963853123 -8.415867268008448 0)
(20.9061209772028 -9.81042836710586 0)
(24.04116620235931 -0.3411048455063844 0)
(24.93181380742012 -5.874174895511252 0)
(25.19345351361834 -7.620528512248282 0)
(23.44631721649565 -9.237691373062413 0)
(24.51847023972015 0.2512333449430353 0)
(26.06200334988774 -4.606565713255636 0)
(27.16614536442672 -6.226545895782066 0)
(26.39957003739153 -7.615231175933718 0)
(17.54737555474686 -9.758596769931954 0)
(19.39457889759754 -8.855611041133638 0)
(20.87739026538965 -7.02951772003057 0)
(23.20236010113252 -0.7179990281042141 0)
(16.37573120149254 -9.68672348317039 0)
(18.11055597874606 -8.754367353963278 0)
(20.71334296764539 -5.986980816604786 0)
(23.69945912386622 -0.2332198224611197 0)
(15.13501894776233 -9.395694690027636 0)
(17.24352537594617 -8.216795022526661 0)
(21.2254958681156 -4.631917286502722 0)
(24.20209817241361 0.07280240416815477 0)
(14.04739660975899 -8.858016512061605 0)
(16.97151595882959 -7.290771414953038 0)
(22.43710689383299 -3.147481504831216 0)
(24.52070290676335 0.1865114226985885 0)
(24.95394233770743 0.06635350813950491 0)
(25.21773535755463 -0.7162380117993798 0)
(22.05866422597632 -2.265454781908878 0)
(12.49617918134019 -3.857750109047306 0)
(24.83179944754957 0.08846098798595715 0)
(24.99558655078813 -0.8054640171215401 0)
(20.6151811354024 -3.30949037888462 0)
(12.8035430431005 -5.638931195606911 0)
(24.79034947968103 0.1153791111401556 0)
(24.47703141891197 -1.15258920553836 0)
(18.8361196191706 -4.643343506040261 0)
(12.65183548580715 -7.078463056937305 0)
(24.69975235386467 0.1629847239047825 0)
(23.60460033987427 -1.921980206616722 0)
(17.59684682958544 -6.053106816114767 0)
(13.13686736479885 -8.145545751520546 0)
(24.94930295366454 0.09162376552798207 0)
(24.91625046256524 0.08028571699022549 0)
(24.90343974840405 0.09590835649934752 0)
(24.89626945987896 0.1209002280422699 0)
(25.27758613024849 -0.7730788207856262 0)
(25.25837562734238 -0.7504332108964025 0)
(25.14392822866429 -0.8603539115105675 0)
(24.99975979578193 -0.9114677389094681 0)
(23.70816101766712 -1.625830454552888 0)
(25.16127002897543 -1.295273875124175 0)
(25.3438288009499 -1.287842407229256 0)
(25.24488812131805 -1.452466818054533 0)
(14.13726119866866 -2.094056058900599 0)
(19.17444727575391 -1.728415313711807 0)
(24.55533078443119 -1.557562147222533 0)
(25.42894621643338 -1.376496868160676 0)
(24.88865221879808 0.1376459038306875 0)
(24.87737564482046 -0.8914519153772724 0)
(25.09373566819332 -1.554369065926873 0)
(25.36395443790674 -1.777572960136484 0)
(24.88320402001754 0.1442589861462177 0)
(24.76166489116797 -0.837302272799175 0)
(24.94112995559655 -1.626232140375004 0)
(25.29117657058156 -2.093763428711418 0)
(24.88804642904748 0.1309737944278621 0)
(24.67516614931961 -0.7113678208957132 0)
(24.7533604733204 -1.654065990675276 0)
(25.17915153127576 -2.488909545659084 0)
(24.90177000530415 0.1009173159503755 0)
(24.63332040225283 -0.5569764965439599 0)
(24.5503399504446 -1.608129817982414 0)
(24.99114172395729 -2.904997428941682 0)
(24.98790869153842 0.01052991747805888 0)
(24.87589264954024 -0.03525727890056823 0)
(24.07978117907301 -0.7459898607875598 0)
(23.38671508229922 -4.322128920491478 0)
(24.97243690357089 0.02421340822066739 0)
(24.77237152678454 -0.1153784399661018 0)
(24.09466891463432 -1.104118772436083 0)
(24.11487279985727 -4.171940920124695 0)
(24.9503735407965 0.04398418047910325 0)
(24.68012568989981 -0.2410220348637896 0)
(24.19715279409938 -1.348902160218091 0)
(24.45875020303494 -3.765140384920149 0)
(24.92425341310181 0.07048427172737652 0)
(24.63486591049861 -0.3941694881754104 0)
(24.38292720764495 -1.475161675134527 0)
(24.81774523567936 -3.315721935506771 0)
(22.34050880310037 -3.757341744527176 0)
(24.31916309123514 -0.4059486096944769 0)
(24.9545295197084 -0.008906344694630025 0)
(24.99748456518432 0.004511182812710582 0)
(21.8865642009934 -3.316690968865013 0)
(24.46228965980379 -0.2783508161433546 0)
(24.97720522793173 -0.005491024786450119 0)
(24.9992574323584 0.001523683207402262 0)
(21.98881934400764 -2.77902283754116 0)
(24.6306309816962 -0.0983336962906422 0)
(24.99022059846031 0.0003473656924903331 0)
(24.99960806707641 0.0003635495392782786 0)
(21.98318969834699 -2.340180679697991 0)
(24.75616621845181 0.01076641178727782 0)
(24.99802384664682 0.000691095022164344 0)
(24.9998842359163 6.344514574328303e-06 0)
(22.24585287382608 -1.745774739384364 0)
(24.91426765761596 0.06675674427255673 0)
(25.00017471140816 0.001105484998232823 0)
(24.99999315163607 1.178216721873126e-05 0)
(22.27014854282271 -1.334604967012665 0)
(24.92427797490619 -0.0107477228038425 0)
(24.99985613081861 -1.105423773127382e-05 0)
(24.9999995345964 9.243658763893868e-07 0)
(22.69153217788043 -0.6345756407180285 0)
(24.95172659924706 0.006340768706793648 0)
(24.99996309947361 1.864455430473676e-05 0)
(24.99999998007294 -8.988900051677712e-09 0)
(23.40384036836483 0.09556450661611578 0)
(24.97176673353932 0.01018262299765853 0)
(24.99999380091832 4.427412558849833e-06 0)
(25.00000001113182 4.13547714708281e-09 0)
(25.00000000000002 5.86674692086317e-12 0)
(24.99999998217518 1.20174656632092e-08 0)
(24.99829744186467 0.0005558777604662879 0)
(24.71792623916491 -0.00759660889349207 0)
(24.99999999997173 4.147423800622616e-11 0)
(24.99999994498813 6.981633978140095e-08 0)
(24.99748894763684 0.001717413402618558 0)
(24.63336391117747 0.1592979570004167 0)
(24.99999999962681 2.539846685734898e-10 0)
(24.9999997630866 2.852776275097063e-07 0)
(24.99516007187794 0.003575825595688056 0)
(24.51443355343853 0.2644504817502521 0)
(24.99999999828476 -1.018348282547435e-09 0)
(24.99999882671028 1.161476909846716e-06 0)
(24.98911239768502 0.007001897411865218 0)
(24.13826806094037 0.4137247638349023 0)
(24.52620815447515 1.108618419975426e-10 0)
(24.36094028017001 0.1495299858017927 0)
(23.97555714357308 0.1736626325030751 0)
(23.04044707523858 0.01889805083030746 0)
(24.36094028038589 -0.1495299855835896 0)
(24.08987943990281 4.086113707160022e-11 0)
(23.41138132743701 -0.06027467808893838 0)
(21.96284435286444 -0.486200876712733 0)
(23.97555714402217 -0.1736626324113104 0)
(23.41138132776878 0.06027467816434513 0)
(22.13071026198466 6.314460950913062e-11 0)
(20.03316229858873 -0.5819281258851572 0)
(23.04044707566587 -0.01889805085303002 0)
(21.96284435336191 0.4862008766510006 0)
(20.03316229891887 0.5819281258372678 0)
(17.79116532257658 -2.418365314442358e-10 0)
(17.26047154201747 2.521767379107523 0)
(17.90116196760204 2.917626636397286 0)
(19.54543173735242 2.655943642418594 0)
(21.08895038081579 1.88760144597534 0)
(18.24658255222972 4.247049265443165 0)
(18.30982394263411 4.203329548259819 0)
(19.04241157470619 4.115133945552638 0)
(20.07584119382613 3.952730457931517 0)
(17.6857391611109 5.193760400092658 0)
(18.85210045170446 4.491286109706131 0)
(19.52959175463108 4.692089289490969 0)
(20.05416922681888 4.563853686445541 0)
(18.33719156298448 5.754791267481123 0)
(19.70702115188042 4.717583140475822 0)
(20.20723711142484 4.891598849398443 0)
(20.49229637398645 4.805902825755247 0)
(20.79248563284651 4.933002012194322 0)
(21.03046517739805 5.061849358231322 0)
(21.4053917509635 5.120867176941749 0)
(22.16146814060075 5.280507444512735 0)
(20.73039529386917 4.994581010223554 0)
(21.03975101299976 5.101826470260381 0)
(21.53927626743056 5.117707353082889 0)
(22.6519151996141 5.500869263272 0)
(20.47420202667911 4.93158409927493 0)
(20.97441440551675 5.106228334428179 0)
(21.55629944421511 5.158539129241195 0)
(24.10196587381688 5.943133933670683 0)
(18.97796952467575 5.851522683682899 0)
(19.6005806682456 5.876610033005913 0)
(20.5039748322693 5.735461279488109 0)
(25.83161738551981 7.126127028770954 0)
(25.81604615077941 3.18757535073436 0)
(26.40985661301366 0.8089737076990801 0)
(25.7222573650023 0.4869264375039888 0)
(25.59530438651844 0.3820315867384568 0)
(28.37674072919551 2.198729228671404 0)
(28.69584093821378 0.3396761834211309 0)
(27.56787470412581 0.2832313941093415 0)
(26.8927277474244 0.3137947258675616 0)
(31.54979778377001 1.904600793840843 0)
(30.14957674959927 0.04570434638643024 0)
(28.75715005150961 0.05144117414072986 0)
(27.77918388117143 0.09390544079091452 0)
(25.07998649935307 1.988284099682684 0)
(24.21702797655851 0.6511858153136394 0)
(24.07213341342946 0.09017279679858387 0)
(24.15956695077842 -0.216404343917661 0)
(25.66455573204175 0.386827696920724 0)
(25.71244811736848 0.3199577449878495 0)
(25.70023145351037 0.2056757343809067 0)
(25.65267388962603 0.1721809762924022 0)
(26.53616810605741 0.3418657586209574 0)
(26.22326595755867 0.2916107596535526 0)
(25.94559372996366 0.1919874981199665 0)
(25.72038098221668 0.1309278508904638 0)
(27.14921676978945 0.1478564711575311 0)
(26.59065874578613 0.1472074342644543 0)
(26.0976394497573 0.09863432255195186 0)
(25.66464333443917 0.0853820352065868 0)
(24.12979261336763 -0.4621724411518862 0)
(23.90181144345619 -0.620606349081234 0)
(23.70081777467869 -0.7153580998458361 0)
(23.36825259979964 -0.6658956708522346 0)
(25.21081932959882 0.7655304226065131 0)
(20.11402063329573 5.089653569258171 0)
(13.73584563152665 3.932172825341028 0)
(9.352161737259813 1.062120122857459 0)
(24.63696707024669 1.246911746568326 0)
(16.10128343363487 4.946156252605437 0)
(8.880293657371908 2.749517119858832 0)
(4.477374798562604 -0.1747547521070542 0)
(23.4515005546251 1.28810137937832 0)
(11.72657354304793 3.632445548870607 0)
(3.156801542243497 2.036539364771992 0)
(-0.7651036083120714 0.24162866132242 0)
(19.437125031082 -0.7263699895751626 0)
(7.330298073508334 -0.7994745647371564 0)
(0.243664304141284 0.5399966602586618 0)
(-2.593226674219044 0.1755436047064904 0)
(8.573423742717168 2.695463805390763 0)
(10.58399658783578 4.55897667469692 0)
(11.4947027874563 6.278223117680202 0)
(12.44744252955134 7.624997186123068 0)
(6.142436496377126 1.996417658723957 0)
(9.513292662399653 4.411849755065777 0)
(11.19919149271524 6.224000445403567 0)
(12.4017787181778 7.67217278317973 0)
(2.939225280875501 0.01454148524706654 0)
(7.447345937682869 3.334701602831861 0)
(10.26803306782733 6.036811195057698 0)
(12.01932519123523 7.597359010525214 0)
(0.2412386251787113 -0.1034601644211109 0)
(3.475006244475655 2.478632620006441 0)
(7.54204889490679 3.980304798997008 0)
(10.63350646680631 5.466224580318539 0)
(13.63776334619104 8.983259827650283 0)
(14.77021041306255 10.0059016510817 0)
(15.9183316628346 10.56659140310811 0)
(16.81390667141525 10.85645054232562 0)
(13.55685993246517 8.919511361257799 0)
(14.70985076856697 9.955580963018539 0)
(15.82320298683918 10.54247763905555 0)
(16.69729978611822 10.88245907838475 0)
(13.2362276302417 8.763376736503286 0)
(14.51692100085049 9.776783122422227 0)
(15.74286641482306 10.47646714164605 0)
(16.62481094988616 10.96360595671941 0)
(13.11407441229122 6.748928599731209 0)
(14.66439692524135 8.458915582454379 0)
(15.76723083024641 10.3052329367222 0)
(16.64784318387624 10.94056712229361 0)
(17.82902556642622 11.27640099711945 0)
(19.42434413629435 11.77052868560233 0)
(21.77426669341969 11.69154420186543 0)
(24.77720138646521 10.41899980180202 0)
(17.62439288064524 11.28111219627681 0)
(19.07608518645865 11.73106776887938 0)
(21.21132806323515 11.74916653414952 0)
(24.97499323514034 12.47176550029122 0)
(17.47594114114853 11.3705545076634 0)
(18.72445347235927 11.78469500398805 0)
(21.3461118322887 12.58555167247715 0)
(31.48347196729974 18.45713034924106 0)
(17.43991819906513 11.3948646693756 0)
(18.64150004102323 11.79365247635413 0)
(22.06847987705454 13.17523960655041 0)
(43.24155594117566 25.51399240561464 0)
(30.59220102945276 5.25890440539899 0)
(32.03355546705318 -3.581786667805764 0)
(12.65366954781746 8.708502070320991 0)
(7.87852060416537 30.82752683614594 0)
(32.22943134282337 4.898690260303936 0)
(26.4611617820975 -1.949082255788199 0)
(8.981341926470241 17.41901191066038 0)
(8.460572745646203 29.01358662750929 0)
(31.9725972033424 3.291962340559565 0)
(17.20253569599609 -4.296920469645904 0)
(3.83404101271057 21.32284081638101 0)
(4.60697480845999 29.0105327181863 0)
(20.30811092069071 -8.299779966230249 0)
(7.324152912349134 -0.5696291585326917 0)
(2.092778758707082 24.80471926097749 0)
(2.646384430297651 28.71936949162314 0)
(7.064539605683045 24.60023266632655 0)
(2.677828837471488 17.65660521235533 0)
(-0.7811753186152625 14.85604397641338 0)
(-2.837775367547108 9.932915428841572 0)
(6.703461687818104 23.56799830708004 0)
(1.895211623098221 19.22743819051449 0)
(-0.4678153607841746 14.96955776346546 0)
(-1.257778690284061 7.681117337920753 0)
(3.271698705893323 22.60579477454335 0)
(1.422280467641051 18.09856789210247 0)
(-0.323222570449184 12.35002382109266 0)
(-0.815859641413664 4.896658828780255 0)
(0.7841543453876126 22.02854595459423 0)
(-0.456067305668354 17.36062409316541 0)
(-1.909130657869173 10.96145337543868 0)
(-1.737055360495212 3.282845259713616 0)
(-6.062893141959824 3.283422864092965 0)
(-1.998818381410908 0.2490503098921158 0)
(2.445515040699202 -2.432472336749274 0)
(4.468208366193281 -6.637089400126699 0)
(-6.79771469067948 3.042963839888138 0)
(-5.935670310152507 0.3351451392205421 0)
(-1.245868824242452 -0.810345594376123 0)
(2.692352638431547 -5.585606282262288 0)
(-6.199248584093188 2.120981181180733 0)
(-7.787637818423392 0.6601274989197172 0)
(-4.494122254630095 0.2980867809469833 0)
(0.05622503747109398 -4.091660328085693 0)
(-4.577639652037139 2.180602182370952 0)
(-7.123492524783008 2.655633392914211 0)
(-5.202866973631643 3.069392397095784 0)
(-0.6132715836820187 -1.05453095163651 0)
(2.371301691651004 -6.93423411273672 0)
(2.302894705756417 -7.541784683366402 0)
(3.165418478132698 -7.221827299338106 0)
(4.471370178102474 -6.482631118653894 0)
(1.473968650033163 -6.809302616128104 0)
(1.93533843285905 -6.283924611045999 0)
(3.135324260265419 -5.851616253070254 0)
(3.90795098225282 -4.938819400586817 0)
(0.4670128850681209 -4.763071213346421 0)
(0.6702825154690926 -3.50058349289617 0)
(1.666385328795152 -3.00976046754332 0)
(2.143968047459524 -1.930282368730394 0)
(1.678770072015586 -2.011111733242487 0)
(1.32591350965186 -0.7620188674447119 0)
(1.890441746214379 -0.3126983334316215 0)
(1.656796191658912 0.6406782536441482 0)
(0.7777995941811563 1.150728230485604 0)
(-0.03735699915181556 1.287323808962984 0)
(-0.6638833221919419 0.9696893282136831 0)
(-0.9868776190335141 0.3367973052130447 0)
(1.590820495364919 -0.9867117450440954 0)
(0.5886908227287196 -0.4843309984544837 0)
(-0.2583323994323909 -0.0581488204829742 0)
(-0.6787871626077127 -0.02512625395527489 0)
(3.372326909644732 -3.820942506593504 0)
(2.452432209261264 -2.809144434001707 0)
(1.347130635058945 -1.710898980393756 0)
(0.6121860042419502 -0.6409199112791489 0)
(5.11598727331816 -4.831533113273464 0)
(4.982777084314832 -3.313865528721771 0)
(4.202834712731637 -2.024088155450851 0)
(3.727565265126126 -0.7305483839536339 0)
(-0.9868776190357755 -0.3367973051901458 0)
(-0.6787871626076047 0.02512625396498786 0)
(0.6121860042421929 0.6409199112736218 0)
(3.727565265127579 0.7305483839341446 0)
(-0.6638833221958753 -0.9696893281941371 0)
(-0.2583323994331235 0.05814882049244767 0)
(1.347130635063082 1.710898980390757 0)
(4.202834712760241 2.024088155431913 0)
(-0.03735699915561649 -1.287323808948691 0)
(0.5886908227275147 0.4843309984615742 0)
(2.452432209264301 2.809144434003979 0)
(4.982777084335015 3.313865528722301 0)
(0.7777995941798961 -1.150728230477355 0)
(1.590820495365965 0.9867117450479458 0)
(3.372326909638778 3.820942506598982 0)
(5.115987273318035 4.831533113278668 0)
(4.471370178095218 6.482631118643559 0)
(3.165418478136506 7.221827299328053 0)
(2.30289470575952 7.541784683357431 0)
(2.371301691667484 6.934234112728648 0)
(3.907950982250884 4.938819400584647 0)
(3.135324260274044 5.851616253063882 0)
(1.935338432872986 6.283924611031054 0)
(1.473968650054218 6.809302616116433 0)
(2.143968047463531 1.930282368730513 0)
(1.666385328802089 3.009760467542169 0)
(0.6702825154796503 3.500583492894165 0)
(0.4670128850816458 4.763071213339916 0)
(1.656796191661352 -0.6406782536405201 0)
(1.890441746222041 0.3126983334358333 0)
(1.325913509661389 0.7620188674517866 0)
(1.678770072024032 2.011111733249908 0)
(-0.6132715836647935 1.054530951638762 0)
(-5.202866973601011 -3.069392397070805 0)
(-7.123492524745901 -2.655633392883363 0)
(-4.577639652009537 -2.180602182362653 0)
(0.05622503748624252 4.091660328083295 0)
(-4.494122254600263 -0.2980867809239827 0)
(-7.787637818366354 -0.6601274989025954 0)
(-6.199248584048532 -2.120981181156921 0)
(2.692352638444678 5.585606282253809 0)
(-1.245868824210525 0.8103455943998298 0)
(-5.935670310081839 -0.3351451391946721 0)
(-6.797714690629042 -3.042963839837148 0)
(4.468208366205722 6.637089400121799 0)
(2.445515040723316 2.432472336770304 0)
(-1.998818381321719 -0.2490503098707764 0)
(-6.062893141879022 -3.283422864033784 0)
(-2.837775367543385 -9.932915428734466 0)
(-0.7811753186714832 -14.85604397641556 0)
(2.677828837510417 -17.65660521261163 0)
(7.064539605437944 -24.6002326664819 0)
(-1.25777869028 -7.681117337857736 0)
(-0.467815360795808 -14.96955776345308 0)
(1.895211623187044 -19.22743819060558 0)
(6.703461687858395 -23.56799830709764 0)
(-0.8158596414151944 -4.8966588287559 0)
(-0.3232225704543467 -12.35002382109014 0)
(1.422280467666122 -18.09856789211963 0)
(3.27169870591279 -22.60579477456263 0)
(-1.737055360490083 -3.282845259721388 0)
(-1.9091306578724 -10.96145337544023 0)
(-0.4560673056697937 -17.36062409316779 0)
(0.784154345398688 -22.02854595463097 0)
(7.878520603822166 -30.82752683624227 0)
(12.65366954755826 -8.708502070634374 0)
(32.03355546697244 3.581786667849798 0)
(30.59220102942009 -5.258904405379332 0)
(8.460572745517521 -29.0135866275694 0)
(8.981341926407984 -17.41901191084241 0)
(26.46116178205957 1.949082255757921 0)
(32.22943134281567 -4.898690260283329 0)
(4.606974808476939 -29.01053271826754 0)
(3.834041012658433 -21.32284081650071 0)
(17.2025356959876 4.296920469598922 0)
(31.97259720333198 -3.291962340553354 0)
(2.646384430303792 -28.7193694916994 0)
(2.092778758685625 -24.80471926110098 0)
(7.324152912374343 0.5696291584687737 0)
(20.30811092071906 8.299779966218269 0)
(24.77720138646653 -10.41899980178786 0)
(21.7742666934312 -11.69154420185235 0)
(19.42434413630744 -11.77052868558352 0)
(17.82902556644392 -11.27640099712843 0)
(24.97499323514085 -12.4717655002784 0)
(21.21132806323124 -11.74916653412354 0)
(19.07608518646056 -11.7310677688637 0)
(17.62439288065448 -11.28111219627418 0)
(31.48347196728811 -18.45713034922388 0)