/*--------------------------------*- C++ -*----------------------------------*\
  =========                 |
  \\      /  F ield         | OpenFOAM: The Open Source CFD Toolbox
   \\    /   O peration     | Website:  https://openfoam.org
    \\  /    A nd           | Version:  11
     \\/     M anipulation  |
\*---------------------------------------------------------------------------*/
FoamFile
{
    format      ascii;
    class       volScalarField;
    location    "0.3592381";
    object      Ma;
}
// * * * * * * * * * * * * * * * * * * * * * * * * * * * * * * * * * * * * * //

dimensions      [0 0 0 0 0 0 0];

internalField   nonuniform List<scalar> 
880
(
1.118016635923817
1.118016634793396
1.117913274004934
1.101702310066202
1.118016635922823
1.118016632481563
1.117870535831857
1.0962687843303
1.118016635905756
1.118016621504525
1.117737691243691
1.089038899076616
1.118016635824109
1.11801656672587
1.117400351396892
1.069554783540279
1.118016636535325
1.118016634945924
1.118016603633586
1.118016146179732
1.118016282126115
1.118014695859835
1.11800838623258
1.118021818259835
1.11645759769928
1.115369336073106
1.113824310924191
1.113109159727684
1.031318051855952
0.994340299165262
0.972336992080163
0.9700767690663606
1.118010992269994
1.117995259169193
1.117968925993509
1.117859297019155
1.117902553969643
1.117468082782456
1.116770890436167
1.115507606583074
1.104433932663087
1.097435310320183
1.08827434784165
1.079903658883421
0.9590686426078685
0.9591345079871482
0.9575130547041453
0.9810531595128081
1.040052755136971
1.075624043291343
1.089969023955711
1.104392979812634
1.065631252250455
1.065218640853449
1.069325802937412
1.077707017337956
1.111148921056432
1.105552416005456
1.100432484612572
1.097672807182871
1.117316733308183
1.116401005369005
1.115078518513522
1.113440570215818
1.111889956552727
1.110735766448228
1.109985155586115
1.109839760836611
1.097061095256924
1.09871177040764
1.102514482148883
1.107802207431873
1.086124497579155
1.096163671705355
1.105646755903282
1.113536265857882
1.11164591268373
1.119220065190686
1.123416399482992
1.126389359477003
1.128791569130454
1.120906328506633
1.113436623665424
1.109951768405451
1.079486664696575
1.125822830799971
1.120187442485432
1.110313776967252
0.8046048219138794
1.115049817047692
1.125647035088824
1.111385982162104
0.5734001307152845
1.037969132703497
1.12557225555478
1.113023812794918
1.11332230644754
1.121409539673769
0.954225260824071
0.5177881458812411
1.108802620374452
1.108873927481738
0.88486598939135
0.5549415196278682
1.106523691777973
1.080245031220876
0.8075012172051087
0.5746151691895683
1.100894960356665
1.033507453985365
0.7627547449061132
0.614085636447535
0.6624719630530234
0.750986747252038
0.9748962866606689
1.089462555466217
0.714356531375268
0.7749385668954162
0.9219122383367203
1.069246228246439
0.7674917547361163
0.817603683209401
0.9053464874779306
1.0379235121055
0.8151715362901001
0.8746829801323316
0.9234561780052273
1.006072448671306
0.9854165163780788
0.9755965511283576
0.950371351578532
0.8753678049944918
1.009917810865584
1.039760778191684
1.036596716596579
0.9571067147373191
1.038619318792887
1.101927385187165
1.127950041950009
1.064399824997149
1.064422380410438
1.149828529482079
1.21600342821252
1.193061556482518
1.084293377103932
1.191061845554767
1.30572783530715
1.394838976474185
1.109067477085888
1.221506989902521
1.366105460223796
1.585976441362236
1.12497481226011
1.226893396999816
1.411602555398429
1.774900081518102
1.134437438269458
1.212809635156896
1.386977224057076
1.945095419781768
1.717470510492777
1.321803505932525
1.201074262885666
1.140475048772177
1.181741934451716
1.275076658937973
1.188875555063011
1.140462405538436
1.027537876047053
1.252847817348216
1.179570777724222
1.13695718898749
0.8788746316185269
1.21580006060862
1.16545800414233
1.132923707232721
0.805506862536948
1.162031664828705
1.142393349031789
1.125675459355376
0.730184090627207
1.092244052301826
1.117140156569836
1.11895339176188
0.6969514339178164
1.041879794995756
1.105959247160222
1.117614329021463
0.6807072972097689
1.033195076182837
1.106960065103665
1.117614700747607
0.6500013158095539
0.9389502243445249
1.069464357128449
1.113028082786975
0.6571797324292933
0.9372219958202898
1.069603800663107
1.112891388092474
0.6852810783387089
0.9362557467072488
1.070399914537793
1.112841978943262
0.7090102714069093
0.9439647156899036
1.073783605303835
1.113117941702553
0.680707297209472
1.033195076183553
1.106960065109417
1.11761470075297
0.6969514339164452
1.041879795001601
1.105959247164854
1.117614329030115
0.730184090628815
1.092244052303288
1.117140156570773
1.118953391763091
0.8055068625382567
1.162031664838028
1.142393349033341
1.12567545935408
1.140475048770529
1.201074262883882
1.321803505934178
1.717470510492746
1.1404624055394
1.188875555063097
1.275076658942531
1.181741934458806
1.136957188983186
1.179570777718192
1.252847817353684
1.027537876043471
1.132923707226844
1.165458004137845
1.215800060610426
0.8788746316232078
1.94509541976991
1.386977224054414
1.212809635154557
1.134437438267265
1.77490008151924
1.411602555401527
1.22689339700007
1.12497481226299
1.585976441364784
1.366105460214359
1.221506989901741
1.10906747707885
1.394838976469363
1.305727835308489
1.191061845562701
1.084293377096821
0.9854165163748904
0.9755965511257232
0.9503713515759574
0.8753678049954191
1.009917810866109
1.039760778192383
1.036596716592634
0.9571067147393361
1.038619318794366
1.101927385188529
1.1279500419467
1.064399824996569
1.064422380408468
1.149828529486278
1.216003428215277
1.193061556479818
0.815171536290897
0.8746829801353022
0.923456178003393
1.006072448665157
0.7674917547378109
0.8176036832118742
0.9053464874772984
1.037923512105108
0.714356531375593
0.7749385668988404
0.9219122383381935
1.069246228241153
0.662471963053912
0.7509867472517451
0.9748962866563311
1.089462555466548
1.11332230645035
1.121409539675885
0.9542252608238591
0.5177881458835993
1.10880262036995
1.108873927481558
0.8848659893924279
0.5549415196298946
1.106523691771184
1.080245031212121
0.8075012172081323
0.5746151691913401
1.100894960354512
1.033507453983072
0.7627547449089989
0.6140856364474168
1.113023812793864
1.111385982164556
1.110313776962647
1.109951768404865
1.125572255559001
1.125647035092345
1.120187442478581
1.113436623665646
1.037969132709033
1.115049817049234
1.125822830803893
1.12090632850822
0.5734001307188792
0.8046048219169143
1.079486664692624
1.128791569130156
1.109839760833542
1.107802207427591
1.113536265856976
1.126389359481428
1.109985155589629
1.102514482147889
1.105646755908855
1.12341639948588
1.110735766447467
1.098711770407148
1.096163671702683
1.119220065193675
1.111889956555577
1.09706109526065
1.086124497582056
1.111645912683187
1.117316733309293
1.111148921062115
1.065631252252729
1.040052755139282
1.116401005368844
1.10555241600867
1.065218640855729
1.075624043296496
1.115078518506939
1.100432484621792
1.06932580293841
1.089969023964442
1.1134405702165
1.097672807182726
1.077707017343326
1.104392979815556
0.9810531595137366
1.079903658880914
1.11550760658563
1.117859297020144
0.9575130547057354
1.088274347840872
1.116770890439888
1.117968925995073
0.9591345079913994
1.097435310323384
1.117468082791146
1.117995259165405
0.9590686426056266
1.104433932667349
1.117902553973492
1.11801099227366
0.9700767690661356
1.113109159725963
1.118021818261973
1.11801614617765
0.9723369920783751
1.11382431092469
1.11800838623288
1.118016603631166
0.9943402991590968
1.11536933607438
1.11801469585863
1.118016634947369
1.031318051845411
1.116457597703332
1.118016282136689
1.118016636532614
1.118016635923625
1.118016634792657
1.117913274004637
1.101702310064889
1.118016635921967
1.118016632485307
1.117870535827184
1.096268784325218
1.118016635905015
1.118016621508175
1.117737691245195
1.089038899060046
1.118016635822624
1.118016566728141
1.117400351397036
1.069554783526691
1.090021443527365
1.079808773939773
1.058234000566515
1.008455214672161
1.079808773948933
1.064149821584682
1.027795444433114
0.9529323198513879
1.058234000585877
1.027795444449668
0.9622071620901472
0.8591084293936524
1.008455214688085
0.9529323198780757
0.8591084294035591
0.7515443637007555
0.7259573447352606
0.7634721264223178
0.8354125066400081
0.9069049895442978
0.780883296594643
0.7857138343950216
0.8156856990605027
0.8610027987839505
0.7683363014371849
0.8085903358593264
0.8384369813233765
0.8598139949960423
0.8035039020720234
0.8475331457975731
0.8694709511599791
0.8807775369149439
0.8966513807039133
0.9095153111102013
0.9296243223892025
0.9684913413541932
0.8949914676209636
0.9106165372236751
0.9352848621911294
0.9903469969947938
0.8839064734479942
0.9081218172108574
0.9365979246492623
1.054092686137539
0.8334661782616618
0.8609966386414852
0.8995067247737295
1.141561186394589
1.149102335490969
1.190190855353682
1.162244669178234
1.155848571237063
1.270483887895161
1.298132429755799
1.2454802039382
1.213594660341393
1.425516137942919
1.363578817430527
1.297062050189274
1.251312393773733
1.160550741902621
1.101036261421534
1.087577089992963
1.089678645767947
1.158622418970008
1.159546750530193
1.157141631337981
1.153222519059649
1.197679913462547
1.182975793533952
1.168754443141681
1.15624424119361
1.223636241458927
1.198458996903643
1.175103245721825
1.153897129087343
1.088935635840028
1.078628478286748
1.068266065452046
1.050981221707271
1.1221112584864
0.8700035134862061
0.5643492501592715
0.3648310802135192
1.09091499872771
0.6976018774242737
0.3661580822733294
0.1741334989658837
1.032828481040412
0.504326147125583
0.1475364043217424
0.03135706498367343
0.8517489588453825
0.3004524005326213
0.0233274344206529
0.1011553195529676
0.3408959396655358
0.44151017131846
0.5060781205435774
0.5696205541172241
0.2433960954199923
0.3991276165751242
0.4925660940318005
0.5666278207128663
0.1101825887732347
0.3087561774039363
0.4557142677179116
0.5501834433745117
0.009858301256369785
0.1609755346352122
0.3251006615845584
0.4612704712900954
0.6437911463661594
0.7091244579306941
0.7653467665511582
0.8044257248647255
0.6372083046120661
0.7038045477390598
0.7599635041394248
0.7996770717214072
0.6207893596953413
0.6914820951317735
0.7536163714778846
0.7976347435919272
0.5749323019445545
0.6673104074148347
0.7485511198018433
0.7963438179647289
0.8505503131801256
0.9213128507875875
1.016684635517923
1.130832956046391
0.8424434172314434
0.9072170687495789
0.9950905440507432
1.146749432315286
0.8386694844501366
0.8955812512206397
1.009276891056602
1.465248495203471
0.8366958207776491
0.8901266212828317
1.035239231503258
2.043035699514417
1.358005195824628
1.502749929223025
0.7466954271525497
1.540898590092256
1.440689925833227
1.291891003806391
1.120953390749533
1.900696829391553
1.484631684746236
0.924531011531363
1.364566760934214
1.930174577465888
1.143592187451105
0.4372458224480126
1.650019295199681
1.864192076022745
1.320023487206529
0.8907253253696875
0.6860987609637672
0.4518958044712216
1.399965600985356
0.9917674855382822
0.7130755186663321
0.3512423697660277
1.338005482756585
0.9695961224179819
0.614750479433236
0.2354629954999874
1.275459953090685
0.9266920437479341
0.5551690227251945
0.1790080847742907
0.3129869416214358
0.09002455978898284
0.1519451891188172
0.3539342939431288
0.3575749608075279
0.2740453951059681
0.06743600910702077
0.2737522686232518
0.3253609628473926
0.3765612445520838
0.2087467513378672
0.1802065660560228
0.2563845609956405
0.3770800449057046
0.2875076121416417
0.05461020273312692
0.3303600656381777
0.3633306770200794
0.3674617241359743
0.3665496424718461
0.3127487326825372
0.2977510890392618
0.3017525123857451
0.2879352825924389
0.212535970504057
0.1577204201039619
0.1531252329887234
0.1300835574007632
0.1153145983315129
0.06702722400369669
0.08520302506525111
0.08051632252873198
0.06427321356448554
0.06053833976605885
0.0556870637839794
0.0494621086318132
0.08590394261621075
0.03554059789352927
0.01249055261557957
0.03216324905963457
0.2343395909287813
0.1729299894544468
0.1018656545381175
0.04156644246412441
0.3263139603720831
0.278139653133388
0.2178965416733133
0.1782774489104288
0.04946210863156429
0.03216324905965395
0.04156644246394178
0.1782774489102941
0.05568706378337866
0.01249055261572168
0.1018656545381659
0.2178965416740041
0.06053833976543091
0.03554059789371233
0.1729299894543025
0.2781396531341983
0.06427321356400587
0.08590394261644646
0.2343395909284047
0.3263139603726096
0.366549642469903
0.3674617241353824
0.3633306770193134
0.3303600656375438
0.2879352825924631
0.3017525123856537
0.2977510890392013
0.3127487326819908
0.1300835574006528
0.1531252329883589
0.1577204201041462
0.2125359705038308
0.08051632252870221
0.08520302506562946
0.06702722400418411
0.1153145983320331
0.05461020273280642
0.2875076121392044
0.3770800449031869
0.2563845609940101
0.1802065660559217
0.208746751336928
0.3765612445490313
0.3253609628430836
0.2737522686231229
0.06743600910638871
0.2740453951024906
0.3575749608037588
0.3539342939432161
0.1519451891202218
0.09002455978510454
0.3129869416152745
0.4518958044663102
0.6860987609639945
0.890725325384208
1.320023487189588
0.3512423697631654
0.71307551866465
0.9917674855439088
1.399965600983152
0.2354629954987463
0.6147504794303493
0.9695961224217281
1.338005482757207
0.1790080847743639
0.5551690227264713
0.9266920437471752
1.275459953089151
1.540898590047579
0.7466954271482797
1.502749929223124
1.358005195827778
1.900696829371414
1.120953390759809
1.291891003811793
1.440689925827972
1.930174577467537
1.364566760942379
0.9245310115254297
1.484631684741328
1.864192076027615
1.650019295211188
0.4372458224486926
1.143592187447977
1.130832956045231
1.016684635515321
0.9213128507891499
0.8505503131778616
1.146749432316896
0.9950905440536868
0.9072170687488936
0.8424434172342696
1.465248495197979
1.009276891055411
0.8955812512134325
0.8386694844501306
2.043035699507878
1.035239231506426
0.8901266212787757
0.8366958207783093
0.8044257248662967
0.7653467665518791
0.7091244579297137
0.6437911463677416
0.7996770717213387
0.7599635041393289
0.7038045477400532
0.6372083046129312
0.7976347435901586
0.7536163714792142
0.6914820951313967
0.6207893596949582
0.7963438179671494
0.7485511198016528
0.6673104074144488
0.574932301944852
0.569620554118107
0.506078120545209
0.4415101713181199
0.3408959396657825
0.5666278207132445
0.4925660940335991
0.3991276165757789
0.24339609542064
0.5501834433743907
0.4557142677185568
0.3087561774042586
0.1101825887741764
0.4612704712894538
0.3251006615835437
0.1609755346356597
0.009858301256575257
0.3648310802145087
0.5643492501618101
0.8700035134869908
1.122111258484273
0.1741334989667565
0.3661580822757692
0.6976018774267442
1.090914998725709
0.03135706498307705
0.1475364043233664
0.5043261471281317
1.032828481038266
0.1011553195529981
0.02332743442076092
0.3004524005334466
0.8517489588422671
1.153222519058504
1.157141631342485
1.159546750536359
1.158622418977757
1.156244241191581
1.168754443141738
1.182975793538988
1.197679913466028
1.153897129084898
1.175103245720723
1.198458996908403
1.223636241462754
1.050981221702962
1.068266065453228
1.078628478289687
1.088935635846376
1.155848571241973
1.162244669185184
1.190190855352214
1.149102335489967
1.21359466034764
1.245480203945139
1.298132429754662
1.270483887894724
1.251312393780322
1.297062050196182
1.363578817428895
1.425516137943475
1.089678645768652
1.087577089998517
1.101036261420572
1.160550741905041
0.9684913413547561
0.9296243223896147
0.9095153111066024
0.8966513807031576
0.9903469969928405
0.9352848621891192
0.9106165372224452
0.8949914676186166
1.054092686140247
0.9365979246495287
0.908121817207124
0.8839064734445099
1.141561186394548
0.8995067247705968
0.8609966386394781
0.8334661782576493
0.8807775369131079
0.8598139949959688
0.8610027987763542
0.9069049895322979
0.8694709511599212
0.8384369813155004
0.8156856990529973
0.8354125066281434
0.8475331457925364
0.8085903358511457
0.7857138343854584
0.7634721264141306
0.8035039020674831
0.7683363014304427
0.7808832965867903
0.7259573447316185
0.6232854875153977
1.002704413911838
1.099020249877952
1.11667329646041
0.6574113550348789
0.9785200921022084
1.091854719703692
1.115850620092536
0.6902719946561289
0.9705178451933114
1.085818746567353
1.114840287779807
0.706256332304883
0.9574410334354649
1.079432113389887
1.113852699889504
1.113028082786294
1.069464357127223
0.9389502243450928
0.6500013158057583
1.112891388093339
1.069603800663421
0.9372219958228492
0.6571797324303195
1.112841978945849
1.070399914538404
0.9362557467098404
0.6852810783374372
1.113117941705922
1.07378360530562
0.9439647156917703
0.709010271404353
1.113852699894845
1.114840287776247
1.1158506200985
1.116673296467162
1.07943211339395
1.085818746569092
1.091854719711614
1.099020249888647
0.9574410334332097
0.9705178451972616
0.978520092102565
1.002704413911045
0.7062563323039884
0.6902719946568667
0.6574113550346944
0.6232854875134617
)
;

boundaryField
{
    back
    {
        type            empty;
    }
    inlet
    {
        type            calculated;
        value           nonuniform List<scalar> 
16
(
1.118016635923817
1.118016635923327
1.118016635921991
1.118016635900154
1.118016636034887
1.118016635839496
1.118016624556909
1.118016452906853
1.118016452906095
1.118016624556357
1.118016635839877
1.118016636034292
1.118016635923624
1.118016635923231
1.118016635921705
1.118016635899328
)
;
    }
    front
    {
        type            empty;
    }
    top
    {
        type            calculated;
        value           uniform 0;
    }
    outlet
    {
        type            calculated;
        value           nonuniform List<scalar> 
16
(
1.111558481152534
1.111421791860179
1.111388243905627
1.111763428385382
1.116097174995792
1.115119933312476
1.113890062614487
1.112672563732213
1.111558481151284
1.111421791860582
1.111388243908018
1.11176342838863
1.112672563736926
1.113890062610893
1.115119933318335
1.116097175002487
)
;
    }
    bottom
    {
        type            calculated;
        value           uniform 0;
    }
    wall
    {
        type            calculated;
        value           uniform 0;
    }
}


// ************************************************************************* //
