/*--------------------------------*- C++ -*----------------------------------*\
  =========                 |
  \\      /  F ield         | OpenFOAM: The Open Source CFD Toolbox
   \\    /   O peration     | Website:  https://openfoam.org
    \\  /    A nd           | Version:  11
     \\/     M anipulation  |
\*---------------------------------------------------------------------------*/
FoamFile
{
    format      ascii;
    class       volScalarField;
    location    "0.125";
    object      p;
}
// * * * * * * * * * * * * * * * * * * * * * * * * * * * * * * * * * * * * * //

dimensions      [0 2 -2 0 0 0 0];

internalField   nonuniform List<scalar> 
880
(
79.99999999999999
80.00000000009571
80.0000274680097
80.00751210817748
80.00000000000001
80.0000000007398
80.00008477061829
80.05562764678245
80
80.00000002367516
80.0004280940649
80.26745088523671
79.99999999999996
79.9999999500707
80.00138499730186
80.78957517269504
80.0000000000347
79.99999999994857
80.00000000468449
80.00000066021751
80.00000006682605
80.00000001584404
80.00000301833474
80.00003268560606
80.00982294844634
80.01980920793474
80.06944044726816
79.98631358475706
82.64185799305076
85.08709733070685
86.69082432962938
87.42046594824397
80.00000785860655
80.00010298604762
80.00024080272559
80.0002120651635
80.00043593828264
80.0011391785447
80.00341766893148
80.00377178795603
80.13705292595147
80.2611975513359
80.4343475192736
80.57069482133392
88.36014520464887
89.74520222753534
91.03511777789454
91.92105770803268
89.30125128646515
87.59220382968006
86.9649016132813
86.33429164534901
81.10105915542087
81.54182776276586
81.77992134189913
81.69643633777838
80.01227439301105
80.03089914134927
80.04877925799335
80.05681605287643
80.00069869258756
80.00201793935001
80.00320667861212
80.00330399057844
80.00267197534083
80.00157737317674
80.00060523364009
80.00012460216389
80.05219813548086
80.04162074016713
80.02542853184977
80.01005622175248
81.48526331324746
81.20544051595877
80.86781327740302
80.50436225237758
85.46245414713501
84.52046048428878
83.60089735107796
82.70309595686787
81.8475464092318
80.2047162121422
80.00219431330693
80.00001232073588
80.85666451774965
80.04664415705047
80.00022665863609
80.00000058830976
80.82741654417407
80.00716291829437
80.00001629423963
80.0000003193859
88.36898906028988
80.1271921592332
80.00050510187737
80.00001055987225
80.00006898436044
80.0028110120892
80.73576729343826
110.9363094232732
80.00035761097409
80.01011163061865
81.49484699661353
116.9772759490802
80.00113999329669
80.02075870737089
82.54850232398968
123.4795874870704
80.00282213694072
80.04971930380064
84.04854584751271
129.2355052873673
134.1066365475858
85.6805388497896
80.07855821796012
80.00482860897033
139.7266488523998
87.77848821874686
80.1446490341544
80.00845004486565
146.0291831748456
89.93349440178461
80.1938909618323
80.01131785687753
151.4619275863376
92.77982398414534
80.31329552890375
80.0185810584787
80.02540631864782
80.43102701150488
95.65656450582897
154.8810478525907
80.04194686262645
80.61553673637755
96.2518032675158
146.115437602181
80.0595640630132
80.52306645018756
91.94199230460754
128.3263989498474
80.00643809230196
80.27545863035274
86.28887504000467
105.8955334787178
80.05726270071176
80.61457913440337
84.34907556157413
82.88585107583378
80.04171409430869
80.32425762858337
81.30224986343568
65.18892808177262
80.00681135470363
80.09706924121555
79.86181850084124
55.53526730547019
79.99652411387207
79.90235251242129
77.62768892266564
51.86810427719915
50.60107503297117
76.26736867165751
79.79109117410539
79.99635477037907
48.66132811751709
75.32958816339628
79.76581486719452
79.99716055311529
48.07425881522217
75.0916561742585
79.80998237966642
79.99864098027794
44.83609594643961
74.58229147754921
79.81820382809893
79.99884654355226
47.39555867966869
75.87211430268678
79.90467365090873
79.99942197336158
50.92841630731453
77.54423067744875
79.96443737517637
79.99982594064751
55.21281690684096
78.5494783468089
79.98440888603886
79.9999335998134
60.69975881779278
79.44045500053758
79.9958741905504
79.99997258176224
71.86241674351248
79.02342882708994
79.96745383717708
79.99966094861806
71.8650850966247
79.08168103786214
79.96879364809706
79.99966800229267
71.38259726736923
79.11321717776141
79.9705904440589
79.99968400955811
71.72499374641599
79.19356204643023
79.97468883659947
79.99973366868498
60.69975881776885
79.44045500043721
79.99587419051956
79.99997258153684
55.21281690686187
78.549478346699
79.98440888587463
79.9999335996965
50.92841630726329
77.54423067729201
79.96443737506239
79.99982594056745
47.39555867967151
75.87211430250237
79.90467365095402
79.99942197336433
79.99635477048352
79.79109117420622
76.2673686717348
50.60107503278551
79.9971605530844
79.76581486725138
75.32958816348938
48.66132811735344
79.99864098034449
79.8099823796255
75.09165617408692
48.07425881513707
79.99884654357362
79.818203828317
74.58229147751074
44.83609594646361
51.86810427707208
77.62768892260692
79.90235251229181
79.99652411395235
55.53526730542448
79.86181850082973
80.09706924128088
80.00681135469462
65.18892808167654
81.30224986348107
80.32425762858867
80.04171409438086
82.88585107582452
84.34907556145018
80.61457913419578
80.05726270086174
80.02540631850292
80.43102701141017
95.65656450613638
154.8810478526974
80.04194686267159
80.6155367359769
96.25180326775249
146.1154376023248
80.05956406270452
80.52306645022136
91.94199230456424
128.326398949764
80.00643809251032
80.27545863025347
86.28887503998448
105.8955334787123
151.4619275864065
92.7798239843106
80.31329553002507
80.0185810588749
146.029183175024
89.93349440153234
80.19389096073868
80.01131785687923
139.7266488525451
87.77848821895519
80.14464903490848
80.00845004487704
134.1066365476786
85.6805388501258
80.07855821781177
80.00482860900267
80.0000689844059
80.00281101198341
80.73576729313831
110.9363094230685
80.00035761120375
80.01011163106268
81.4948469968985
116.9772759493521
80.00113999355308
80.02075870749138
82.54850232385954
123.4795874868096
80.00282213691683
80.04971930384721
84.04854584753315
129.2355052872619
80.00001055987869
80.00000031934364
80.00000058840513
80.00001232074005
80.00050510162932
80.00001629413642
80.00022665855116
80.00219431322992
80.1271921591233
80.00716291836437
80.04664415693924
80.20471621204842
88.36898906018529
80.82741654419246
80.85666451778538
81.84754640922337
80.00012460221645
80.0100562218224
80.50436225243206
82.70309595691714
80.00060523361527
80.0254285319979
80.86781327744919
83.60089735113985
80.00157737316972
80.04162074024568
81.20544051584436
84.5204604840786
80.00267197525052
80.05219813543577
81.48526331331966
85.46245414711626
80.00069869259561
80.01227439285621
81.10105915547067
89.30125128660137
80.00201793917844
80.03089914140126
81.54182776285738
87.59220382970038
80.00320667868674
80.04877925784102
81.77992134181629
86.9649016130881
80.00330399053095
80.05681605282194
81.69643633788434
86.33429164521628
91.92105770798517
80.57069482129263
80.0037717878543
80.00021206527066
91.03511777776619
80.43434751943295
80.00341766872552
80.00024080297477
89.74520222759762
80.26119755150772
80.00113917821878
80.00010298574024
88.3601452045896
80.13705292586374
80.00043593812204
80.00000785883594
87.42046594815808
79.98631358478623
80.0000326856029
80.00000066035017
86.69082432959466
80.06944044719454
80.00000301824065
80.00000000468611
85.08709733065609
80.01980920791539
80.00000001582171
79.99999999995028
82.64185799295922
80.00982294835916
80.00000006670331
80.00000000002936
79.99999999999999
80.00000000009416
80.00002746805802
80.00751210812956
80
80.00000000067934
80.00008477061691
80.05562764659113
80
80.00000002360427
80.00042809403929
80.26745088525557
80
79.99999995001046
80.00138499726415
80.78957517253569
80.03417515334938
80.16453371862517
80.63054515897285
82.77669420205575
80.16453371873621
80.41227005263805
81.73049800122352
86.55195726572271
80.63054515889445
81.73049800097132
85.63557419646035
93.89856667306888
82.77669420218933
86.55195726582483
93.89856667335884
105.0528325577488
117.3700469268055
107.3183099517622
102.5683222157921
94.31835319323532
113.9707361095016
111.700696786312
111.7852165297079
107.1157756667757
114.287834871568
113.1649595294346
113.1829366644823
111.0782601503906
114.7962607126312
114.2502460427608
114.2658203835982
112.7007547399123
112.8820318669943
113.0221060079282
113.1154147674311
112.2300477030092
113.8157901766832
113.2296035029101
113.2650236393974
112.4772575634913
114.0966147533196
113.4269253300843
113.2953573852606
112.5281381604556
114.4989216575753
113.5085339002171
113.2515487209731
110.7098862314757
87.80748094855846
79.78915930103447
80.22337134336962
81.23546803334989
80.61786008234851
76.59078265525005
79.52555699007409
80.81438116968023
74.11094291929726
76.4991598873749
80.01463456314823
81.20399765488845
64.02113288825109
73.77832450558014
78.76871376132164
80.38577390291661
81.73188102924378
81.98573614758976
82.06370426394027
82.01542550808371
81.32987523980512
81.57078886739127
81.73765831101299
82.03141215498464
81.52835672763878
81.59441440436439
81.82630407105805
82.22609339494149
81.02112746287871
81.17639276952175
81.38893443075841
81.95844557253656
82.09888001249675
81.37000409323946
88.79031459931102
123.2527253693705
82.04630302695124
81.28281374514077
92.80920251868618
128.4348730571343
82.17409553873637
81.39877572775404
96.76661299372816
131.6982886119219
82.03809793022671
81.23356002758182
98.56549135169766
134.2307053835603
179.9132349759664
176.3835501776632
174.9718242216789
172.9855764738803
184.6796172510303
179.5787601251615
176.031935445349
173.4039849276738
183.1261251180277
179.7319363134797
176.5505206837435
174.3320703442847
184.0573143773438
181.3399069842256
177.5890239237096
174.6717173122097
170.1921660562315
170.5589161351982
172.4343050623683
174.4050078662798
170.4989037850208
170.5243629652643
172.2489149366743
174.2980384076399
170.8689234194338
170.525818996172
172.0519623824406
174.1881306427475
171.0405194043378
170.47075843245
171.8332516750579
174.0360558298513
175.1845125657134
167.6022182013667
151.8407159888536
123.8754266035476
174.9858090931297
168.4725458211115
153.304334948007
133.3452081724466
174.9147288545612
169.9130489447054
154.9869450719479
141.9801449117248
174.7676830658798
171.5907300891789
159.185452080628
159.2341830553039
79.76598256006062
20.22787103078446
8.784917277048054
12.35302371931212
62.59308670950053
13.35551513893091
9.040020972845539
11.85857571345436
41.92764860927593
8.545715189678498
8.990740571819817
12.46512809615398
23.76044984742482
6.381216174256251
9.858039388470033
12.60140109993919
15.89099174401056
18.03954704308177
19.40972574340084
18.1961189723778
15.34747375942647
17.95239339665875
19.1883369560426
18.19232898961312
15.75476551030084
18.2175599371205
19.19197584462954
18.74710771764162
15.89526778019389
18.69578533483956
19.40825486286026
19.83579777083281
25.25819569910675
28.57245649438227
32.18999095988438
36.78285767522095
24.46463112624924
27.8748416170478
30.32442655691897
35.82748197194104
22.90380159671847
26.87631223063406
29.50123557027964
35.82773834914643
20.97313934742668
25.08241102090612
27.37494511291154
35.49551252976281
26.28711518364662
19.13790350377396
21.09895975737829
25.26115358522177
25.7368985216069
24.30702107895097
23.96528318378396
19.86987076683087
24.17651928667636
25.80857151319781
24.37529715152768
22.09500680958353
19.79457837318339
24.36606742691429
24.12245310348488
23.24633926170103
22.14389220428848
21.48644948198147
21.18857266485988
21.01435927996174
20.12037739936611
18.97719632646753
18.83398203187382
18.72813640276083
19.43030811353254
19.77925047320156
19.97334047990881
20.131311354086
26.81947326728261
26.20043906884282
25.5686842602372
25.32773231347684
21.01435927996203
18.72813640276099
20.13131135408452
25.32773231348237
21.18857266486127
18.83398203187679
19.97334047991387
25.56868426024821
21.48644948198367
18.97719632647302
19.77925047320799
26.20043906885482
22.14389220429175
20.12037739937196
19.43030811354012
26.81947326730059
25.26115358526535
21.09895975740555
19.13790350377867
26.28711518364879
19.86987076684466
23.96528318379694
24.30702107894894
25.73689852161452
22.09500680959306
24.37529715153186
25.80857151320307
24.17651928668337
23.24633926170422
24.12245310348386
24.36606742691088
19.79457837318016
35.49551252976891
27.37494511293675
25.08241102095475
20.97313934747637
35.82773834916027
29.50123557029894
26.8763122306774
22.90380159676502
35.82748197194508
30.32442655693621
27.87484161709192
24.46463112629792
36.78285767522917
32.18999095990513
28.57245649441529
25.25819569915117
18.19611897244493
19.40972574347626
18.03954704310627
15.89099174399563
18.19232898968351
19.18833695612751
17.95239339672097
15.34747375942983
18.74710771770442
19.19197584470924
18.21755993718949
15.75476551031281
19.83579777090145
19.40825486293924
18.69578533492284
15.89526778021728
12.35302371932829
8.784917277043121
20.22787103066903
79.7659825600433
11.8585757134696
9.040020972856603
13.35551513888491
62.5930867094172
12.46512809616548
8.990740571834486
8.54571518968147
41.9276486092576
12.60140109994856
9.858039388471509
6.381216174249044
23.76044984742515
123.8754266035082
151.8407159887751
167.6022182012103
175.1845125655622
133.3452081724309
153.3043349479242
168.4725458209578
174.9858090929643
141.9801449116943
154.9869450718438
169.9130489445442
174.9147288544157
159.2341830552511
159.1854520805179
171.5907300890033
174.7676830657128
174.4050078661549
172.4343050625171
170.5589161351827
170.1921660563199
174.2980384075219
172.2489149368159
170.5243629652741
170.4989037850834
174.1881306426686
172.0519623825573
170.5258189961824
170.8689234195092
174.0360558297619
171.8332516751859
170.4707584324602
171.0405194043529
172.9855764737794
174.9718242216298
176.383550177829
179.9132349758022
173.4039849275869
176.0319354453111
179.5787601253556
184.6796172506997
174.3320703441881
176.5505206837157
179.7319363136267
183.1261251177345
174.6717173120851
177.589023923745
181.3399069843161
184.05731437712
123.2527253693142
88.79031459917486
81.37000409334381
82.09888001258126
128.4348730570424
92.80920251859841
81.28281374530239
82.04630302705077
131.6982886119811
96.76661299371804
81.39877572793468
82.17409553882254
134.2307053835627
98.56549135165966
81.23356002780157
82.03809793032724
82.01542550834168
82.06370426380906
81.98573614761476
81.73188102915681
82.03141215528908
81.7376583107678
81.57078886745917
81.32987523972503
82.22609339518647
81.8263040707868
81.59441440437867
81.52835672761039
81.95844557270559
81.38893443060439
81.17639276938091
81.02112746294618
81.23546803324396
80.22337134322204
79.78915930112561
87.80748094866009
80.81438116954256
79.52555698995836
76.59078265536245
80.6178600824191
81.20399765473027
80.01463456303426
76.49915988750699
74.11094291933406
80.38577390271219
78.76871376117677
73.77832450573413
64.02113288835862
112.2300477029724
113.1154147673222
113.0221060080575
112.8820318669452
112.477257563426
113.2650236393037
113.229603503076
113.8157901766311
112.5281381603861
113.2953573851799
113.4269253302492
114.0966147532549
110.7098862313004
113.2515487209022
113.508533900397
114.4989216575022
112.7007547396853
111.078260150401
107.1157756667671
94.31835319325926
114.2658203833858
113.182936664509
111.785216529636
102.5683222157358
114.2502460425318
113.1649595294311
111.7006967862203
107.31830995156
114.7962607124117
114.2878348715839
113.9707361093664
117.3700469265571
64.31499266199955
79.31889617403856
79.99068820385166
79.99995277281941
64.822481202983
79.26212870018601
79.988914271483
79.99992787557579
67.88414321511915
79.26164987183348
79.98597020960986
79.99989183864243
70.59446332690764
79.23126961711178
79.98049467503895
79.9998198337736
79.99966094879741
79.96745383710007
79.02342882706101
71.86241674337057
79.99966800226436
79.96879364807717
79.08168103788482
71.86508509653427
79.99968400963222
79.97059044395112
79.11321717774861
71.38259726737397
79.99973366867485
79.97468883657358
79.19356204644431
71.72499374641644
79.999819833667
79.99989183868664
79.99992787563731
79.99995277266981
79.98049467493408
79.98597020956332
79.98891427145135
79.99068820386782
79.2312696171459
79.26164987177766
79.26212870023164
79.31889617403269
70.59446332682121
67.88414321499009
64.82248120294031
64.3149926620181
)
;

boundaryField
{
    back
    {
        type            empty;
    }
    inlet
    {
        type            zeroGradient;
    }
    front
    {
        type            empty;
    }
    top
    {
        type            zeroGradient;
    }
    outlet
    {
        type            fixedValue;
        value           uniform 80;
    }
    bottom
    {
        type            zeroGradient;
    }
    wall
    {
        type            zeroGradient;
    }
}


// ************************************************************************* //
