/*--------------------------------*- C++ -*----------------------------------*\
  =========                 |
  \\      /  F ield         | OpenFOAM: The Open Source CFD Toolbox
   \\    /   O peration     | Website:  https://openfoam.org
    \\  /    A nd           | Version:  11
     \\/     M anipulation  |
\*---------------------------------------------------------------------------*/
FoamFile
{
    format      ascii;
    class       surfaceScalarField;
    location    "0.125";
    object      phi;
}
// * * * * * * * * * * * * * * * * * * * * * * * * * * * * * * * * * * * * * //

dimensions      [0 3 -1 0 0 0 0];

internalField   nonuniform List<scalar> 
1652
(
1.706212168242967
0.5337381654508484
0
1.172474002793663
0.5337381654360054
1.145750161413162e-13
0.6387359749209202
0.5337368013926398
-1.727507026316744e-13
0.5335140157399736
8.171241461241152e-14
0.1049980980585404
1.706212168246044
1.067476330897467
1.172474002806758
1.067476330802573
0.6387362647327031
1.067470783577613
1.065707133129879
0.105335916320371
1.706212168254444
1.601214496347777
1.172474003102147
1.601214493940356
0.6387375599011829
1.601195041178781
1.594258196642062
0.1061258756000371
1.706212168255725
2.134952661797
1.17247400164481
2.134952663641175
0.6387369528858663
2.134872315908808
2.119505536083849
0.1043871402660267
2.651191215271799
1.72371178022717
3.167429768741918
1.723711780223458
3.683668321822049
1.723711780280925
1.723711790483698
4.199906851738261
2.65119121382486
1.207473228786538
3.167429762025842
1.207473226078177
3.683667941039336
1.207473265177579
1.207473260110259
4.199903794799111
2.651145801143564
0.6908782335844809
3.167539948174617
0.6904715712582365
3.683564949815907
0.6901481661846928
0.6902650569091435
4.199271160387325
2.659290824331473
0.1251001710102685
3.261378861556024
0.05167339646664032
3.879356994367292
0.0293661271830597
4.501957532216526
0.0195234155259903
4.164907658837748
0.03499888844336907
4.129910707749834
0.03499876858984297
4.09490589084941
0.03498054185711374
0.03498241937851154
4.059906320655475
4.164917829710611
0.06996567020011657
4.129977341860957
0.06989381360175317
4.09507692759568
0.06975872482101575
0.06969161355371339
4.060182018960643
4.169408606800372
0.0963705870986703
4.141923268966785
0.09228055199437013
4.11629648415764
0.08859793249074194
0.08428810406255005
4.08947649254593
4.546699860702342
0.01029004793601579
4.584821939261573
0.007520176539078438
4.615490684498934
0.008114347876038597
4.656756553241293
0.004806196788410155
4.662392626740827
0.05113428304654211
-0.07274286981000153
4.608045072137033
0.06385501325800824
-0.02027713723182825
4.552328589326752
0.05393551517028378
-0.01126174816759662
0.0422136611319906
4.491306048880353
-0.008043166452371908
4.11525907398073
0.001187675851615277
4.150742868047377
0.002861330371198179
4.167401275926683
0.004319475777812998
0.0043702248382263
4.164511885552299
4.060573867163777
5.727612027839335e-05
4.061668355077012
0.000166126620940954
4.062976797065173
0.0003075506806498041
0.0003453317480665019
4.06328762750241
4.059905589904105
4.059899333395
4.059892381247852
4.059876032831101
4.059868938628905
-0.0003186457924694297
4.059874139101813
-0.0002411607439422037
4.059889596774701
-0.0001336264307860713
-4.726144872813087e-05
4.059903883528991
4.063102330552738
-0.003883383927011597
4.062285406331099
-0.002988779334134439
4.061102503614234
-0.001872963302864128
-0.0008308599727269161
4.060238395037326
4.15184919753769
-0.03159040482123054
4.131792449079032
-0.02348356753656627
4.107259467692868
-0.01745289570406378
-0.01269393922986894
4.082921032776532
4.424073565156536
-0.004692686041704863
4.355750968993069
-0.003520512212815796
4.288417580220394
-0.003621637488576412
4.222718403767849
-0.003570385553129884
0.00655758020475905
4.157905774482114
-0.0009825409294350052
0.0002134278149995006
4.066760909804524
9.429860701182236e-06
4.059951565589302
4.059909267680349
0.001681861351385816
4.102372454139795
-0.001049589136216944
2.807707313573493e-05
4.060869832351925
9.171540197305816e-07
4.059912212775707
4.059909955822071
0.0004822339889952731
4.091159476288972
-0.03337452936312851
2.4019399736952e-06
4.060257334780908
7.739289775710034e-08
4.059910771325035
4.059909976804096
0.005967644210151279
4.099641547907495
-0.1443972933836988
5.020869463367994e-05
4.061406647831804
2.587652542462848e-06
4.059921367705198
4.059910130371901
0.09332339398535522
3.966579813452621
0.18643985934974
3.966652650090562
0.2538048048310986
3.972765526752513
3.994703655177672
0.1042934166634607
0.09330008577168636
3.873251857877526
0.1860270515528106
3.87336605147385
0.2354988002369423
3.884562894153059
3.909936211387468
0.0865547245108127
0.0932299830988868
3.779942776803967
0.1851370758702525
3.780321129220571
0.2045833370805483
3.800881902819762
3.81022459942583
0.05235813331469341
0.09310927889130027
3.686628039329525
0.1835648037827255
3.687256669385874
0.1719142469919884
3.718035606776794
3.690460954803965
0.03325200520654614
-0.1288027438876417
3.559104331781913
0.01221928988884868
-0.1810267333764658
3.639340917642664
-0.09288299900432739
3.594711447277158
3.593354363926738
-0.08973058411203277
3.42983312782988
0.002844150024665648
-0.1776294591871995
3.556522573953321
-0.09259705196243695
3.501753204763898
3.500052794329707
-0.04127351251988065
3.271816214635487
0.0001065190907333369
-0.1732751419972092
3.467727904121786
-0.0922365371018643
3.409230255747369
3.406824482906691
-0.0007132783089167649
3.112559849390054
-0.0002646593164296052
-0.167007134310817
3.363150093869693
-0.09164858477203758
3.315963127285597
3.313596235991971
0.1171598436365593
3.194221141280805
0.2109133239816249
3.196917897494492
0.01152571315610584
3.237583195635233
2.949482751973207
0.01628891217371775
0.1158583287234451
3.074955337696597
0.2042837058615392
3.076825973183311
0.06729026350166711
3.107250972387059
2.899996466146436
0.05154417226661767
0.1162846587801251
2.95407181231876
0.2130045260653278
2.956677014553874
0.1662834790662592
2.989885870116974
2.900661464635535
0.1305484794549001
0.1176819960268916
2.835764298363225
0.2251807629267501
2.83754508578409
0.2628009648716524
2.863751041843727
2.880022402905179
0.2641120402774789
-0.2052440956306492
3.037275664785891
-0.4322973777137372
3.042105756486865
-0.7260095706227822
3.109696860268581
3.012395225363659
-0.8449050170130775
-0.2045487104852791
3.238110388047356
-0.4268500042761842
3.250932224870193
-0.6256569588249358
3.303043325284804
2.782860550748623
-0.3042323189072065
-0.2018396485587902
3.438892152262873
-0.4011703484908449
3.44545045945476
-0.5637357215914507
3.478397050964078
2.456319158930773
-0.0535232864236458
-0.201114623621949
3.640000256106204
-0.3960909130774564
3.639915476036063
-0.4703557232568944
3.587380419078093
2.220751099250581
-0.02704705969025216
0.1939752121609393
2.142329086573914
-0.009613758756703679
0.2012594763062394
3.618510318688864
0.1048055436026108
3.741500343191904
3.744917629896036
0.1793379512071385
2.074891061922847
-0.005476966254289367
0.199643920629926
3.648676635317743
0.1048003454924929
3.844314321447464
3.849885347342
0.184063380148014
1.987195145682721
-0.00138867644277002
0.2005828434418095
3.707620690376722
0.1048760879823034
3.948404459051018
3.954882810177411
0.1745251426452065
1.863771944407214
0.006482173171363112
0.2002311176116944
3.776173122055916
0.1048821455358877
4.053513748320134
4.059880811708492
-0.1261670532790595
2.046836553819575
0.06182336126334111
-0.01086053324468517
3.867762756520996
-0.0001301210189879054
4.057434592094103
4.059901110074857
-0.08910329623538271
2.320975394145158
0.08279386762320669
-0.004742553000696148
3.958559194842555
-4.203499018395895e-05
4.059159263571012
4.059908075990503
-0.06326579596101611
2.674339138493366
0.0874961745809341
-0.002212755924749232
4.019390927979531
-1.672872072089326e-05
4.059822566488768
4.059909753001647
-0.04137835444302251
0.100899793431505
2.992407573786611
-0.0009783807380540077
4.028586577681031
-6.805296954182083e-06
4.05948923785811
4.059909744490018
0.6120781045706614
-0.5768622383653135
-0.007070099425369583
1.714184350021242e-12
1.18552771115145
-0.5220784558428107
-1.77102776888205e-12
1.714871282253147
-0.5247761193282403
-5.051070672834612e-12
-0.5249856890488709
-1.789679515695752e-12
0.6148116124527905
-1.094427151979206
-0.007642555490382414
1.185850616134284
-1.042896526186761
1.71487474820579
-1.049558385275703
-1.049971524509921
0.6115397446220762
-1.567376220268061
-0.01133123983305611
1.186031056332217
-1.566708650746678
1.714880596672363
-1.574496434334848
-1.574958851310201
0.6119396113805781
-0.02120278252548823
-2.000945287008154
1.186499097405717
-2.091099197980977
1.714894229983881
-2.099603597921582
-2.099949329659999
-0.0413783544415417
-2.674339138489265
0.1008997934313827
2.992407573783427
-0.000978380734590556
-4.019390927979582
4.02858657767644
-6.805296488110457e-06
-4.05982256648497
4.059489237848635
-4.059909753002778
4.05990974448849
-0.06326579595993098
-2.320975394141627
0.08749617458078573
-0.002212755926130017
-3.958559194845079
-1.672872251412549e-05
-4.059159263576189
-4.059908075991473
-0.08910329623604074
-2.046836553818355
0.08279386762337483
-0.00474255300375348
-3.86776275652266
-4.203499072663597e-05
-4.057434592096571
-4.059901110075269
-0.1261670532779542
-1.863771944404577
0.06182336126352279
-0.01086053324555569
-3.776173122062581
-0.0001301210194923907
-4.053513748319619
-4.059880811707629
-0.1048055435955404
3.744917629919709
-3.640000256131756
-0.2012594762941766
3.741500343214255
-3.639915476060597
-0.193975212155036
3.618510318664381
-3.587380419047088
2.142329086556379
-2.220751099228117
-0.009613758756925578
-0.1048003454843529
3.849885347356568
-0.1996439206167378
3.844314321464575
-0.1793379512013258
3.648676635306565
2.074891061911318
-0.005476966254445687
-0.1048760879754312
3.95488281018451
-0.2005828434279469
3.948404459056525
-0.1840633801426157
3.70762069037444
1.987195145675813
-0.001388676442540072
-0.1048821455284933
-0.2002311175970481
-0.1745251426395689
0.006482173171494583
0.4703557232603613
-2.456319158911105
-0.02704705969005947
0.3960909130911231
-3.478397050944527
0.2011146236318936
-3.445450459475515
-3.438892152283077
0.5637357215969832
-2.782860550735646
-0.05352328642295564
0.4011703485050829
-3.303043325273893
0.2018396485665505
-3.250932224882395
-3.238110388061028
0.6256569588331877
-3.012395225359378
-0.3042323189061146
0.4268500042907749
-3.109696860264116
0.2045487104913979
-3.042105756494939
-3.037275664792125
0.7260095706303024
-2.880022402906074
-0.8449050170156162
0.4322973777257826
-2.863751041845287
0.2052440956352371
-2.837545085785701
-2.835764298364388
0.117159843640137
3.194221141291356
-3.31359623600351
0.210913323987699
3.196917897487173
-3.315963127305556
0.0115257131588733
3.237583195618796
-3.363150093854885
2.949482751959604
-3.112559849375177
0.01628891217324113
0.1158583287286073
3.074955337703983
0.2042837058686629
3.07682597317614
0.0672902635040008
3.107250972376258
2.899996466138686
0.05154417226650421
0.1162846587840327
2.954071812328312
0.2130045260718056
2.956677014553521
0.1662834790700796
2.989885870111977
2.90066146463253
0.1305484794550086
0.1176819960288061
0.2251807629341611
0.2628009648750473
0.2641120402776702
-0.0007132783033301227
-3.271816214623118
-0.0002646593170497757
-0.1670071343122262
-3.467727904104351
-0.09164858477228011
-3.409230255754163
-3.406824482921792
-0.04127351251527556
-3.429833127821034
0.0001065190912762359
-0.1732751419799367
-3.556522573937265
-0.09223653709490609
-3.501753204733709
-3.500052794335895
-0.08973058410696905
-3.559104331782497
0.002844150024762016
-0.1776294591835717
-3.639340917646852
-0.09259705196085671
-3.594711447286634
-3.593354363930241
-0.1288027438879796
-3.690460954807829
0.01221928988991128
-0.1810267333654961
-3.718035606785142
-0.09288299899831159
-3.687256669378854
-3.686628039328706
0.09332339398521577
3.966579813453312
-4.059910130371781
0.1864398593492874
3.966652650087281
-4.059921367704125
0.2538048048287198
3.972765526752718
-4.061406647832331
3.994703655176687
-4.099641547907853
0.1042934166615503
0.09330008577235571
3.873251857877587
0.1860270515545031
3.873366051481484
0.2354988002415433
3.884562894159123
3.909936211395073
0.08655472451205504
0.09322998309838931
3.779942776805395
0.185137075869249
3.780321129221242
0.2045833370764424
3.800881902816385
3.810224599423515
0.05235813331386863
0.09310927889219595
0.1835648037843627
0.1719142469945438
0.03325200520648552
-4.05990997680366
-2.587652280672259e-06
-4.059909955821838
-7.739285168284482e-08
-4.059909267680896
-9.171536966556815e-07
-9.42986087404396e-06
-4.059903883529216
-4.059910771324613
-5.020869443694842e-05
-4.059912212775257
-2.401939863561076e-06
-4.059951565588618
-2.807707280272354e-05
-0.0002134278153281266
-4.060238395037325
-4.060257334781667
-0.00596764421048307
-4.060869832351714
-0.0004822339890163674
-4.066760909803329
-0.00168186135171422
-0.006557580204846314
-4.082921032775706
-4.091159476288231
-0.1443972933837609
-4.102372454139346
-0.03337452936249846
-4.157905774482328
-0.00104958913579889
-4.222718403768004
-0.0009825409291720488
-4.726144916999964e-05
-4.059889596775024
-0.0008308599731861044
-4.06110250361554
-0.01269393922966033
-4.107259467692009
-4.288417580219668
-0.003570385553486377
-0.0001336264307559842
-4.059874139101374
-0.001872963302497255
-4.062285406331635
-0.01745289570348613
-4.13179244907972
-4.355750968992209
-0.003621637487259521
-0.0002411607435618413
-4.059868938628337
-0.002988779333556846
-4.063102330552526
-0.02348356753730302
-4.151849197539327
-4.424073565155648
-0.003520512214407912
-0.0003186457924256869
-4.059876032831708
-0.003883383927307915
-4.063287627501646
-0.03159040482035169
-4.164511885554496
-4.491306048880016
-0.00469268604091716
-5.727612293815465e-05
4.059905589896551
-4.059906320643472
-0.001187675857296011
4.060573867151344
-4.060182018946659
-0.05113428304931583
4.115259073991044
-4.089476492560967
4.66239262674892
-4.656756553253576
-0.07274286980961361
-0.0001661266235375436
4.059899333388158
-0.002861330376241866
4.061668355068692
-0.06385501326141352
4.150742868055784
4.608045072142521
-0.02027713723163563
-0.0003075506834924191
4.059892381245075
-0.004319475784134996
4.062976797059831
-0.05393551517394102
4.167401275931245
4.552328589329068
-0.01126174816800118
-0.0003453317510960785
-0.004370224844502668
-0.04221366113454722
-0.008043166452727235
-0.08428810406610432
-4.615490684507822
0.004806196788324613
-0.06969161356628867
-4.116296484166416
-0.03498241938202418
-4.095076927590231
-4.094905890841841
-0.08859793249537767
-4.584821939265397
0.008114347875532446
-0.06975872483340712
-4.141923268966916
-0.0349805418583895
-4.129977341864809
-4.129910707720393
-0.09228055200011348
-4.546699860699952
0.00752017653942344
-0.06989381361322922
-4.169408606792382
-0.03499876859565887
-4.164917829723455
-4.164907658838419
-0.0963705871027738
-4.501957532211038
0.0102900479360149
-0.06996567021279981
-4.199271160368672
-0.034998888446238
-4.199903794822744
-4.199906851737746
-0.6902650569053348
-3.879356994365193
0.01952341552536424
-1.207473260101563
-3.683564949800382
-1.723711790484537
-3.683667941053013
-3.683668321820242
-0.69014816618327
-3.261378861555309
0.02936612718306642
-1.207473265169389
-3.167539948169162
-1.723711780280799
-3.167429762039791
-3.167429768740043
-0.690471571258211
-2.659290824330396
0.05167339646638891
-1.207473226075547
-2.651145801140094
-1.723711780224319
-2.651191213830853
-2.651191215270763
-0.6908782335842357
-2.119505536082941
0.1251001710100106
-1.207473228780905
-2.134872315910617
-1.723711780228176
-2.134952663637242
-2.134952661797014
1.706212168246006
0.5337381654478088
1.17247400279777
0.5337381654359135
0.638735974924349
0.533736801394044
0.5335140157435887
0.1049980980585226
1.70621216824656
1.067476330893909
1.17247400280726
1.067476330801523
0.6387362647331126
1.067470783579141
1.065707133132697
0.1053359163190209
1.706212168253681
1.601214496345006
1.172474003100713
1.60121449394094
0.6387375599000964
1.601195041180018
1.594258196643705
0.1061258755994082
1.706212168252933
1.172474001642109
0.6387369528827959
0.1043871402644556
0.1049718402513504
0.1049718402511745
0.1047939262407243
0.1053575901429545
0.1048960225401313
0.1056784325881249
0.1032654611825897
0.1053245157281686
0.1053575901439245
0.1047939262410247
0.1052167461382593
0.1052167461379929
0.1053463446082056
0.1049522581025936
0.0998554900959886
0.1078971399387587
0.1056784325887581
0.10489602254048
0.1049522581026688
0.1053463446082344
0.1045128459960276
0.104512845995767
0.09652686929073608
0.1070075750615891
0.1032654611843728
0.1053245157285808
0.09985549009697901
0.1078971399396058
0.0965268692918958
0.1070075750608781
0.0962329219115033
0.09623292191247118
-0.03928546960109697
0.1345322988288115
-0.06548224055272833
0.1319584045899069
-0.09583367800878967
0.1367726879370463
0.1330571467247942
-0.009084193588064449
0.1425642912167135
-0.02006958703773248
0.1418315394517671
-0.03246691161734327
0.1480828120777531
0.1510617773278526
-0.006804094478967238
0.1479129441513837
-0.01538392321331017
0.1488169069959701
-0.0224697494615253
0.1537270511900387
0.1563974534339034
-0.003808113907280364
0.1506578684765654
-0.01043816574314976
0.1545103958922124
-0.01542991966522217
0.1577940309938715
0.1595099502252084
0.1613822355826164
0.008092383753321719
0.1626730848798452
0.006089361642937885
0.1635662242390491
0.007539238922040836
0.005072364399773821
0.1644341187446194
0.1607828763957749
0.00469510137564777
0.1629026408798201
0.004080103255673206
0.1645173455204026
0.00645533613793009
0.002455524210839111
0.1682782205026487
0.158666870804409
0.0004573180195578397
0.1623666999066981
0.0005470394810304646
0.1651028380786303
0.004174874999448797
-0.01012311378990211
0.1786117873382466
0.1513381677482568
0.1518940267138351
0.1564216942634383
0.1477582189782311
0.1558192943815119
-0.062913089839919
0.1475658821658147
-0.0100710132686922
0.1468310812205437
-0.008486833489246143
-0.006717746015121456
0.1474082413490806
0.1565947577982295
-0.04947098645787218
0.1526928210557811
-0.003986581787220167
0.1510965172843922
-0.004750774277892028
-0.003522507474154002
0.1498634465299582
0.1617699924106086
-0.03021450889435676
0.1575959232230923
0.002531343089714172
0.1544363367959641
0.0007608767601320343
0.0008811730974984666
0.1518790435182147
0.1196765414600036
0.1248084003486513
0.1281028167869934
0.130883867184501
0.1473767230763514
-0.003305410819462562
0.1469931747172602
-0.002084519500830606
0.1462006658568183
-0.002448327260799021
-0.002496938913944313
0.1456373836102425
0.1487608107366314
-0.0009182638350872518
0.1477490713255017
5.343490350934177e-05
0.1470031474896269
-0.0008093297239205044
-0.00081762411606634
0.1465784206671208
0.1500033741987421
0.002103537310877479
0.1487040254208542
0.002385255621120241
0.148012608260161
0.001440606297486546
0.0008134051357859273
0.147604566585529
0.1338482829519342
0.1365900420875064
0.1394499131627165
0.1419897331169959
0.1451972117081274
-0.0007413202724373402
0.1433655150717702
-0.0007275304285576656
0.1461148869031359
-0.04274019431360454
-0.1326834433679829
0.1274816335419058
0.1457827211705743
-0.0001829466017704284
0.1436801420793877
2.622372614796697e-05
0.1423181211397053
-0.04921618734902977
-0.100971853485665
0.1055223042127313
0.1464702061509822
0.0007527740317484488
0.1441307480268285
0.001023905371650313
0.1295055756721371
-0.04293570360950055
-0.05477443742722099
0.08018880188681063
0.1422895543044907
0.1419792910458658
0.09016722238955456
0.03172639659239913
0.1398709382240104
0.08666883675255432
0.1433331974595291
0.07917202404123991
0.1466240107683219
0.04573251370484333
0.0281664942887615
0.1484807810538613
0.1313875447474574
0.05719584928984056
0.1414249189084184
0.06613221769698363
0.1465213030928115
0.03799483521581004
0.02336402779808555
0.1485421171761409
0.1082897973455813
0.025746713577389
0.1307338066586437
0.04078049940173623
0.142127375533345
0.02445362213356828
0.01544301902646872
0.1476537321532284
0.05642196256186521
0.09509172152731707
0.1176389720340968
0.1308107340864499
0.1481205090609299
0.01048639267723861
0.1490869746264076
0.00262380610559243
0.1515765279208656
-6.58640502045893e-05
-0.0002004888173783304
0.1555352768759548
0.1483768497855056
0.008991163221401921
0.1494435795880775
0.002550831161132305
0.1521626089467349
-7.035695570645206e-05
0.0001261425405337802
0.1565126504309944
0.1483854856613896
0.007065633225300849
0.1496200976496688
0.002555641881253901
0.1523942899966203
0.0001467719405495727
0.0004586081237302198
0.1569845753725871
0.1366209756271924
0.1402956513441197
0.143695173316145
0.1494927304039811
0.1653496992892977
0.01189655270151668
0.1804280168419794
0.04093408044222202
0.2055433365835256
0.1086523327306208
0.2150830343185123
0.2567812521809322
0.1663873316365671
0.007979419385923836
0.1811404330191626
0.03073280981855708
0.2053161506665997
0.08807523010981633
0.1450093183610619
0.2774475304164273
0.1660690019895952
0.005119820972944722
0.1798273915712696
0.02201175645619047
0.2109734647327687
0.06078856086649032
0.04315383722127297
0.3156774595828543
0.1609760270397469
0.1884886531010704
0.2536022343711928
0.3001698755728888
0.1408089373401471
-0.7234572183541004
0.02034218283911714
-0.1790278541685996
0.002899989292388716
-0.02831556778571009
-0.01861099585648051
0.001960357327675135
0.1019280457647723
-0.5443624329718909
0.008400334152330585
-0.08271631694061854
-0.001304819800297627
-0.01230553529951191
-0.01137739358107454
-0.001777230141365018
0.05314663068836323
-0.2802543230557464
0.001280980983057033
-0.02837088882606539
-0.002907442254266141
-0.003137692446794606
-0.00533355595028287
-0.002952237360930813
0.02077944403329326
-0.004963701590872289
-0.002910235844256811
-0.002817686576713959
0.003152990217891132
-0.007818655647959444
0.002500053084928421
-0.003418609823836988
0.001338488264075174
4.313853786864358e-05
0.003147652208806848
0.00420360617227462
-0.001203508379195042
-0.005549197002968985
-0.00138063948663511
-0.002559369890825496
-0.001385761267766357
-0.0002708804188883626
0.001596473816113268
-0.001059501280733333
-0.002740155884320118
-0.002807911586918121
-0.002614387666395032
-0.001705999186832313
-0.002936136193019492
-0.0003673667313773415
0.001229446130153494
-0.004322331029514598
-0.003131601717288469
-0.003673635462291332
-0.00436723492740191
-0.004905378662319004
0.03455644727122887
0.03199391187897008
0.06148651250639132
0.06093903770587988
0.08727205941895255
0.07063827105676736
0.08806692998907151
0.1112250671137593
0.01774237731534303
0.01230889468518474
0.04591953007852023
0.03547886670947575
0.07391609946792391
0.04815220318876039
0.06513054944461347
0.1040415576554953
0.004642982946386986
0.00190469139057442
0.02817606935195596
0.01320945049499664
0.05581897737586559
0.02475112660493142
0.03618279640420564
0.08935953761015489
-0.005323509834350575
0.007326182112741969
0.03484633364727444
0.07892580976212474
0.09170534570366859
-0.09084376275415125
0.1167554530867556
0.07682449772774359
-0.08316743221388291
0.0948547908828327
0.0535452386790487
-0.07878035061412302
0.1003215016839311
-0.05236550688738541
0.02565752889469271
0.08227314988178115
0.08452147826247984
-0.06844768013824166
0.06069588736306669
-0.06425441271804329
0.0330155906789811
-0.04878591662847724
-0.02590011298179933
0.009716049564536165
0.06310194992228367
-0.04452959495562771
0.03524442268617375
-0.03420147112493375
0.01172745440552894
-0.01807414948844112
-0.006825522700230239
-0.00366511502336779
0.0370376130367816
0.005975892180885595
-0.008976798084019598
-0.01352108178081836
-0.01287082509658897
0.0007619063306786786
-0.009864023252410675
-0.001903560041966519
-0.005023910347655813
-0.00363369247549113
-0.004142307178949804
-1.87211357527417e-14
-0.0077892943676936
0.004928361611601798
-0.006654148037503131
-0.002678859379845792
-0.003383932449300256
-0.005860837292328735
-0.006347293035228751
-1.493249968120836e-14
0.003615533781410246
0.01088034784726118
0.0011545819871739
0.001136173373141931
0.0001632787048736969
-0.002323526525492149
-0.003008731112571467
-1.015854067532018e-14
0.01741974675583619
0.01054033301719499
0.004955530847533973
1.169203622808368e-14
-0.004142307178950748
0.005023910347619662
-0.006347293035233233
0.003383932449262141
-0.003008731112597616
-0.0001632787048912523
-0.004955530847470364
0.007070099425294175
-0.003633692475488785
0.009864023252376258
-0.00586083729232737
0.006654148037475854
-0.002323526525496673
-0.001154581987192961
-0.01054033301721172
0.007642555490464158
-0.001903560041961898
0.01287082509655756
-0.002678859379839874
0.007789294367677509
0.001136173373150345
-0.003615533781421439
-0.01741974675589799
0.01133123983312005
0.0007619063306881224
0.01352108178078974
0.004928361611607913
0.003665115023345038
0.01088034784726571
-0.009716049564547621
-0.02565752889477065
0.02120278252553653
-0.05354523867906259
-0.05236550688740522
0.08227314988175102
-0.07682449772775747
-0.07878035061416762
0.100321501683976
-0.09170534570366248
-0.08316743221388609
0.0948547908828261
-0.09084376275413798
-0.1112250671137063
0.1167554530867117
-0.03301559067901334
-0.02590011298181279
-0.06069588736311454
-0.04878591662850495
-0.08452147826249158
-0.06425441271806613
-0.06844768013825969
-0.1040415576554669
-0.01172745440554939
-0.006825522700240505
-0.03524442268622151
-0.01807414948844781
-0.06310194992233786
-0.03420147112492952
-0.0445295949556417
-0.08935953761018972
0.00897679808399527
-0.005975892180905919
-0.03703761303678979
-0.07892580976216546
-0.03484633364731232
-0.03618279640423408
-0.007326182112770051
-0.02475112660493017
0.005323509834369508
-0.01320945049506507
-0.001904691390586882
0.00490537866232257
-0.05581897737587747
-0.0651305494445909
-0.02817606935200391
-0.04815220318872249
-0.004642982946394661
-0.0354788667095926
-0.01230889468523176
0.004322331029506792
-0.07391609946790714
-0.08806692998900124
-0.04591953007855789
-0.07063827105665078
-0.0177423773153564
-0.06093903770601972
-0.03199391187907386
0.001059501280736314
-0.08727205941891518
-0.06148651250639781
-0.03455644727124734
-0.004203606172203868
-0.001338488264019277
0.003147652208927133
-0.002500053084854664
4.313853807076662e-05
-0.003152990217905344
-0.003418609823910207
-0.007818655648135886
-0.001960357327732422
0.001385761267785338
0.001596473816200615
0.001380639486697682
-0.0002708804187407723
0.001203508379208637
-0.002559369890852245
-0.005549197003103898
0.001777230141331895
0.002936136193043386
0.001229446130192713
0.002614387666441394
-0.0003673667313055518
0.002740155884332199
-0.001705999186855947
-0.002807911587007328
0.002952237360904541
0.00436723492741831
0.003673635462330644
0.003131601717311628
0.002817686576694883
-0.002899989292320215
-0.01861099585643878
-0.02034218283856529
-0.02831556778551496
-0.1408089373391228
-0.1790278541678623
-0.7234572183553244
-0.2567812521811796
0.001304819800305633
-0.01137739358109502
-0.008400334152136561
-0.01230553529946746
-0.1019280457640481
-0.08271631694039099
-0.544362432972283
-0.2774475304165164
0.002907442254243759
-0.005333555950281198
-0.001280980982982054
-0.003137692446810898
-0.05314663068806519
-0.02837088882602846
-0.2802543230558829
-0.315677459582788
0.002910235844240503
0.00496370159087755
-0.02077944403321554
-0.3001698755728976
-0.205543336583656
0.2150830343185266
-0.1804280168418989
0.1086523327304852
-0.1653496992891048
0.0409340804420304
0.01189655270110446
-0.1555352768758409
-0.2053161506666004
0.1450093183610364
-0.1811404330190222
0.08807523010963658
-0.1663873316363963
0.03073280981846627
0.00797941938557456
-0.1565126504309111
-0.2109734647327081
0.04315383722128352
-0.1798273915711211
0.06078856086625395
-0.1660690019894793
0.0220117564562069
0.005119820972817823
-0.1569845753725794
-0.2536022343710443
-0.1884886531009637
-0.1609760270396626
-0.149492730404003
-0.1515765279209588
-0.0002004888179109043
-0.14908697462641
-6.5864049849651e-05
-0.1481205090610417
0.002623806105734539
0.0104863926781591
-0.1484807810539037
-0.1521626089468424
0.0001261425402525607
-0.1494435795880922
-7.035695541979248e-05
-0.1483768497856001
0.002550831161449274
0.008991163222169307
-0.1485421171761749
-0.1523942899967095
0.0004586081236116479
-0.1496200976496853
0.0001467719407118873
-0.1483854856615012
0.002555641881601178
0.00706563322587217
-0.1476537321532266
-0.1436951733163302
-0.1402956513441405
-0.1366209756269211
-0.1308107340857748
-0.1466240107682475
0.02816649428848894
-0.1433331974597763
0.0457325137041017
-0.1398709382237523
0.07917202404221646
0.08666883675105663
-0.1274816335417691
-0.1465213030927449
0.02336402779755431
-0.1414249189086272
0.03799483521526414
-0.1313875447471066
0.06613221769772526
0.05719584928859556
-0.1055223042124687
-0.1421273755332193
0.0154430190258541
-0.1307338066588059
0.02445362213324009
-0.108289797345318
0.04078049940235517
0.02574671357668956
-0.08018880188695142
-0.1176389720341623
-0.09509172152767532
-0.05642196256147325
-0.0317263965925787
-0.1461148869030484
-0.1326834433680579
-0.143365515071817
-0.04274019431314691
-0.1451972117082627
-0.0007275304282828299
-0.0007413202721638368
-0.1456373836104077
-0.1423181211396599
-0.1009718534857579
-0.1436801420795616
-0.04921618734855521
-0.1457827211707435
2.622372625821212e-05
-0.0001829466015514369
-0.1465784206672518
-0.1295055756725597
-0.05477443742728866
-0.1441307480269996
-0.04293570360924098
-0.1464702061510646
0.001023905371635214
0.0007527740318237219
-0.1476045665855836
-0.09016722238995659
-0.1419792910459443
-0.1422895543044955
-0.1419897331168687
-0.1462006658566973
-0.002496938913917779
-0.1469931747172513
-0.002448327259338079
-0.1473767230763145
-0.002084519502576432
-0.003305410818704779
-0.1474082413489992
-0.1470031474895324
-0.000817624115874438
-0.1477490713254144
-0.0008093297225919005
-0.1487608107365944
5.343490197551315e-05
-0.0009182638344559235