/*--------------------------------*- C++ -*----------------------------------*\
  =========                 |
  \\      /  F ield         | OpenFOAM: The Open Source CFD Toolbox
   \\    /   O peration     | Website:  https://openfoam.org
    \\  /    A nd           | Version:  11
     \\/     M anipulation  |
\*---------------------------------------------------------------------------*/
FoamFile
{
    format      ascii;
    class       volScalarField;
    location    "0.02";
    object      rho;
}
// * * * * * * * * * * * * * * * * * * * * * * * * * * * * * * * * * * * * * //

dimensions      [0 0 0 0 0 0 0];

internalField   nonuniform List<scalar> 
880
(
0.2239950333699092
0.2239950333699093
0.2239950333699093
0.2239950333639785
0.2239950333699093
0.2239950333699093
0.2239950333699139
0.2239950332001772
0.2239950333699093
0.2239950333699093
0.2239950333741788
0.2239950460443262
0.2239950333699091
0.2239950333699093
0.223995033286924
0.2239959667644236
0.2239950333699093
0.2239950333699093
0.2239950333699092
0.2239950333699093
0.2239950333699093
0.2239950333699093
0.2239950333699376
0.2239950333697162
0.2239950409456396
0.2239950489274005
0.2239950488620005
0.2239950351544067
0.2240635489854407
0.2241928123602631
0.2242264695099047
0.2242058916455267
0.2239950333700558
0.2239950333701061
0.223995033370119
0.2239950333700458
0.2239950333976668
0.2239950334035598
0.2239950334063663
0.2239950333964547
0.2239951341920431
0.2239951443277371
0.2239951505010419
0.2239951361805742
0.2242248595043781
0.2242434454729774
0.2242492563651789
0.2242495370714863
0.2242328358042842
0.2240780340482516
0.2240039130972225
0.2239952203597659
0.2239952384195938
0.2239951246731098
0.2239950454777606
0.2239950336657029
0.2239950334678164
0.2239950334166981
0.2239950333763265
0.2239950333700592
0.2239950333705279
0.2239950333701848
0.2239950333699257
0.2239950333699092
0.2239950333699093
0.2239950333699093
0.2239950333699092
0.2239950333699093
0.2239950333699093
0.2239950333699092
0.2239950333699092
0.2239950333699092
0.2239950333704688
0.2239950333698809
0.2239950333699082
0.2239950333699093
0.2239950336777527
0.223995033316362
0.2239950333595827
0.2239950333696278
0.2239950333700677
0.2239950333699093
0.2239950333699093
0.2239950333699092
0.2239950332081818
0.2239950333679207
0.2239950333698928
0.2239950333699092
0.2239951872321376
0.2239950352158219
0.2239950333708294
0.2239950333699093
0.2238519580218018
0.2239948945058605
0.2239950333039607
0.223995033369901
0.2239950333700303
0.2239950333981452
0.2239951450250456
0.2243406821879034
0.2239950333701848
0.2239950334314378
0.2239952632778399
0.2246270317150055
0.2239950333702596
0.2239950334463522
0.2239953017516753
0.2246751715261668
0.2239950333703628
0.2239950334637237
0.2239953411351147
0.2247091540033156
0.2247466231192812
0.2239953886723967
0.2239950334861056
0.2239950333704943
0.2247884492261864
0.2239954467942026
0.2239950335154361
0.2239950333706483
0.2248339678606279
0.2239955170866667
0.2239950335535442
0.2239950333708807
0.224894197477915
0.2239956165552993
0.2239950336120213
0.2239950333712487
0.223995033370829
0.2239950335307253
0.2239954680303405
0.2247691089191437
0.2239950333709293
0.2239950335427793
0.2239954609872872
0.2246793203322857
0.2239950333713821
0.2239950335614191
0.2239954557432833
0.2245861569439041
0.2239950333686553
0.2239950333918347
0.2239951751511576
0.224205234210885
0.223995033368553
0.2239950169637637
0.2239825105998569
0.2224474527596966
0.2239950333595285
0.223995002294964
0.2239604659342502
0.2160167472865757
0.2239950333615557
0.223995005144849
0.2239567184979746
0.2130905711058362
0.2239950333654409
0.223995014009308
0.2239609197907712
0.2127030916781203
0.2155276143394149
0.2239726623315068
0.2239950144819177
0.2239950333646421
0.2159120224466277
0.2239759943327528
0.2239950190140918
0.223995033367482
0.2165644757130912
0.223979825139862
0.2239950227501259
0.2239950333687762
0.2145386509415763
0.2239758572595784
0.2239950210855806
0.223995033366539
0.2226297705112733
0.2239934002968237
0.2239950323263938
0.2239950333696923
0.2239589163654888
0.2239950110150742
0.223995033361127
0.2239950333699442
0.2239794383800914
0.2239950121495796
0.2239950333548473
0.2239950333699092
0.2239387129845755
0.2239949655349897
0.2239950333223063
0.2239950333698927
0.2238071438004045
0.2239946747155001
0.2239950332856917
0.223995033373988
0.2238073912565845
0.2239946746318296
0.2239950332832473
0.223995033373968
0.2238073623201603
0.2239946705144294
0.2239950332491057
0.2239950333733468
0.223809265992094
0.2239946629758155
0.2239950331537365
0.2239950333715653
0.2239387129845793
0.2239949655349657
0.2239950333222769
0.2239950333698727
0.2239794383800991
0.2239950121495356
0.2239950333548078
0.2239950333699076
0.2239589163654491
0.2239950110150442
0.2239950333611251
0.2239950333699407
0.2226297705113276
0.2239934002967911
0.2239950323264071
0.2239950333696947
0.2239950333646594
0.2239950144819249
0.2239726623315328
0.2155276143393245
0.2239950333674776
0.2239950190140963
0.2239759943328176
0.2159120224465939
0.2239950333687801
0.2239950227501109
0.2239798251398207
0.2165644757130092
0.2239950333665449
0.2239950210856174
0.2239758572595872
0.2145386509415701
0.2127030916780882
0.2239609197907549
0.2239950140092873
0.223995033365448
0.213090571105801
0.2239567184979777
0.223995005144872
0.2239950333615507
0.2160167472865269
0.2239604659342551
0.2239950022949496
0.2239950333595449
0.2224474527596842
0.2239825105998209
0.2239950169637241
0.2239950333685783
0.2239950333708237
0.2239950335307497
0.2239954680303851
0.2247691089191
0.2239950333709335
0.2239950335427642
0.2239954609873087
0.2246793203323273
0.2239950333713649
0.2239950335614326
0.2239954557432863
0.2245861569438887
0.2239950333686657
0.2239950333918238
0.2239951751511547
0.2242052342108854
0.224894197477915
0.2239956165552608
0.2239950336120295
0.223995033371278
0.2248339678606372
0.2239955170866761
0.2239950335535464
0.2239950333708819
0.2247884492261688
0.2239954467942017
0.2239950335154377
0.2239950333706492
0.2247466231192576
0.2239953886724241
0.2239950334861187
0.2239950333705002
0.2239950333700338
0.2239950333981541
0.2239951450250348
0.2243406821878843
0.2239950333702063
0.2239950334314605
0.2239952632778259
0.224627031715013
0.2239950333702819
0.2239950334463689
0.2239953017516779
0.2246751715261472
0.2239950333703592
0.2239950334637167
0.2239953411351144
0.2247091540033022
0.2239950333699011
0.2239950333699092
0.2239950333699093
0.2239950333699092
0.2239950333039233
0.2239950333708191
0.2239950333698845
0.2239950333699093
0.223994894505834
0.2239950352158341
0.2239950333679116
0.2239950333699092
0.2238519580217863
0.2239951872321382
0.2239950332081916
0.2239950333700677
0.2239950333699092
0.2239950333699092
0.2239950333699093
0.2239950333696304
0.2239950333699092
0.2239950333699092
0.2239950333699077
0.223995033359589
0.2239950333699093
0.2239950333699093
0.2239950333698748
0.2239950333163361
0.2239950333699092
0.2239950333699093
0.2239950333704727
0.2239950336777471
0.2239950333705368
0.2239950334677897
0.223995238419598
0.2242328358043182
0.2239950333701634
0.2239950334167159
0.2239951246731229
0.2240780340482648
0.223995033369927
0.2239950333763124
0.2239950454777414
0.2240039130971951
0.2239950333699092
0.223995033370057
0.2239950336657146
0.223995220359737
0.2242495370714733
0.2239951361805621
0.2239950333964418
0.2239950333700615
0.2242492563651551
0.2239951505010703
0.2239950334063283
0.2239950333701198
0.2242434454729955
0.2239951443277686
0.2239950334035214
0.2239950333700887
0.224224859504344
0.2239951341920144
0.22399503339765
0.2239950333700767
0.2242058916455166
0.2239950351544292
0.2239950333697185
0.2239950333699093
0.224226469509897
0.2239950488619886
0.2239950333699217
0.2239950333699093
0.2241928123602492
0.2239950489273945
0.2239950333699093
0.2239950333699092
0.2240635489854208
0.2239950409456223
0.2239950333699093
0.2239950333699093
0.2239950333699092
0.2239950333699093
0.2239950333699093
0.2239950333639661
0.2239950333699093
0.2239950333699093
0.2239950333699132
0.2239950332001836
0.2239950333699093
0.2239950333699093
0.223995033374174
0.2239950460443332
0.2239950333699093
0.2239950333699092
0.2239950332869174
0.2239959667643917
0.2239950332371758
0.2239950305822073
0.2239954090738854
0.2240488410730753
0.2239950305822065
0.2239949974077919
0.2239991801144209
0.2246260209201279
0.2239954090738898
0.2239991801144164
0.2243441808871393
0.2289922427388
0.224048841073113
0.2246260209201544
0.2289922427388583
0.2496415831959639
0.2831523660482009
0.2519534309376399
0.2407020528327646
0.2283537742221752
0.2977040975672228
0.2751874566624686
0.2649245858258907
0.2388965333950243
0.3022368900256734
0.2825860210012137
0.2733091320896011
0.243114294814129
0.3028901586125827
0.2833285003328219
0.274047932088353
0.2432602567879772
0.2445757841627041
0.2452196734686248
0.2453392127840265
0.2466496198130805
0.2752016006544816
0.275679510839994
0.2758274660927445
0.2819182558566092
0.2841258586272063
0.2843148595421198
0.2844460746232027
0.2901545267541559
0.3038265592637706
0.3038354390198653
0.3039098715800937
0.3094766518837628
0.2366207830514936
0.226535914189886
0.2241618922952013
0.2239974937975946
0.2469366898651611
0.2277103788277801
0.2242047714471106
0.2239972900266745
0.2401862602360732
0.2271753174964564
0.2241925023454755
0.2239969098545325
0.2236408324083667
0.2240844294596219
0.2240333102934605
0.223995369838996
0.2239950250728586
0.2239950297736698
0.2239950330666457
0.2239950333666328
0.2239949973187843
0.2239950246569913
0.2239950329649656
0.2239950333675909
0.2239949754352964
0.2239950211391394
0.2239950329564537
0.2239950333684773
0.2239949445806762
0.2239949973622594
0.2239950312064912
0.2239950333577656
0.2239950333696067
0.2239950333792467
0.2239990982960402
0.2175564903031663
0.2239950333697745
0.2239950333720958
0.2240344513888625
0.2137886066552039
0.2239950333698975
0.2239950333700254
0.2241220259910971
0.2207719501403031
0.2239950333699051
0.2239950333699174
0.2245385700046591
0.2429296192155303
0.2677390488077273
0.2876114894025087
0.2892052920627204
0.2892847413789297
0.3433521859425804
0.3707618221646518
0.37358809981047
0.3736348633581427
0.3695216112485125
0.3884069131849074
0.3915566751999184
0.3916158533846013
0.3882060972639772
0.411994891149028
0.4166339933991314
0.4167507220034367
0.2893583410852323
0.289446221606225
0.2895420044480218
0.2897863211148919
0.373644959811134
0.3736618407716342
0.3736720971154613
0.3733714050961133
0.3916150539702226
0.3916157157407314
0.3916104686002274
0.3913123194811189
0.4167502682657029
0.416746708104511
0.4167395021190712
0.4166417856674265
0.2802031015235063
0.2737035652075065
0.2666936319965147
0.2425094031173825
0.36710779066591
0.3613428402963039
0.3522495862132653
0.3134049223008593
0.3887084639378115
0.3856362092920319
0.3773406206051934
0.3490890900267019
0.4162524750848029
0.4161346645340915
0.4083318099377041
0.4071285077613652
0.212479153785529
0.1414837181831899
0.09896232823490125
0.09638778429168247
0.1995007480290747
0.1090108427047721
0.07011915450827629
0.06671475530891004
0.1655843320504239
0.08428371280516558
0.06236124965064511
0.06064488759584601
0.1141277390428264
0.05369607607990996
0.04973325180352555
0.0492169526733983
0.09421587199586945
0.09445349945004043
0.09450325766146221
0.0797690355387235
0.06602578205251397
0.06613948035435842
0.06844254219683459
0.06128205692052128
0.05966500000378071
0.06032126689795918
0.06459671448361966
0.0615593824915193
0.0477175565040704
0.04847294838101422
0.05408539930736708
0.05146015579474413
0.180139205376464
0.2210108947217948
0.2229448144091106
0.2197918024173437
0.1486745726898665
0.2118099530757565
0.2203153127131388
0.2140955000098605
0.1286275318200665
0.1977511702648374
0.2142889080004196
0.208556036412232
0.1072832619396998
0.1816632232671339
0.2070755789174624
0.207590506169148
0.2197728696310364
0.2121579205860911
0.2031782819223673
0.1990980859284089
0.2028277118101898
0.1812105156938889
0.1570722664395967
0.1435284224619706
0.166211370580866
0.148164747799493
0.1191915452325465
0.09539067729674193
0.1122497884562605
0.09128601800627514
0.08091513660816202
0.05551225687390807
0.04570044459161648
0.04460724101112234
0.0439389868132901
0.04348267109173431
0.08840376435149956
0.08717476475173025
0.08622109259943372
0.08563732360881984
0.1387405588346021
0.1380546518653916
0.1375432050671773
0.1372736044772005
0.1965620021551941
0.1963129958461545
0.1961643981665313
0.1960961357765296
0.04348267109173552
0.08563732360882433
0.1372736044772042
0.1960961357766413
0.04393898681330066
0.08622109259945378
0.1375432050671642
0.1961643981665629
0.0446072410111344
0.08717476475173376
0.1380546518653994
0.196312995846174
0.04570044459162521
0.08840376435150429
0.1387405588345895
0.1965620021552256
0.199098085928435
0.2031782819223943
0.2121579205861084
0.2197728696310376
0.1435284224619658
0.1570722664395906
0.1812105156938807
0.2028277118101808
0.0953906772967454
0.1191915452325491
0.1481647477995008
0.1662113705808695
0.05551225687391611
0.08091513660816921
0.09128601800628545
0.1122497884562634
0.2075905061691484
0.2070755789174627
0.1816632232671107
0.1072832619396428
0.2085560364122376
0.2142889080004164
0.1977511702648138
0.1286275318200405
0.2140955000098613
0.2203153127131459
0.2118099530757447
0.1486745726898415
0.2197918024173424
0.2229448144091142
0.2210108947217699
0.180139205376461
0.07976903553873876
0.09450325766146635
0.09445349945001996
0.09421587199582514
0.06128205692051686
0.06844254219684642
0.06613948035437095
0.06602578205251065
0.06155938249152001
0.0645967144836449
0.06032126689796596
0.05966500000377942
0.05146015579471481
0.05408539930741584
0.04847294838103094
0.04771755650406562
0.09638778429161568
0.09896232823478364
0.1414837181828429
0.2124791537854427
0.06671475530889243
0.07011915450821765
0.109010842704576
0.1995007480289885
0.06064488759583693
0.06236124965061517
0.08428371280509216
0.1655843320503849
0.04921695267338685
0.04973325180351837
0.05369607607990536
0.114127739042796
0.2425094031173587
0.266693631996467
0.2737035652074943
0.2802031015235038
0.3134049223008282
0.3522495862132299
0.3613428402962928
0.3671077906659029
0.3490890900266522
0.3773406206051663
0.3856362092920161
0.3887084639378338
0.4071285077613264
0.4083318099376919
0.4161346645340746
0.4162524750848229
0.289786321114881
0.289542004448034
0.2894462216062015
0.2893583410852508
0.3733714050961087
0.3736720971154903
0.3736618407716246
0.3736449598111393
0.3913123194811272
0.3916104686002466
0.3916157157407006
0.3916150539702076
0.4166417856674372
0.4167395021190961
0.4167467081044789
0.4167502682656743
0.2892847413789031
0.2892052920627378
0.2876114894025221
0.2677390488077439
0.3736348633581125
0.3735880998104927
0.3707618221646728
0.343352185942612
0.3916158533846005
0.3915566751999328
0.3884069131849308
0.369521611248561
0.4167507220034222
0.416633993399148
0.4119948911490563
0.3882060972640285
0.2175564903031602
0.2239990982960395
0.223995033379236
0.2239950333696061
0.2137886066551976
0.2240344513888613
0.2239950333720912
0.2239950333697745
0.2207719501402951
0.2241220259910967
0.2239950333700248
0.2239950333698975
0.2429296192155287
0.2245385700046588
0.2239950333699173
0.2239950333699051
0.2239950333666338
0.2239950330666512
0.2239950297736611
0.2239950250728673
0.223995033367591
0.2239950329649604
0.2239950246569865
0.2239949973187896
0.2239950333684778
0.223995032956448
0.2239950211391367
0.2239949754353064
0.2239950333577656
0.223995031206488
0.2239949973622543
0.2239949445806907
0.2239974937975807
0.2241618922951895
0.2265359141898889
0.2366207830515069
0.2239972900266676
0.224204771447103
0.2277103788277826
0.2469366898651665
0.2239969098545297
0.2241925023454739
0.227175317496458
0.2401862602360746
0.2239953698389948
0.224033310293457
0.2240844294596261
0.2236408324083667
0.2466496198130808
0.245339212784032
0.2452196734686297
0.2445757841626703
0.2819182558565989
0.2758274660927635
0.2756795108400116
0.2752016006544515
0.2901545267541354
0.2844460746232402
0.2843148595421451
0.2841258586271981
0.3094766518837407
0.3039098715801369
0.3038354390199066
0.303826559263791
0.2432602567879598
0.2431142948140776
0.2388965333951004
0.2283537742221931
0.2740479320883086
0.2733091320894462
0.264924585825863
0.2407020528327311
0.283328500332764
0.2825860210010521
0.2751874566624073
0.2519534309375052
0.3028901586126018
0.3022368900256912
0.2977040975673709
0.2831523660482184
0.2239531478647472
0.2239949572376063
0.2239950333122145
0.2239950333700471
0.2238668970428906
0.2239948062576789
0.2239950331915604
0.2239950333701277
0.223767591595129
0.223994638299841
0.2239950330553283
0.223995033370025
0.2237210615012952
0.2239945704582044
0.2239950330202925
0.2239950333702296
0.2239950333740094
0.223995033285693
0.2239946747154978
0.2238071438004124
0.2239950333739547
0.2239950332832666
0.2239946746318387
0.2238073912565859
0.2239950333733495
0.2239950332490749
0.2239946705144275
0.223807362320126
0.2239950333715724
0.2239950331537267
0.2239946629758379
0.2238092659920776
0.2239950333702036
0.2239950333700405
0.2239950333701363
0.2239950333700309
0.2239950330202618
0.2239950330553278
0.2239950331915659
0.2239950333122355
0.2239945704581989
0.2239946382998323
0.2239948062577081
0.2239949572375913
0.2237210615012749
0.2237675915951224
0.2238668970429215
0.223953147864752
)
;

boundaryField
{
    back
    {
        type            empty;
    }
    inlet
    {
        type            calculated;
        value           nonuniform List<scalar> 
16
(
0.2239950333699092
0.2239950333699093
0.2239950333699093
0.2239950333699091
0.2239950333699093
0.2239950333699093
0.2239950333699092
0.2239950333699093
0.2239950333699092
0.2239950333699093
0.2239950333699092
0.2239950333699093
0.2239950333699092
0.2239950333699093
0.2239950333699093
0.2239950333699093
)
;
    }
    front
    {
        type            empty;
    }
    top
    {
        type            calculated;
        value           nonuniform List<scalar> 
40
(
0.2239950333700558
0.2239950333701061
0.223995033370119
0.2239950333700458
0.2239950333705278
0.2239950333701848
0.2239950333699258
0.2239950333699092
0.2239950333699093
0.2239950333699093
0.2239950333699092
0.2239950333699093
0.2239950333699092
0.2239950333699092
0.2239950333699093
0.223995033369901
0.2239950333700303
0.2239950333701848
0.2239950333702596
0.2239950333703628
0.2239950333704943
0.2239950333706483
0.2239950333708807
0.2239950333712487
0.223995033370829
0.2239950333709293
0.2239950333713821
0.2239950333686553
0.223995033368553
0.2239950333595285
0.2239950333615557
0.2239950333654409
0.2239950333646421
0.223995033367482
0.2239950333687762
0.223995033366539
0.2239950333696923
0.2239950333699442
0.2239950333699092
0.2239950333698927
)
;
    }
    outlet
    {
        type            calculated;
        value           uniform 0.2239950333699093;
    }
    bottom
    {
        type            calculated;
        value           nonuniform List<scalar> 
40
(
0.2239950333698727
0.2239950333699076
0.2239950333699407
0.2239950333696947
0.2239950333646594
0.2239950333674776
0.2239950333687801
0.2239950333665449
0.223995033365448
0.2239950333615507
0.2239950333595449
0.2239950333685783
0.2239950333708237
0.2239950333709335
0.2239950333713649
0.2239950333686657
0.223995033371278
0.2239950333708819
0.2239950333706492
0.2239950333705002
0.2239950333700339
0.2239950333702063
0.2239950333702819
0.2239950333703591
0.2239950333699011
0.2239950333699093
0.2239950333699093
0.2239950333699092
0.2239950333699092
0.2239950333699092
0.2239950333699093
0.2239950333699092
0.2239950333705368
0.2239950333701634
0.2239950333699269
0.2239950333699092
0.2239950333700615
0.2239950333701198
0.2239950333700887
0.2239950333700767
)
;
    }
    wall
    {
        type            calculated;
        value           nonuniform List<scalar> 
104
(
0.2831523660482009
0.2977040975672228
0.3022368900256734
0.3028901586125827
0.3038265592637706
0.3038354390198653
0.3039098715800937
0.3094766518837628
0.2236408324083667
0.2240844294596219
0.2240333102934605
0.223995369838996
0.2239949445806762
0.2239949973622594
0.2239950312064912
0.2239950333577656
0.223995033369905
0.2239950333699174
0.2245385700046591
0.2429296192155303
0.3882060972639772
0.411994891149028
0.4166339933991314
0.4167507220034366
0.4167502682657029
0.416746708104511
0.4167395021190712
0.4166417856674265
0.4162524750848029
0.4161346645340915
0.4083318099377041
0.4071285077613652
0.1141277390428264
0.05369607607990996
0.04973325180352555
0.04921695267339831
0.0477175565040704
0.04847294838101422
0.05408539930736707
0.05146015579474413
0.1072832619396998
0.1816632232671339
0.2070755789174624
0.207590506169148
0.1122497884562605
0.09128601800627514
0.08091513660816202
0.05551225687390807
0.04570044459161648
0.04460724101112234
0.0439389868132901
0.04348267109173431
0.04348267109173552
0.04393898681330066
0.0446072410111344
0.04570044459162521
0.05551225687391612
0.08091513660816921
0.09128601800628545
0.1122497884562634
0.2075905061691484
0.2070755789174628
0.1816632232671107
0.1072832619396428
0.05146015579471481
0.05408539930741584
0.04847294838103094
0.04771755650406562
0.04921695267338685
0.04973325180351837
0.05369607607990536
0.114127739042796
0.4071285077613264
0.4083318099376919
0.4161346645340746
0.4162524750848228
0.4166417856674372
0.4167395021190961
0.4167467081044789
0.4167502682656743
0.4167507220034222
0.416633993399148
0.4119948911490562
0.3882060972640285
0.2429296192155287
0.2245385700046588
0.2239950333699173
0.223995033369905
0.2239950333577655
0.223995031206488
0.2239949973622543
0.2239949445806907
0.2239953698389948
0.224033310293457
0.2240844294596261
0.2236408324083667
0.3094766518837407
0.3039098715801369
0.3038354390199066
0.303826559263791
0.3028901586126018
0.3022368900256912
0.2977040975673709
0.2831523660482184
)
;
    }
}


// ************************************************************************* //
