/*--------------------------------*- C++ -*----------------------------------*\
  =========                 |
  \\      /  F ield         | OpenFOAM: The Open Source CFD Toolbox
   \\    /   O peration     | Website:  https://openfoam.org
    \\  /    A nd           | Version:  11
     \\/     M anipulation  |
\*---------------------------------------------------------------------------*/
FoamFile
{
    format      ascii;
    class       surfaceScalarField;
    location    "4.65";
    object      phi;
}
// * * * * * * * * * * * * * * * * * * * * * * * * * * * * * * * * * * * * * //

dimensions      [0 3 -1 0 0 0 0];

internalField   nonuniform List<scalar> 
8667
(
15.887643
1.8422598
0.047874837
13.994016
1.6892392
0.20438804
12.096354
1.5297484
0.36791361
10.208917
1.2971052
0.59033187
8.3303665
1.0921627
0.7863876
6.4667427
0.78869517
1.0749287
4.6443542
0.46668786
1.3557006
2.863041
0.018120711
1.7631925
-0.76049586
2.4641371
1.1593997
15.891528
3.7285101
13.989382
3.5913852
12.089841
3.4292894
10.192891
3.1940554
8.3092597
2.9757937
6.448195
2.6497599
4.6198563
2.2950265
2.8690386
1.7689385
0.94423784
1.1643049
15.889216
5.6170722
13.988591
5.4920101
12.081792
5.3360888
10.177741
5.0981062
8.2898232
4.8637113
6.430372
4.5092111
4.6021615
4.123237
2.8501679
3.5209321
2.6516254
1.1427804
15.889962
7.504888
13.984648
7.3973243
12.074798
7.2459391
10.16912
7.0037844
8.2747958
6.758035
6.4105604
6.3734465
4.5775314
5.956266
2.8433409
5.2551225
4.3337841
1.1611823
15.889951
9.3927131
13.985872
9.3014028
12.069966
9.161845
10.162598
8.9111527
8.2615453
8.6590878
6.3919933
8.2429985
4.5513684
7.7968908
2.8293851
6.9771059
6.0055727
1.1575965
15.889451
11.28104
13.985472
11.205382
12.070561
11.076756
10.155818
10.825896
8.2505405
10.564366
6.3712125
10.122326
4.5272062
9.6408971
2.8105516
8.6937605
7.6550857
1.1610385
15.8896
13.169218
13.986308
13.108673
12.071577
12.991487
10.151685
12.745787
8.2405822
12.475469
6.3553866
12.007522
4.5005578
11.495726
2.7919346
10.402384
9.2765246
1.1704957
15.888514
15.058482
13.986497
15.01069
12.072693
14.905292
10.148141
14.670339
8.2324881
14.391122
6.3381528
13.901857
4.4764544
13.357424
2.7618208
12.117017
10.869423
1.1689225
15.88738
16.948879
13.986481
16.91159
12.07519
16.816583
10.151397
16.594132
8.2228028
16.319716
6.3239732
15.800687
4.4504643
15.230933
2.7377975
13.829684
12.443451
1.1637698
18.777616
15.949042
20.605753
15.94964
22.432524
15.951013
24.25745
15.952854
26.080163
15.955047
27.900117
15.957827
29.717208
15.960688
31.530212
15.964777
15.965764
33.342228
18.749208
14.111424
20.585606
14.113242
22.420789
14.115829
24.254119
14.119524
26.085571
14.123595
27.915185
14.128212
29.742643
14.13323
31.569879
14.137541
14.140286
33.395357
18.663813
12.264194
20.512028
12.265027
22.359988
12.267869
24.207525
12.271988
26.053319
12.277801
27.898904
12.282627
29.74133
12.290804
31.582963
12.295908
12.30421
33.41904
18.452384
10.405942
20.312481
10.40493
22.173855
10.406495
24.037798
10.408045
25.900364
10.415235
27.765014
10.417977
29.627237
10.428581
31.492972
10.430173
10.441553
33.355628
18.182252
8.5434061
20.054125
8.5330576
21.929339
8.5312805
23.811602
8.5257821
25.694817
8.5320199
27.583204
8.5295896
29.470556
8.5412289
31.358843
8.5418861
8.5512984
33.249098
17.63042
6.7136729
19.473242
6.6902352
21.330543
6.6739798
23.203084
6.6532414
25.089764
6.6453402
26.986092
6.6332612
28.892117
6.635204
30.803068
6.6309346
6.636556
32.717811
17.028899
4.9157074
18.852417
4.8667169
20.700488
4.8259088
22.586869
4.7668604
24.500269
4.7319401
26.442139
4.6913919
28.40321
4.6741321
30.38314
4.6510054
4.6455407
32.374155
15.456523
3.2888683
17.183044
3.1401958
18.985703
3.0232496
20.866761
2.885803
22.790764
2.8079364
24.770858
2.7112978
26.771721
2.6732692
28.808815
2.6139121
2.6048137
30.849542
13.884
1.8483187
15.590452
1.433744
17.69586
0.91784129
19.982312
0.59935144
22.336571
0.45367794
24.733308
0.31456058
27.120932
0.28564473
29.504563
0.23028131
31.875726
0.23365082
33.225483
0.1167451
33.109647
0.11583554
32.994432
0.11521513
32.880643
0.11378887
32.767239
0.11340441
32.655848
0.11139056
32.54488
0.11096813
32.436545
0.10833538
0.10781543
32.328729
33.283813
0.2282891
33.173338
0.22631029
33.06366
0.22489354
32.954435
0.22301394
32.846561
0.22127875
32.739495
0.21845631
32.634953
0.2155103
32.531728
0.21156023
0.20734941
32.432194
33.300302
0.34702671
33.182899
0.3437132
33.066412
0.3413808
32.95099
0.33843631
32.838492
0.33377595
32.727784
0.32916504
32.621687
0.3216074
32.518677
0.31456941
0.30634173
32.419685
33.242355
0.46030015
33.133145
0.45292331
33.027849
0.44667654
32.925828
0.44045711
32.827256
0.43234835
32.733745
0.42267581
32.643145
0.41220735
32.558977
0.39873722
0.3887101
32.476609
33.12834
0.58105762
33.011996
0.5692674
32.900736
0.55793709
32.795047
0.54614573
32.692965
0.53443038
32.598771
0.51687028
32.507066
0.50391213
32.423627
0.48217637
0.46926515
32.343072
32.630085
0.66878304
32.5548
0.64455234
32.48636
0.62637708
32.429548
0.60295806
32.379611
0.58436704
32.33957
0.55691188
32.302806
0.5406758
32.27438
0.51060259
0.49706049
32.246585
32.328185
0.71475347
32.298563
0.67417385
32.272555
0.65238544
32.255309
0.62020414
32.237725
0.60195022
32.225218
0.5694197
32.210927
0.55496592
32.19725
0.52427957
0.51523076
32.17908
30.995507
0.56878769
31.144967
0.52471439
31.307
0.49035288
31.470233
0.45697056
31.64015
0.43203294
31.801565
0.4080054
31.955119
0.40141136
32.079399
0.40000017
0.41874883
32.175881
32.278211
0.16630237
32.628464
0.17446179
32.940077
0.17873983
33.191342
0.20570492
33.385349
0.23802666
33.492749
0.3006051
33.532901
0.36125895
33.480343
0.45255875
33.391173
0.5079188
33.354575
0.4959541
-0.45935649
33.178095
0.4796403
-0.30315965
32.927483
0.46554129
-0.21492944
32.646831
0.45273945
-0.17208746
32.360745
0.44593573
-0.15984941
32.057254
0.43985869
-0.13636845
31.755434
0.43127632
-0.12945562
31.453297
0.43311291
-0.13097609
0.43087803
31.134923
-0.11250475
32.334816
0.33701823
32.456692
0.35776433
32.54558
0.37665365
32.609979
0.38834018
32.655806
0.40010885
32.684515
0.41114942
32.690558
0.42523343
32.683748
0.43992287
0.4552739
32.659352
32.263956
0.25214283
32.349681
0.27203894
32.426404
0.2999309
32.49659
0.3181538
32.552545
0.34415442
32.602226
0.36146779
32.639917
0.38754308
32.673886
0.40595324
0.43239895
32.696761
32.334677
0.16405031
32.425273
0.18144356
32.518524
0.20667912
32.611658
0.22501971
32.702511
0.25330135
32.79168
0.27229901
32.875929
0.30329446
32.959078
0.32280391
0.35587842
33.035599
32.386942
0.12017995
32.436562
0.13182351
32.492236
0.15100522
32.552226
0.16502955
32.617013
0.18851453
32.685989
0.20332325
32.758283
0.23100054
32.834951
0.24613539
0.27705855
32.913771
32.519381
0.077408073
32.56407
0.087134729
32.615771
0.099303469
32.668521
0.11227981
32.730024
0.12701183
32.791304
0.14204342
32.863538
0.15876653
32.933853
0.17581962
0.19437395
33.016538
32.453036
0.044057313
32.488186
0.05198473
32.531881
0.055608646
32.575818
0.068342983
32.630747
0.072082092
32.684841
0.087949931
32.751528
0.092079052
32.815112
0.11223593
0.11591282
32.893573
32.455843
0.020407768
32.485387
0.02244104
32.516248
0.024747701
32.554707
0.029884506
32.595136
0.031652551
32.644955
0.038130565
32.697003
0.040031764
32.759541
0.049697489
0.051098074
32.824356
32.349137
32.371578
32.396326
32.42621
32.457863
32.495993
32.536025
32.585723
32.636821
32.69945
-0.062629132
32.763723
-0.064273747
32.841788
-0.078064421
32.921333
-0.079545425
33.016864
-0.095530852
33.116357
-0.09949245
33.232125
-0.11576795
33.354464
-0.12233901
-0.13987462
33.494338
32.900946
-0.13921899
32.980439
-0.14376655
33.069818
-0.16744432
33.168152
-0.17787921
33.271542
-0.198921
33.388607
-0.21655754
33.509483
-0.23664338
33.646712
-0.25956833
-0.28134034
33.788178
32.967205
-0.21285066
33.058208
-0.23477026
33.142956
-0.25219224
33.247331
-0.28225382
33.34478
-0.29636997
33.462534
-0.33431122
33.575319
-0.34942856
33.710489
-0.39473814
-0.41035014
33.839498
33.096548
-0.29286052
33.189508
-0.32773076
33.281951
-0.34463486
33.383522
-0.38382514
33.489799
-0.40264635
33.603249
-0.44776166
33.722576
-0.46875549
33.849191
-0.52135338
-0.54411435
33.982955
32.997271
-0.37636104
33.081412
-0.4118716
33.171209
-0.4344318
33.26096
-0.47357542
33.357457
-0.49914378
33.453772
-0.5440766
33.557967
-0.5729504
33.662028
-0.62541461
-0.65756178
33.775475
33.11306
-0.45382259
33.183743
-0.48255416
33.257364
-0.50805276
33.325205
-0.54141696
33.398402
-0.57234066
33.466822
-0.61249605
33.543523
-0.64965178
33.617169
-0.69906102
-0.74103568
33.700643
32.71914
-0.47620192
32.731407
-0.49482023
32.745615
-0.52226124
32.751058
-0.54685966
32.760361
-0.58164381
32.767462
-0.61959686
32.77133
-0.65352022
32.776043
-0.70377423
-0.76046654
32.795474
32.620439
-0.43728898
32.575297
-0.44967777
32.511687
-0.45865107
32.448162
-0.48333462
32.387779
-0.52126114
32.310158
-0.54197628
32.236314
-0.5796763
32.171845
-0.63930505
-0.68828004
32.099659
30.835073
-0.13743843
30.53118
-0.14578523
30.232066
-0.15953624
29.941959
-0.19322776
29.636929
-0.2162316
29.344711
-0.24975793
29.057795
-0.29276057
28.759601
-0.34111058
28.497984
-0.42666326
0.76042875
28.278302
-0.54074728
0.81114344
32.048944
0.80405402
32.802564
0.71889274
33.785805
0.60461947
33.889749
0.46302171
34.124553
0.31027219
33.992248
0.15005292
33.948397
33.644391
0.87762501
28.029316
-0.62863846
0.87671878
32.04985
0.8495767
32.829706
0.75370986
33.881672
0.62825686
34.015202
0.47758301
34.275227
0.32742929
34.142402
0.1652259
34.110601
33.809617
0.9608869
27.881044
-0.81261453
0.95660163
32.054136
0.924356
32.861951
0.82482862
33.981199
0.69698844
34.143042
0.54039288
34.431823
0.36983913
34.312955
0.18374254
34.296697
33.99336
1.0646802
27.906684
-1.0903206
1.0169035
32.101912
0.97307894
32.905776
0.86140275
34.092875
0.7205868
34.283858
0.55188064
34.600529
0.37960046
34.485236
0.19429556
34.482002
34.187655
1.2944289
28.295671
-1.6834164
1.0945378
32.301803
1.0587879
32.941526
0.94276526
34.208898
0.79781252
34.428811
0.62223576
34.776106
0.43227481
34.675197
0.22004396
34.694233
34.407699
1.4068991
28.68481
-1.7960376
1.1766411
32.532061
1.1044674
33.013699
0.97929177
34.334073
0.82080881
34.587294
0.63105109
34.965863
0.43768316
34.868564
0.22854129
34.903375
34.63624
1.4161439
28.625148
-1.3564818
1.2655443
32.682661
1.1939195
33.085324
1.0712325
34.45676
0.90785538
34.750671
0.71054904
35.16317
0.49799103
35.081123
0.25827485
35.143091
34.894515
1.2864885
27.913328
-0.57466833
1.3193613
32.649788
1.2434604
33.161225
1.1058418
34.594379
0.92839803
34.928115
0.71609882
35.375469
0.50227064
35.294951
0.26786797
35.377494
35.162383
0.92654421
26.625728
0.36105577
1.3796399
32.196692
1.3568458
33.184019
1.215157
34.736068
1.0316171
35.111654
0.8070063
35.60008
0.56822374
35.533733
0.29776201
35.647955
35.460145
0.053046876
35.407098
0.16417193
35.53683
0.28107501
35.41683
0.39838128
35.482773
0.5199543
34.990081
0.65428688
34.601735
0.85872559
32.979581
1.4434482
31.61197
26.296714
1.772462
0.035463358
35.371635
0.11178466
35.460509
0.20210707
35.326508
0.31523239
35.369648
0.42820264
34.877111
0.55626956
34.473668
0.74423997
32.79161
1.3530139
31.003196
26.055568
1.5941598
0.035343459
35.336292
0.13068969
35.365163
0.2322405
35.224957
0.33842064
35.263468
0.44378706
34.771745
0.55902703
34.358428
0.69960257
32.651035
1.1778636
30.524935
25.981272
1.25216
0.019845955
35.316446
0.079221258
35.305787
0.15061548
35.153563
0.25336366
35.16072
0.34897857
34.67613
0.45425014
34.253157
0.55013293
32.555152
0.89896368
30.176104
25.830235
1.0500002
0.019493644
35.296952
0.1034164
35.221865
0.19300958
35.06397
0.2912401
35.062489
0.3820767
34.585293
0.48103732
34.154196
0.54539442
32.490795
0.7418138
29.979685
25.842726
0.72932319
0.0073592637
35.289593
0.055644743
35.173579
0.11436715
35.005247
0.21032536
34.966531
0.2907409
34.504878
0.38677338
34.058164
0.41923822
32.45833
0.56055774
29.838365
25.732794
0.67048939
0.012712352
35.27688
0.09052198
35.09577
0.17077716
34.924992
0.26443606
34.872872
0.34199743
34.427316
0.42160776
33.978553
0.44257386
32.437364
0.50859522
29.772344
25.778144
0.46324571
-0.0010905878
35.277971
0.040826304
35.053853
0.097360254
34.868458
0.19252989
34.777702
0.26266397
34.357182
0.34572542
33.895492
0.34535034
32.437739
0.40559451
29.7121
25.684471
0.49926733
0.011857334
35.266114
0.09086998
34.97484
0.16852805
34.7908
0.26265308
34.683577
0.33017705
34.289658
0.39162381
33.834045
0.39257584
32.436787
0.40184592
29.70283
25.737204
0.34911234
-0.32114324
25.639379
0.4189689
-0.31575032
29.697437
-0.34261856
32.463655
-0.27528126
33.766708
-0.20578209
34.220159
-0.10418877
34.581984
-0.047241544
34.733853
-0.0024990707
34.930098
35.263614
-0.33081924
25.676048
0.29414955
-0.37881125
29.745429
-0.40376535
32.488609
-0.35328317
33.716226
-0.28714079
34.154017
-0.18723482
34.482078
-0.10092439
34.647542
-0.014769245
34.843942
35.248845
-0.27014131
25.587465
0.3587245
-0.32284457
29.798132
-0.3853867
32.551151
-0.32650244
33.657341
-0.25137206
34.078886
-0.13522421
34.36593
-0.063817648
34.576136
-0.0091474696
34.789272
35.239698
-0.30180312
25.621033
0.26823495
-0.4101491
29.906478
-0.46431067
32.605313
-0.41933824
33.612369
-0.3459912
34.005539
-0.22840343
34.248342
-0.12623168
34.473964
-0.026111694
34.689152
35.213586
-0.27605939
25.571345
0.32574736
-0.38715953
30.017578
-0.48451101
32.702664
-0.42477631
33.552634
-0.32702497
33.907788
-0.18838576
34.109703
-0.093635199
34.379213
-0.021258397
34.616775
35.192328
-0.33784396
25.63214
0.27704906
-0.50529222
30.185026
-0.58584515
32.783217
-0.53048451
33.497274
-0.43064869
33.807952
-0.28542066
33.964475
-0.15983999
34.253633
-0.040575544
34.497511
35.151752
-0.34659741
25.652681
0.32605685
-0.52611338
30.364542
-0.64709847
32.904202
-0.5628303
33.413005
-0.43144533
33.676567
-0.25733586
33.790366
-0.13192587
34.128223
-0.037280019
34.402865
35.114472
-0.44157625
25.807308
0.28694905
-0.68307926
30.606045
-0.77783167
32.998955
-0.68172022
33.316894
-0.53665177
33.531499
-0.35010335
33.603817
-0.19893081
33.97705
-0.057726531
34.261661
35.056746
-0.48915555
25.953305
0.3431583
-0.7510373
30.867927
-0.86839011
33.116308
-0.73230032
33.180804
-0.55255329
33.351752
-0.33126712
33.382531
-0.16644994
33.812233
-0.048198464
34.143409
35.008547
0.19021458
34.818333
0.46585966
33.867764
0.74453711
33.533556
1.0742048
33.052864
1.373124
33.052832
1.6007432
32.953185
1.5369438
33.180107
1.0512829
31.353588
26.556358
0.44822972
0.17743346
34.640899
0.43194916
33.613249
0.73733556
33.228169
1.1122092
32.67799
1.4588268
32.706215
1.7534765
32.658535
1.7258634
33.20772
1.2320981
31.847353
27.224224
0.56423257
0.20430659
34.436592
0.50232918
33.315226
0.81104428
32.919454
1.1986526
32.290382
1.5947118
32.310156
1.9412769
32.31197
2.0526673
33.09633
1.5435697
32.356451
28.337864
0.42992913
0.17984351
34.256749
0.452635
33.042435
0.79720975
32.574879
1.2254622
31.862129
1.6628729
31.872745
2.1125954
31.862248
2.3037869
32.905138
1.9304797
32.729758
29.700163
0.5681816
0.20722143
34.049528
0.51707724
32.732579
0.84952478
32.242432
1.2806634
31.430991
1.7646327
31.388776
2.2652194
31.361661
2.6471842
32.523173
2.39875
32.978192
31.420583
0.67832931
0.17935648
33.870171
0.45496589
32.456969
0.81864409
31.878754
1.2868882
30.962746
1.8129539
30.86271
2.4026069
30.772008
2.891356
32.034424
2.9077957
32.961753
33.269681
1.0586977
0.2050574
33.665114
0.51186723
32.150159
0.85790286
31.532718
1.3096685
30.510981
1.8683569
30.304022
2.4828258
30.157539
3.130045
31.387205
3.4355946
32.656203
34.559372
2.1459034
0.18302993
33.482084
0.44384081
31.889349
0.81567626
31.160883
1.2892434
30.037414
1.8666595
29.726605
2.5643426
29.459856
3.2593165
30.692231
3.9258173
31.989702
35.564383
2.9208071
0.22052509
33.261559
0.4977859
31.612088
0.83329734
30.825371
1.2856889
29.585022
1.8717913
29.140503
2.58967
28.741977
3.4847614
29.79714
4.6194163
30.855047
35.924344
4.2594553
-1.4879692
34.749528
-2.7297372
32.853856
-3.8149857
31.91062
-4.7186044
30.488641
-5.5145736
29.936472
-6.3448601
29.572264
-7.4505108
30.902791
-9.3752672
32.779804
38.484673
-11.935597
-1.4972187
36.246747
-2.7796761
34.136313
-3.9142651
33.045209
-4.8047135
31.379089
-5.5487962
30.680555
-6.3629159
30.386383
-7.5865404
32.126415
-9.4531282
34.646392
39.749837
-10.718292
-1.5792516
37.825998
-2.8753277
35.432389
-3.9827115
34.152592
-4.8513954
32.247773
-5.5815671
31.410727
-6.3825077
31.187324
-7.6546369
33.398544
-9.1360279
36.127783
36.201076
-5.5872674
-1.5834307
39.409429
-2.9248237
36.773782
-4.0868664
35.314635
-4.9272811
33.088188
-5.6164116
32.099857
-6.3594079
31.93032
-7.5159128
34.555049
-8.5609017
37.172771
28.360679
-0.72050429
-1.6784113
41.08784
-3.0258775
38.121248
-4.1722402
36.460998
-4.988872
33.90482
-5.6446489
32.755634
-6.3174819
32.603153
-7.2938776
35.531445
-7.8984117
37.777306
20.614881
-0.15261396
-1.6778374
42.765678
-3.0778506
39.521262
-4.2862522
37.669399
-5.0865214
34.705089
-5.6739162
33.343029
-6.2245085
33.153745
-6.9247409
36.231677
-7.0931976
37.945762
13.553526
-0.031842804
-1.7324161
44.498094
-3.1843925
40.973238
-4.3898732
38.87488
-5.1845055
35.499721
-5.6814364
33.83996
-6.0621352
33.534444
-6.5985566
36.768099
-6.2690084
37.616214
7.3691029
-0.084584974
-1.7301835
46.228277
-3.2263838
42.469438
-4.4958761
40.144372
-5.2890265
36.292872
-5.6610635
34.211997
-5.8501027
33.723483
-6.1627169
37.080713
-4.3947933
35.84829
2.1206948
0.85361473
-1.7947911
48.023068
-3.3245252
43.999172
-4.6075082
41.427356
-5.4133368
37.0987
-5.6973323
34.495992
-5.5500657
33.576217
-5.3786825
36.90933
-1.7172596
32.186868
-1.8230248
2.22646
0.65950296
-3.4524064
0.9698787
2.4230701
30.4233
2.8317717
36.500628
3.3985397
33.009449
3.5602225
34.334309
3.1448734
37.514049
2.281729
42.2905
1.2095885
45.071313
49.232657
0.56356356
-4.7334602
0.71749019
2.1231841
28.86368
2.6403177
35.983495
3.4536922
32.196074
3.6692922
34.118709
3.2203306
37.963011
2.3362128
43.174618
1.2110536
46.196472
50.44371
0.36002712
-5.7459464
0.65245911
1.7898324
27.433875
2.5281039
35.245223
3.4853181
31.23886
3.7751604
33.828867
3.2903581
38.447813
2.3446366
44.120339
1.1844086
47.3567
51.628119
0.20052858
-6.6845885
0.7381136
1.4981983
26.136205
2.3455203
34.397901
3.5387434
30.045637
3.8786776
33.488933
3.3454563
38.981035
2.3795014
45.086294
1.1858044
48.550397
52.813923
0.070662606
-7.5323732
0.77712201
1.2552074
24.95166
2.1958983
33.45721
3.5824551
28.65908
3.9923519
33.079036
3.4054735
39.567913
2.3708813
46.120886
1.1203537
49.800925
53.934277
-0.11636758
-8.1379624
0.72195688
0.91746556
23.917827
2.1316707
32.243005
3.6932348
27.097516
4.1061112
32.66616
3.4552096
40.218815
2.3845803
47.191516
1.0883286
51.097177
55.022606
-0.31495107
-8.4444681
0.62145672
0.56267665
23.040199
1.9323637
30.873318
3.69354
25.33634
4.2029987
32.156701
3.4987996
40.923014
2.3544425
48.335873
1.0286382
52.422981
56.051244
-0.44801315
-7.6519774
-0.34447758
0.24309904
22.349087
1.7832271
29.33319
3.8343446
23.285222
4.3298661
31.661179
3.5375431
41.715337
2.3583093
49.515106
0.9961519
53.785138
57.047396
-0.88878985
-6.3947859
-0.36840162
-0.26700654
21.727304
1.5828796
27.483304
3.7785903
21.089512
4.3874037
31.052366
3.5644413
42.538299
2.2910586
50.788489
0.89542712
55.18077
57.942823
-3.8059268
-3.0244583
0.43559915
-5.7690059
23.690383
0.014123181
21.700174
5.7331722
15.370463
6.2858321
30.499706
4.3843522
44.439779
2.3185834
52.854258
0.35889563
57.140458
58.301718
-4.370197
2.1691905
-0.82345174
-5.9834339
25.30362
0.518848
15.197893
6.3409396
9.5483711
6.4274563
30.413189
3.8975561
46.969679
1.3746248
55.377189
-0.38363298
58.898715
57.918085
-4.4806628
8.052954
-1.4031008
-5.7378617
26.560819
0.92836111
8.5316697
6.4753778
4.0013544
5.9279297
30.960638
3.1526709
49.744938
0.78565322
57.744207
-0.6392058
60.323574
57.27888
-4.6890584
14.190331
-1.4483181
-4.9306261
26.802387
1.9102179
1.6908256
6.6454093
-0.733837
5.4664055
32.139641
2.2496192
52.961724
-0.36187057
60.355697
-1.4211578
61.382862
55.857722
-4.8045963
18.053505
0.94142222
-3.7743401
25.77213
3.120409
-5.2039235
6.7799889
-4.3934169
4.6247926
34.294838
1.1880574
56.398459
-1.0010445
62.544799
-1.5429992
61.924816
54.314723
-4.845816
21.200566
1.698755
-3.0503465
23.976661
4.1341376
-12.388408
6.8777804
-7.1370597
3.8189051
37.353713
0.15941365
60.057951
-2.1813599
64.885572
-1.9869423
61.730399
52.32778
-5.1936721
24.068329
2.3259082
-2.6700547
21.453044
4.5611367
-19.619599
6.5548566
-9.1307796
2.6219841
41.286585
-1.1774354
63.85737
-2.6530884
66.361225
-2.0221169
61.099427
50.305663
-5.0971005
26.176808
2.9886214
-1.4677344
17.823678
5.5265492
-26.613883
6.2357543
-9.8399848
1.7086372
45.813702
-2.1423127
67.70832
-3.5565681
67.775481
-2.3415953
59.884454
47.964068
-4.733926
3.405548
27.505187
-0.25747937
13.347231
6.0678722
-32.939234
5.1622398
-8.9343524
-0.087615521
51.063558
-3.8164406
71.437145
-3.890442
67.849482
-2.0292155
58.023228
45.934853
-0.32160173
-33.528165
0.25237746
33.597389
1.2003302
3.8852887
-5.4072207
2.3964734
49.299399
-50.495542
2.6861483
64.901361
-65.191036
3.477616
60.305725
-61.097193
6.6736792
13.099927
-16.29599
9.8140468
-21.589025
18.448658
11.155941
-38.812258
37.470364
-35.025232
33.876786
-0.38839902
-33.400376
0.2606107
1.0563721
2.4405176
2.107337
48.248434
2.3057119
64.702986
3.5765061
59.034931
7.2789432
9.3974902
10.589021
-24.899103
12.08897
-40.312206
-36.168658
-0.46152166
-33.205258
0.26640294
0.88105232
1.0979436
1.7853293
47.344157
1.9264426
64.561873
3.7587454
57.202628
8.0279172
5.1283184
11.449089
-28.320275
13.09965
-41.962767
-37.332188
-0.53167863
-32.948278
0.2746986
0.73061731
-0.16435231
1.5439084
46.530866
1.6967236
64.409057
4.1426864
54.756666
8.9803136
0.29069109
12.515938
-31.855899
14.261633
-43.708463
-38.494542
-0.58384845
-32.647128
0.28269929
0.61463642
-1.3628372
1.2978372
45.847666
1.5753469
64.131548
4.7782544
51.553758
10.122699
-5.0537532
13.708358
-35.441559
15.519552
-45.519656
-39.617372
-0.64236096
-32.298878
0.29411053
0.52756526
-2.5327634
1.127768
45.247463
1.5604223
63.698893
5.5594583
47.554722
11.32918
-10.823475
14.934004
-39.046384
16.808131
-47.393782
-40.722927
-0.69066018
-31.913564
0.30534629
0.4352392
-3.6586628
0.93649466
44.746207
1.6481205
62.987268
6.4988258
42.704017
12.551479
-16.876128
16.115259
-42.610164
18.033207
-49.31173
-41.823322
-0.73656087
-31.496524
0.31952079
0.34158106
-4.7368047
0.76211076
44.325678
1.9042444
61.845134
7.6399347
36.968326
13.843633
-23.079826
17.308957
-46.075487
19.204298
-51.207072
-42.886639
-0.76367225
0.32925685
-31.062108
0.25379747
-5.7542744
0.62397424
43.955501
2.3496856
60.119422
8.9401154
30.377897
15.117663
-29.257374
18.451084
-49.408908
20.289547
-53.045535
-43.882377
-0.94884157
27.214352
-4.721499
-21.544012
-7.3008599
-54.703835
61.055853
-9.9095079
-86.80354
89.412188
-8.43559
-76.954964
75.481047
-5.0995859
-53.447572
50.111567
-1.1792314
-34.575597
30.655242
3.065947
-24.475051
20.229872
3.8013107
-18.798754
18.06339
-33.261085
37.062396
-0.13616621
32.71881
-5.3682914
-6.2731419
-48.566859
-9.4071239
-83.669558
-9.0139733
-77.348115
-6.3808182
-56.080727
-2.7877827
-38.168632
1.6137896
-28.876623
3.8829821
-21.067947
-29.378103
0.4659841
37.590199
-5.3373731
-5.9644319
-42.136443
-9.1106031
-80.523387
-8.6862469
-77.772471
-6.3642091
-58.402764
-3.5167937
-41.016048
-0.26725169
-32.126165
2.1240497
-23.459248
-27.254053
1.2725986
40.962285
-4.6446851
-4.9826502
-35.881194
-8.6014305
-76.904606
-9.1867072
-77.187194
-7.0997575
-60.489714
-3.9509883
-44.164817
-1.1596572
-34.917496
1.7594518
-26.378357
-25.494601
1.6791658
42.918425
-3.6353048
-4.5064928
-29.695536
-8.0347011
-73.376398
-8.6620591
-76.559836
-7.315447
-61.836326
-4.8406322
-46.639632
-2.5870623
-37.171066
0.30382705
-29.269246
-25.190774
2.2991067
43.146029
-2.5267109
-3.5136413
-23.882787
-7.4280889
-69.46195
-8.8122684
-75.175657
-7.566787
-63.081808
-5.1995041
-49.006915
-3.2113873
-39.159183
-0.070853397
-32.40978
-25.261627
2.6296231
41.799656
-1.2832494
-2.9248136
-18.328351
-6.6207639
-65.765999
-8.1919332
-73.604487
-7.6029051
-63.670836
-5.5627263
-51.047093
-3.8062407
-40.915668
-1.1293518
-35.086669
-26.390979
3.071822
38.703019
0.024814635
-1.8155104
-13.441019
-5.7964866
-61.785023
-7.8352962
-71.565678
-7.5077155
-63.998416
-5.6707802
-52.884029
-3.8382819
-42.748166
-1.3823742
-37.542577
-27.773353
3.2496598
36.160337
-0.70697704
-0.8837541
-9.3076048
-4.6569174
-58.011859
-6.7689414
-69.453654
-7.0996589
-63.667699
-5.7794108
-54.204277
-4.1533635
-44.374214
-2.086305
-39.609635
-29.859658
0.38319196
33.901836
-34.285028
0.30772153
40.497176
-40.421706
-0.015007947
43.215875
-42.893145
-0.80200128
49.404858
-48.617865
-2.0652117
53.617141
-52.353931
-3.5231377
57.539775
-56.081849
-4.2797038
54.431831
-53.675264
-1.9493809
26.315289
-28.645612
-19.374998
16.702364
0.72325245
0.43498529
33.466851
0.40700715
40.525154
0.12063104
43.502251
-0.611618
50.137107
-1.8978989
54.903422
-3.3778918
59.019768
-4.0714292
55.125368
-1.7941451
24.038005
-21.967089
0.79794607
0.45389792
33.012953
0.46423408
40.514818
0.22798931
43.738496
-0.50218268
50.867279
-1.7796369
56.180876
-3.2595487
60.499679
-3.8847612
55.750581
-1.5734994
21.726743
-24.454548
0.91395926
0.50502743
32.507926
0.54951523
40.470331
0.34102927
43.946982
-0.31704026
51.525349
-1.608166
57.472002
-3.096168
61.987681
-3.6497282
56.304141
-1.4244729
19.501488
-26.856422
0.9774013
0.50883454
31.999091
0.59401213
40.385153
0.43951727
44.101477
-0.21129948
52.176165
-1.4794694
58.740172
-2.9689821
63.477194
-3.4563116
56.791471
-1.2360379
17.281215
-29.122786
1.0303263
0.5466324
31.452459
0.66588658
40.265899
0.5376757
44.229688
-0.031664857
52.745506
-1.3018125
60.01032
-2.7930389
64.968421
-3.2072581
57.20569
-1.1212143
15.195171
-31.268812
1.0248113
0.52928726
30.923171
0.70261112
40.092575
0.62292085
44.309378
0.067449332
53.300977
-1.1696468
61.247416
-2.6650292
66.463803
-3.0188057
57.559467
-0.94153996
13.117905
-33.205382
0.99503054
0.55429927
30.368872
0.76080468
39.88607
0.70753724
44.362645
0.24021968
53.768295
-0.9922529
62.479888
-2.4779187
67.949469
-2.7637881
57.845337
-0.83387032
11.187987
-35.166739
1.1274878
0.50921376
0.78564783
0.77407948
0.33809763
-0.84971309
-2.3538978
-2.5204198
-0.64003795
0.35355957
3.9581316
11.763319
0.98091338
8.258398
-32.945878
7.3155976
-52.732464
5.0565691
-53.82282
3.0341641
-50.331526
1.5493143
-47.133015
0.66368152
-42.007513
0.062545363
-39.82057
-34.222483
4.6698335
6.306331
0.78715506
8.9126831
-37.188728
7.4746992
-51.29448
5.172437
-51.520558
3.2305398
-48.389629
1.7130358
-45.615511
0.7973272
-41.091804
0.12646341
-39.149706
-34.096019
5.7313634
-0.22838968
0.80335728
9.3540181
-40.811383
7.6284413
-49.568903
5.2972095
-49.189326
3.3653591
-46.457778
1.8526068
-44.102758
0.88966444
-40.128862
0.16496234
-38.425004
-33.931057
8.9950934
-9.1212188
-0.10226427
9.6469018
-41.463191
7.6517325
-47.573734
5.3589821
-46.896576
3.5025627
-44.601359
1.9936804
-42.593876
1.0237988
-39.15898
0.2464773
-37.647682
-33.68458
9.6721486
-18.473233
-0.32013412
9.6454289
-41.436472
7.6466058
-45.574911
5.4816941
-44.731664
3.6748802
-42.794545
2.1560216
-41.075017
1.1165241
-38.119483
0.29086448
-36.822023
-33.393715
10.393394
-27.899779
-0.96684822
9.6300476
-40.673125
7.6214179
-43.566281
5.5052473
-42.615493
3.7512003
-41.040498
2.2710388
-39.594856
1.2530316
-37.101475
0.3823985
-35.95139
-33.011317
10.613524
-34.46916
-4.0441423
9.6018171
-39.661419
7.5777033
-41.542167
5.6032026
-40.640993
3.9096839
-39.346979
2.4224191
-38.107591
1.3388901
-36.017946
0.42632219
-35.038822
-32.584995
10.990919
-35.914524
-9.5455556
9.5626192
-38.233119
7.5236781
-39.503226
5.5952945
-38.712609
3.9694301
-37.721115
2.5244073
-36.662568
1.458625
-34.952164
0.51245757
-34.092654
-32.072537
10.990361
-35.44486
-11.460026
9.3378065
-36.580564
7.4543933
-37.619813
5.6719564
-36.930172
4.0901917
-36.13935
2.6521697
-35.224546
1.5347192
-33.834714
0.56127609
-33.119211
-31.511261
0.52757437
37.84613
-38.373704
0.92415194
37.963153
-38.35973
1.240213
38.171903
-38.487965
1.4666744
38.40899
-38.635452
1.5709743
38.395941
-38.500241
1.5094442
37.918102
-37.856572
1.2415387
36.440704
-36.172799
0.8353321
32.864953
-32.458747
26.958297
-26.561626
0.43866114
0.58661912
37.259511
1.0461661
37.503606
1.4174472
37.800622
1.6594903
38.166947
1.7649152
38.290516
1.6987208
37.984296
1.3612223
36.778203
0.83928044
33.386895
27.222606
0.57497122
0.6394293
36.620081
1.1393716
37.003663
1.5449657
37.395028
1.8523468
37.859566
2.0227221
38.120141
2.0176759
37.989342
1.7410034
37.054875
1.2054387
33.92246
27.922598
0.50544652
0.70359935
35.916482
1.2630411
36.444222
1.7255095
36.93256
2.0440083
37.541067
2.2305546
37.933594
2.2490862
37.970811
1.9436595
37.360302
1.3048034
34.561316
28.539711
0.68769021
0.75681178
35.15967
1.3435005
35.857533
1.8565271
36.419533
2.2504384
37.147156
2.5122198
37.671813
2.5895614
37.893469
2.4006236
37.54924
1.7847288
35.177211
29.717465
0.60697526
0.83486563
34.324804
1.4696561
35.222742
2.0312861
35.857903
2.4279524
36.75049
2.7139435
37.385822
2.8394479
37.767965
2.6705694
37.718118
2.0769591
35.770821
30.988835
0.80558905
0.88000473
33.4448
1.5394222
34.563325
2.1635984
35.233727
2.640905
36.273183
2.9994618
37.027265
3.2101794
37.557247
3.1677876
37.76051
2.7141209
36.224488
32.778652
0.92430401
0.95229027
32.49251
1.6611429
33.854472
2.3197206
34.575149
2.799738
35.793166
3.1973881
36.629615
3.4515641
37.303071
3.4433673
37.768707
3.1329472
36.534908
34.326959
1.5846397
0.98124855
1.7165096
2.4569454
3.0255649
3.5158297
3.8887289
4.037623
3.9919672
2.874067
-0.23409891
-26.646598
0.31907074
-0.43828179
-32.254564
-0.67178768
-35.939293
-0.79666048
-37.731699
-0.81897202
-38.477929
-0.7412713
-38.713152
-0.56988637
-38.659349
-0.33582022
-38.593796
-38.709524
-0.29130399
-26.627589
0.2722958
-0.4320619
-32.113806
-0.59362402
-35.777731
-0.6786817
-37.646641
-0.6797823
-38.476829
-0.60591717
-38.787018
-0.47521805
-38.790049
-0.28424405