/*--------------------------------*- C++ -*----------------------------------*\
  =========                 |
  \\      /  F ield         | OpenFOAM: The Open Source CFD Toolbox
   \\    /   O peration     | Website:  https://openfoam.org
    \\  /    A nd           | Version:  11
     \\/     M anipulation  |
\*---------------------------------------------------------------------------*/
FoamFile
{
    format      ascii;
    class       surfaceScalarField;
    location    "0.254";
    object      phi;
}
// * * * * * * * * * * * * * * * * * * * * * * * * * * * * * * * * * * * * * //

dimensions      [0 3 -1 0 0 0 0];

internalField   nonuniform List<scalar> 
1652
(
2.843686947071611
0.8895636090847474
0
1.954123337989347
0.889563609016399
2.162714451969805e-13
1.064559734396691
0.8895635818651655
-1.084465850453853e-12
0.8895546643529995
-1.624478329631529e-12
0.1750014630862213
2.843686947076739
1.779127218162426
1.954123337980281
1.779127218326833
1.064559737763965
1.779127148224922
1.7790438294634
0.1750461570562737
2.84368694709074
2.668690827246525
1.954123337756847
2.668690827297287
1.064559723543648
2.668690803103778
2.667890173494832
0.1754218196190267
2.843686947092867
3.558254436328432
1.954123337597876
3.558254446981252
1.06455949641951
3.558250508166979
3.550078493084575
0.1780853342085471
4.418652025449481
2.872852967045259
5.279049614577377
2.872852967040649
6.139447226415786
2.872852962726707
2.872853441578293
6.999844340596122
4.418651992955071
2.012455441111795
5.279049523860898
2.012455327491296
6.139448137864066
2.012454930707174
2.012447817168842
6.999845432388565
4.418650163953124
1.15207067763841
5.279035618114775
1.152042198882755
6.139582212172685
1.151486620958937
1.152558594269479
6.999565259447094
4.426880996377573
0.2542682206306952
5.437061244527778
0.1076721247308962
6.505960486822916
0.03939613237044837
7.583472757476143
0.01895352162213915
6.941509839944185
0.05833836351847943
6.883160974881644
0.05832343682558194
6.824827057029535
0.05829530258912519
0.05828036813524107
6.766497790411417
6.941564367430026
0.1167058952313719
6.883342296014213
0.1164457270658621
6.825310231707837
0.1160963670476254
0.115763608217373
6.767453718627218
6.951687716106233
0.1611830916766284
6.90808319063575
0.1529733062702188
6.869516226282816
0.1430367950048232
0.1325171353561602
6.837064234925021
7.684277605193529
0.01080570427334082
7.769220420040102
0.01000597386796387
7.848302661464841
0.007223104376364198
7.906705891403857
0.009208781250720222
7.929264028490301
0.09881421852745548
-0.1593805738747504
7.807761617940018
0.1457577074942579
-0.05217957587697408
7.665594047720471
0.1330843522005931
-0.01321988423640041
0.1215410715382365
7.549553431461417
-0.009161461914270363
6.905745769166522
0.003178663279053362
7.006227707631175
0.009872580591338775
7.078498438428089
0.01901823987445384
0.02993465383571492
7.130861040583626
6.769196991524529
0.0001901736867913062
6.774765682051589
0.0005933139579188396
6.78452770348009
0.001677257975129631
0.003678822223436073
6.798604212876467
6.766539228895566
6.766628923306642
6.76704171419428
6.768029490232122
6.768402090951809
-0.00611450418728543
6.768552541157162
-0.008197171097924727
6.76797790918127
-0.009038875614279851
-0.008548121223478256
6.766961384622029
6.815211051628532
-0.03924232316342091
6.832024817896928
-0.04399564355090779
6.840782075837326
-0.04603544276848381
-0.04214254321477351
6.838528825970501
7.164735671502594
-0.1095777568394986
7.186876815586369
-0.09648379654981931
7.184299274894451
-0.08167837902626163
-0.06760649600799001
7.166594976244885
7.471642608010697
-0.008780319690142535
7.400336694370893
-0.007954120169117729
7.343839612022911
-0.006542964405108764
7.334480242968097
-0.003594728327543262
0.05317178055577343
7.35526692349365
0.0003029224632215555
0.03503300810032783
7.141450603964587
0.007435118394372608
6.831746756408628
6.766053893653374
0.03796566455749001
7.354516122062853
0.008179660263754218
0.02740389521635378
7.103255046375888
0.005934034253989529
6.821222036308213
6.765440344380771
0.02573390557522998
7.34253536882166
-0.02474716881837247
0.01994112664172742
7.056258150568345
0.004376005538328731
6.808282964629885
6.765322955804439
0.02667591990607499
7.513194442975355
-0.2590329346386219
0.009771043795224865
7.003748467190198
0.00243257516386719
6.792110684067019
6.765378318178763
0.1549068897437617
6.61006225768961
0.3091007293496009
6.621023532276501
0.4253698143289884
6.790851849149909
7.535061638109217
0.1534097419636954
0.1552608579939327
6.454956760557721
0.3080154433099824
6.460468164478371
0.3345543638697044
6.632474116766613
7.256445888494927
0.1703148569862762
0.1551166374812781
6.299755420446627
0.3035057757144144
6.305025074636294
0.2504513588376676
6.50310918760983
6.925669001530445
0.1251538659694408
0.1541007261509515
6.144766824362963
0.2930660427635038
6.154075404138868
0.1460033617708628
6.398934668556128
6.549308272919813
0.08737859932848357
-0.03504078287055845
6.158561724680417
0.07294451217488251
-0.2720064950027267
6.32065631768424
-0.152122972496735
6.009033559294428
5.989945280842898
0.08154415910431345
5.732611814091817
0.08746857493479254
-0.2301398275814368
6.224105492289621
-0.1464741060029597
5.871073832695393
5.83680097425103
0.2013423033490477
5.272531196677093
0.07176666129296549
-0.1595938871083034
6.110289268716091
-0.1373317272990412
5.741485226440579
5.684886910796194
0.2642746837113327
4.887192158511695
0.01413295605161069
-0.04304746553354344
5.886610560666488
-0.1167915672863022
5.622781439213687
5.537948975677401
0.1300444317253899
5.351008806619519
-0.006015396147163621
5.448766011759203
-0.2646294388444816
5.655692544685333
4.562270978528504
0.0003804799221036603
0.07830486257097857
5.175925428207801
-0.1073808647633503
5.273558088368827
-0.1469214949391922
5.415623859740113
4.481369604186286
-0.0002537959204815809
0.06859609795833588
4.997893129246594
-0.02948235439029201
5.05768904714294
0.01368429276121363
5.219244232633848
4.468366183850853
0.0795357890052576
0.09657998406010804
4.78209311388653
0.07330439399032884
4.831562175444934
0.2014578133553063
4.994907479148733
4.448483183518842
0.2913093465191805
-0.4631130974208152
5.117968942230153
-1.018123859976572
5.20318841870749
-1.304112503588354
5.255663995420063
4.518461700349935
-1.277546286010155
-0.4463793616207204
5.463557096750147
-0.8870036991112936
5.53847098538897
-1.133344728213069
5.488468787334078
3.918201425921753
-0.3877691247497658
-0.4079303136340577
5.794259739076425
-0.7753726346047687
5.854614448202677
-0.9390424155810606
5.716217936841287
3.173917304845978
-0.03815337586970148
-0.3781387337780081
6.121082891163915
-0.7073990109242884
6.164202347540138
-0.7425635671370013
5.931925353783515
2.692165943857053
-0.02516760573561391
0.3365953330247476
2.533820104772025
-0.01671624291876206
0.3510500397933739
6.046854606209589
0.1897691037475259
6.333001530711877
6.279448633489409
0.3062431396645015
2.365353256787515
-0.01664477894871558
0.3297612324711528
6.140011119512552
0.1710658673194912
6.501841540710973
6.436290981072193
0.2720031650293891
2.262832137096232
-0.01271361421853145
0.3125937306793311
6.256782655584532
0.1658425333529532
6.648014428981822
6.600009596134644
0.2138458791985819
2.229768249663425
-0.003758001343114742
0.2935419718515951
6.357216432061492
0.1720697294942529
6.777426463663097
6.770764965468098
-0.3585162256467721
2.994741883303937
-0.01766531842201277
-0.09437145933975866
6.402303815713084
-0.005669177661426827
6.738236688467147
6.766862573508009
-0.3277699522049807
3.650571144153876
0.06502214660626868
-0.06955950088612162
6.356273388887828
-0.003409148172751175
6.732445069227441
6.766099272863086
-0.2464713504375102
4.093712588150018
0.1168028045479287
-0.0446417450210459
6.339711627159202
-0.001618816185652072
6.743912389068187
6.766272611153748
-0.2049630580628307
0.152384836818663
4.392860807993693
-0.03092215112350583
6.382816821038935
-0.0006466474682444989
6.747035560048235
6.766416798611907
0.7715326597190704
-0.01795125426805422
-0.01287970941656815
4.658806673774052e-11
1.912261885234687
-0.7659930043797933
9.21867027159351e-11
2.852790879191697
-0.8675336484127723
-2.881144212096842e-10
-0.8747413920283829
-2.508784291421762e-10
0.7545389161209755
-0.3129415870716392
-0.01507349907967982
1.904331252712274
-1.512827126285804
2.852862601571293
-1.734749956582188
-1.749527762381469
0.7308275919339432
-0.7736937449786074
-0.0206050506044879
1.89240214051849
-2.276885699556865
2.852794150358085
-2.601806832174502
-2.624377650714111
0.7165964998452872
-0.02850300450399971
-1.350570664337609
1.885503004074071
-3.05506573226108
2.852933338892711
-3.467666466194248
-3.499214193889829
-0.2049630580621954
-4.093712588153579
0.1523848368201661
4.392860808025818
-0.03092215112755037
-6.339711627145928
6.382816820995076
-0.0006466475405424443
-6.743912389034563
6.747035560048021
-6.766272611136777
6.766416798668165
-0.2464713504542412
-3.65057114414274
0.1168028045476962
-0.04464174505725538
-6.356273388880525
-0.001618816127172629
-6.732445069286189
-6.766099272929502
-0.3277699522142219
-2.9947418833062
0.0650221466037169
-0.06955950091677221
-6.402303815703339
-0.003409148263064488
-6.73823668842618
-6.766862573681474
-0.3585162256520463
-2.229768249658388
-0.01766531842327712
-0.09437145931723845
-6.35721643208428
-0.005669177600996278
-6.777426463670464
-6.770764965456114
-0.1897691037513908
6.27944863359184
-6.121082891286896
-0.3510500397795919
6.333001530817333
-6.164202347630536
-0.3365953330157226
6.046854606154553
-5.93192535371772
2.533820104746585
-2.692165943824839
-0.01671624291855136
-0.1710658673281338
6.436290981128999
-0.3297612324618255
6.501841540818682
-0.306243139659808
6.140011119485433
2.365353256761436
-0.01664477894853438
-0.165842533333438
6.600009596121498
-0.3125937306685058
6.648014429083717
-0.2720031650229996
6.256782655588486
2.262832137079129
-0.01271361421802216
-0.1720697294885838
-0.2935419718363513
-0.2138458791917241
-0.003758001343217111
0.7425635671328502
-3.173917304824883
-0.0251676057352094
0.7073990109296904
-5.716217936800458
0.3781387337644796
-5.854614448180317
-5.794259739237271
0.939042415584929
-3.918201425919101
-0.03815337586902658
0.7753726346145399
-5.488468787312503
0.4079303135943059
-5.538470985362674
-5.463557097053791
1.133344728218541
-4.518461700352146
-0.3877691247525607
0.8870036991164426
-5.255663995374523
0.4463793615739303
-5.203188418725641
-5.117968942563276
1.304112503599128
-4.44848318350569
-1.277546286027453
1.018123859981147
-4.994907479082883
0.4631130975217613
-4.831562175549262
-4.782093113103474
0.1300444317299589
5.351008806647362
-5.537948975765872
-0.006015396114156024
5.448766011832681
-5.622781439234737
-0.2646294388273318
5.655692544668318
-5.886610560564468
4.56227097842859
-4.88719215835972
0.0003804798925239883
0.07830486254677693
5.175925428244844
-0.1073808647561593
5.273558088363114
-0.1469214949129043
5.415623859722409
4.481369604185989
-0.0002537959362891584
0.06859609806176259
4.997893128935307
-0.02948235438675306
5.05768904720007
0.01368429276520855
5.219244232597676
4.468366183857031
0.07953578900823677
0.09657998404348778
0.07330439395359112
0.2014578133439715
0.291309346523582
0.2642746837265103
-5.27253119661076
0.01413295603758247
-0.04304746548807359
-6.110289268596906
-0.1167915672660799
-5.741485226375532
-5.684886910903786
0.2013423033990249
-5.732611814150973
0.07176666127734421
-0.1595938870417696
-6.22410549225778
-0.137331727279655
-5.871073832722392
-5.836800974338332
0.08154415911766189
-6.158561724704673
0.08746857492755067
-0.2301398275401999
-6.320656317784771
-0.1464741059705447
-6.009033559307207
-5.989945280882661
-0.03504078290043011
-6.549308272796249
0.07294451216721543
-0.2720064950327268
-6.398934668436945
-0.1521229725262848
-6.154075403939595
-6.144766824408349
0.1549068897442182
6.61006225757225
-6.765378318122877
0.3091007293667016
6.621023532378984
-6.792110684036211
0.4253698143438971
6.790851849141494
-7.003748467183927
7.535061638082233
-7.513194442987722
0.1534097419629226
0.1552608579746215
6.454956760473981
0.3080154432850465
6.46046816469075
0.3345543638628081
6.632474116804172
7.256445888530687
0.1703148569815154
0.15511663751941
6.299755420392954
0.3035057757744201
6.305025074658373
0.2504513588561871
6.503109187637182
6.92566900152906
0.1251538659777987
0.1541007261044846
0.2930660426931406
0.1460033617241062
0.08737859933094416
-6.765322955800566
-0.002432575168896944
-6.765440344392254
-0.004376005526778526
-6.766053893665206
-0.005934034258783583
-0.007435118405995866
-6.766961384585887
-6.808282964647525
-0.009771043819293279
-6.821222036337966
-0.01994112663215164
-6.831746756399991
-0.02740389521382691
-0.03503300810886389
-6.838528825958556
-7.05625815055544
-0.02667591990722529
-7.103255046339937
-0.02573390557639949
-7.141450603941802
-0.03796566455961459
-0.0531717805523636
-7.166594976266838
-7.342535368835806
-0.2590329346312691
-7.354516122085398
-0.02474716881096156
-7.355266923536301
0.008179660263568755
-7.334480242981293
0.0003029224637085548
-0.008548121231304107
-6.767977909185475
-0.04214254322357092
-6.840782075824539
-0.06760649600525609
-7.18429927491383
-7.343839612022388
-0.003594728327320218
-0.009038875614452713
-6.768552541129281
-0.04603544277485139
-6.832024817916222
-0.08167837903006236
-7.186876815633843
-7.400336694362725
-0.006542964403920104
-0.008197171102874767
-6.768402090911446
-0.04399564356863561
-6.81521105177972
-0.09648379654975736
-7.164735671605239
-7.471642607974615
-0.007954120168661538
-0.006114504202311966
-6.768029490093519
-0.03924232318643217
-6.798604213172257
-0.1095777568350562
-7.130861040680565
-7.549553431386595
-0.008780319690310401
-0.0001901737556384564
6.766539228948298
-6.766497790754194
-0.003178663273296745
6.769196991217195
-6.767453718269096
-0.09881421852597538
6.905745769030635
-6.837064234793082
7.929264028376986
-7.906705891287429
-0.1593805738584998
-0.0005933139668896636
6.766628923105261
-0.009872580606269166
6.774765682059328
-0.1457577074956649
7.006227707564785
7.807761617839966
-0.05217957587152194
-0.001677257964817103
6.767041714003716
-0.01901823986779272
6.784527703765088
-0.1330843521987309
7.078498438461663
7.665594047641824
-0.0132198842340292
-0.003678822236075963
-0.02993465387328476
-0.1215410715384691
-0.009161461916232405
-0.1325171353966466
-7.848302661333088
0.009208781268909449
-0.1157636082711117
-6.869516226200401
-0.05828036804736703
-6.825310231572177
-6.82482705721663
-0.1430367950151404
-7.769220419968998
0.007223104377058642
-0.1160963670871488
-6.908083190649373
-0.05829530250361747
-6.883342296187506
-6.883160973440699
-0.1529733062693506
-7.684277605233237
0.0100059738706596
-0.1164457270719274
-6.951687716209037
-0.05832343703632825
-6.941564367407164
-6.941509839951211
-0.1611830916744768
-7.583472757604726
0.01080570425183913
-0.1167058952441434
-6.999565259471767
-0.05833836352791366
-6.999845432391956
-6.999844340611365
-1.152558594283129
-6.505960486944983
0.01895352159092711
-2.012447817150429
-6.139582212113436
-2.872853441588807
-6.139448137889048
-6.139447226412554
-1.151486620947809
-5.437061244573664
0.03939613231779093
-2.012454930695085
-5.279035618101043
-2.872852962726024
-5.279049523875929
-5.279049614574456
-1.152042198880278
-4.426880996334922
0.1076721247099615
-2.012455327484062
-4.418650163948133
-2.872852967042127
-4.418651992960834
-4.418652025447902
-1.152070677638773
-3.550078493064754
0.254268220672454
-2.012455441107725
-3.558250508175252
-2.872852967046932
-3.558254446981028
-3.55825443632844
2.843686947076677
0.889563609079681
1.954123337996291
0.889563609014097
1.064559734402589
0.8895635818676209
0.8895546643567511
0.175001463084038
2.843686947077597
1.779127218156502
1.954123337981323
1.779127218324435
1.064559737763467
1.779127148231455
1.779043829458065
0.1750461570513364
2.843686947089469
2.668690827241873
1.954123337755037
2.66869082729561
1.064559723539986
2.668690803112913
2.667890173469067
0.1754218196257286
2.843686947088214
1.954123337591305
1.064559496412413
0.1780853341638146
0.1750009833796213
0.1750009833768649
0.1749799843913783
0.1750602096268346
0.1748978250295312
0.1754493702125345
0.1781305231460269
0.1746142271458303
0.1750602096327518
0.1749799843885912
0.1750509050437677
0.1750509050375582
0.1750086039742397
0.175427335414959
0.1765896689716276
0.176159692175568
0.175449370206797
0.1748978250260102
0.1754273354071074
0.1750086039694803
0.1753486942746211
0.1753486942872132
0.1728234547667567
0.1784227981995273
0.1781305231921947
0.1746142271417389
0.1765896690034842
0.176159692180905
0.1728234548043714
0.1784227981987695
0.1724210253107035
0.172421025335128
-0.07426773409271786
0.2451758274385506
-0.1357307217310824
0.2381653091397248
-0.2034973190673862
0.2421300820471855
0.2237662759707427
-0.01103616432189203
0.254525521116814
-0.03343768224717725
0.2589073246148306
-0.06166413284126371
0.2687454654887914
0.2682388385753901
-0.001074471672847022
0.2534640984769114
-0.01364207536617534
0.2691644309411246
-0.0252407087790314
0.2778138209108019
0.2796688902790234
8.161061116207513e-05
0.251400047873206
-0.008354531706823543
0.275541979475429
-0.01380812740045501
0.2810704385504137
0.2822443516000685
0.282342412140982
0.009028014265063833
0.281348569101273
0.009462952875634811
0.281020844272108
0.006732574509143163
0.006848734748297003
0.2826268114107981
0.2813494836552347
0.007221419869438028
0.2811686236453437
0.008170973929332914
0.2812155834929343
0.006067762962581769
-0.001311901216770772
0.2888143353448916
0.2781986594581137
0.003071663230788446
0.2790928901154809
0.005738622944283678
0.2802432593367676
0.004330313090028071
-0.02724759429417095
0.3057205736479239
0.2531063050034272
0.2573597497451311
0.2611046237365306
0.2337416910679658
0.2585083717785228
-0.135365401251043
0.2316439342062136
-0.02500170732326618
0.2226429023432198
-0.004208188107695132
-0.006921945263272944
0.2215384226358306
0.2528533175830892
-0.09948952184060461
0.235669618990587
-0.007578839984450136
0.2306271834910946
0.00118046385435594
-0.003474253182872533
0.2280538924904591
0.259396850055366
-0.05332539495230476
0.245194895423884
0.007050089825612504
0.2386491428219052
0.008265203027063572
0.002058266013070575
0.2339093389124156
0.1799377532726239
0.1873508835200063
0.1961748227762889
0.1992722740249333
0.2234466245865988
-0.008575985382533735
0.2263264482153935
-0.008231498948228388
0.2289355748853139
-0.005879510132366372
-0.003761369917535229
0.2323942885788805
0.2278580561350158
-0.006013191437603316
0.2282768613622025
-0.005919714910842089
0.2288050899643233
-0.003036451970184151
-0.003343116950170921
0.2317518297278984
0.2316367792162585
-0.001552130458618461
0.2304064500380495
-0.001898281781074096
0.229238255489611
-0.000744348410967377
-0.001660467857362846
0.229892176802543
0.1999189775181489
0.2007330974415684
0.2025726003640213
0.2037506738193658
0.2367758701987354
-0.0007128284196815105
0.2410567078988272
0.006842386107316079
0.2578532474129943
-0.04439026722919792
-0.2528982566666718
0.2467416550336232
0.2357414726835692
-0.001347434317448271
0.2396865732041663
0.005500686659524912
0.2591719142287217
-0.0691688060735911
-0.191337811766475
0.195553009688054
0.2327504886664871
-0.001170433703111096
0.2368195793383128
0.004011517162890166
0.2311448134034577
-0.07151156212057169
-0.0947961835955532
0.134352184774055
0.2055105085022582
0.2124368958410328
0.1309295289831165
0.03479404946833889
0.2633310240751519
0.1317641625834164
0.2660313505743484
0.1594557406992759
0.26875292833017
0.1137482358958298
0.07471901647361234
0.27286732118553
0.2383697812880964
0.087701002265128
0.2589640916923966
0.1322137291893705
0.2671236837876136
0.09703022175565479
0.06160115777717579
0.2715527454824703
0.18603982045532
0.03464579208725871
0.2327425041396245
0.0788038623272459
0.2549967220701355
0.0663732969708376
0.04450327403750309
0.26361108474184
0.07164477099352776
0.1437557791166987
0.2018061015738063
0.2377276819981566
0.2788160805329066
0.05723164015913484
0.2828600104202937
0.0677905871495792
0.2832075686474475
0.06391200180727452
0.01091597134725864
0.2790581879250273
0.2764624218295233
0.04248752170834824
0.2840402607536605
0.04545933735303598
0.2884045511574897
0.05016970678915134
0.008035939154209193
0.2860315488999033
0.2694158616309981
0.02753917125877636
0.2770134766024303
0.02452881845026655
0.289120289300418
0.02744240484717786
0.004804883754806255
0.2907217012312324
0.2562199900013913
0.2668760209221108
0.2821924781164561
0.2897600081299884
0.2899315747433284
-0.006014906859483249
0.2924430975455536
0.006846312136568611
0.3107218337543735
0.06949962481684657
0.231153656676775
0.3799942194840641
0.2921681281631403
-0.003055146695106536
0.2954193611815055
0.01405518918440474
0.3098075395754319
0.06512632631737081
0.155373193014164
0.3935312386260887
0.2970192773379702
0.004997660824427652
0.3024847353194488
0.01933998489213751
0.3210728908919937
0.05570410811648197
0.02223961637199701
0.4613340735515431
0.3000115474326637
0.3273589002701469
0.3902522763950567
0.4198884744491156
0.1829009913710978
-1.069692030938277
0.0176160835353218
-0.219098136247316
-0.0006104036950249588
-0.01929955833136798
-0.01956629697400906
-0.005558103874250611
0.1302665499248021
-0.7971255815700946
0.005960647917743366
-0.09303131097592757
-0.003170098050908448
-0.009273555296087425
-0.01296965611334697
-0.008370335168590716
0.06853248965383474
-0.399836198080517
0.0007400329382053362
-0.0246556700777338
-0.005786592844741024
-0.003120717150458443
-0.007163821070210696
-0.009780283611235892
0.02221872944368798
-0.002523758237303057
-0.005321247468308963
-0.01044930117699525
-0.006393143248115107
-0.014667649258376
-0.008135504355300218
-0.01294595840447026
-0.01108307793064072
-0.00728184985214975
-0.001211192811927005
-0.01120943249524439
-0.009862401726424953
-0.01136392346396556
-0.01122102899674697
-0.008974469820962904
-0.0111626861171204
-0.004344954141409126
-3.579902498133253e-05
-0.009901353133154964
-0.01201243371516604
-0.006364550533378092
-0.01266399529740925
-0.004996226059508394
-0.01138363674093939
-0.002479783694508679
0.0008421399706260504
-0.009035927764097642
-0.01371269194784698
-0.01462057557039374
-0.01349268479292566
-0.007332739565806438
0.002814060102021333
-0.02390669741224677
0.04229382199398871
0.03469363376240442
0.08021173263088616
0.08549475249095845
0.1245175614281042
0.1118400855519859
-0.007626292681370113
-0.01891959238290949
0.02391722913496835
0.01290276331878663
0.066136433483833
0.05203946296133717
0.09233438827076663
0.104127297285413
-0.009846548754126976
-0.01104683667977632
0.01015062898866248
0.001969257889131104
0.04980595202760198
0.02215947549950603
0.05517715882209391
0.09410669974560938
-0.01117086097051502
-0.001059736129391559
0.03152254055122132
0.093503970008954
0.09669552144491805
-0.08059494086395401
0.09597064128865393
0.0816019662130827
-0.06131187612659338
0.07760420300214714
0.06692178546265742
-0.06094925401500513
0.07330606342815511
-0.05258061823984916
0.0435883287226343
0.07357666832659157
0.08629114728218056
-0.0594447581832171
0.07358998570923275
-0.04325619154758156
0.05807710202612407
-0.04154022775523583
-0.02986141286540907
0.0366293229378048
0.07582040727887743
-0.03921226942238561
0.06254263819992113
-0.02678326234058339
0.04315593014778089
-0.01991970501647145
-0.009624531949887161
0.02398785916706231
0.05515344669770159
0.03019432591691638
0.01199614155025741
0.00412160304809589
0.002419426156075231
0.002725489661112006
0.001563967898174062
-7.296288373391524e-05
0.0006278514390662404
-0.002358944288324259
-0.004124617985101869
-2.011030231230393e-13
0.01683924369153938
0.01108507933628705
0.01132622973545801
0.005043027620588537
0.005927808634118299
-9.475526697796596e-05
-0.002828267075107339
-1.385835890488352e-13
0.02691183645353792
0.02054754922960843
0.01903427584757581
0.01171891922458231
0.01054469125328766
0.005642853597203359
0.004053208636011378
1.228461776747736e-13
0.03484615277488659
0.02458356776029635
0.01262976914245817
1.697045282078591e-13
-0.004124617985219448
-0.0006278514393501314
-0.00282826707525612
-0.005927808634333079
0.004053208635843238
-0.01054469125304324
-0.01262976914195907
0.01287970941670973
-0.002358944288519162
-0.001563967898407584
-9.475526729386258e-05
-0.01132622973570938
0.005642853596825353
-0.01903427584737665
-0.02458356775989361
0.01507349908009342
-7.296288387275904e-05
-0.002419426156234514
0.005043027620376547
-0.01683924369187988
0.01171891922444935
-0.0269118364535759
-0.03484615277460107
0.02060505060465411
0.002725489660982489
-0.004121603048034175
0.01108507933624242
-0.02398785916746423
0.02054754922966252
-0.03662932293801537
-0.0435883287225577
0.02850300450416341
-0.06692178546318438
-0.05258061824014863
0.07357666832725362
-0.08160196621355618
-0.06094925401482513
0.07330606342835297
-0.09669552144512018
-0.06131187612620645
0.07760420300153885
-0.08059494086300982
-0.1118400855518875
0.09597064128759492
-0.05807710202632569
-0.02986141286547551
-0.07358998570933541
-0.04154022775500332
-0.08629114728222102
-0.04325619154723616
-0.0594447581823562
-0.1041272972851706
-0.04315593014837413
-0.009624531949759003
-0.06254263820040157
-0.01991970501639013
-0.0758204072789921
-0.02678326234054957
-0.03921226942181035
-0.09410669974524655
-0.01199614155006132
-0.03019432591683287
-0.05515344669770238
-0.09350397000824995
-0.03152254054974202
-0.05517715882238279
0.00105973612991301
-0.02215947549851995
0.01117086097010352
-0.001969257888343581
0.01104683667983039
0.007332739565386083
-0.04980595202637188
-0.09233438827169574
-0.01015062898749901
-0.05203946296012998
0.009846548754082751
-0.01290276331710623
0.01891959238323269
0.009035927763750319
-0.06613643348282378
-0.1245175614293498
-0.02391722913350527
-0.08549475249010162
0.007626292681664249
-0.03469363376004625
0.02390669741280135
0.009901353132962941
-0.08021173263006837
-0.04229382199273965
-0.002814060101309676
0.01120943249535
0.01108307793072958
-0.001211192811947419
0.008135504355412061
-0.007281849851774332
0.006393143248108364
-0.01294595840421247
-0.01466764925812451
0.005558103874181648
0.01116268611696996
-3.579902516221561e-05
0.01122102899665504
-0.004344954141177908
0.009862401726337481
-0.008974469820706727
-0.0113639234637553
0.00837033516849436
0.01138363674061715
0.0008421399702098209
0.0126639952971764
-0.00247978369441456
0.01201243371505715
-0.004996226059380469
-0.006364550533263128
0.009780283611147505
0.0134926847924415
0.01462057557009347
0.01371269194769973
0.01044930117691485
0.0006104036951200265
-0.01956629697353466
-0.01761608353487519
-0.01929955833108155
-0.182900991371847
-0.2190981362485849
-1.069692030951712
-0.3799942194883658
0.00317009805100581
-0.01296965611271154
-0.005960647917569124
-0.009273555295954252
-0.1302665499246669
-0.09303131097700131
-0.797125581578602
-0.3935312386294749
0.005786592844801282
-0.007163821069286872
-0.0007400329381273022
-0.00312071715026088
-0.06853248965459906
-0.02465567007773586
-0.3998361980845024
-0.4613340735556503
0.005321247468296037
0.002523758237292035
-0.02221872944365142
-0.4198884744525726
-0.3107218337566567
0.2311536566790205
-0.2924430975418946
0.06949962481536698
-0.2899315747379409
0.006846312121221443
-0.006014906878698989
-0.279058187924165
-0.3098075395774104
0.1553731930158779
-0.2954193611783711
0.06512632631309734
-0.2921681281573231
0.01405518916898818
-0.003055146703469624
-0.2860315488968171
-0.3210728908928805
0.02223961637113214
-0.3024847353164106
0.05570410811277471
-0.2970192773323437
0.0193399848795176
0.004997660825146188
-0.2907217012283961
-0.3902522763976741
-0.3273589002680809
-0.3000115474340134
-0.2897600081307257
-0.2832075686429769
0.01091597133033606
-0.2828600104166873
0.06391200179063528
-0.2788160805310536
0.06779058714505615
0.05723164015136961
-0.2728673211849472
-0.2884045511541735
0.008035939142628457
-0.2840402607509989
0.05016970677747834
-0.2764624218269359
0.04545933734888419
0.04248752170153813
-0.2715527454824532
-0.2891202892981688
0.004804883747368871
-0.2770134766000192
0.02744240484223004
-0.2694158616281587
0.02452881844618193
0.02753917125421212
-0.2636110847426035
-0.2821924781129232
-0.2668760209145997
-0.2562199899967163
-0.237727681999919
-0.268752928331315
0.07471901647725132
-0.2660313505729462
0.1137482359008068
-0.2633310240748418
0.1594557406955668
0.131764162581899
-0.2467416550350872
-0.2671236837885836
0.06160115778093045
-0.2589640916923641
0.09703022175891862
-0.2383697812873459
0.1322137291859738
0.08770100226357425
-0.1955530096901839
-0.2549967220707879
0.04450327404074972
-0.2327425041385907
0.06637329697180316
-0.1860398204536032
0.07880386232428915
0.03464579208672214
-0.1343521847751128
-0.2018061015728081
-0.1437557791146607
-0.07164477099327282
-0.0347940494696059
-0.2578532474132662
-0.2528982566627506
-0.2410567079012367
-0.04439026722062017
-0.2367758702009179
0.006842386107305365
-0.0007128284193993473
-0.2323942885796833
-0.259171914229306
-0.1913378117668106
-0.2396865732066195
-0.06916880606448633
-0.2357414726858044
0.005500686659718368
-0.001347434317787555
-0.2317518297281659
-0.2311448134063371
-0.09479618359551245
-0.2368195793397329
-0.07151156211524601
-0.2327504886676074
0.004011517162470168
-0.001170433704381579
-0.229892176802998
-0.1309295289874732
-0.2124368958402123
-0.2055105085013122
-0.2037506738188831
-0.2289355748851134
-0.003761369917250179
-0.2263264482147648
-0.005879510130030574
-0.2234466245852569
-0.008231498948095162
-0.008575985383048212
-0.2215384226335734
-0.2288050899635903
-0.003343116951299741
-0.228276861361703
-0.003036451971540233
-0.2278580561340177
-0.005919714910783136
-0.006013191437898635
-0.2280538924891146
-0.2292382554911096
-0.001660467858085379
-0.2304064500382545
-0.0007443484100914666
-0.2316367792159063
-0.001898281781141931
-0.001552130459052004
-0.2339093389110387
-0.2025726003635387
-0.200733097440693
-0.1999189775168181