/*--------------------------------*- C++ -*----------------------------------*\
  =========                 |
  \\      /  F ield         | OpenFOAM: The Open Source CFD Toolbox
   \\    /   O peration     | Website:  https://openfoam.org
    \\  /    A nd           | Version:  11
     \\/     M anipulation  |
\*---------------------------------------------------------------------------*/
FoamFile
{
    format      ascii;
    class       volScalarField;
    location    "0.35923765";
    object      T;
}
// * * * * * * * * * * * * * * * * * * * * * * * * * * * * * * * * * * * * * //

dimensions      [0 0 0 1 0 0 0];

internalField   nonuniform List<scalar> 
880
(
500.0000000000027
500.000000292371
500.0240611891115
503.3408257935531
500.0000000004407
500.0000008570672
500.0298648341262
504.8871630522399
500.0000000016358
500.0000033381324
500.0553422353763
506.7156879452628
500.0000000211684
500.0000146211224
500.1147630419342
509.4284438501263
499.9999999006574
500.000000075423
500.000010166834
500.0001636976959
500.0000671595389
500.0002570992621
500.0016144401336
500.00235663656
500.2633654928705
500.4347042789406
500.7186589867811
500.9607681536169
514.9178739920239
521.11260619315
526.3743228496038
529.0292510712742
500.0004089495422
500.0033847234901
500.0128253573369
500.0397785875635
500.0227916735388
500.0985673456493
500.2005102075424
500.4220255381275
502.4155918123156
503.6984092261058
505.2861762028073
507.2307528768047
531.2573618371099
533.8984498481439
534.3926303731091
533.1640441015034
522.8401991044919
517.6389035223476
515.4439739144573
513.9695342402209
511.0475493050806
512.6642193861251
513.577982314507
513.7075965472914
501.1772477776593
502.0603256077075
503.0083402640852
503.7666080442797
500.1411482227808
500.3406023606992
500.6412609136993
501.0639281133579
501.5574570233372
502.0499115796898
502.5356264392421
502.8872717144428
504.392865306272
504.7490440979295
504.9505012753609
504.9006086355314
513.0679261406613
512.1692537874229
510.9866242049468
509.749123698017
512.221926783494
511.0323223132282
510.2808453098324
509.5129733077104
508.9400208314092
508.8784231317338
504.7598082259541
503.0953424259279
519.1989880615032
508.0402942447307
504.3860469992907
503.0561144020978
571.3192998647811
510.4334095855178
503.9292206748401
502.6034699001841
620.3442919230138
523.8958857734367
504.7805430561559
502.4449121268119
502.396604710235
506.0674799594456
539.6775813775616
637.4094154893691
501.5159037905693
508.5904349780146
556.3032171424028
635.1892946977185
501.8918891140635
514.4423847080623
576.6108550818271
636.1938110728154
503.3247001654469
524.8677142214025
594.7481577017804
633.4376935636407
628.3166242838997
604.8054485616314
539.8160789332047
506.4865955922697
621.8128813946537
607.4544123536004
554.9984627266886
512.1641957512406
614.4984954872826
605.2838571750381
566.9950268890499
521.1594316592088
606.6427060715017
594.258665877644
569.0869530159275
532.090000133949
541.292472075238
563.599384592766
579.7591173699655
597.1535896637143
539.8331559830295
552.0560054205289
562.8276622850333
582.2093852356641
535.8355320731757
540.3215199398857
544.510496734712
560.5778203791349
530.6374020912311
529.8356156100862
525.3121969728957
530.4062229574054
526.7524949461528
520.4505202576036
508.4950926826985
495.5316042555343
520.5912500968789
511.2780198714198
491.9680401783091
459.8349906419032
515.7630882095456
506.017262817545
477.929900240781
425.1206089167574
511.5883135420884
504.5831795937758
477.6776077766381
399.8655676539043
410.5393642419898
486.8257496520775
503.2609464393169
507.7684535604718
477.939302754865
493.0368077854164
502.4041457284237
505.1698670017473
517.2608483933586
495.7343387023952
500.8734580052463
503.3599415020836
530.1718770560296
500.4058406708976
500.2272386595707
502.2905520590554
539.0028996939586
504.3268956423045
498.9655173403536
500.3929678468015
533.79389292339
504.2973528950606
497.6634740815192
499.2219105008087
525.7954477352611
503.4850391353168
497.2753624013854
499.1942324384256
517.7073931648615
499.1156721222854
497.0793840010966
499.4038890786565
479.7740385559467
469.4022020042793
488.9353141797358
498.6805212617865
474.2562125055932
471.2941963826448
489.4244705531016
498.6803636069893
465.2309010085456
473.4182092132037
490.3268131461907
498.694537895034
459.5028352444701
476.2500850644835
491.3789954307274
498.7838855166283
517.7073931649048
499.1156721218606
497.0793840013331
499.4038890783789
525.7954477352739
503.485039134583
497.2753624011849
499.1942324373037
533.7938929233928
504.2973528944516
497.6634740803675
499.2219104999966
539.0028996940736
504.3268956412124
498.9655173401035
500.3929678463886
507.7684535606924
503.2609464398033
486.8257496521588
410.5393642410052
505.1698670015623
502.4041457284853
493.0368077855894
477.9393027537073
503.3599415022136
500.8734580057155
495.7343387015612
517.2608483932477
502.2905520590949
500.2272386600473
500.405840670298
530.1718770563671
399.865567657563
477.677607776869
504.5831795941841
511.5883135423538
425.1206089166749
477.9299002405994
506.0172628180162
515.7630882092603
459.8349906417369
491.9680401794319
511.2780198716182
520.5912500971846
495.5316042560501
508.4950926824408
520.4505202567967
526.7524949463317
541.2924720752039
563.5993845933732
579.7591173705957
597.1535896642183
539.8331559825551
552.0560054201937
562.8276622852939
582.2093852362841
535.8355320723801
540.321519939613
544.5104967347304
560.5778203794805
530.6374020910361
529.8356156095922
525.312196972487
530.406222957852
606.6427060719041
594.2586658781912
569.0869530162184
532.0900001348783
614.4984954878508
605.2838571755825
566.9950268891585
521.1594316591083
621.8128813951801
607.4544123541101
554.9984627263677
512.1641957513664
628.316624284414
604.805448562012
539.8160789336495
506.4865955921024
502.3966047099611
506.0674799593234
539.6775813774487
637.4094154896577
501.515903791248
508.5904349783428
556.3032171425086
635.1892946979989
501.8918891150095
514.4423847092562
576.6108550823795
636.1938110729218
503.3247001654529
524.867714221409
594.7481577024721
633.4376935637652
502.4449121266476
502.6034698999227
503.0561144027055
503.0953424260741
504.7805430554526
503.9292206744773
504.3860469995644
504.7598082257341
523.8958857726672
510.4334095853926
508.0402942440705
508.8784231315843
620.3442919231321
571.3192998643747
519.198988061734
508.9400208312854
502.8872717149704
504.9006086359489
509.7491236983844
509.5129733079289
502.5356264390434
504.9505012756334
510.9866242049088
510.2808453099009
502.0499115796819
504.7490440981291
512.1692537877159
511.032322312591
501.5574570229148
504.3928653059044
513.0679261407244
512.2219267837095
500.1411482221494
501.1772477772678
511.0475493053335
522.8401991047449
500.3406023602019
502.0603256073666
512.6642193865265
517.6389035222304
500.6412609143287
503.0083402634651
513.5779823149635
515.4439739135129
501.0639281129592
503.7666080442531
513.7075965473242
513.9695342397645
533.16404410154
507.2307528771242
500.4220255381005
500.0397785877644
534.3926303732106
505.2861762029537
500.2005102072157
500.0128253571949
533.8984498483833
503.6984092259326
500.098567344419
500.0033847232894
531.2573618373456
502.4155918118453
500.0227916731583
500.0004089498896
529.0292510710049
500.9607681540303
500.0023566367247
500.000163698387
526.3743228491136
500.7186589868164
500.0016144400023
500.0000101673268
521.1126061925282
500.4347042788843
500.0002570991421
500.0000000750825
514.9178739915853
500.2633654926421
500.0000671586485
499.999999901189
500.0000000001753
500.0000002925185
500.0240611890414
503.3408257933187
500.0000000005271
500.0000008567644
500.0298648343525
504.8871630520124
500.0000000018922
500.0000033379117
500.0553422353852
506.7156879457468
500.0000000219067
500.0000146209185
500.1147630420234
509.4284438504554
506.2254707704126
508.9279075009362
513.2492550462006
521.8956217440559
508.9279075013445
512.3868089651578
518.7555971042898
531.3321542043311
513.2492550464819
518.7555971043212
528.8806618928671
544.0769031954727
521.8956217441647
531.3321542040876
544.0769031960541
560.2595882200943
577.2416787817355
564.2360032398725
557.3545351279224
544.949937925864
575.4561910857282
571.5456994828927
570.331506181305
564.6289296192173
575.3922186536138
574.3217929399459
573.7614280869496
572.0574117810771
571.9799994620574
571.5451067812559
571.6840210409838
570.9797386437405
567.8989053263178
565.5535637337855
560.4613025108539
553.2864537987922
567.5583769939403
565.1532718318575
560.2395143785992
553.9644333102566
567.5747742845101
564.9925178118233
559.9824207968431
554.5583660312507
567.6371047901288
564.7359176328741
560.1860007875982
550.9724923968259
512.3813504880475
492.8098706178906
489.9499050058184
490.4502761943239
501.826452477447
488.7084125069678
489.9704383542873
491.0967216198782
491.579795726118
488.8777816363722
491.559306580642
492.837355150313
469.9266901927695
484.123322827996
489.9012591726071
491.5987050774935
490.7931319291836
491.8104399866695
493.3327017039618
494.8469639802231
491.0038419590123
491.4807377934767
492.8626621263734
494.8615551273415
492.316365753427
492.3385536565971
493.2672636292077
494.7356641146313
491.2482335974387
491.4194257229899
492.7257938711055
494.8403499216883
505.0246789657201
567.6807369077754
639.3627137461051
664.5436005129754
510.9455546960706
581.1669663411357
642.0086056151096
660.2513655122987
516.4249069349098
589.4979669189312
641.978668565018
660.9496766464747
520.2341748364956
597.7656822579219
642.1831161890109
661.3627222445253
694.3007981667224
681.4451221459149
670.1395824649612
656.8747008912929
702.7509378089733
690.0066681459945
676.8979630541446
662.5489235042518
708.7285705669613
697.4716869942118
683.01483117825
668.0403647549517
706.6523526582483
701.2937789884626
687.1939307081441
671.8349398371616
643.6156000545874
633.0266729949705
623.2180401568374
618.9683040570914
648.7139971503751
637.1070472297943
625.9493733065484
621.067742821348
653.8774859993208
640.617365864919
629.5057160685603
623.1776489744307
658.2962269121216
643.6920168488062
632.9965278703655
625.598367528074
615.0674089736219
607.6462322579687
590.9805351420815
565.0079448013099
616.8448764488851
609.2347828084502
593.7783597178143
592.6504263220642
617.8390411308059
610.1546043516263
602.7703178172599
620.4155951191494
619.7335065722365
614.0058347552081
616.3505824612208
603.9811588111345
522.5289411415891
460.1972849422951
422.6695426049889
426.5807188613563
512.0670663120111
421.9835231206135
305.5297249402899
252.9726603516952
468.7317613083937
368.1013167469939
252.1786435068323
231.853961968912
368.0076188961288
282.5858543744636
227.8297951976255
239.5910705786482
376.1337011625987
403.925344425189
471.087086027551
522.9239979462196
306.4936522726436
380.3602824483077
441.8186088143593
491.7073877007454
291.6670643278783
350.9018178834459
404.401528885921
445.1315260259784
298.9376162331851
351.4329595866409
402.1240654724175
431.1506028923761
487.0606470382453
510.3457980126183
509.2799186996102
509.6874683427178
435.7733633722049
473.9286552693778
492.6752420000815
510.5676311565116
407.3533672304873
432.9142356045845
470.5547699794096
514.1746835601061
392.4923226565875
408.2738036699549
445.0625608718207
512.9334804544178
491.826537034168
470.6136172694883
459.3928686178178
459.703712913098
495.1787416317963
486.0223573312423
482.0173021038603
475.8954221135125
504.2374162582268
507.4085425928902
501.6103051192904
488.6176007702009
503.6020432576674
508.6045098057134
498.724987328268
484.0919578835936
465.9309880867573
450.6270399734259
442.2369358239376
439.8951927183947
471.5288567426003
455.6883951823133
444.4200676779455
441.0561853357371
469.7953519413063
461.2954291358552
452.6145816478344
448.9981170946601
462.8009796973118
460.2202057894236
455.4790635134434
452.344435516584
439.8951927183588
441.0561853357032
448.9981170946842
452.3444355166772
442.2369358237924
444.4200676778017
452.6145816478357
455.4790635136897
450.6270399731326
455.6883951820487
461.2954291357228
460.2202057896192
465.930988086302
471.5288567424125
469.7953519411571
462.8009796974845
459.703712913198
459.3928686178066
470.613617269779
491.8265370343568
475.895422113553
482.0173021039549
486.0223573315761
495.1787416319883
488.6176007699582
501.6103051190543
507.4085425930286
504.2374162582913
484.0919578833291
498.7249873281791
508.6045098055895
503.6020432576352
512.933480454531
445.0625608722337
408.2738036705661
392.4923226571959
514.1746835602091
470.5547699799081
432.9142356051751
407.3533672312237
510.5676311566808
492.6752420004362
473.928655269923
435.7733633730933
509.6874683428539
509.2799186998019
510.345798013177
487.0606470388084
522.9239979460056
471.0870860275047
403.9253444236842
376.1337011720286
491.7073877007296
441.8186088146174
380.3602824476619
306.493652273204
445.1315260262729
404.4015288866043
350.9018178829899
291.6670643277351
431.1506028927612
402.1240654729014
351.432959587031
298.9376162335192
426.5807188833662
422.6695426069391
460.1972849421153
522.5289411416189
252.9726603557683
305.5297249400591
421.9835231199058
512.0670663126029
231.853961969347
252.1786435064056
368.1013167479186
468.7317613092211
239.5910705787225
227.8297951969398
282.5858543750483
368.0076188969455
565.0079448016811
590.9805351424736
607.6462322585329
615.0674089738339
592.6504263223819
593.7783597179987
609.2347828086904
616.844876449458
620.4155951197168
602.7703178172668
610.1546043512922
617.8390411310248
603.9811588122056
616.3505824611507
614.005834754899
619.7335065724968
618.9683040577526
623.2180401571728
633.0266729947352
643.6156000546667
621.0677428219026
625.9493733065096
637.1070472296158
648.7139971501944
623.1776489745428
629.5057160688228
640.6173658644647
653.8774859988479
625.5983675285379
632.9965278705239
643.6920168485493
658.2962269120812
656.8747008912142
670.1395824644451
681.4451221454989
694.3007981663359
662.5489235041607
676.8979630540503
690.0066681456844
702.7509378083428
668.0403647544575
683.0148311778667
697.4716869933793
708.7285705672231
671.834939836742
687.1939307079289
701.29377898853
706.6523526574363
664.5436005129601
639.3627137458409
567.6807369077327
505.0246789661716
660.2513655121543
642.0086056148284
581.1669663410398
510.9455546966322
660.9496766462437
641.978668564679
589.4979669187251
516.4249069354793
661.3627222450459
642.1831161886751
597.7656822576978
520.2341748370583
494.8469639808754
493.3327017038457
491.8104399859333
490.7931319285032
494.8615551279894
492.8626621262663
491.4807377925114
491.0038419585983
494.7356641152712
493.2672636289461
492.3385536556073
492.3163657528981
494.8403499223265
492.7257938707431
491.4194257219368
491.2482335964949
490.4502761935315
489.949905005194
492.8098706183135
512.3813504884142
491.0967216191223
489.9704383534408
488.7084125074912
501.8264524777356
492.837355149539
491.5593065796675
488.8777816368259
491.5797957263317
491.5987050766841
489.9012591714423
484.1233228283685
469.9266901929903
553.2864537989152
560.4613025109927
565.5535637345693
567.8989053260975
553.9644333106071
560.2395143786042
565.1532718325502
567.5583769936438
554.5583660308615
559.982420796731
564.9925178124404
567.5747742842152
550.9724923967594
560.1860007877096
564.7359176329087
567.6371047899029
570.9797386428401
572.0574117800228
564.6289296182041
544.9499379259869
571.6840210400545
573.7614280853088
570.3315061795593
557.354535127447
571.5451067801565
574.3217929381866
571.5456994799667
564.2360032380849
571.9799994610861
575.3922186517576
575.4561910822947
577.2416787780535
505.1317892731372
497.2539406818332
496.8135650689853
499.4842119856675
485.4159278241102
492.0362579917785
495.3926348282819
499.3453950192459
470.3696750659599
486.3990138810576
493.9791047332896
499.1480274700903
460.1373845151364
480.4284584725522
492.4954772596624
498.9410607037765
498.6805212613077
488.9353141798088
469.4022020041596
479.7740385560232
498.680363606589
489.424470553235
471.2941963824007
474.2562125059414
498.6945378949267
490.3268131466032
473.4182092128058
465.2309010088744
498.7838855165467
491.3789954310495
476.2500850641983
459.5028352446332
498.9410607032877
499.1480274700304
499.3453950192217
499.4842119856494
492.4954772594053
493.9791047330954
495.3926348276186
496.81356506862
480.4284584728288
486.3990138813293
492.0362579923546
497.2539406822552
460.137384514964
470.3696750656998
485.4159278241185
505.1317892731815
)
;

boundaryField
{
    back
    {
        type            empty;
    }
    inlet
    {
        type            zeroGradient;
    }
    front
    {
        type            empty;
    }
    top
    {
        type            zeroGradient;
    }
    outlet
    {
        type            fixedValue;
        value           uniform 500;
    }
    bottom
    {
        type            zeroGradient;
    }
    wall
    {
        type            zeroGradient;
    }
}


// ************************************************************************* //
