/*--------------------------------*- C++ -*----------------------------------*\
  =========                 |
  \\      /  F ield         | OpenFOAM: The Open Source CFD Toolbox
   \\    /   O peration     | Website:  https://openfoam.org
    \\  /    A nd           | Version:  11
     \\/     M anipulation  |
\*---------------------------------------------------------------------------*/
FoamFile
{
    format      ascii;
    class       volScalarField;
    location    "0.22";
    object      Ma;
}
// * * * * * * * * * * * * * * * * * * * * * * * * * * * * * * * * * * * * * //

dimensions      [0 0 0 0 0 0 0];

internalField   nonuniform List<scalar> 
880
(
1.11801663592382
1.11801663589214
1.118009998843337
1.115116385139705
1.11801663592382
1.118016635371128
1.118001435607237
1.112876409011786
1.118016635923656
1.118016635532342
1.117971692412806
1.109177443480541
1.118016635923877
1.118016636944433
1.117874179033652
1.095465822660279
1.118016635938867
1.118016635887682
1.118016636731131
1.118016463061049
1.118016650045976
1.118016457952091
1.118014787118846
1.118018512794589
1.11753109823747
1.1170786657023
1.116406404076242
1.117007261835365
1.063254573182265
1.031952963610141
1.016064713505891
1.011730433864055
1.118016248128194
1.118014495880482
1.118008536333291
1.117993378485304
1.117976911683833
1.117901498549043
1.117757760395078
1.117623725204752
1.112773238844766
1.108784234381242
1.104419874363994
1.10113479324631
1.009122818420898
0.999939514297238
1.0026324456174
1.012220086193751
1.065579644143389
1.093408583325544
1.104330453550684
1.114211934693221
1.09109308783185
1.091606662300934
1.095000319962342
1.101320201500595
1.11649925032808
1.115186742422843
1.114133682050127
1.113845057761781
1.117916951637616
1.117762194126048
1.117544502058913
1.117318069231906
1.117028327420557
1.116835833760064
1.11678032888313
1.116845154585308
1.114629232238514
1.116304539345187
1.11817442752399
1.119281847525422
1.108906953535769
1.116400211056759
1.122739727146617
1.126935723538299
1.1227674479315
1.12978484377926
1.13625188273722
1.143386268294052
1.149226512378725
1.129387379803012
1.119898225756881
1.116996747598889
1.147570747567749
1.130246270794625
1.120168949723001
1.117205526066668
1.105963639141387
1.130027417469328
1.12044068780506
1.117484079963055
0.8968118330955341
1.114101204369721
1.119688045714457
1.117735116839365
1.117875653095187
1.118107621877489
1.077412982602838
0.683877643516382
1.117885613440248
1.116635993492108
1.044661867579684
0.6858796349448671
1.117801211514128
1.113885239932662
1.000294727219516
0.6724710430785998
1.117434207182803
1.109501929972728
0.9594042028701901
0.6825342918648454
0.7034404787255066
0.9208881416622675
1.101100216031877
1.116791074712659
0.7224500990347007
0.8928287262705069
1.089714649001716
1.115365913041143
0.7486833723237665
0.8819625932001295
1.073092107235249
1.11322923993291
0.782042143349553
0.8855788269972042
1.057513922967165
1.109413960870133
1.104359116878198
1.043843371048544
0.9252025598158595
0.8382528766597334
1.100914995906552
1.071412520736102
0.9949749047399018
0.9165548009016503
1.108633334545425
1.098565834757222
1.077759562095997
1.024789031724637
1.103643247406169
1.114774452509059
1.137066818958967
1.145948042978523
1.105743089742258
1.130042129339238
1.196361190634213
1.337241754412162
1.110085416140486
1.149337860985404
1.229976660283388
1.516392379010413
1.115201773209849
1.151446675313987
1.229261254644209
1.544917582978526
1.118802170958016
1.141709812069586
1.206438377295042
1.274628166601043
1.062839305236776
1.18320142527882
1.134561500653977
1.119710639898264
0.9345027304788308
1.150439351555548
1.127367857026814
1.118865771856187
0.8274475498064039
1.112174949670433
1.121130241480832
1.118356735838739
0.6963895983477727
1.073776642665897
1.115692847618818
1.118146154836433
0.7051934230613445
1.053172996175293
1.112526466311656
1.117949007315352
0.7788893041518262
1.050789532723572
1.112510578085572
1.117929995121578
0.8094606936546688
1.060938722489071
1.11421557369896
1.117968601625531
0.9030798028061273
1.081637445978713
1.116610284989416
1.118000300844883
0.8854198805992727
1.075027923040989
1.114333671249899
1.117891131741848
0.8749571769086169
1.072722152386126
1.114276657270734
1.117900616411606
0.8547423834826361
1.068181458132827
1.114061785389035
1.117909688150732
0.8406819143010252
1.06555139908405
1.113932347309121
1.117918224045581
0.9030798028066943
1.081637445980264
1.116610284991636
1.118000300847293
0.8094606936547171
1.060938722490447
1.114215573699676
1.117968601626748
0.7788893041517135
1.050789532724618
1.112510578086096
1.11792999512224
0.7051934230599176
1.05317299617643
1.112526466311766
1.117949007315539
1.119710639897557
1.13456150065343
1.183201425278738
1.06283930523582
1.118865771856191
1.127367857026482
1.150439351555414
0.9345027304771819
1.118356735838007
1.121130241480452
1.112174949671958
0.8274475498050562
1.118146154835932
1.115692847617747
1.073776642667178
0.6963895983464248
1.274628166600103
1.206438377294872
1.141709812069859
1.118802170957823
1.544917582979511
1.229261254644579
1.151446675312967
1.115201773210209
1.516392379011821
1.229976660283411
1.149337860984445
1.110085416141036
1.3372417544122
1.196361190634903
1.130042129340049
1.105743089744111
1.104359116878421
1.043843371045685
0.9252025598135869
0.8382528766598585
1.100914995906471
1.071412520735188
0.9949749047388752
0.916554800901708
1.108633334545779
1.09856583475511
1.07775956209613
1.024789031725056
1.103643247402802
1.114774452510321
1.137066818958848
1.145948042978606
0.7820421433495502
0.8855788269970714
1.057513922968051
1.109413960866331
0.74868337232347
0.8819625931999977
1.073092107235389
1.113229239932496
0.7224500990345833
0.8928287262692568
1.089714649005288
1.115365913039114
0.7034404787259916
0.9208881416617196
1.101100216026406
1.116791074713075
1.117875653094922
1.118107621876973
1.077412982602774
0.6838776435164801
1.117885613438152
1.116635993491734
1.044661867581146
0.6858796349465374
1.117801211511577
1.113885239928025
1.000294727217294
0.6724710430776711
1.117434207181179
1.109501929979015
0.9594042028722549
0.6825342918652161
1.117735116839328
1.117484079963366
1.117205526065262
1.116996747598654
1.119688045717205
1.120440687805753
1.120168949723572
1.119898225757031
1.11410120437097
1.130027417469063
1.13024627079572
1.129387379803726
0.8968118330963921
1.105963639141264
1.147570747567612
1.149226512378694
1.116845154584409
1.119281847524913
1.12693572353791
1.143386268293506
1.116780328883655
1.118174427523856
1.122739727146146
1.136251882737074
1.116835833760718
1.116304539345143
1.116400211057759
1.129784843780915
1.117028327423166
1.114629232236622
1.108906953536627
1.122767447931621
1.117916951635996
1.116499250328441
1.091093087829695
1.065579644142969
1.11776219412312
1.11518674242251
1.091606662300085
1.093408583325586
1.117544502059531
1.114133682046679
1.095000319963733
1.104330453552334
1.117318069236635
1.113845057757458
1.101320201501712
1.114211934693908
1.012220086194793
1.101134793245451
1.117623725204374
1.117993378473139
1.002632445617145
1.104419874365003
1.11775776039668
1.118008536352908
0.9999395142970035
1.108784234380706
1.117901498544588
1.118014495895132
1.009122818420991
1.112773238843183
1.117976911681823
1.118016248124175
1.011730433864948
1.117007261834881
1.118018512794083
1.118016463058163
1.016064713506592
1.116406404077586
1.118014787120966
1.118016636730871
1.03195296361053
1.117078665702883
1.118016457952985
1.118016635887826
1.063254573182582
1.117531098237886
1.118016650046023
1.11801663593804
1.118016635923821
1.118016635892094
1.118009998843017
1.115116385124912
1.118016635923821
1.118016635371708
1.118001435607146
1.11287640900837
1.11801663592349
1.11801663553257
1.117971692412834
1.109177443480114
1.118016635923906
1.118016636945606
1.117874179034047
1.095465822660683
1.11240414517282
1.108116666073176
1.097383068191257
1.059689172668117
1.108116666078158
1.100294513452095
1.075146547735419
1.010249947697451
1.09738306819433
1.075146547737662
1.016269671817118
0.9145561951978914
1.059689172668064
1.010249947697704
0.9145561951977438
0.799098965474507
0.7653534362774022
0.8076635145258172
0.8866955221059313
0.9604391550419901
0.8215175134210418
0.8292749694412193
0.8632308333995212
0.9131742197814618
0.8243330533306512
0.8521258666060785
0.8854670951933097
0.9133690477413836
0.8550047863249517
0.8836208202625173
0.9077085886742005
0.9239658466140336
0.9414803423341934
0.9472110321317108
0.9603423885364377
0.9875246543367922
0.9323624443240506
0.9449763269130717
0.9593885003691627
1.009379984344344
0.9155290683742365
0.935964103945668
0.953793700909168
1.07091171090188
0.8823297178950746
0.9073812135768254
0.9318081500757349
1.158114362490101
1.165633411991681
1.19903825599189
1.165644831135756
1.155124052115868
1.278917264938209
1.292716312599713
1.234771426759187
1.200934123331316
1.433643301409142
1.350347366209885
1.276178550107216
1.229435525726673
1.178923262875345
1.092084643048067
1.066701324162329
1.054125140997734
1.151051672321633
1.148476605383767
1.146938939169822
1.14930648140913
1.179849207183911
1.16231637847581
1.152073127378254
1.147986951847157
1.197132941922423
1.168415367620959
1.152317590235542
1.140330307779494
1.043074150138492
1.037066920303399
1.034566522152085
1.029648837138101
1.153637484975084
1.135542607407698
0.9146956834262806
0.6267049492700453
1.150401154030537
1.114381178965042
0.7737203478376683
0.4461639282215178
1.141905957376307
1.077300253288241
0.6202210567734722
0.2419483657925131
1.049656724543361
0.9477655261227219
0.4590747525323128
0.0742361661500929
0.4950006910540791
0.571349896922013
0.6159132807791264
0.6539743141990948
0.4241898358302142
0.5471615561593962
0.6111662397042561
0.651585743768864
0.2889995304313964
0.4690054855776162
0.579881131374821
0.6325519363856196
0.1171185338665343
0.2754788578524933
0.4290002827505951
0.5228287913981896
0.6712754199910256
0.6664591858581753
0.699362440848601
0.7537507061205448
0.6733208933492597
0.6781888905327659
0.7067906101032175
0.7479276226865287
0.6626937891892386
0.6807876695296619
0.7087909892491493
0.7474136149730174
0.5789612466148731
0.636819298550636
0.6903508169628839
0.7287532237526491
0.8091435097972283
0.8754841663757477
0.9819197796705451
1.126779024832003
0.8000521556350729
0.870710486304351
0.9711473626520898
1.133046515514245
0.7981528311644936
0.8587669871197203
0.9859047898795552
1.426563496850513
0.7746919703385962
0.8463910161732814
1.01184418526578
1.97454930731258
1.350425841638149
1.557757042408698
0.6246372942338252
0.6135584992806994
1.425146965226803
1.32179728705333
0.6974575433928226
0.9127253682161274
1.453207453306603
0.9705142637426938
0.7059153973879891
0.9485669115046632
1.135117897395052
0.4046339411274144
0.796778762564194
0.9108971338033736
0.4379974059795213
0.2794107010627185
0.1575153659596708
0.1428379102308313
0.7112239387052621
0.4969802740257493
0.327793328052143
0.2038961731473548
0.7956695121115306
0.5932839664118028
0.408781109643286
0.1806336657971255
0.7781660556660359
0.5895119917320949
0.4066570401465011
0.1645830905462522
0.1177443795938391
0.3958038195723926
0.5848250810461555
0.8090060948173543
0.04377535453808372
0.2374344028594343
0.4960393022030042
0.7601112883186582
0.1227840472547969
0.1045128147121739
0.3653920709491986
0.6736387279738409
0.1383859681318741
0.02591732765165352
0.2687986605394622
0.6783815660066068
0.8729775033019718
0.8326078967881718
0.7245500064088836
0.582563891211149
0.9612408531913261
0.9607625005243712
0.7715212090735227
0.5846528034006454
0.96765860787217
0.9252124322981625
0.6321848280286424
0.3837076277278575
0.9873412947966765
0.6933097159575596
0.2970063867733469
0.09410828601707004
0.006201328113346518
0.04141457813861662
0.05646618377756273
0.05759023075955551
0.1851607721025501
0.1081368359646674
0.08257749693848121
0.06573838249370874
0.3993139235557653
0.2811206484494946
0.1730258753761923
0.06292149364819026
0.4291331984936133
0.3349140049813092
0.2702973922851631
0.2438656912415727
0.05759023075954667
0.06573838249380418
0.06292149364795574
0.2438656912411068
0.05646618377751412
0.08257749693855054
0.1730258753760402
0.2702973922855172
0.04141457813850421
0.1081368359645612
0.2811206484494958
0.3349140049821751
0.006201328113379509
0.1851607721025348
0.3993139235559032
0.4291331984941573
0.582563891211102
0.7245500064086601
0.832607896787907
0.8729775033016756
0.5846528034004229
0.7715212090729358
0.9607625005235165
0.9612408531908873
0.3837076277275713
0.6321848280280357
0.9252124322971744
0.9676586078716891
0.09410828601693452
0.2970063867729246
0.6933097159565601
0.9873412947959418
0.6783815660062688
0.2687986605393902
0.0259173276512641
0.1383859681308905
0.6736387279734989
0.3653920709486803
0.1045128147116021
0.1227840472543123
0.7601112883183184
0.4960393022023508
0.2374344028581417
0.0437753545389226
0.8090060948170236
0.5848250810455793
0.3958038195707589
0.1177443795913637
0.1428379102319611
0.1575153659616959
0.2794107010658095
0.437997405982757
0.2038961731466555
0.3277933280526366
0.4969802740274895
0.7112239387085996
0.1806336657963759
0.4087811096427464
0.5932839664125219
0.7956695121141635
0.1645830905454506
0.4066570401457861
0.589511991732278
0.7781660556681775
0.6135584992843578
0.6246372942294677
1.55775704240637
1.350425841638057
0.9127253682204072
0.6974575433971978
1.321797287051314
1.425146965226663
0.9485669115081814
0.7059153973925206
0.9705142637406368
1.45320745330643
0.9108971338071929
0.7967787625688408
0.4046339411270323
1.135117897395875
1.126779024832078
0.9819197796710746
0.8754841663758256
0.8091435097975964
1.133046515514152
0.971147362652262
0.8707104863045556
0.8000521556353024
1.426563496850116
0.9859047898797196
0.858766987120034
0.7981528311646148
1.974549307311794
1.01184418526597
0.8463910161736202
0.7746919703389186
0.7537507061211992
0.6993624408494605
0.6664591858576931
0.6712754199906034
0.7479276226866826
0.7067906101033848
0.6781888905321766
0.6733208933481565
0.7474136149730873
0.7087909892491253
0.680787669529284
0.6626937891878513
0.7287532237527575
0.6903508169630909
0.6368192985505918
0.57896124661188
0.6539743141994215
0.6159132807797034
0.5713498969227696
0.4950006910545647
0.6515857437690801
0.6111662397049118
0.5471615561600358
0.4241898358308275
0.6325519363854929
0.5798811313755412
0.4690054855783212
0.2889995304320332
0.5228287913965298
0.4290002827512622
0.2754788578532869
0.1171185338668046
0.6267049492709519
0.9146956834268976
1.13554260740771
1.153637484974882
0.4461639282226125
0.7737203478384825
1.114381178965193
1.150401154030228
0.2419483657931842
0.6202210567742387
1.077300253288435
1.141905957375895
0.07423616615022169
0.4590747525327504
0.9477655261230326
1.04965672454285
1.149306481408236
1.146938939169785
1.148476605385214
1.151051672321425
1.14798695184611
1.152073127378378
1.1623163784771
1.179849207183746
1.140330307778247
1.152317590235845
1.168415367622163
1.197132941922274
1.029648837136456
1.034566522152253
1.037066920304547
1.04307415013801
1.155124052116757
1.165644831137093
1.199038255991977
1.165633411991563
1.200934123332437
1.23477142676049
1.292716312599743
1.278917264937824
1.229435525728056
1.276178550108572
1.350347366209631
1.43364330140829
1.054125140999096
1.066701324164404
1.092084643048097
1.178923262873191
0.9875246543374566
0.9603423885349347
0.9472110321318464
0.9414803423345171
1.00937998434424
0.9593885003684521
0.9449763269129567
0.9323624443242565
1.07091171090152
0.9537937009083606
0.9359641039454394
0.9155290683746429
1.158114362489779
0.9318081500758143
0.9073812135782355
0.8823297178978555
0.9239658466152678
0.9133690477417237
0.9131742197816449
0.9604391550420527
0.9077085886748351
0.8854670951932463
0.8632308333997534
0.8866955221062629
0.8836208202631456
0.852125866606166
0.8292749694413017
0.8076635145265668
0.8550047863279795
0.82433305333324
0.8215175134208995
0.7653534362782989
0.8852467395168016
1.07345178465837
1.115365094389245
1.117979142948977
0.8849470866236611
1.068380358506619
1.114479942439787
1.117946976673557
0.8798277566701229
1.067766186018504
1.114119083179258
1.117932003859893
0.8497837760082236
1.065880201049094
1.113956824639631
1.117925339221168
1.117891131741205
1.11433367124918
1.075027923040959
0.8854198805980658
1.117900616411414
1.114276657270576
1.072722152385913
0.8749571769094903
1.117909688150549
1.114061785390417
1.068181458132283
0.8547423834839822
1.117918224045659
1.11393234731018
1.065551399083656
0.840681914301409
1.117925339221743
1.117932003859306
1.117946976673281
1.117979142950383
1.113956824640657
1.114119083179253
1.114479942439325
1.115365094389638
1.065880201049248
1.067766186018791
1.068380358507041
1.073451784659188
0.8497837760079382
0.8798277566699322
0.8849470866234679
0.8852467395169388
)
;

boundaryField
{
    back
    {
        type            empty;
    }
    inlet
    {
        type            calculated;
        value           nonuniform List<scalar> 
16
(
1.11801663592382
1.11801663592382
1.118016635923656
1.118016635923696
1.118016635928802
1.118016635923113
1.118016636494007
1.118016606572755
1.118016606572628
1.118016636493969
1.118016635923142
1.118016635928718
1.11801663592382
1.118016635923821
1.11801663592349
1.118016635923776
)
;
    }
    front
    {
        type            empty;
    }
    top
    {
        type            calculated;
        value           uniform 0;
    }
    outlet
    {
        type            calculated;
        value           nonuniform List<scalar> 
16
(
1.117839280943453
1.117858575494861
1.117876010863785
1.117888564602355
1.117967688847931
1.117927315936714
1.117907671983529
1.117898514361754
1.117839280942764
1.117858575494622
1.117876010863735
1.11788856460253
1.117898514362215
1.117907671982857
1.117927315936543
1.117967688849405
)
;
    }
    bottom
    {
        type            calculated;
        value           uniform 0;
    }
    wall
    {
        type            calculated;
        value           uniform 0;
    }
}


// ************************************************************************* //
