/*--------------------------------*- C++ -*----------------------------------*\
  =========                 |
  \\      /  F ield         | OpenFOAM: The Open Source CFD Toolbox
   \\    /   O peration     | Website:  https://openfoam.org
    \\  /    A nd           | Version:  11
     \\/     M anipulation  |
\*---------------------------------------------------------------------------*/
FoamFile
{
    format      ascii;
    class       volScalarField;
    location    "9.15";
    object      p;
}
// * * * * * * * * * * * * * * * * * * * * * * * * * * * * * * * * * * * * * //

dimensions      [0 2 -2 0 0 0 0];

internalField   nonuniform List<scalar> 
4455
(
5701.9685
5712.4505
5733.4418
5764.4723
5807.1733
5861.9929
5939.5947
6040.1927
6189.2506
5666.3696
5680.5112
5704.6657
5739.4497
5784.6658
5841.1733
5924.1478
6032.7331
6228.7307
5626.9966
5644.7356
5673.4022
5711.8561
5758.54
5816.3504
5901.7129
6014.676
6252.0922
5584.4708
5606.8683
5640.3898
5681.4854
5728.7868
5788.5015
5874.5028
5992.8304
6273.2597
5540.1073
5568.1722
5605.3208
5648.6947
5696.8221
5757.3612
5843.4312
5966.1769
6297.6162
5495.4887
5528.4355
5568.9383
5614.4236
5662.6863
5724.3123
5810.0032
5932.2838
6320.1959
5451.2811
5488.5687
5532.1393
5578.5712
5626.8333
5689.75
5774.5664
5892.1862
6339.135
5408.568
5449.2025
5495.0635
5541.8618
5590.1814
5654.3752
5737.5964
5844.0164
6352.6374
5368.0481
5410.9776
5457.8647
5505.086
5553.4411
5618.1509
5700.895
5789.6153
6349.4315
5330.1124
5295.3168
5264.2651
5237.1133
5213.7102
5194.1433
5178.3378
5166.8382
5160.7244
5374.1135
5338.7462
5305.4278
5274.5764
5246.7397
5221.9131
5200.253
5181.3298
5164.7086
5420.8223
5384.098
5348.9092
5315.7706
5284.3966
5254.7417
5227.6468
5203.2335
5181.9063
5467.636
5429.4185
5392.0527
5355.8579
5320.6601
5286.7193
5253.6961
5220.8423
5186.4284
5515.0829
5474.7609
5434.8622
5395.6764
5357.6855
5321.2214
5288.3353
5259.9628
5234.4753
5579.268
5536.3276
5492.549
5448.1989
5403.2728
5357.8316
5311.1559
5263.908
5210.6613
5661.7492
5618.0224
5573.541
5529.6136
5487.7598
5449.886
5415.0689
5384.0664
5351.7753
5724.1747
5642.7571
5558.7621
5475.0546
5392.2108
5313.3521
5241.7473
5176.2074
5113.1615
6322.6176
6189.6966
5965.1629
5787.4271
5634.9019
5483.0571
5335.668
5200.7543
5075.2937
5160.5398
5158.7451
5153.9462
5147.5728
5139.3331
5130.1316
5118.5988
5105.9698
5090.6378
5154.1811
5145.4957
5135.465
5123.4085
5108.8971
5092.2669
5073.5809
5053.0947
5030.771
5169.3011
5156.954
5142.2067
5126.0076
5108.763
5090.3982
5070.5072
5048.79
5025.0268
5161.734
5144.3938
5127.7867
5110.2432
5090.9126
5069.6653
5046.6708
5022.3168
4996.6789
5216.761
5197.815
5174.8029
5149.815
5124.4946
5098.9693
5072.2824
5044.5122
5014.6579
5170.9068
5143.9927
5121.0033
5097.4687
5071.904
5045.0557
5016.6861
4986.6783
4956.1089
5317.3055
5279.4186
5236.5452
5193.0348
5151.4445
5111.3245
5072.0814
5034.4166
4998.756
5062.8001
5017.7561
4969.4268
4920.4789
4871.1403
4822.0297
4775.5219
4732.4037
4695.7422
4977.9593
4898.3592
4825.1905
4767.8114
4721.3441
4672.0096
4614.0998
4557.883
4521.6339
4511.6184
4502.209
4513.9443
4559.2126
4635.1173
4733.6069
4845.7956
4969.9397
5095.3865
4668.6975
4644.8047
4622.5189
4606.1601
4600.6565
4605.7316
4623.194
4651.8022
4690.5452
4965.9378
4936.093
4908.9039
4885.1924
4865.5874
4850.1192
4838.2342
4830.3777
4827.082
4925.9705
4895.6713
4864.0724
4832.0727
4800.3521
4770.1132
4741.8208
4715.3488
4691.132
4983.5975
4952.6698
4920.9828
4889.1635
4856.4797
4823.2202
4790.1109
4756.1701
4722.5546
4969.9227
4941.1857
4910.5865
4878.0256
4843.1573
4807.9527
4771.727
4734.1613
4695.2217
4999.6781
4973.0315
4944.8581
4915.032
4883.211
4849.5737
4814.3692
4776.912
4737.2886
5006.718
4980.618
4952.461
4922.1218
4889.4888
4854.6419
4817.9943
4778.9348
4737.1904
5070.7636
5045.9334
5020.6863
4995.1787
4969.0778
4941.0267
4910.2784
4876.4184
4839.054
4798.2161
4753.9317
4706.6921
4655.6388
4601.6679
4543.4111
4480.6286
4413.1448
4340.385
4693.2488
4645.6271
4596.0354
4543.3474
4487.2426
4428.1498
4364.8591
4297.9421
4226.6941
4697.0776
4653.0937
4606.8071
4559.3138
4507.0414
4453.1833
4396.7628
4335.3381
4272.0289
4654.6184
4613.1033
4568.9889
4524.1997
4476.4336
4427.13
4375.6642
4320.8926
4262.9328
4689.3602
4655.339
4621.4658
4587.5564
4551.6115
4515.8648
4479.0737
4439.8591
4400.0902
4670.0243
4651.317
4633.7479
4616.3886
4599.626
4583.299
4567.6818
4551.708
4534.6812
4827.4799
4831.0242
4837.806
4847.3663
4859.5228
4874.5056
4892.3649
4912.0768
4931.7505
4739.4178
4793.7065
4852.9825
4917.617
4987.6762
5061.6395
5137.2987
5212.3268
5287.8285
5219.5169
5345.9768
5473.6731
5606.8529
5742.1757
5878.1796
6016.6214
6156.8441
6299.4217
6443.8846
5363.8973
4949.1911
4514.9796
4357.5618
4201.9521
4203.1253
4150.4816
4262.3122
6589.445
5439.2469
4964.5028
4491.3937
4310.1219
4135.5531
4129.7168
4069.5684
4178.2576
6734.0546
5511.2686
4976.7607
4464.6563
4260.5018
4064.9244
4053.5882
3982.9599
4087.792
6877.9017
5578.2606
4984.4372
4430.2962
4205.1553
3989.7943
3969.2933
3890.2033
3990.3135
7014.0948
5637.9686
4985.1747
4389.1515
4143.3926
3905.6229
3878.9822
3791.0129
3885.4663
7143.1642
5688.4028
4978.0944
4340.9969
4075.7356
3814.6826
3783.0616
3685.276
3772.8713
7256.9666
5725.4659
4960.5915
4280.9959
3999.7454
3716.5149
3679.5243
3572.0874
3652.5836
7345.5075
5745.5837
4930.6112
4209.8236
3915.5693
3607.7493
3567.3312
3451.2597
3523.7369
7382.9777
5741.9478
4883.4417
4125.5588
3820.0827
3490.4997
3448.1108
3323.0033
3386.9186
3245.4202
3187.1414
3314.9798
3362.4959
3708.5787
4022.3318
4810.4142
5702.324
7346.4301
3103.8402
3041.7187
3168.7748
3222.9676
3574.0074
3892.7662
4689.6597
5588.0797
7120.2946
2948.2128
2887.678
3009.8969
3069.244
3417.6709
3734.5041
4521.3875
5405.5439
6832.6277
2768.718
2722.2527
2837.3846
2904.1045
3241.7165
3552.8716
4324.0941
5190.1474
6560.1732
2568.695
2545.9457
2654.0797
2722.5798
3048.5176
3351.6094
4104.5734
4958.2539
6291.2656
2359.9267
2359.1208
2461.1639
2528.9096
2840.7284
3134.584
3869.1107
4714.0776
6018.1487
2144.8076
2161.4569
2257.1523
2321.5934
2615.296
2902.1748
3617.3146
4454.1171
5736.8532
1925.9081
1956.3767
2041.7698
2104.821
2379.302
2654.2223
3348.4675
4177.1681
5447.5216
1699.4643
1743.4916
1820.5892
1876.4711
2126.7647
2389.0341
3059.3265
3880.5353
5151.1234
4842.104
3564.0363
2750.6101
2108.9511
1864.7965
1638.6172
1590.1844
1524.3227
1468.9725
4529.0402
3227.3001
2420.453
1810.6144
1587.4096
1392.9033
1352.3916
1300.348
1234.4033
4202.3466
2870.3357
2072.3534
1498.8935
1300.9798
1138.3139
1110.3503
1072.4335
998.0511
3870.8174
2491.2738
1702.9497
1169.9694
1005.0072
877.98692
867.80881
842.40579
757.74905
3519.9503
2089.1175
1316.161
830.86326
701.3743
614.252
621.93994
613.16691
520.68925
3157.3833
1660.8301
910.59696
478.3661
397.36382
349.48037
378.31521
387.04196
291.13533
2764.4326
1204.945
490.12656
119.52621
87.738389
86.8879
140.41348
167.27601
73.696323
2355.2528
721.23452
51.973397
-242.00328
-217.64365
-173.12341
-90.446659
-44.67236
-129.52227
1911.0095
206.9136
-395.05783
-602.38562
-518.20176
-421.92488
-309.95996
-244.76606
-315.57566
-479.27077
-429.85932
-519.22231
-665.0215
-818.65895
-972.4297
-874.9347
-374.90988
1393.9594
-623.81125
-597.95987
-710.76105
-895.30053
-1108.4854
-1341.7005
-1375.6149
-1043.0842
738.31766
-744.27103
-742.41993
-880.17519
-1103.6426
-1379.0594
-1690.5903
-1865.6056
-1744.5352
7.7140828
-830.60338
-860.12141
-1022.9772
-1285.1781
-1618.6893
-2011.3554
-2326.443
-2451.1069
-813.50615
-882.28312
-947.22226
-1138.608
-1436.0574
-1827.8969
-2298.6732
-2748.3695
-3146.9711
-1728.0377
-901.8501
-1009.6868
-1222.8894
-1554.1516
-1994.6971
-2543.5201
-3116.6117
-3791.507
-2765.0409
-892.13932
-1051.3503
-1276.0449
-1642.714
-2123.656
-2739.542
-3415.665
-4346.8686
-3962.9884
-857.69802
-1073.2656
-1296.0078
-1702.8311
-2212.0759
-2882.8951
-3627.4195
-4753.6838
-5343.2025
-798.55983
-1074.8501
-1290.5141
-1741.4179
-2263.641
-2981.4476
-3759.8
-4960.6488
-6622.2823
-738.13136
-1059.1248
-1259.5067
-1769.338
-2313.5585
-3105.6218
-3991.7767
-5182.57
-7874.8136
-671.1757
-1037.0207
-1226.3602
-1815.0008
-2413.0625
-3321.2423
-4421.2443
-5800.0272
-8842.4827
-580.23517
-1010.8091
-1199.4986
-1886.4289
-2556.5423
-3619.8465
-5019.3759
-6613.7161
-9069.0378
-464.50342
-975.16929
-1175.5434
-1955.8074
-2715.6791
-3956.7298
-5665.2854
-7555.8131
-7690.9149
-341.99484
-924.44688
-1141.899
-2020.6617
-2870.6537
-4285.5367
-6301.9996
-8611.5211
-6532.1344
-211.37702
-855.8547
-1089.9927
-2066.2507
-3014.0368
-4611.4602
-6951.8035
-9754.6016
-7986.1867
-80.400819
-772.17542
-1023.6237
-2088.4067
-3131.1258
-4936.1343
-7643.4023
-10626.53
-8581.1194
54.979695
-676.5486
-945.59983
-2091.443
-3246.803
-5249.6753
-8351.8239
-10739.845
-8598.1036
211.69935
-569.14621
-856.76372
-2070.6213
-3343.4604
-5525.1166
-9032.0035
-11194.514
-8910.4525
-9139.341
-11707.763
-9527.9872
-5732.5691
-3421.8725
-2030.6305
-765.82591
-452.78963
386.41881
-9301.7876
-12085.808
-9894.0337
-5866.1188
-3464.131
-1963.9581
-670.64147
-326.52667
548.65461
-9463.3438
-12426.289
-10200.423
-5958.3267
-3474.8457
-1871.8761
-567.36812
-192.45325
689.18763
-9635.9606
-12741.204
-10451.067
-6024.8721
-3457.8443
-1760.6268
-456.44832
-56.946967
809.11675
-9812.7222
-13060.522
-10654.526
-6080.4393
-3423.7905
-1639.5905
-340.68094
75.940055
919.64227
-10004.54
-13299.808
-10811.012
-6132.6133
-3376.5022
-1513.038
-226.25953
203.76077
1024.8409
-10244.12
-13527.136
-10920.377
-6173.5899
-3309.2561
-1385.2208
-113.54256
326.79471
1125.3622
-10594.479
-13663.774
-10977.594
-6198.9775
-3233.743
-1254.9681
-3.6534177
447.03694
1216.5815
-10800.969
-13824.601
-10994.366
-6189.0045
-3136.4903
-1118.8829
103.50932
565.62094
1299.9041
-10820.447
-13847.157
-10654.402
-6021.7298
-2888.3951
-852.97095
290.15851
762.13733
1427.3433
-10869.43
-14288.274
-10324.935
-5687.023
-2457.6495
-483.40506
532.74324
1003.993
1578.6229
-10697.182
-14314.601
-9918.0698
-5232.0872
-1953.3253
-102.21903
758.35418
1237.157
1692.1486
-10307.027
-14289.332
-9454.4734
-4675.3299
-1420.0297
243.6938
953.28575
1443.129
1793.8985
-9880.5657
-14246.471
-8966.2262
-4062.9912
-911.88689
536.19074
1079.4828
1623.8495
1887.3992
-9641.6595
-14152.984
-8481.0921
-3391.8814
-478.07055
728.34716
1173.8821
1787.6551
1995.6432
-9610.7672
-13904.605
-8008.839
-2702.9652
-132.52127
862.30058
1318.5691
1991.9417
2057.566
-9587.4213
-13525.959
-7544.0355
-2014.9917
138.82352
1006.8824
1486.4987
2063.0885
2080.343
-9494.482
-13023.094
-7071.6163
-1387.0175
302.41081
1063.056
1646.9975
2126.625
1962.6431
-10044.545
-9408.8352
-8337.8102
-5010.5639
-4052.4348
-3632.0024
-3294.5065
-2222.33
-167.64802
-10056.718
-9566.365
-8469.5763
-5053.2343
-3728.276
-3236.8135
-2832.4909
-1966.2215
-6.0767886
-10064.309
-9783.2869
-8579.8035
-5061.8753
-3386.9507
-2859.2713
-2377.9655
-1689.2483
170.0968
-10067.463
-9987.5898
-8660.1908
-5032.8798
-3034.3488
-2492.7005
-1945.3068
-1403.5316
358.52026
-10066.998
-10180.082
-8708.7597
-4963.0025
-2680.7836
-2142.2714
-1538.2585
-1118.2435
563.39008
-10062.576
-10359.909
-8733.4905
-4844.3581
-2327.5729
-1808.0325
-1152.9534
-830.90999
782.81159
-10054.928
-10537.176
-8728.9883
-4681.054
-1976.1033
-1476.2896
-781.2407
-529.47529
1016.0197
-10045.577
-10703.349
-8692.5571
-4475.184
-1635.3072
-1145.8806
-421.30824
-215.95554
1262.5646
-10036.515
-10854.976
-8642.8671
-4226.6102
-1309.0775
-828.26543
-82.215894
92.665656
1523.7831
-8871.9382
-3252.1871
-167.56767
923.06088
-2675.5801
-3742.9979
-1731.1907
-704.51032
-338.84321
-8946.7364
-3605.9806
316.30811
1078.3841
-2037.2902
-3374.8873
-1957.1345
-928.16352
-408.12414
-9082.1263
-4015.38
828.81847
1472.9416
-1307.3356
-2865.5241
-2034.3133
-1169.8295
-530.02926
-9301.1802
-4491.2887
1247.9671
1994.2721
-642.02122
-2271.5208
-1954.4353
-1361.4364
-666.33636
-9596.133
-5004.1274
1421.5098
2478.3027
30.6015
-1622.6367
-1733.3839
-1442.1947
-841.16982
-9855.3185
-5442.0635
1423.9873
2935.3164
635.94883
-965.92274
-1391.0377
-1380.2693
-992.44684
-10029.775
-5905.627
1156.1742
3326.3493
1200.7968
-306.10571
-969.35974
-1190.2403
-1025.1764
-10865.626
-6516.4558
446.02657
3452.4887
1722.6542
302.44867
-485.50404
-895.94766
-962.65645
-11510.94
-7227.1261
-537.771
3287.6536
2047.3811
818.69132
-39.356265
-533.88596
-813.58307
386.27344
943.36728
1152.4563
1593.8001
1723.3094
1671.3427
-1505.6855
-7791.3092
-12967.773
249.42809
826.36661
1090.707
1578.2185
1805.3717
1860.8018
-1493.9012
-7666.987
-12868.915
109.65167
695.3398
1016.783
1552.6824
1886.8535
2077.335
-1437.3197
-7638.214
-12724.455
-31.260294
552.68587
926.42023
1512.7603
1960.8872
2284.371
-1375.5139
-7665.1746
-12603.851
-170.65079
399.57154
820.30982
1458.9897
2021.0864
2482.1482
-1313.1755
-7688.5615
-12457.543
-304.31754
239.12088
699.52344
1388.3795
2064.3907
2665.1005
-1222.2691
-7699.0639
-12319.847
-432.13283
75.480128
565.33362
1298.2168
2091.2917
2836.5903
-1125.2543
-7705.4898
-12204.12
-550.7167
-88.796923
418.3134
1195.0039
2101.5126
2971.6855
-1048.4745
-7651.9171
-12034.218
-658.7452
-253.81786
258.19355
1068.5527
2091.524
3065.8978
-948.63632
-7600.6287
-11743.805
-13107.943
-7929.2279
-1368.125
1474.5594
1627.5974
1593.2367
1209.1779
1046.5957
523.53182
-12689.131
-7538.0798
-1115.8134
1265.1944
1531.7899
1571.6574
1258.7026
1134.5546
655.53308
-11922.095
-6693.8011
-901.16206
1094.7826
1458.2539
1544.7513
1296.3426
1208.0798
779.50004
-11001.356
-5630.8774
-782.70768
956.17713
1397.9848
1516.3072
1327.6828
1269.2831
891.24579
-11716.243
-4485.9855
-683.53492
866.84955
1351.2942
1489.9917
1353.9295
1320.0059
990.94094
-14469.245
-3369.793
-522.68018
814.88484
1314.7027
1468.252
1381.4666
1363.6477
1074.379
-14456.571
-2451.2158
-301.26376
798.41043
1285.8781
1450.6869
1411.9803
1401.7003
1147.3855
-11940.463
-1545.8896
-71.022664
810.03086
1262.7478
1435.2139
1444.7962
1438.1788
1215.8938
-10083.588
-942.7762
30.723962
789.71777
1233.3013
1414.9148
1466.6591
1464.291
1302.7796
1757.8303
1768.6895
1652.6446
1420.9639
1055.0735
503.92966
-87.59772
-583.91172
1007.895
1695.9788
1703.0831
1587.6217
1354.4086
963.39342
357.95935
-390.69324
-1224.1106
184.81432
1637.7256
1651.276
1539.5979
1312.1131
907.73822
260.61829
-625.36117
-1842.2353
-778.23737
1595.1781
1609.813
1506.1817
1290.753
888.50593
215.21087
-774.62674
-2384.4021
-1925.7871
1554.4589
1576.3628
1485.5563
1289.4445
900.4715
225.44653
-813.15596
-2777.9947
-3322.3168
1524.4787
1554.9308
1474.6871
1304.8456
941.09539
286.14591
-730.79607
-2967.8299
-4953.7876
1490.61
1532.5418
1471.7503
1330.4504
1006.7494
386.14553
-559.0652
-2895.8889
-6773.0867
1465.7212
1508.371
1471.4029
1360.0179
1089.1742
518.31589
-329.56283
-2513.1469
-8256.069
1395.4432
1487.4751
1473.8717
1390.26
1174.0022
666.24166
-108.96307
-1751.4622
-9180.1065
1649.3439
8.1114485
256.36087
689.00043
1177.4981
1510.5813
1732.8628
1844.8496
1835.9246
2186.3505
544.62994
602.58226
897.95894
1322.8866
1616.7916
1827.7219
1933.654
1920.5303
2675.0093
1059.1633
964.97986
1126.6267
1489.3943
1741.3129
1933.801
2034.0954
2022.1416
3132.1867
1550.9817
1328.7598
1374.8044
1668.2648
1879.9397
2054.0567
2144.4481
2130.3145
3554.3436
2012.3328
1693.885
1635.6804
1863.5073
2030.7101
2185.1397
2264.3801
2252.2166
3953.1231
2448.4482
2049.659
1900.8825
2068.2617
2191.0398
2325.3034
2393.4952
2380.3215
4329.2593
2857.9278
2396.7237
2167.7907
2274.5126
2357.6355
2471.3299
2527.8961
2518.4499
4691.48
3243.7552
2729.8323
2432.255
2485.7611
2530.8897
2623.2408
2666.237
2659.6329
5037.4618
3597.9738
3047.7151
2692.2281
2698.0943
2704.3459
2778.3758
2808.4654
2807.9616
4073.9742
4022.4278
4078.1264
4107.7796
4288.6635
4501.0128
5022.3578
5613.8211
6604.17
3965.8201
3904.9418
3955.2249
3980.0649
4154.9293
4362.1764
4891.7826
5518.3106
6772.124
3836.6125
3782.027
3824.5546
3843.1409
4007.8829
4203.315
4733.4035
5383.3909
6797.1271
3696.6681
3653.4492
3688.302
3697.9366
3848.6936
4026.9393
4553.8264
5203.1222
6700.7446
3551.5427
3519.857
3546.2663
3544.8488
3677.9258
3834.8627
4353.9928
4997.3049
6510.3646
3406.5409
3382.4386
3398.7548
3385.429
3497.3733
3628.9167
4132.4209
4770.0906
6270.1318
3256.672
3240.8914
3246.7635
3220.1308
3307.4359
3411.8126
3889.3595
4516.3963
6001.9261
3107.9546
3097.7595
3091.5616
3051.1506
3108.3762
3181.5151
3627.3363
4235.4254
5695.5011
2956.6963
2953.5008
2934.5706
2878.75
2905.4457
2941.9238
3347.5395
3928.7823
5371.4041
4183.0644
4294.1332
4401.7116
4504.7969
4602.5973
4694.7979
4781.8552
4862.8582
4938.8836
4135.3059
4242.7568
4345.1573
4442.6034
4535.2703
4622.9694
4706.424
4784.4697
4857.8122
4192.7877
4299.9423
4401.6978
4496.2434
4585.6273
4671.7294
4751.8532
4824.3242
4894.7576
4226.3711
4336.4151
4439.2929
4534.9636
4624.2922
4707.8451
4785.7532
4858.3773
4926.048
4407.4051
4512.959
4609.8651
4698.7487
4780.5893
4855.9927
4925.6071
4990.1285
5050.0558
4620.2269
4725.1424
4820.3266
4905.3999
4981.3375
5049.0742
5109.4742
5163.7922
5212.9468
5121.4076
5206.0991
5281.2852
5344.6721
5396.8581
5440.9366
5477.2145
5507.6842
5533.1094
5674.1023
5757.8406
5854.7583
5931.7153
5972.411
5988.1371
5995.3022
5990.9252
5973.377
6385.0478
6531.9833
6666.4394
6781.3251
6866.4347
6864.9512
6827.0262
6782.5968
6721.2256
5009.3063
4927.7723
4961.5328
4989.5847
5106.1139
5258.24
5554.3921
5954.6602
6644.1802
5075.1039
4993.5203
5023.1405
5048.9454
5158.414
5299.7237
5573.4484
5935.6106
6571.6215
5136.3787
5054.3244
5082.301
5104.8202
5207.5319
5338.4118
5590.8307
5912.2985
6500.5626
5193.6092
5112.0881
5136.7671
5157.0655
5253.5085
5374.8528
5606.3279
5890.6189
6420.1147
5246.4109
5166.3991
5188.0012
5206.2738
5296.8969
5409.809
5622.4238
5872.1845
6347.9635
5295.3981
5216.87
5236.7099
5252.85
5337.9155
5443.7223
5637.8483
5853.5585
6280.0238
5340.1443
5263.7215
5281.5777
5296.9293
5376.9476
5477.029
5653.3425
5838.5746
6206.9809
5380.7242
5307.9798
5322.5811
5338.1491
5414.1001
5509.5495
5670.3518
5828.2852
6142.4241
5418.1119
5348.2335
5361.8188
5376.7837
5449.496
5541.1658
5689.281
5821.8928
6078.0178
5632.9664
5594.9484
5600.3772
5621.2869
5681.2202
5779.4145
5909.4023
6008.5841
5890.4781
5617.6464
5576.4423
5582.7502
5601.4413
5662.439
5757.4053
5882.4298
5965.6283
5840.5657
5600.572
5555.9985
5563.3191
5580.9103
5642.4159
5734.4829
5856.2699
5927.8341
5805.0218
5581.8624
5533.2294
5541.6273
5558.3224
5621.0155
5710.6082
5830.5306
5895.4885
5795.6324
5561.1062
5508.5475
5517.8419
5533.3505
5597.7721
5685.4567
5805.2419
5868.8987
5814.6893
5538.0273
5482.0062
5491.6911
5506.584
5572.439
5658.9091
5780.5099
5848.588
5851.4276
5512.2594
5452.8372
5463.1676
5477.8202
5544.7731
5630.8711
5756.3414
5834.2516
5900.8026
5483.7027
5420.6561
5431.8292
5446.4263
5515.0142
5601.8594
5732.7504
5824.5124
5956.5077
5452.493
5385.732
5398.3641
5412.6901
5483.172
5571.9379
5710.2372
5820.3801
6013.4037
5946.6819
6058.7128
5937.8856
5801.4329
5698.9378
5638.8427
5616.4402
5611.9466
5646.2179
6022.6185
6114.7655
5965.5012
5822.1734
5715.0763
5654.1812
5630.9668
5627.1394
5656.666
6106.9141
6171.1203
5990.4743
5840.3685
5728.9976
5667.9564
5643.8432
5640.7539
5665.5903
6197.3031
6225.3139
6011.7117
5855.1775
5740.1392
5679.4346
5655.4809
5652.6081
5673.2419
6291.5488
6274.7248
6027.8918
5865.886
5748.3577
5689.1706
5665.7271
5662.8032
5679.5857
6384.8881
6317.8414
6038.4951
5872.8544
5753.6567
5696.9946
5674.4753
5671.6545
5684.9697
6475.7152
6355.405
6043.794
5876.7171
5756.6185
5703.1749
5681.9372
5679.5695
5689.2897
6564.3047
6389.6946
6046.915
5879.8923
5759.5023
5709.2752
5688.6622
5686.4497
5692.5909
6652.0109
6425.0589
6055.4136
5887.0844
5766.2085
5717.4266
5695.7704
5692.123
5694.4367
6753.0025
6468.1897
6082.224
5907.4413
5785.1002
5732.163
5706.2199
5698.0903
5695.2952
6867.5893
6512.782
6115.5816
5932.7864
5809.0464
5750.8953
5720.3985
5707.424
5699.3239
6973.0263
6552.6531
6146.0298
5957.6716
5832.4242
5770.0546
5735.704
5717.9198
5705.6746
7064.972
6584.9501
6170.7528
5980.8013
5854.4918
5789.3075
5751.7068
5729.5678
5714.1273
7137.305
6605.5709
6187.4733
6000.6176
5874.554
5807.7925
5767.6268
5742.0762
5724.3398
7187.9528
6610.6439
6196.167
6016.0956
5892.4106
5825.2561
5783.2731
5755.1879
5735.8815
7177.3839
6594.9429
6196.4633
6026.4864
5907.3071
5840.6881
5797.8494
5768.5529
5748.2256
7040.1105
6559.8075
6192.3498
6031.8579
5918.586
5853.2001
5810.7467
5781.5607
5761.044
6837.386
6502.9269
6186.1226
6033.1159
5925.8482
5862.1316
5821.2769
5793.3102
5773.9096
5732.6572
5740.9326
5758.9139
5787.1516
5828.9304
5884.2409
5959.7254
6060.9708
6210.7631
5758.0563
5765.0646
5782.2552
5811.1066
5854.5079
5916.4012
6001.5743
6117.0542
6280.0342
5778.1847
5784.1194
5801.2698
5830.9513
5876.5866
5942.8306
6032.4786
6154.2995
6317.2714
5792.3968
5798.2935
5815.7301
5846.5646
5894.6762
5966.5365
6062.1747
6199.4823
6373.9615
5801.0843
5807.8233
5825.8138
5857.7772
5909.2163
5987.4106
6091.643
6247.1211
6429.2324
5804.3331
5812.7796
5831.9183
5864.941
5919.9474
6004.6463
6120.2414
6294.7156
6490.088
5802.2353
5813.3394
5834.2334
5868.8291
5927.1074
6017.3511
6144.4082
6342.5083
6552.4882
5795.5649
5809.898
5833.1653
5869.7773
5930.3695
6025.8468
6162.9852
6391.6086
6622.3637
5785.731
5802.9575
5828.833
5867.4706
5929.5665
6030.5634
6175.7521
6442.2725
6706.4482
6434.7942
6495.8362
6553.3456
6628.8365
6714.0517
6819.8906
6973.7241
7193.3388
7499.9235
6469.8785
6526.4473
6589.3712
6668.5407
6758.2626
6869.5125
7029.897
7254.7094
7561.562
6503.293
6556.6193
6620.0538
6701.5271
6799.4332
6920.9287
7090.3004
7326.5978
7643.3956
6535.7191
6587.7634
6651.338
6733.647
6836.5105
6966.9639
7146.0945
7400.1536
7735.1064
6566.5905
6616.6191
6679.7084
6762.5148
6867.3149
7003.5964
7187.813
7466.6851
7819.938
6584.9494
6632.3677
6693.3825
6772.8658
6874.8257
7013.4766
7197.4939
7513.3572
7887.3377
6574.2753
6616.9288
6675.2342
6752.4907
6849.3416
6978.1074
7144.9326
7523.9242
7913.4748
6519.3441
6554.0153
6597.9428
6657.3141
6739.5243
6865.675
6993.0003
7439.3486
7846.9101
6380.9256
6407.6288
6434.9145
6475.23
6523.015
6647.9213
6712.7757
7228.5568
7481.3855
1842.8288
4660.4975
4672.6017
5442.5762
5681.1295
5864.424
5981.2702
6037.2096
6038.8395
4045.3194
4164.3763
4112.1398
4523.4536
4596.3079
4856.8754
5000.4463
5139.9248
5251.0373
4577.0873
4585.408
4478.7167
4597.6968
4533.6025
4669.3547
4683.892
4792.3251
4860.1084
4582.956
4638.6449
4587.2958
4679.2335
4600.8244
4692.0958
4632.3667
4714.366
4672.0378
4577.9722
4605.5596
4570.1097
4659.5068
4593.4598
4681.548
4608.9682
4687.2311
4620.5736
4591.5388
4606.3638
4573.8049
4637.4387
4579.7383
4661.5378
4595.1447
4663.4028
4604.0495
4621.1519
4626.8197
4613.5477
4642.4079
4610.4073
4658.5344
4615.308
4668.5094
4622.8527
4656.7884
4665.0222
4657.2973
4675.5727
4664.3622
4685.0135
4678.4333
4701.3909
4689.0275
4690.9348
4694.7546
4696.5813
4712.4196
4717.5784
4737.9929
4748.9533
4776.1736
4789.6674
4758.3679
4692.1483
4595.0531
4440.522
4232.4112
3956.8445
3660.3338
3421.8134
3263.7893
4755.0487
4689.2768
4593.0721
4441.76
4234.2434
3961.603
3649.6825
3384.2143
3186.9156
4732.2756
4667.6294
4572.3101
4419.629
4214.4847
3943.2543
3623.4681
3326.0487
3084.2675
4724.6349
4659.8754
4564.7156
4413.7187
4209.0181
3931.042
3600.468
3262.3117
2953.0109
4706.6486
4645.4535
4551.2581
4405.2512
4201.6468
3921.6958
3578.8103
3200.8771
2807.7456
4704.3147
4640.9263
4549.0148
4402.3968
4205.7624
3921.4578
3565.8844
3147.6867
2674.7409
4686.7329
4633.2818
4537.7054
4400.2983
4201.56
3927.0949
3557.1997
3112.9717
2577.2157
4690.3796
4631.0963
4540.7056
4402.8163
4212.8111
3931.0781
3562.1689
3077.1925
2569.5552
4684.6496
4635.3628
4544.9289
4416.3359
4230.6231
3961.2625
3578.4882
3107.7869
2454.696
3285.843
3487.1408
3843.1924
4172.5854
4408.9215
4585.236
4751.2926
4926.975
5097.0407
3167.3593
3378.2638
3793.5044
4149.9535
4390.6458
4570.018
4741.3757
4921.0086
5093.5863
3022.215
3269.5926
3759.6654
4136.1078
4374.524
4558.1719
4734.4845
4915.3695
5089.7436
2853.9619
3161.4049
3723.886
4114.8574
4355.9929
4548.8943
4735.3656
4918.9674
5095.3917
2643.7274
3059.5424
3692.0965
4086.1508
4320.0804
4519.1536
4713.7758
4904.5123
5085.2981
2338.7403
2975.5336
3701.0199
4093.8536
4328.8183
4533.1349
4730.696
4920.0281
5098.7273
1907.6687
2824.8815
3642.9984
4031.6119
4278.0843
4495.8797
4705.6656
4902.8183
5084.9591
1416.6778
2842.8438
3689.6939
4042.2134
4291.6431
4511.8789
4720.6203
4914.6521
5094.9121
512.47959
2707.0397
3663.7307
4008.3633
4271.5515
4499.3329
4711.2362
4907.6563
5088.5186
5257.5833
5424.7039
5592.671
5760.6441
5943.6911
6106.0301
6267.0494
6436.0402
6610.8072
5259.4741
5428.1413
5596.0011
5764.3325
5945.495
6110.8291
6274.163
6445.1593
6622.6181
5261.5153
5431.4779
5597.7824
5768.0176
5946.8225
6116.9455
6282.839
6455.1738
6634.316
5266.4706
5437.9794
5604.0619
5775.3171
5951.4706
6122.6569
6289.8608
6464.2679
6644.2888
5260.2185
5432.2009
5600.9622
5773.3029
5951.1739
6123.9043
6293.1623
6468.8168
6652.0797
5272.5558
5444.9886
5610.6196
5781.3833
5957.2576
6131.3607
6301.6476
6477.4973
6661.4757
5260.3399
5434.7638
5602.7135
5775.2659
5951.3351
6126.3155
6298.2582
6476.7948
6661.2744
5269.6808
5443.2289
5608.7915
5779.4488
5955.2237
6131.0671
6304.1393
6482.5011
6668.1698
5265.1773
5440.3205
5606.3812
5778.0378
5953.4686
6129.4557
6302.9414
6481.7541
6667.5129
6799.835
7006.8288
7229.685
7466.8838
7717.9876
7974.6195
8230.3701
8532.7587
8620.714
6813.6032
7022.7661
7250.1916
7494.4671
7753.1984
8018.6658
8289.2827
8604.7907
8710.0789
6828.5255
7038.7526
7268.4515
7520.892
7786.4301
8062.2299
8349.7983
8673.0774
8797.6515
6841.295
7053.121
7286.7867
7544.2331
7814.9
8101.5151
8405.4199
8735.5515
8883.0443
6849.1452
7063.4122
7301.5998
7563.8068
7838.5457
8134.9078
8454.6549
8792.2504
8967.6847
6860.8175
7075.5872
7314.9405
7580.3287
7861.1533
8165.1923
8500.9386
8845.8225
9041.5271
6862.2858
7078.1463
7322.4641
7586.6982
7874.2666
8184.8137
8539.9735
8892.3219
9105.3706
6869.572
7085.5357
7329.8034
7598.5829
7887.5327
8200.7027
8572.7748
8936.4865
9177.4323
6869.7268
7086.3115
7332.0901
7599.9992
7891.5955
8207.3704
8591.0385
8956.1532
9191.8229
8778.223
8242.7721
7864.8764
7524.9639
7173.0574
6820.7312
6467.5257
6127.4027
5789.3167
8882.2884
8317.0198
7943.3587
7599.5378
7240.2572
6880.2025
6521.9404
6178.3564
5836.9762
8972.7141
8382.7448
8019.0412
7668.5389
7303.3263
6936.6947
6576.4288
6230.4046
5886.5099
9059.5757
8445.9969
8094.2541
7735.557
7366.3823
6991.2943
6628.0001
6276.0517
5931.3071
9147.6713
8508.4374
8165.6113
7801.4537
7431.0387
7055.9097
6686.8039
6331.3226
5981.5689
9237.49
8575.4243
8233.0163
7853.6445
7482.1605
7096.6741
6730.3654
6367.3527
6019.8213
9313.5675
8644.6274
8306.4881
7927.2601
7553.161
7167.665
6794.0675
6432.9905
6080.7871
9382.739
8693.4624
8347.4548
7957.2901
7585.5151
7191.5564
6820.518
6450.3152
6099.0681
9452.553
8793.2963
8431.6993
8040.7629
7667.2184
7275.0181
6902.1922
6530.932
6177.3937
5456.5232
5125.4442
4786.3294
4449.7663
4093.906
3736.2618
3356.3516
2964.4839
2558.6313
5501.9134
5166.2131
4828.1895
4487.0788
4134.2743
3773.2922
3397.3788
3003.5111
2597.5386
5549.5397
5210.7728
4873.6024
4530.5587
4180.7388
3818.8791
3446.742
3054.4548
2650.8242
5593.2681
5252.0774
4916.2118
4570.1449
4223.697
3858.8336
3491.2802
3098.0206
2698.1395
5643.0893
5299.7987
4963.1318
4617.7578
4270.6497
3908.5497
3540.4363
3150.4099
2750.6548
5677.4099
5332.2484
4996.5597
4647.2628
4304.7074
3938.4155
3576.2607
3184.7647
2788.8609
5739.5186
5393.5436
5057.0214
4708.9295
4365.1298
4002.7864
3638.5565
3253.3638
2853.8402
5754.8237
5407.8115
5071.4881
4721.4074
4380.406
4015.5678
3655.1711
3269.4504
2872.7049
5831.8396
5484.423
5147.4031
4798.0736
4457.0624
4095.2129
3734.5762
3356.0209
2955.0256
2086.3295
1531.895
930.28403
283.1138
-430.77002
-1162.0003
-1923.8196
-2750.849
-3990.2475
2125.3677
1592.8484
995.59187
381.04739
-324.28281
-1003.7059
-1744.0918
-2505.7867
-3658.292
2184.5
1669.5463
1085.1229
493.05853
-191.95209
-856.2366
-1593.0466
-2368.8892
-3391.8045
2237.9775
1740.5363
1172.9521
597.77486
-62.215617
-722.55321
-1414.4383
-2134.7275
-3042.0542
2297.0471
1811.5363
1264.613
699.00309
66.883652
-590.53423
-1225.3056
-1881.5703
-2540.9549
2345.5509
1872.7112
1349.6203
794.44727
185.45089
-468.36074
-1080.9593
-1624.0279
-2021.5147
2420.9974
1954.1668
1465.0242
921.61573
344.61102
-314.90135
-895.80049
-1552.0764
-744.66623
2451.1621
1991.5466
1517.0954
989.22222
416.43122
-228.71356
-922.93692
-1379.6829
-1588.4216
2548.74
2108.1116
1671.7811
1172.6458
655.5945
49.837923
-575.85446
-1839.9399
2086.4037
-6216.2253
-7972.7449
-8493.6923
-8415.815
-8653.0527
-9115.5591
-8504.0661
-8288.3597
-8215.9371
-6034.3297
-7994.814
-8383.6664
-8316.9354
-8533.0308
-8781.0022
-8468.0282
-8255.8878
-8162.5571
-5963.715
-8123.3874
-8263.3628
-8301.6567
-8625.3737
-8829.2089
-8426.7113
-8216.3238
-8107.6091
-6057.4826
-8281.0054
-8143.3468
-8305.7868
-8526.9445
-8637.6557
-8377.6806
-8174.3361
-8047.4491
-6272.6806
-8337.1675
-7887.0089
-8314.5008
-8604.6193
-8619.9148
-8324.9218
-8130.3165
-7981.3581
-6093.0239
-8136.4847
-7849.2108
-8387.8414
-8559.9488
-8544.249
-8262.2535
-8088.6089
-7918.109
-5177.9754
-7775.134
-8020.6771
-8417.6986
-8557.8311
-8483.506
-8201.909
-8050.218
-7857.0287
-5629.8114
-8661.2579
-7974.6851
-8490.409
-8554.8633
-8435.8484
-8156.9308
-8016.3582
-7812.1408
-14859.267
-6845.4944
-8324.478
-8515.6799
-8517.4527
-8366.026
-8107.312
-7989.5465
-7783.1033
-8231.5546
-8395.4342
-8703.73
-9266.157
-10099.059
-11149.061
-12518.266
-15623.14
-14879.084
-8163.3977
-8312.5158
-8614.5213
-9194.648
-10077.41
-11219.446
-12683.817
-15860.592
-14751.12
-8115.5484
-8263.2646
-8587.8569
-9227.1402
-10188.355
-11521.712
-13238.928
-15631.07
-14858.23
-8054.8067
-8208.5484
-8566.6465
-9267.5161
-10329.425
-11790.578
-13730.641
-15822.883
-14613.954
-7988.4128
-8148.3975
-8530.9877
-9301.1489
-10441.717
-12013.342
-14013.884
-15590.56
-14090.909
-7924.0291
-8091.9714
-8496.2566
-9328.801
-10548.392
-12206.091
-14060.015
-15025.447
-13419.447
-7869.0958
-8047.4047
-8475.1686
-9373.7806
-10667.785
-12379.04
-14010.657
-14545.023
-12730.766
-7831.1932