/*--------------------------------*- C++ -*----------------------------------*\
  =========                 |
  \\      /  F ield         | OpenFOAM: The Open Source CFD Toolbox
   \\    /   O peration     | Website:  https://openfoam.org
    \\  /    A nd           | Version:  11
     \\/     M anipulation  |
\*---------------------------------------------------------------------------*/
FoamFile
{
    format      ascii;
    class       surfaceScalarField;
    location    "6.8";
    object      phi;
}
// * * * * * * * * * * * * * * * * * * * * * * * * * * * * * * * * * * * * * //

dimensions      [0 3 -1 0 0 0 0];

internalField   nonuniform List<scalar> 
10792
(
0.068186976
-0.041748295
-0.068647859
0.042209178
0.067575132
-0.039581672
0.040193517
0.067051658
-0.037302179
0.037825653
0.066340885
-0.035105115
0.035815888
0.065556847
-0.032551854
0.033335892
0.064801494
-0.030384219
0.031139573
0.064052417
-0.0277586
0.028507677
0.063227219
-0.025341389
0.026166587
0.062359836
-0.022586309
0.023453692
0.061713709
-0.020132942
0.02077907
0.060915326
-0.017355971
0.018154354
0.060313651
-0.014718506
0.015320181
0.059690262
-0.011975861
0.01259925
0.059133392
-0.0092035797
0.0097604499
0.058584293
-0.0063249553
0.0068740536
0.058097382
-0.0035195143
0.0040064252
0.057875302
-0.00063316544
0.00085524492
0.057648613
0.0022628426
-0.0020361536
0.005248046
0.057523785
-0.0051232177
0.07246542
-0.041266405
-0.07294731
0.071891543
-0.039007795
0.071262786
-0.036673422
0.070465385
-0.034307714
0.069767019
-0.031853488
0.069008009
-0.029625209
0.068170918
-0.026921509
0.0673471
-0.024517572
0.06661489
-0.021854098
0.065920535
-0.019438588
0.065165506
-0.016600942
0.064570921
-0.01412392
0.063869344
-0.011274284
0.063299681
-0.0086339165
0.062787852
-0.0058131267
0.062392729
-0.0031243908
0.062072146
-0.00031258278
0.061757763
0.0025772256
0.0054007232
0.061605086
0.076933325
-0.040634935
-0.077564795
0.076394252
-0.038468721
0.075750913
-0.036030083
0.075034988
-0.03359179
0.074400066
-0.031218566
0.073557537
-0.028782679
0.072759767
-0.026123738
0.072057518
-0.023815323
0.071310462
-0.021107041
0.070578571
-0.018706697
0.069855239
-0.01587761
0.069153455
-0.013422136
0.068448587
-0.010569417
0.06789071
-0.0080760401
0.067367291
-0.0052897072
0.066937462
-0.0026945617
0.066568033
5.6845664e-05
0.066294774
0.0028504847
0.0055994592
0.066096038
0.081892237
-0.040172562
-0.08235461
0.081364318
-0.037940802
0.080567342
-0.035233107
0.079949377
-0.032973824
0.079188488
-0.030457678
0.078282336
-0.027876527
0.077607353
-0.025448755
0.076769351
-0.022977321
0.075978697
-0.020316387
0.075168259
-0.017896259
0.074378882
-0.015088234
0.073715737
-0.012758991
0.073062264
-0.0099159438
0.072548568
-0.0075623448
0.072035445
-0.0047765842
0.071655054
-0.0023141702
0.071302167
0.00040973253
0.071097007
0.0030556444
0.0057665169
0.070929949
0.087014683
-0.039559579
-0.087627667
0.086300178
-0.037226297
0.085669856
-0.034602784
0.084991845
-0.032295813
0.084152656
-0.029618489
0.083521735
-0.027245606
0.082776739
-0.024703759
0.081908079
-0.022108662
0.081167298
-0.019575606
0.080340091
-0.017069052
0.079698061
-0.014446203
0.079012165
-0.012073095
0.078411749
-0.0093155278
0.077831658
-0.0069822542
0.077325723
-0.0042706496
0.076966784
-0.0019552309
0.076592384
0.00078413186
0.076415714
0.0032323146
0.0059511862
0.076231045
0.092703777
-0.038905354
-0.093358002
0.092053443
-0.036575963
0.091307151
-0.033856492
0.090579562
-0.031568224
0.08989301
-0.028931938
0.089137595
-0.02649019
0.088197571
-0.023763734
0.087425323
-0.021336414
0.086673173
-0.018823457
0.085916569
-0.016312447
0.085222515
-0.013752149
0.084435055
-0.011285635
0.083837359
-0.0087178317
0.083217471
-0.0063623666
0.082781037
-0.0038342159
0.082311273
-0.001485467
0.082063621
0.0010317838
0.081812861
0.0034830751
0.0060604777
0.081703569
0.098484578
-0.038197566
-0.099192365
0.097803996
-0.035895382
0.097124696
-0.033177192
0.096412413
-0.030855941
0.095585866
-0.028105391
0.094810995
-0.025715319
0.094061995
-0.023014734
0.09338475
-0.020659168
0.092589222
-0.01802793
0.09183734
-0.015560565
0.091123628
-0.013038437
0.090436384
-0.010598391
0.089863605
-0.0081450523
0.089259805
-0.0057585669
0.088834705
-0.0034091165
0.08840129
-0.0010520515
0.088133786
0.0012992879
0.087884118
0.0037327427
0.0060781353
0.08786646
0.10541232
-0.037452162
-0.10615772
0.10452519
-0.035008248
0.10374958
-0.032401583
0.10292916
-0.030035529
0.10213381
-0.027310038
0.10141152
-0.024993028
0.10060322
-0.022206433
0.099785316
-0.019841264
0.098881078
-0.017123692
0.098112741
-0.014792228
0.097360859
-0.012286555
0.096665988
-0.0099035199
0.096052703
-0.0075317674
0.095470511
-0.0051763749
0.094971501
-0.0029101066
0.094528973
-0.00060952307
0.094251424
0.0015768359
0.093992258
0.0039919095
0.0061106109
0.093959782
0.11181001
-0.036732084
-0.11253009
0.11107753
-0.034275768
0.11030634
-0.031630392
0.10948568
-0.029214874
0.10873055
-0.0265549
0.10791468
-0.024177158
0.10714729
-0.021439051
0.10645388
-0.019147844
0.10570053
-0.016370349
0.10501329
-0.014104983
0.10422607
-0.011499336
0.10361241
-0.009289859
0.1029478
-0.006867157
0.10241861
-0.0046471933
0.10191396
-0.0024054501
0.10149724
-0.00019280648
0.10121494
0.0018591354
0.10103173
0.0041751188
0.0060791414
0.1010632
0.11994399
-0.035920341
-0.12075574
0.11903119
-0.033362966
0.11821222
-0.030811416
0.11730463
-0.028307285
0.11642843
-0.0256787
0.1155035
-0.023252235
0.1146608
-0.020596353
0.11373877
-0.018225811
0.11289764
-0.015529215
0.11209437
-0.013301715
0.11127184
-0.010676804
0.11059279
-0.0086108149
0.10987776
-0.0061521247
0.1093933
-0.0041627337
0.10885446
-0.0018666043
0.10858162
8.00331e-05
0.10822882
0.0022119296
0.10814574
0.0042582042
0.0061317971
0.10809308
0.12743058
-0.034973803
-0.12837712
0.12645848
-0.032390866
0.125586
-0.029938935
0.12464555
-0.027366843
0.12387327
-0.024906414
0.12295568
-0.022334642
0.12213414
-0.019774821
0.121276
-0.017367666
0.12057318
-0.014826402
0.11980292
-0.012531451
0.11915617
-0.010030055
0.11854544
-0.0080000866
0.11800919
-0.0056158692
0.11756358
-0.003717125
0.11709365
-0.0013966787
0.11682034
0.00035334658
0.11642744
0.0026048292
0.11637017
0.0043154733
0.0062859239
0.11621604
0.13662372
-0.033956642
-0.13764088
0.13565519
-0.031422339
0.13466676
-0.028950509
0.13364135
-0.02634143
0.13266461
-0.023929669
0.13169645
-0.021366482
0.13085239
-0.018930764
0.12991413
-0.01642941
0.12905874
-0.013971011
0.12812102
-0.011593735
0.12740593
-0.0093149552
0.12659098
-0.007185143
0.12601771
-0.0050425949
0.12545156
-0.0031509802
0.12508654
-0.0010316588
0.12474
0.00069989223
0.12454648
0.0027983495
0.1244908
0.0043711492
0.0063387974
0.12443793
0.14529463
-0.032808325
-0.14644295
0.14429923
-0.030426933
0.14327986
-0.027931139
0.1423483
-0.025409878
0.14140645
-0.022987813
0.14044359
-0.020403623
0.13959118
-0.018078354
0.13877886
-0.015617087
0.1380462
-0.013238358
0.13729507
-0.010842597
0.13661489
-0.0086347803
0.13583366
-0.0064039078
0.13525825
-0.0044671876
0.1346351
-0.0025278333
0.13428996
-0.00068652061
0.13389697
0.001092881
0.13382104
0.0028742843
0.13371458
0.0044776037
0.0061748831
0.1338785
0.15587561
-0.031535208
-0.15714873
0.15466128
-0.029212597
0.15348519
-0.026755051
0.15249083
-0.024415515
0.15141226
-0.021909247
0.15036728
-0.019358638
0.14923556
-0.016946635
0.14820946
-0.014590992
0.14733717
-0.012366072
0.14660857
-0.01011399
0.14597508
-0.0080012896
0.14533597
-0.0057648008
0.14480697
-0.003938185
0.14425838
-0.0019792424
0.14388619
-0.00031432976
0.14354985
0.0014292126
0.14345368
0.0029704573
0.14334228
0.0045890084
0.0059332719
0.14358389
0.16587166
-0.030368952
-0.16703792
0.16472831
-0.028069247
0.16362881
-0.025655551
0.16262199
-0.023408699
0.1617017
-0.020988949
0.16090245
-0.018559388
0.15998171
-0.016025896
0.15902456
-0.013633841
0.15799386
-0.011335379
0.15710295
-0.0092230734
0.15629083
-0.007189178
0.15566297
-0.0051369399
0.15510572
-0.0033809335
0.15457826
-0.0014517812
0.15417892
8.5009572e-05
0.15386995
0.0017381887
0.1537166
0.0031238052
0.15369774
0.0046078653
0.005692175
0.15393884
0.1780916
-0.029084896
-0.17937565
0.1766449
-0.026622554
0.17527293
-0.024283574
0.17388394
-0.022019711
0.1726735
-0.019778511
0.17166927
-0.017555156
0.17080119
-0.015157817
0.16998575
-0.012818403
0.16913627
-0.010485901
0.16832195
-0.0084087482
0.16749053
-0.0063577648
0.16680171
-0.0044481108
0.1661597
-0.0027389235
0.16570478
-0.00099686651
0.16530604
0.00048375159
0.16507559
0.0019686366
0.16494623
0.0032531687
0.16503677
0.0045173259
0.0054524768
0.16527647
0.18962436
-0.027901627
-0.19080763
0.18839745
-0.025395652
0.18739554
-0.023281662
0.18618819
-0.02081236
0.18504366
-0.018633978
0.183788
-0.016299502
0.18272087
-0.014090688
0.18174551
-0.011843038
0.18090673
-0.0096471229
0.18009657
-0.0075985884
0.17934612
-0.0056073128
0.17868752
-0.0037895078
0.17806486
-0.0021162682
0.17760235
-0.00053435321
0.17717861
0.00090748699
0.17693364
0.0022136134
0.17678763
0.0033991713
0.17686103
0.0044439338
0.0052675074
0.177046
0.20307106
-0.026195623
-0.20477706
0.20150954
-0.023834137
0.20009345
-0.021865568
0.19883352
-0.019552436
0.19773556
-0.017536011
0.196579
-0.015142949
0.19553442
-0.013046109
0.19448269
-0.0107913
0.19362143
-0.0087858676
0.19279652
-0.0067736801
0.19212227
-0.0049330656
0.1914754
-0.0031426316
0.19095018
-0.0015910489
0.19051635
-0.00010052729
0.19018208
0.0012417566
0.18999281
0.0024028858
0.18996104
0.0034309466
0.19011868
0.0042862916
0.0049995903
0.1903866
0.21705298
-0.024505087
-0.21874352
0.21556865
-0.022349804
0.2140213
-0.020318219
0.21266167
-0.018192808
0.21129761
-0.016171948
0.21014994
-0.013995277
0.20910789
-0.01200406
0.20812563
-0.0098090426
0.20727826
-0.0079384915
0.20645697
-0.0059523962
0.20578267
-0.0042587631
0.20514347
-0.0025034319
0.20463671
-0.0010842905
0.20423646
0.00029972176
0.20393777
0.0015404469
0.20374403
0.0025966251
0.20369173
0.0034832463
0.20379131
0.0041867156
0.0047232489
0.20406765
0.23229083
-0.022766396
-0.23402952
0.23073287
-0.020791842
0.22925891
-0.01884426
0.22788306
-0.016816964
0.22649494
-0.014783825
0.22525631
-0.012756645
0.22401534
-0.010763099
0.222987
-0.0087806933
0.22200495
-0.0069564467
0.22120201
-0.0051494508
0.22049029
-0.0035470454
0.21994322
-0.0019563609
0.21949614
-0.00063721119
0.21913397
0.00066188598
0.21894238
0.0017320422
0.21887451
0.0026644942
0.21893034
0.0034274169
0.21911993
0.0039971263
0.0043667065
0.21947647
0.2485126
-0.020637955
-0.25064104
0.2465772
-0.018856434
0.24488914
-0.017156208
0.24343092
-0.015358739
0.24214518
-0.013498083
0.24095434
-0.011565811
0.2398245
-0.0096332543
0.23882688
-0.0077830781
0.23786957
-0.0059991321
0.23707613
-0.0043560135
0.23632068
-0.0027915948
0.23575029
-0.0013859681
0.23524917
-0.00013609172
0.23495545
0.00095560909
0.23472794
0.0019595502
0.23465472
0.0027377149
0.23470602
0.0033761122
0.23490328
0.0037998646
0.0040149718
0.23525502
0.26648528
-0.01839883
-0.2687244
0.264435
-0.01680616
0.26252818
-0.01524939
0.26073498
-0.013565531
0.25916798
-0.011931089
0.25777574
-0.010173572
0.25659824
-0.0084557539
0.25559128
-0.0067761129
0.25472491
-0.0051327591
0.25398158
-0.0036126849
0.25341456
-0.0022245796
0.2529585
-0.00092991134
0.25257344
0.00024897638
0.2523675
0.0011615434
0.25230182
0.0020252324
0.25236059
0.0026789464
0.25250825
0.0032284464
0.25281795
0.003490169
0.0036390293
0.25319389
0.28578845
-0.015642487
-0.28854479
0.28339854
-0.014416252
0.2812701
-0.013120956
0.27937842
-0.011673851
0.27765542
-0.010208086
0.27616733
-0.0086854838
0.27484345
-0.0071318687
0.27373489
-0.005667552
0.27281114
-0.0042090156
0.27200116
-0.0028026982
0.27137514
-0.0015985686
0.27092113
-0.00047589688
0.27072571
0.00044439869
0.2706046
0.0012826515
0.27066338
0.0019664497
0.27084077
0.0025015615
0.27115458
0.0029146358
0.27156248
0.0030822636
0.0031667633
0.27203475
0.30693489
-0.012399147
-0.31017823
0.30402003
-0.011501392
0.30141853
-0.010519457
0.2991987
-0.0094540146
0.29734142
-0.0083508112
0.29573562
-0.0070796844
0.2944595
-0.0058557451
0.29337459
-0.0045826432
0.29254451
-0.0033789373
0.29193543
-0.0021936156
0.29144405
-0.0011071924
0.29107013
-0.00010197236
0.29083155
0.0006829811
0.29078957
0.0013246255
0.2908939
0.0018621237
0.29114191
0.0022535476
0.29154423
0.0025123167
0.29204337
0.0025831235
0.0025594575
0.29265068
0.33059015
-0.0087471227
-0.33424218
0.32721844
-0.0081296828
0.32413743
-0.0074384405
0.32138997
-0.006706559
0.31900072
-0.0059615629
0.3169543
-0.0050332596
0.31527481
-0.0041762622
0.31392857
-0.0032363952
0.31292517
-0.0023755443
0.31226242
-0.0015308609
0.31190103
-0.00074580578
0.31188906
-9.0005613e-05
0.31202239
0.00054965746
0.31228689
0.0010601271
0.31266147
0.0014875398
0.31312185
0.0017931682
0.31364794
0.0019862293
0.31426249
0.0019685712
0.0019033931
0.31491855
0.35581484
-0.0046183336
-0.35994363
0.35200065
-0.0043154968
0.34851897
-0.0039567541
0.34540351
-0.0035911088
0.34262394
-0.0031819921
0.34031337
-0.0027226828
0.33839329
-0.0022561859
0.33692592
-0.001769024
0.33585027
-0.0012998902
0.33517243
-0.0008530257
0.33483978
-0.00041315423
0.33476983
-2.0051784e-05
0.33504807
0.00027141317
0.33553655
0.00057164896
0.33620167
0.00082242023
0.33692386
0.0010709782
0.33768921
0.001220878
0.33854981
0.001107968
0.0011862932
0.33926691
0.38384948
-0.38846781
0.37953398
0.37557723
0.37198612
0.36880413
0.36608144
0.36382526
0.36205623
0.36075634
0.35990332
0.35949016
0.35947011
0.35974153
0.36031317
0.36113559
0.36220657
0.36342745
0.36453542
0.36572171
0.057258963
0.0085245506
-0.0082597289
0.057102002
0.011516489
-0.011359528
0.057157768
0.014544172
-0.014599938
0.057289469
0.017631992
-0.017763693
0.057593668
0.020731815
-0.021036015
0.05811447
0.023801478
-0.02432228
0.058726004
0.02703397
-0.027645504
0.059506993
0.030292523
-0.031073513
0.060368278
0.033525521
-0.034386806
0.061289882
0.036892424
-0.037814028
0.062293713
0.040143179
-0.04114701
0.063344448
0.043546142
-0.044596878
0.064430706
0.04691506
-0.048001319
0.065551913
0.05036435
-0.051485557
0.066636761
0.053854487
-0.054939334
0.067666689
0.057477809
-0.058507738
0.068552139
0.06119967
-0.062085121
0.069231553
0.065024804
-0.065704218
0.069005816
0.069668628
-0.069442891
0.061311364
0.0088182722
0.061235515
0.011592337
0.061385843
0.014393844
0.061729127
0.017288708
0.062180372
0.020280571
0.06283025
0.023151599
0.063537279
0.026326942
0.06448676
0.029343042
0.065405801
0.03260648
0.06646907
0.035829155
0.067502988
0.03910926
0.06863143
0.0424177
0.069783963
0.045762526
0.0710087
0.049139613
0.072228514
0.052634673
0.073546982
0.05615934
0.074894501
0.059852152
0.076215044
0.063704261
0.067424416
0.077796443
0.06579874
0.0091155693
0.065680708
0.011710369
0.065818033
0.014256519
0.066158982
0.016947759
0.066686901
0.019752651
0.067353786
0.022484715
0.068161076
0.025519651
0.06919259
0.028311527
0.070251425
0.031547645
0.071538264
0.034542316
0.072847136
0.037800388
0.074284516
0.040980319
0.075797087
0.044249955
0.077332079
0.047604621
0.079054575
0.050912176
0.080816154
0.054397761
0.082886172
0.057782134
0.0853102
0.061280232
0.064484569
0.088250047
0.070696339
0.0093491794
0.070609787
0.011796921
0.070815959
0.014050346
0.071167622
0.016596096
0.071796688
0.019123585
0.07248673
0.021794672
0.073480874
0.024525507
0.074527852
0.027264549
0.075798454
0.030277043
0.07720056
0.033140209
0.078830337
0.03617061
0.080443211
0.039367445
0.082435042
0.042258124
0.084422404
0.045617259
0.086976521
0.048358059
0.08959501
0.051779272
0.092905685
0.054471459
0.096598947
0.05758697
0.059729361
0.10135416
0.076011652
0.0095685722
0.075941047
0.011867526
0.07621417
0.013777223
0.07656262
0.016247645
0.07727395
0.018412255
0.078022257
0.021046364
0.079169535
0.023378229
0.08025584
0.026178244
0.081746908
0.028785975
0.083247563
0.031639553
0.085076234
0.034341938
0.087052892
0.037390787
0.089458906
0.039852109
0.092094113
0.042982052
0.095340134
0.045112038
0.098980037
0.048139368
0.10361832
0.049833176
0.1087572
0.052448087
0.053037565
0.115449
0.081463144
0.0098089974
0.081516666
0.011814004
0.081812599
0.01348129
0.082310693
0.01574955
0.083088625
0.017634322
0.084008862
0.020126127
0.085254824
0.022132267
0.086542404
0.024890664
0.088245725
0.027082653
0.089987321
0.029897956
0.092191544
0.032137715
0.094611021
0.034971309
0.09745777
0.03700536
0.10081651
0.039623309
0.10473064
0.041197913
0.10942669
0.043443315
0.11491499
0.044344876
0.12132175
0.046041325
0.045559785
0.12879953
0.087575955
0.010099503
0.087743481
0.011646477
0.087944807
0.013279964
0.088596786
0.015097571
0.089348254
0.016882854
0.09053748
0.0189369
0.091806561
0.020863186
0.093400517
0.023296708
0.095229883
0.025253286
0.097364911
0.027762927
0.099876436
0.02962619
0.10283033
0.032017419
0.10625273
0.033582956
0.11029045
0.035585589
0.11494231
0.036546057
0.12037823
0.038007394
0.12647092
0.038252187
0.13337647
0.03913577
0.037997732
0.14093852
0.093738959
0.010320325
0.093995405
0.011390031
0.094300714
0.012974655
0.095174224
0.01422406
0.096050628
0.01600645
0.097488601
0.017498927
0.098797931
0.019553855
0.1007533
0.021341335
0.10275192
0.023254673
0.1053704
0.025144438
0.10824888
0.026747717
0.11179607
0.028470229
0.11566487
0.029714151
0.12030663
0.030943832
0.1253888
0.031463886
0.13118169
0.032214499
0.13745347
0.031980409
0.14417175
0.032417487
0.031084521
0.15108496
0.10093256
0.010450966
0.10118833
0.011134265
0.10153069
0.01263229
0.10243971
0.013315035
0.10341412
0.015032046
0.10496111
0.01595193
0.10651134
0.018003634
0.10876863
0.019084037
0.11099084
0.02103247
0.11404181
0.022093461
0.1171344
0.023655126
0.1211417
0.024462928
0.12527306
0.025582791
0.13037895
0.025837948
0.1355728
0.026270027
0.14144677
0.026340532
0.14715925
0.026267935
0.15328913
0.026287602
0.02566587
0.15870778
0.1081366
0.010407445
0.10837805
0.010892816
0.10899187
0.012018469
0.10995322
0.012353688
0.11112561
0.013859651
0.11278019
0.014297356
0.11465871
0.016125109
0.11713777
0.016604979
0.11976977
0.018400471
0.12313448
0.018728749
0.12650818
0.02028142
0.13087982
0.020091294
0.13520323
0.021259375
0.14041033
0.020630846
0.14529289
0.021387471
0.15075059
0.020882832
0.15559309
0.021425439
0.16056958
0.021311104
0.021600794
0.16463466
0.11639635
0.010227138
0.116544
0.010745167
0.11746089
0.011101581
0.11838585
0.011428728
0.11986803
0.012377464
0.12156534
0.012600046
0.12379731
0.013893143
0.12634608
0.014056207
0.12929385
0.015452701
0.13269786
0.015324734
0.13644364
0.016535647
0.14076627
0.015768661
0.14501467
0.017010969
0.14984114
0.015804382
0.15393356
0.017295048
0.15851167
0.016304716
0.16192944
0.01800767
0.16538875
0.017851799
0.019370592
0.16761895
0.12462729
0.010037775
0.12482121
0.010551248
0.1259297
0.0099930957
0.12687387
0.010484555
0.1286936
0.01055773
0.130524
0.010769646
0.13308166
0.011335481
0.13571015
0.011427724
0.13893032
0.012232528
0.14236565
0.011889397
0.14627059
0.012630711
0.15029037
0.011748877
0.15439382
0.012907525
0.15834781
0.011850384
0.16167039
0.013972469
0.16501934
0.012955764
0.16691394
0.016113074
0.16880001
0.015965725
0.01965428
0.16851633
0.13398591
0.0099303661
0.13449628
0.010040874
0.13554834
0.0089410333
0.1366461
0.0093868031
0.138655
0.0085488229
0.14042071
0.0090039385
0.14319014
0.0085660549
0.1458101
0.0088077629
0.14917296
0.0088696694
0.15254966
0.0085126948
0.15631413
0.0088662331
0.1597517
0.0083113158
0.16314509
0.0095141309
0.1659042
0.0090912755
0.16818946
0.011687201
0.16958505
0.011560175
0.16996641
0.015731721
0.16964662
0.016285507
0.022080158
0.16722075
0.14359916
0.0099150935
0.14444707
0.009192968
0.14531654
0.0080715573
0.14679978
0.0079035629
0.14870847
0.0066401307
0.15070806
0.0070043475
0.15361942
0.005654701
0.15616689
0.0062602921
0.15965515
0.0053814099
0.16258559
0.005582254
0.16591685
0.0055349744
0.16861972
0.005608438
0.17130251
0.0068313402
0.17284598
0.0075478094
0.1737528
0.010780378
0.17320253
0.012110447
0.17183633
0.017097921
0.1693438
0.018778035
0.026028856
0.1653951
0.15411819
0.0097357363
0.15505805
0.0082531111
0.15588736
0.0072422524
0.15772826
0.0060626624
0.15941032
0.0049580662
0.16185493
0.0045597398
0.16441564
0.0030939892
0.16710703
0.0035688984
0.17028237
0.0022060704
0.17259773
0.0032668936
0.17552255
0.0026101526
0.17721758
0.0039134162
0.17873333
0.0053155889
0.17864658
0.0076345587
0.17823001
0.011196943
0.17607778
0.014262673
0.17334878
0.019826927
0.16906006
0.023066754
0.03140802
0.16368089
0.1657141
0.0092980982
0.16664784
0.0073193751
0.16771211
0.0061779765
0.16956743
0.0042073431
0.171183
0.0033425004
0.17378653
0.0019562143
0.17592708
0.00095343137
0.17878924
0.00070674535
0.18115025
-0.0001549401
0.18335204
0.0010650951
0.18532892
0.00063327742
0.18561923
0.0036231001
0.18576578
0.0051690457
0.18411486
0.0092854733
0.18231164
0.013000164
0.17867683
0.01789748
0.17488278
0.023620976
0.16911738
0.028832155
0.038034559
0.16249084
0.17762619
0.0087179047
0.17842793
0.0065176338
0.17969842
0.0049074895
0.18146535
0.002440411
0.18332766
0.001480187
0.18577992
-0.00049604584
0.18763618
-0.00090282492
0.19020008
-0.0018571573
0.19175001
-0.0017048676
0.19361677
-0.00080166295
0.19395179
0.0002982557
0.19363348
0.0039414098
0.19263992
0.0061626045
0.1898842
0.012041192
0.1869383
0.015946061
0.18189866
0.02293712
0.17684861
0.028671022
0.16977581
0.035904957
0.045040521
0.16276985
0.19110209
0.0080024129
0.19193668
0.0056830434
0.19340685
0.0034373179
0.19503593
0.00081132581
0.19700119
-0.00048506597
0.19896332
-0.0024581794
0.20064135
-0.0025808507
0.20253211
-0.0037479236
0.20329137
-0.0024641302
0.20405858
-0.00156887
0.20303906
0.001317773
0.20222461
0.0047558607
0.19958236
0.0088048542
0.1963119
0.015311654
0.19218359
0.020074373
0.18668177
0.028438936
0.18172644
0.033626356
0.17542902
0.042202376
0.048387312
0.17208222
0.2047046
0.007365463
0.20563001
0.004757637
0.20707407
0.0019932578
0.20842938
-0.0005439897
0.21027871
-0.002334391
0.21183005
-0.004009517
0.2134483
-0.0041991059
0.2144264
-0.0047260281
0.21459798
-0.0026357056
0.21447663
-0.0014475237
0.21297203
0.0028223701
0.21120045
0.0065274452
0.2073228
0.012682507
0.20385538
0.018779071
0.19905621
0.024873538
0.19510335
0.032391797
0.19200357
0.036726134
0.19034527
0.043860683
0.044571859
0.19416072
0.22028523
0.0065566985
0.22135073
0.00369214
0.22254024
0.00080374493
0.22382373
-0.0018274717
0.22538087
-0.0038915405
0.22647638
-0.0051050182
0.22773853
-0.0054612562
0.22782486
-0.0048123594
0.22764672
-0.0024575699
0.22642338
-0.000224182
0.22433961
0.0049061354
0.221528
0.009339058
0.21782767
0.016382838
0.21504844
0.021558302
0.21181389
0.028108086
0.21147636
0.032729325
0.21240578
0.035796717
0.21809144
0.038175023
0.034777965
0.22788533
0.23607875
0.0057329681
0.23714704
0.0026238501
0.23834644
-0.00039565485
0.23953888
-0.0030199184
0.24051335
-0.0048660019
0.24118852
-0.0057801927
0.24147194
-0.0057446775
0.2407929
-0.0041333148
0.24028046
-0.0019451294
0.2381082
0.0019480757
0.23581607
0.0071982563
0.23278694
0.012368194
0.23044925
0.018720523
0.22932382
0.022683732
0.22978081
0.027651093
0.23350835
0.029001791
0.23923751
0.030067553
0.2496812
0.02773133
0.024554558
0.25990461
0.25410583
0.0048210332
0.25503034
0.0016993349
0.25602028
-0.0013855961
0.256878
-0.0038776324
0.25750281
-0.005490814
0.25782096
-0.0060983495
0.25748719
-0.0054109039
0.25692264
-0.0035687669
0.25560423
-0.00062671196
0.25332014
0.0042321608
0.25147638
0.0090420141
0.2494698
0.014374773
0.24950309
0.018687236
0.25084042
0.021346399
0.25480235
0.02368916
0.26095279
0.022851349
0.26923366
0.021786685
0.27876187
0.018203123
0.018314594
0.28500183
0.27293522
0.0039205572
0.27378867
0.00084588712
0.27438936
-0.0019862865
0.27465367
-0.0041419366
0.27468747
-0.0055246196
0.27411749
-0.0055283727
0.27305555
-0.0043489624
0.27180842
-0.0023216342
0.269924
0.0012577046
0.26847165
0.0056845172
0.26747215
0.010041512
0.2679812
0.013865716
0.27066048
0.016007955
0.27455754
0.017449342
0.28083748
0.017409218
0.28795098
0.015737846
0.29518834
0.014549325
0.30022888
0.013162592
0.016737796
0.30180567
0.29353735
0.0030338812
0.29422757
0.00015566893
0.29463009
-0.0023888101
0.29469636
-0.0042082008
0.29449755
-0.0053258163
0.29398546
-0.0050162793
0.293186
-0.0035495015
0.29186805
-0.0010036859
0.29058048
0.0025452755
0.29005788
0.0062071145
0.29050834
0.0095910471
0.29268026
0.011693799
0.29597986
0.012708353
0.30061489
0.012814311
0.30653256
0.011491547
0.31171748
0.010552931
0.31546402
0.010802783
0.31638541
0.012241204
0.01787436
0.31524884
0.31594566
0.0020067705
0.31636103
-0.00025969517
0.31596137
-0.0019891534
0.31515824
-0.0034050751
0.31377319
-0.003940759
0.31213384
-0.0033769386
0.31054917
-0.0019648263
0.30942971
0.00011577626
0.3091101
0.0028648862
0.31010007
0.0052171388
0.3128149
0.0068762176
0.31694326
0.0075654362
0.32189823
0.0077533868
0.32740321
0.0073093305
0.33205705
0.0068377074
0.33480049
0.0078094841
0.3360959
0.009507374
0.33579664
0.012540465
0.017049822
0.33662118
0.34038718
0.00088650454
0.34055771
-0.00043023264
0.33985418
-0.0012856194
0.3386662
-0.0022170972
0.33744298
-0.002717535
0.33642307
-0.0023570343
0.33573214
-0.0012738914
0.33572448
0.00012343533
0.33682849
0.0017608732
0.33895328
0.0030923459
0.34171478
0.0041147204
0.3450134
0.004266813
0.34806693
0.0046998597
0.35082974
0.004546518
0.35212406
0.0055433814
0.3537048
0.0062287466
0.35565212
0.0075600507
0.35951402
0.0086785699
0.0094610176
0.36710282
0.36660822
0.36617798
0.36489236
0.36267527
0.35995773
0.3576007
0.35632681
0.35645024
0.35821111
0.36130346
0.36541818
0.36968499
0.37438485
0.37893137
0.38447475
0.3907035
0.39826354
0.40694212
0.41640313
0.06479919
0.0779348
-0.073065363
0.059485273
0.082333515
-0.077019598
0.053844184
0.086780393
-0.081139304
0.047281868
0.091783084
-0.085220768
0.040023323
0.09743581
-0.090177265
0.031305555
0.10342145
-0.094703682
0.019540224
0.11029087
-0.098525536
0.0016378692
0.11355771
-0.095655354
-0.022946762
0.10970941
-0.085124775
-0.04767831
0.10497047
-0.080238921
-0.072104261
0.10037747
-0.075951517
-0.095050621
0.089419162
-0.066472801
-0.11357282
0.076495002
-0.057972808
-0.128277
0.065687114
-0.050982934
-0.1380935
0.05418212
-0.044365617
-0.14362499
0.041838171
-0.036306681
-0.14532382
0.028074089
-0.02637526
-0.14354092
0.016138255
-0.01792115
0.0082119048
-0.13914964
-0.012603186
0.073658149
0.082073094
0.069182287
0.086809377
0.064606566
0.091356114
0.059352651
0.097036999
0.054427832
0.10236063
0.048728561
0.10912072
0.042758451
0.11626098
0.033436015
0.12288014
0.017967351
0.12517807
-0.0012806177
0.12421844
-0.02241424
0.12151109
-0.046506801
0.11351172
-0.070544045
0.10053225
-0.090279158
0.085422226
-0.10438047
0.06828343
-0.11364499
0.051102689
-0.1207092
0.035138305
-0.1257344
0.021163457
0.011063672
-0.12858617
0.084806732
0.085516409
0.081728506
0.089887604
0.078715211
0.094369408
0.076123341
0.09962887
0.073799194
0.10468478
0.072473308
0.11044661
0.072137355
0.11659693
0.072079595
0.12293791
0.069515093
0.12774257
0.064291552
0.12944198
0.057113801
0.12868884
0.046979445
0.12364608
0.033243764
0.11426793
0.01757476
0.10109123
0.0010227446
0.084835446
-0.015622826
0.067748259
-0.031779638
0.051295118
-0.047366752
0.03675057
0.025005126
-0.061308205
0.098867137
0.088003426
0.097078987
0.091675754
0.095348907
0.096099487
0.095000553
0.099977225
0.094955784
0.10472954
0.096512515
0.10888988
0.099200208
0.11390924
0.10359557
0.11854254
0.10826236
0.12307578
0.11260593
0.12509841
0.11553473
0.12576004
0.11553204
0.12364877
0.11220858
0.11759139
0.10477793
0.10852187
0.093658947
0.095954431
0.079133
0.082274206
0.062148489
0.068279629
0.04364758
0.055251481
0.044184237
0.024468468
0.11377065
0.089681772
0.11276967
0.092676733
0.1123442
0.096524964
0.11250521
0.099816213
0.113934
0.10330075
0.11631696
0.10650692
0.11998553
0.11024067
0.12525467
0.1132734
0.13185493
0.11647552
0.13903231
0.11792103
0.14594112
0.11885122
0.1514849
0.118105
0.15467465
0.11440164
0.15398661
0.10920992
0.14900347
0.10093757
0.14014108
0.09113659
0.12683749
0.081583218
0.11052458
0.07156439
0.062701532
0.09200729
0.12741647
0.09106483
0.12678942
0.093303784
0.12694276
0.096371623
0.12725517
0.09950381
0.12897088
0.10158503
0.13124239
0.1042354
0.1347138
0.10676927
0.13913312
0.10885408
0.1451026
0.11050605
0.15171702
0.11130661
0.15847009
0.11209815
0.16494624
0.11162885
0.16945319
0.10989469
0.17210726
0.10655585
0.1709808
0.10206403
0.1663774
0.095739981
0.15848361
0.089477016
0.14721954
0.082828462
0.076901161
0.13301991
0.13959309
0.092410262
0.13866625
0.094230623
0.13831891
0.096718969
0.13870513
0.099117591
0.13985602
0.10043414
0.14179881
0.10229262
0.14437106
0.10419702
0.14758594
0.1056392
0.15235847
0.10573351
0.15723964
0.10642544
0.16232945
0.10700835
0.16764288
0.10631541
0.1727443
0.10479328
0.17716112
0.10213903
0.17862639
0.10059876
0.17649336
0.097873011
0.17168774
0.094282637
0.16454484
0.089971363
0.085869805
0.15557619
0.14946096
0.094034262
0.14819205
0.095499539
0.14720272
0.0977083
0.14726442
0.099055889
0.14740352
0.10029503
0.148534
0.10116213
0.15020315
0.10252788
0.15281224
0.1030301
0.15593268
0.10261308
0.159191
0.10316712
0.16304395
0.10315539
0.16730041
0.10205895
0.17119583
0.10089786
0.17348084
0.099854022
0.17534396
0.098735644
0.17647926
0.096737712
0.17594108
0.094820818
0.17248555
0.093426891
0.092151418
0.16620394
0.15651246
0.096229585
0.15435434
0.097657651
0.15308047
0.098982178
0.15246934
0.099667018
0.15187038
0.10089399
0.15217352
0.10085899
0.15297205
0.10172935
0.1546344
0.10136775
0.15631843
0.10092905
0.15882354
0.10066201
0.16111169
0.10086725
0.16393555
0.099235094
0.16636973
0.098463668
0.16935083
0.096872926
0.17210154
0.095984938
0.17348489
0.095354363
0.17334784
0.094957866
0.17176531
0.09500942
0.095217378
0.16869935
0.16155697
0.09930727
0.1587195
0.10049512
0.15662049
0.10108119
0.15479402
0.10149349
0.15381964
0.10186837
0.15297209
0.10170655
0.1530369
0.10166454
0.15370499
0.10069966
0.15444094
0.1001931
0.15596092
0.099142029
0.15850917
0.098319
0.16241708