/*--------------------------------*- C++ -*----------------------------------*\
  =========                 |
  \\      /  F ield         | OpenFOAM: The Open Source CFD Toolbox
   \\    /   O peration     | Website:  https://openfoam.org
    \\  /    A nd           | Version:  11
     \\/     M anipulation  |
\*---------------------------------------------------------------------------*/
FoamFile
{
    format      ascii;
    class       volVectorField;
    location    "6.8";
    object      U;
}
// * * * * * * * * * * * * * * * * * * * * * * * * * * * * * * * * * * * * * //

dimensions      [0 1 -1 0 0 0 0];

internalField   nonuniform List<vector> 
5472
(
(10.08878 2.5395896 1.7549068e-18)
(10.276166 2.5468799 -1.827367e-18)
(10.44747 2.5497915 -1.8539558e-18)
(10.656684 2.5259179 -1.8918277e-18)
(10.817821 2.4997845 5.8770274e-18)
(11.015663 2.4284946 -3.1065177e-20)
(11.170878 2.38529 -3.1157214e-18)
(11.373909 2.2943733 1.084923e-18)
(11.485774 2.2084372 0)
(11.660741 2.1151899 0)
(11.808555 1.9986343 0)
(11.918566 1.8830653 -3.4528217e-18)
(12.079531 1.7548769 1.7749134e-18)
(12.160795 1.60917 -1.9336596e-20)
(12.281066 1.4688871 1.2100681e-18)
(12.353012 1.3035136 -6.2109801e-19)
(12.425994 1.1642225 -9.3459321e-19)
(12.49897 1.000468 3.1908628e-19)
(12.528057 0.85947288 0)
(10.120009 2.3315106 -1.6026609e-18)
(10.271792 2.3446824 3.3113114e-18)
(10.453613 2.3577617 -1.7109322e-18)
(10.603626 2.3148531 -1.7298794e-18)
(10.783 2.3200779 2.0899639e-20)
(10.951775 2.252748 0)
(11.131419 2.2119826 1.87033e-18)
(11.25877 2.1342495 -3.8276798e-18)
(11.415386 2.0810752 4.9465288e-18)
(11.600747 1.9681083 1.0120308e-18)
(11.702932 1.895161 0)
(11.868792 1.7675094 2.1140071e-18)
(11.979453 1.6573695 0)
(12.078374 1.5204243 5.396423e-19)
(12.189849 1.3951907 -5.5595948e-19)
(12.25586 1.2521077 0)
(12.350409 1.1161417 0)
(12.382975 0.97978232 -2.819104e-19)
(12.452929 0.83189746 0)
(10.080731 2.1811507 0)
(10.232458 2.191236 1.505105e-18)
(10.404519 2.1962918 1.5452211e-18)
(10.546072 2.2093592 0)
(10.716939 2.1974678 -1.6576462e-20)
(10.897087 2.1436752 -2.306491e-20)
(11.016023 2.1385336 -1.7167423e-18)
(11.185974 2.0577042 0)
(11.367368 2.0073737 -1.7761705e-18)
(11.502772 1.9182192 -4.5562884e-18)
(11.649503 1.8407149 1.0768759e-20)
(11.786578 1.7284885 -9.3272907e-19)
(11.882257 1.631635 -9.6185016e-19)
(12.006143 1.5039743 1.9710219e-18)
(12.086497 1.3842318 1.4923031e-18)
(12.188052 1.2536624 5.0402023e-19)
(12.252606 1.1193987 2.5283018e-19)
(12.312829 0.9845352 -3.8224735e-19)
(12.37172 0.84324733 1.275648e-19)
(10.090952 1.9899414 0)
(10.280758 2.0109512 -1.3584303e-18)
(10.386035 2.0459996 -1.3931957e-18)
(10.538547 2.0386562 2.8478179e-18)
(10.715889 2.0299292 -1.4934001e-18)
(10.807269 2.0208627 0)
(10.979529 1.9812134 -1.5490748e-18)
(11.143809 1.9154659 1.5689914e-18)
(11.273236 1.8880648 -1.6246346e-18)
(11.42089 1.7855115 -1.6321141e-20)
(11.531854 1.7358827 -1.6890187e-18)
(11.661915 1.6211301 0)
(11.776613 1.5468661 0)
(11.889677 1.4125502 -8.7732545e-19)
(11.990352 1.309878 -8.8838538e-19)
(12.086461 1.178425 0)
(12.158225 1.0481354 -2.2681815e-19)
(12.230235 0.92677334 1.1470178e-19)
(12.280757 0.78820681 2.2902472e-19)
(10.098129 1.837044 0)
(10.224205 1.8735783 0)
(10.324852 1.906981 0)
(10.50342 1.9164102 -2.5755253e-18)
(10.588156 1.9238449 1.3399467e-18)
(10.747422 1.8951899 -4.0717845e-18)
(10.925166 1.8743863 5.5776391e-18)
(11.035907 1.849737 -2.8504596e-18)
(11.190192 1.7979858 2.8835978e-21)
(11.315756 1.7377922 1.478072e-18)
(11.445791 1.6849916 1.5057436e-18)
(11.593785 1.5763902 -3.0788877e-18)
(11.702496 1.5118683 2.3496173e-18)
(11.823095 1.3850036 -7.9595212e-19)
(11.914463 1.3024195 0)
(12.015285 1.1586785 8.1249633e-19)
(12.095298 1.0561728 -4.0888162e-19)
(12.164206 0.91903109 2.0413176e-19)
(12.221035 0.79779148 -2.0353872e-19)
(10.093711 1.6954325 0)
(10.248392 1.7359483 -4.4279676e-18)
(10.335449 1.7618318 2.2880135e-18)
(10.479065 1.7746214 2.3410234e-18)
(10.579706 1.7630203 1.1948346e-18)
(10.757102 1.7707951 -1.2172922e-18)
(10.839782 1.7615451 2.526274e-18)
(10.984658 1.7242156 1.2762276e-18)
(11.121976 1.6911748 2.6047848e-18)
(11.253546 1.6341054 -2.6720237e-18)
(11.401639 1.5717322 1.4509338e-20)
(11.502089 1.4921646 2.7648514e-18)
(11.623514 1.4174658 0)
(11.722476 1.3089226 -7.1328441e-19)
(11.833334 1.2150754 7.1511043e-19)
(11.915776 1.0857444 -1.8063747e-18)
(12.008212 0.98973012 7.2686395e-19)
(12.059541 0.85226383 -1.8239189e-19)
(12.130151 0.75342876 2.9408907e-22)
(10.091423 1.5485643 3.9085692e-18)
(10.211683 1.5870269 3.9943625e-18)
(10.293186 1.635754 0)
(10.434814 1.6303433 -6.0035904e-21)
(10.522354 1.6556974 -4.3120696e-18)
(10.657884 1.6624185 4.4329062e-18)
(10.752704 1.6485807 0)
(10.931505 1.637933 -1.1571938e-18)
(11.040816 1.5960691 -4.6939447e-18)
(11.186972 1.5574659 2.4108323e-18)
(11.29958 1.512436 1.2132913e-18)
(11.421859 1.4385027 -1.2446471e-18)
(11.549907 1.3735018 0)
(11.643846 1.2768748 6.3195053e-19)
(11.767961 1.1834778 0)
(11.839386 1.076869 -6.4417922e-19)
(11.948019 0.96067907 9.7529968e-19)
(11.988998 0.85179575 7.3203201e-22)
(12.078976 0.73323742 -7.3247652e-22)
(10.135518 1.4470672 1.7494093e-18)
(10.231737 1.464547 -3.5899625e-18)
(10.31575 1.4954664 -3.6691107e-18)
(10.425855 1.5191509 3.7834127e-18)
(10.500127 1.5438116 -1.9420313e-18)
(10.651179 1.5267324 -1.9747422e-18)
(10.743356 1.5443891 0)
(10.896428 1.5207127 3.0893972e-18)
(10.971318 1.4988841 -1.1695852e-20)
(11.126068 1.4708958 -3.213074e-18)
(11.211229 1.4083054 3.2886445e-18)
(11.357059 1.3643085 0)
(11.441557 1.2800074 0)
(11.571693 1.2052766 1.1294019e-18)
(11.658632 1.1128746 -5.7822608e-19)
(11.743716 1.0102166 -1.1521312e-18)
(11.83243 0.90693357 2.9156994e-19)
(11.88058 0.80552627 2.9325752e-19)
(11.955321 0.68372978 7.2022305e-20)
(10.086558 1.2886217 -1.5699634e-18)
(10.173185 1.3356284 4.818097e-18)
(10.266749 1.3830265 -4.9675506e-18)
(10.373691 1.3884121 3.3863371e-18)
(10.460557 1.4085084 0)
(10.580574 1.4231177 1.7678059e-18)
(10.65709 1.4296652 -1.8213264e-18)
(10.817434 1.4179873 0)
(10.903951 1.4189833 9.3691035e-19)
(11.067594 1.3800291 -1.9344545e-18)
(11.143646 1.3442882 -9.7060411e-19)
(11.301852 1.2863182 -7.8635669e-21)
(11.372353 1.2213995 -3.0039394e-18)
(11.516087 1.1557711 5.1513269e-19)
(11.579908 1.0600304 -5.0368762e-19)
(11.698868 0.97984768 1.0278903e-18)
(11.749543 0.86532432 -5.1341233e-19)
(11.83937 0.77552141 2.6147558e-19)
(11.884613 0.65492324 2.5755539e-19)
(10.154004 1.1747278 -2.8206165e-18)
(10.228142 1.2086214 0)
(10.31404 1.2577905 1.4775261e-18)
(10.386721 1.2835406 -4.5325757e-18)
(10.465953 1.3207561 1.5602129e-18)
(10.56621 1.3065016 -1.5893193e-18)
(10.65546 1.328879 1.6139106e-18)
(10.775334 1.3159736 -1.6601966e-18)
(10.852092 1.3159593 0)
(10.989628 1.2832919 8.5273087e-19)
(11.059421 1.2633662 0)
(11.197934 1.2138148 8.7640217e-19)
(11.259671 1.1654158 2.2078253e-23)
(11.403715 1.0927204 -4.4644379e-19)
(11.459048 1.0175433 4.5049609e-19)
(11.595702 0.92820978 4.5382803e-19)
(11.633014 0.8234665 -2.290801e-21)
(11.745791 0.73826982 -6.8641662e-19)
(11.76376 0.60827809 0)
(10.107438 1.0504753 0)
(10.166282 1.105019 1.2885631e-18)
(10.249576 1.144096 0)
(10.312323 1.1668256 1.3438093e-18)
(10.409385 1.1874599 -4.1552409e-18)
(10.4879 1.2125418 4.2542427e-18)
(10.58115 1.2261503 -1.4314419e-18)
(10.687987 1.220862 4.4330801e-18)
(10.783693 1.2264939 0)
(10.913167 1.1980547 7.6331145e-19)
(10.99915 1.1844752 0)
(11.14707 1.1194474 -1.5573536e-18)
(11.226073 1.0821139 3.1610984e-18)
(11.372967 1.0045723 -6.57453e-21)
(11.434209 0.95130263 -4.0265521e-19)
(11.562297 0.86028566 0)
(11.596113 0.78825598 0)
(11.704358 0.6896202 0)
(11.716604 0.58825201 -5.0674504e-20)
(10.141132 0.95060768 4.4812043e-18)
(10.211516 1.0061399 -5.7618444e-18)
(10.280007 1.0351679 2.3505661e-18)
(10.333586 1.0679951 -6.2818253e-21)
(10.415517 1.0946388 0)
(10.479589 1.1091497 -2.5122042e-18)
(10.577163 1.1309037 1.2964285e-18)
(10.65822 1.1359803 -1.3070488e-18)
(10.76227 1.1360181 0)
(10.842831 1.1218809 -6.7443189e-19)
(10.941907 1.1027993 1.3655782e-18)
(11.044814 1.0649084 -1.1031524e-20)
(11.124466 1.0281969 -1.4066493e-18)
(11.246598 0.96079385 -2.8194957e-18)
(11.318116 0.90934613 2.4887087e-18)
(11.437617 0.81463588 -1.4281427e-18)
(11.485684 0.75283328 8.9743688e-19)
(11.59255 0.63881734 1.7981812e-19)
(11.614973 0.56187147 4.4476177e-20)
(10.113823 0.83962904 -7.0027289e-18)
(10.169994 0.88341859 4.1071115e-18)
(10.224362 0.92221426 0)
(10.284912 0.96572367 -5.3550174e-18)
(10.362182 0.98482834 4.3983914e-18)
(10.428516 1.015017 1.1208423e-18)
(10.521244 1.0210026 3.4191091e-18)
(10.606701 1.0334933 -2.332267e-18)
(10.713647 1.0428363 -2.9456935e-18)
(10.796189 1.0349981 1.8056229e-18)
(10.917004 1.0171673 2.4195542e-18)
(10.999291 0.98422969 -3.6887186e-18)
(11.104179 0.93916249 2.4793425e-18)
(11.194089 0.88601343 -6.3106994e-19)
(11.282467 0.83020811 3.113029e-19)
(11.368598 0.75958927 -3.6086731e-21)
(11.4416 0.69392151 -7.9148372e-19)
(11.524561 0.60126551 -1.5765678e-19)
(11.569319 0.5245137 -3.9520876e-20)
(10.141029 0.75881233 2.6743383e-18)
(10.191008 0.79068029 3.6391374e-18)
(10.234554 0.83278682 -3.7359647e-18)
(10.294098 0.86747824 9.5336652e-19)
(10.349681 0.8999884 -2.9111639e-18)
(10.411551 0.93154539 2.9906094e-18)
(10.481347 0.94374615 1.0073001e-18)
(10.550518 0.95644276 -5.1490874e-18)
(10.639345 0.9556132 3.6580416e-18)
(10.718535 0.95595939 -1.5994434e-18)
(10.831772 0.94367132 0)
(10.912478 0.93052918 -5.438086e-19)
(11.027178 0.88809993 -1.6395316e-18)
(11.113585 0.84228873 5.6000723e-19)
(11.213639 0.78011953 1.6657335e-18)
(11.284557 0.71449993 5.5472573e-19)
(11.376412 0.63842419 -1.1149611e-18)
(11.428949 0.56271817 2.8051754e-19)
(11.502042 0.47446469 3.1282703e-19)
(10.08857 0.65375979 -3.9438561e-18)
(10.14784 0.69247979 3.242852e-18)
(10.201396 0.7311706 0)
(10.263139 0.75430697 -8.4507768e-19)
(10.322782 0.78901171 3.4439294e-18)
(10.393683 0.82448596 -7.0348157e-18)
(10.46731 0.85423197 9.1472107e-19)
(10.549711 0.86832675 3.6561777e-18)
(10.624186 0.87052175 2.7762895e-18)
(10.699707 0.86649094 -4.6904139e-19)
(10.7862 0.85190558 0)
(10.866301 0.83831582 2.3856858e-18)
(10.971803 0.8011745 -9.7196196e-19)
(11.052077 0.77165388 9.7086681e-19)
(11.14128 0.71557062 -1.4671453e-18)
(11.212245 0.66254989 -2.4545083e-19)
(11.296616 0.58999903 0)
(11.343792 0.52144062 0)
(11.425613 0.4281872 -3.0623447e-20)
(10.127713 0.56784514 6.8798006e-19)
(10.167629 0.61553172 -6.4659246e-18)
(10.196492 0.65635204 2.9282749e-18)
(10.237737 0.68238548 -3.7463751e-18)
(10.282573 0.70941013 -7.6297317e-19)
(10.342707 0.73225531 0)
(10.410826 0.76562858 -3.9465816e-18)
(10.486836 0.79080635 2.4197172e-18)
(10.565294 0.80815684 -8.1610595e-19)
(10.651308 0.80304609 -1.2386789e-21)
(10.731528 0.79282258 0)
(10.816701 0.77672046 0)
(10.903309 0.74510362 -4.2369669e-19)
(10.98856 0.71664523 -4.2615742e-19)
(11.071259 0.66418983 2.140145e-19)
(11.149174 0.61267614 1.2890245e-18)
(11.22527 0.54466605 -8.6422543e-19)
(11.284523 0.47863089 1.0803509e-19)
(11.356714 0.38901315 2.6753735e-20)
(10.100607 0.46070716 4.3446114e-18)
(10.134909 0.51164116 -4.4531975e-18)
(10.189274 0.54956761 0)
(10.23662 0.58891183 6.6146693e-19)
(10.284085 0.6178754 0)
(10.339806 0.64068929 6.8635557e-19)
(10.394559 0.66799422 6.9785146e-19)
(10.456752 0.6892665 0)
(10.528578 0.70884135 3.5816276e-18)
(10.601151 0.71480609 -2.5518631e-18)
(10.678851 0.71558851 1.8324071e-18)
(10.764391 0.70188992 -1.4862865e-18)
(10.846252 0.67617019 1.4880192e-18)
(10.932363 0.64588248 -8.6311459e-21)
(11.003811 0.60449083 -1.5111582e-18)
(11.081661 0.55509343 -1.8838704e-19)
(11.142421 0.49645566 -1.8949622e-19)
(11.209957 0.42995947 -9.4289423e-20)
(11.260744 0.3477529 0)
(10.106751 0.3908365 4.9530767e-18)
(10.116612 0.44525559 0)
(10.161281 0.46814506 0)
(10.182863 0.51452013 5.8390817e-19)
(10.24382 0.53710259 0)
(10.288093 0.57892793 -6.0437617e-19)
(10.351813 0.59876791 -6.1377998e-19)
(10.41174 0.62191037 -2.4866454e-18)
(10.478177 0.63843329 2.5303126e-18)
(10.548014 0.64528182 0)
(10.626992 0.64829119 -2.8951225e-18)
(10.707665 0.64020913 2.2829986e-18)
(10.78982 0.62188001 1.3056557e-18)
(10.872745 0.59462622 -2.6321633e-18)
(10.948532 0.55764596 2.6419295e-18)
(11.026075 0.51007824 -1.9876714e-18)
(11.088655 0.45487708 6.6340903e-19)
(11.161903 0.39004397 0)
(11.209158 0.3156753 0)
(10.088822 0.31124261 7.7803194e-18)
(10.117778 0.35347937 -3.9710509e-18)
(10.148128 0.38517279 4.0394466e-18)
(10.177922 0.41893156 -4.635832e-18)
(10.22373 0.44756137 -4.1826818e-18)
(10.257041 0.48219655 4.2623736e-18)
(10.325581 0.50684104 2.155949e-18)
(10.375357 0.5372939 -8.4029083e-21)
(10.446773 0.54626395 -2.2211062e-18)
(10.512152 0.56145935 0)
(10.58566 0.56023691 0)
(10.661378 0.56178215 2.8456203e-19)
(10.738776 0.54654922 0)
(10.816119 0.52490471 1.1494331e-18)
(10.888738 0.49613843 -1.159181e-18)
(10.958419 0.45523777 -5.779319e-19)
(11.022232 0.40483953 7.2552925e-19)
(11.081804 0.34516976 -3.6171988e-19)
(11.128195 0.27788632 2.8891372e-19)
(10.063898 0.24758938 0)
(10.10061 0.28702616 0)
(10.121483 0.32005667 3.5591259e-18)
(10.16319 0.35730645 -3.627049e-18)
(10.196364 0.38560567 4.139167e-18)
(10.24277 0.41698084 -4.2121435e-18)
(10.296036 0.44196803 0)
(10.340179 0.47070598 4.804716e-19)
(10.403301 0.48688496 1.9397063e-18)
(10.460228 0.50247707 -1.9675649e-18)
(10.535591 0.50374952 1.9759927e-18)
(10.607431 0.50413457 -9.8178613e-21)
(10.689382 0.4877988 -4.012429e-18)
(10.761637 0.47181547 2.0198793e-18)
(10.838932 0.44263574 0)
(10.907403 0.40656762 -1.0099556e-18)
(10.974644 0.36156116 1.583524e-18)
(11.035029 0.30606076 -6.9637661e-19)
(11.081587 0.24143909 2.5231882e-19)
(10.060516 0.17531313 1.1724598e-17)
(10.080648 0.20838726 -6.1684904e-18)
(10.099476 0.23639773 0)
(10.137104 0.26665305 -3.9829848e-19)
(10.166188 0.30100798 -4.0436718e-19)
(10.219793 0.33208873 4.1014581e-19)
(10.262055 0.36309695 0)
(10.321894 0.38534318 -4.2055692e-19)
(10.372604 0.40470145 3.3970512e-18)
(10.436301 0.41843275 -3.4425213e-18)
(10.496227 0.42642242 0)
(10.567073 0.42981426 0)
(10.637498 0.42140815 2.1933412e-19)
(10.704808 0.407683 1.1009952e-19)
(10.779178 0.38609965 -1.1039004e-19)
(10.838817 0.35539144 0)
(10.903771 0.31719161 -4.9600853e-19)
(10.955823 0.27038747 4.4220432e-19)
(11.002365 0.21359529 0)
(10.044281 0.12799204 -1.0656141e-17)
(10.061998 0.15834061 1.1183305e-17)
(10.086307 0.18335899 -6.9975018e-21)
(10.109236 0.21173891 -5.2494123e-18)
(10.139368 0.23635362 0)
(10.178047 0.26833903 2.8733748e-18)
(10.220628 0.29474263 -6.0074406e-18)
(10.272661 0.32163927 2.9502062e-18)
(10.326868 0.34265445 0)
(10.390321 0.35550478 -2.9967051e-18)
(10.452623 0.36461409 3.0309807e-18)
(10.529343 0.3645793 1.518355e-18)
(10.592492 0.36282391 -1.5319389e-18)
(10.672386 0.34634157 1.339056e-18)
(10.735869 0.3290788 -1.445205e-18)
(10.808398 0.30047412 0)
(10.866144 0.26594217 -4.8163752e-20)
(10.923352 0.22108467 -1.4377405e-19)
(10.966441 0.16797274 2.0368351e-19)
(10.03982 0.074422236 2.9303823e-19)
(10.056401 0.096235574 -5.9560168e-19)
(10.073612 0.11870223 4.833961e-18)
(10.095364 0.14572824 2.9970593e-19)
(10.122275 0.17075232 -3.1981511e-19)
(10.155961 0.19671116 -5.0425958e-18)
(10.197529 0.2237658 1.5920744e-19)
(10.238857 0.24461752 2.7328644e-18)
(10.294829 0.26590916 -2.6038162e-18)
(10.344754 0.28452947 -1.6393414e-19)
(10.409927 0.29362073 0)
(10.473509 0.30157549 2.8153562e-18)
(10.539835 0.2986315 -2.8383317e-18)
(10.614662 0.29268552 -1.2506189e-18)
(10.67606 0.27977943 8.9635243e-20)
(10.748603 0.26081072 2.0120487e-18)
(10.803884 0.23772124 -6.2952577e-19)
(10.865844 0.20135495 -6.2688658e-20)
(10.906724 0.16355704 -1.0395493e-20)
(10.016604 0.050433262 0)
(10.030511 0.063644722 2.6134539e-19)
(10.041703 0.078864363 4.2391453e-18)
(10.062884 0.097574149 -4.7051144e-18)
(10.088929 0.11821583 4.4866224e-18)
(10.125027 0.14018251 -4.4102066e-18)
(10.165525 0.16144416 1.3926273e-19)
(10.213425 0.18113911 -1.404883e-19)
(10.264115 0.19889331 2.1229016e-18)
(10.320573 0.21374963 -2.1462322e-18)
(10.385997 0.22330042 2.151182e-18)
(10.449779 0.22743159 -2.387427e-18)
(10.521087 0.22493632 0)
(10.584864 0.21600742 1.160257e-18)
(10.652338 0.202227 -1.3124954e-18)
(10.714186 0.18300023 5.8126314e-19)
(10.771645 0.15789643 -5.4687255e-19)
(10.825048 0.12816293 -2.5383928e-19)
(10.866851 0.093110919 2.9441237e-19)
(10.019128 0.025408145 -4.4835208e-21)
(10.030647 0.032476665 -7.3348765e-18)
(10.043065 0.041836084 1.1612998e-19)
(10.056691 0.054361381 -5.839759e-23)
(10.075431 0.066021846 1.1896696e-19)
(10.099863 0.086580209 0)
(10.12993 0.10276852 3.8854873e-18)
(10.172501 0.12292753 -4.0523737e-18)
(10.213601 0.13877923 1.235535e-19)
(10.268325 0.15489595 -1.9271559e-18)
(10.325938 0.16786102 4.0704496e-18)
(10.389987 0.17752811 -4.0258964e-18)
(10.46269 0.18345388 2.0236192e-18)
(10.531619 0.18370489 0)
(10.603789 0.18021001 -9.7871097e-19)
(10.668549 0.17093136 1.0145397e-18)
(10.728745 0.15743154 -1.5760694e-20)
(10.783456 0.13488799 2.3710142e-23)
(10.82709 0.11059271 -3.9225233e-21)
(10.006117 0.011573499 6.3888585e-18)
(10.012561 0.016556003 -6.4190637e-18)
(10.021814 0.022872142 6.4033372e-18)
(10.035666 0.027635218 1.0277909e-19)
(10.053258 0.033592194 0)
(10.076398 0.041435236 0)
(10.108908 0.048984642 -5.2906055e-20)
(10.148179 0.057240354 -3.3620482e-18)
(10.195944 0.06425541 3.5028611e-18)
(10.251901 0.069988123 3.4326876e-18)
(10.311439 0.075220832 -1.6685732e-18)
(10.379163 0.07633904 -1.8332031e-18)
(10.447509 0.074713383 0)
(10.51835 0.071115292 2.7467269e-20)
(10.58941 0.066135652 2.7431145e-20)
(10.653429 0.059145267 8.6217682e-19)
(10.713658 0.048807739 -8.9214912e-19)
(10.763134 0.034559179 1.9789605e-19)
(10.805023 0.018733149 -2.1820237e-19)
(10.005258 0.0024473498 -4.3004452e-20)
(10.009342 0.0040437358 5.5546821e-18)
(10.016493 0.0068734099 -3.186143e-21)
(10.027115 0.011006882 -4.5490497e-21)
(10.041915 0.015913388 -5.7482167e-18)
(10.062299 0.021329957 0)
(10.08962 0.027071952 2.8779016e-18)
(10.124668 0.032778615 -2.9058006e-18)
(10.167645 0.038192051 -4.6317099e-20)
(10.218111 0.042911138 -2.3284509e-20)
(10.275836 0.046813743 -2.3385837e-20)
(10.33884 0.050615964 2.3467778e-20)
(10.402407 0.055291725 0)
(10.468374 0.061220681 1.4887237e-18)
(10.535306 0.064635363 -1.5245923e-18)
(10.59988 0.069400335 -7.4746546e-19)
(10.675502 0.071511084 7.6165207e-19)
(10.721943 0.06088002 3.8442825e-19)
(10.781039 0.063650028 -3.7816199e-19)
(12.596229 0.7257284 -1.5359223e-19)
(12.597932 0.58947955 -6.1606406e-19)
(12.639733 0.46517767 6.009413e-19)
(12.637646 0.34854629 0)
(12.64375 0.23466715 -1.129598e-18)
(12.624667 0.13111766 -2.1750755e-18)
(12.608705 0.034195694 0)
(12.592155 -0.047240385 -1.7425026e-20)
(12.556765 -0.13692887 3.6939438e-18)
(12.532156 -0.20816594 1.7537626e-18)
(12.495785 -0.27958346 -1.638047e-18)
(12.475785 -0.32887518 3.1210021e-18)
(12.457371 -0.37337079 -2.9099998e-18)
(12.449518 -0.40112291 0)
(12.448084 -0.42138352 1.2953716e-18)
(12.460655 -0.42305588 -1.2130228e-18)
(12.492907 -0.40859291 -2.3427709e-18)
(12.533096 -0.37546333 2.2313136e-18)
(12.574073 -0.31078643 -1.0712756e-18)
(12.471593 0.68789348 -1.327328e-19)
(12.5086 0.54318481 7.9364753e-19)
(12.52718 0.40333312 -5.1971215e-19)
(12.525343 0.27554657 0)
(12.558938 0.16567322 -9.866445e-19)
(12.521028 0.054974019 2.8326198e-18)
(12.538075 -0.040437992 0)
(12.512306 -0.1180932 0)
(12.506869 -0.19827469 0)
(12.4994 -0.25203151 0)
(12.475858 -0.31769823 2.9163464e-18)
(12.456528 -0.35369458 -4.1367856e-18)
(12.445219 -0.39594316 -3.9420141e-18)
(12.436781 -0.41990223 2.4569723e-18)
(12.440585 -0.4410749 -2.3184241e-18)
(12.464242 -0.4461339 2.2011965e-18)
(12.514602 -0.43680948 6.8095356e-21)
(12.609916 -0.4186679 -2.0086472e-18)
(12.708078 -0.38698452 1.9064061e-18)
(12.387141 0.70033682 0)
(12.441412 0.56100679 -4.5951889e-19)
(12.429801 0.41471987 -9.0299137e-19)
(12.455797 0.28640703 -4.3337796e-21)
(12.457857 0.17116204 -6.3817953e-21)
(12.438369 0.043833797 1.6682856e-18)
(12.445682 -0.039416163 -3.1807856e-18)
(12.401493 -0.15512566 1.5158625e-18)
(12.407679 -0.21668743 1.3409065e-20)
(12.392807 -0.29910275 0)
(12.396281 -0.3464496 3.9457948e-18)
(12.396974 -0.40682646 9.6798505e-21)
(12.409521 -0.44312449 2.3650312e-18)
(12.417278 -0.47989379 2.245166e-18)
(12.463285 -0.50306959 3.1732663e-18)
(12.494891 -0.52144357 -3.9948128e-18)
(12.575274 -0.53855873 -1.0015634e-20)
(12.67511 -0.53900508 3.6030983e-18)
(12.805913 -0.61440415 1.702754e-18)
(12.323324 0.64833974 3.9797945e-19)
(12.358149 0.5044749 -7.9349029e-19)
(12.368068 0.36271219 1.1700133e-18)
(12.378537 0.23041673 0)
(12.37572 0.11065574 2.2342399e-18)
(12.358654 -0.0036759931 -3.6040055e-18)
(12.354882 -0.10396915 2.7851287e-18)
(12.311716 -0.20185449 -8.9602657e-22)
(12.334788 -0.2748678 1.1877899e-20)
(12.28463 -0.34705468 -1.2295667e-18)
(12.322642 -0.42004289 0)
(12.310104 -0.46443825 -1.1058252e-18)
(12.33146 -0.52575165 1.0640245e-18)
(12.368348 -0.5599373 -1.9975962e-18)
(12.411328 -0.62440767 0)
(12.492476 -0.6573907 0)
(12.59415 -0.73203358 -1.7039881e-18)
(12.671581 -0.79265781 0)
(12.82653 -0.91377571 1.5201902e-18)
(12.266944 0.64884299 3.4347862e-19)
(12.302836 0.51243996 -3.4141263e-19)
(12.325829 0.35432318 2.9885572e-21)
(12.33318 0.23441511 -6.6308981e-19)
(12.326565 0.1021003 6.3983839e-19)
(12.318793 -0.0047807043 -5.2664329e-23)
(12.300613 -0.11555746 -1.2121799e-18)
(12.2853 -0.20778706 0)
(12.277137 -0.28638183 -2.2545149e-18)
(12.258415 -0.36586835 1.0753327e-18)
(12.265195 -0.43487143 0)
(12.286596 -0.48656682 0)
(12.284084 -0.57248444 -1.8687615e-18)
(12.360259 -0.6166141 -1.7782929e-18)
(12.375044 -0.72211156 1.6850195e-18)
(12.498481 -0.77964456 3.1941078e-18)
(12.533012 -0.91716626 1.5060177e-18)
(12.698841 -1.0237418 -1.4373211e-18)
(12.728402 -1.2366987 1.1998582e-20)
(12.16017 0.59296139 0)
(12.216956 0.47059565 2.9624776e-19)
(12.228193 0.30484257 -1.4587211e-18)
(12.250277 0.19209776 5.7357652e-19)
(12.231975 0.042402167 1.685989e-18)
(12.24012 -0.048519922 -1.0997067e-18)
(12.199957 -0.17957166 -2.1341377e-18)
(12.215533 -0.24757424 2.0441351e-18)
(12.178075 -0.35274483 -1.0018521e-18)
(12.193226 -0.41339376 1.8934491e-18)
(12.175673 -0.50516775 0)
(12.230324 -0.56385746 0)
(12.207242 -0.65946466 -1.6515861e-18)
(12.296637 -0.7344137 4.7097875e-18)
(12.278742 -0.86159341 -5.9693683e-18)
(12.404451 -0.96594148 2.8312784e-18)
(12.378918 -1.1346364 -5.3644814e-18)
(12.532729 -1.2921551 1.2680573e-18)
(12.473893 -1.5654825 2.3977339e-18)
(12.094573 0.59121087 6.4230862e-20)
(12.18274 0.44719451 2.5645785e-19)
(12.157051 0.29290647 -5.0362108e-19)
(12.203202 0.16937558 0)
(12.16833 0.03449878 -9.7844192e-19)
(12.18853 -0.07101385 2.8604561e-18)
(12.150456 -0.19464578 -1.8464932e-18)
(12.169693 -0.27128744 9.0114667e-19)
(12.122526 -0.38115297 -1.7411939e-18)
(12.156747 -0.44950529 5.0105966e-18)
(12.122288 -0.55360386 -3.1935472e-18)
(12.181235 -0.63129917 0)
(12.148897 -0.74650635 1.4613953e-18)
(12.23064 -0.85348958 2.7887817e-18)
(12.183254 -0.99610332 -3.9760531e-18)
(12.287445 -1.1501425 3.7721469e-18)
(12.20856 -1.3281843 -3.5773594e-18)
(12.298806 -1.5308402 -2.2443601e-18)
(12.150045 -1.7993356 -1.0500701e-18)
(11.982311 0.56000178 1.6593301e-19)
(12.071818 0.39939709 2.2050126e-19)
(12.038553 0.26437249 -4.3535017e-19)
(12.122319 0.11616394 0)
(12.056321 -0.0050693609 1.6899443e-18)
(12.119351 -0.13464152 -8.3037018e-19)
(12.043567 -0.23343791 0)
(12.088661 -0.33418034 -1.5662818e-18)
(12.020905 -0.43222886 7.6022886e-19)
(12.073621 -0.52617264 0)
(12.01842 -0.63239859 -1.4096191e-18)
(12.083002 -0.7376428 1.3511736e-18)
(12.026374 -0.86497618 1.2917423e-18)
(12.09193 -0.99389238 -2.4620979e-18)
(12.0144 -1.1549778 2.3461036e-18)
(12.059104 -1.317696 -1.1162487e-18)
(11.937635 -1.5179999 -1.0640413e-18)
(11.939752 -1.7037847 -1.0110903e-18)
(11.720605 -1.9627264 -9.6346715e-19)
(11.967521 0.53394727 3.8091484e-19)
(11.999807 0.3679947 -1.8924104e-19)
(12.027383 0.24484876 0)
(12.039752 0.084959934 0)
(12.026833 -0.022609773 -1.4640374e-18)
(12.039414 -0.16960491 1.436418e-18)
(11.99791 -0.25017159 0)
(12.026171 -0.38409812 6.8124004e-19)
(11.964974 -0.4676718 -6.6009133e-19)
(12.009669 -0.59286594 0)
(11.926121 -0.69800535 1.2305151e-18)
(11.98321 -0.83378871 3.3417762e-21)
(11.894896 -0.9477339 2.6044564e-21)
(11.929434 -1.1179997 0)
(11.81407 -1.2655122 -4.1536365e-18)
(11.815516 -1.4450092 3.9658572e-18)
(11.634973 -1.617539 4.7293487e-18)
(11.572699 -1.7848032 -6.3297065e-18)
(11.323027 -1.9833226 4.315574e-18)
(11.872911 0.50089831 0)
(11.874259 0.32983536 1.1967437e-21)
(11.951289 0.21244845 0)
(11.925271 0.038306661 0)
(11.954739 -0.060430256 6.3171046e-19)
(11.916363 -0.2181277 3.8882985e-21)
(11.921912 -0.2954924 -6.1145366e-19)
(11.90179 -0.44614375 -1.7894908e-18)
(11.890257 -0.52132536 2.3050142e-18)
(11.876147 -0.67866331 0)
(11.834617 -0.75979591 -1.0822923e-18)
(11.826223 -0.93296085 -6.2464125e-18)
(11.736208 -1.0342063 2.9986278e-18)
(11.725509 -1.2280119 0)
(11.561517 -1.3445776 -3.678539e-18)
(11.513279 -1.5322866 4.4053039e-18)
(11.299013 -1.6396853 -3.3778864e-18)
(11.195539 -1.7993215 4.0431248e-18)
(10.89789 -1.8863121 0)
(11.824482 0.45864505 -2.8363466e-19)
(11.818518 0.30447917 1.4201969e-19)
(11.905797 0.17623543 0)
(11.874037 0.014922995 -1.1143465e-18)
(11.913831 -0.094515038 1.6446067e-18)
(11.858369 -0.25251535 -5.3820942e-19)
(11.873203 -0.3415988 -1.5952651e-18)
(11.827283 -0.49759236 3.6209254e-18)
(11.814858 -0.57967417 -2.0089008e-18)
(11.764413 -0.74046083 0)
(11.722448 -0.82397088 9.4328138e-19)
(11.661181 -1.0149926 5.4756727e-18)
(11.564511 -1.0912252 -3.5133309e-18)
(11.477903 -1.2987863 0)
(11.295901 -1.3625958 0)
(11.194765 -1.5384146 -1.5637082e-18)
(10.939172 -1.5829858 7.5398514e-19)
(10.795452 -1.7036525 -2.1682524e-18)
(10.456313 -1.7199748 0)
(11.721307 0.4114772 -2.4453272e-19)
(11.715674 0.28946346 7.3215837e-19)
(11.799117 0.12397719 -7.2697343e-19)
(11.76006 -0.013279096 0)
(11.81151 -0.14116093 1.4297314e-18)
(11.745596 -0.28400403 -1.8649048e-18)
(11.776471 -0.3960718 0)
(11.704124 -0.53521809 9.0039831e-19)
(11.701741 -0.63177074 8.7770265e-19)
(11.614506 -0.78482725 0)
(11.571842 -0.878163 0)
(11.453806 -1.0556462 -7.9814226e-19)
(11.359825 -1.1235064 -2.3184609e-18)
(11.207464 -1.3081556 -5.7376231e-21)
(11.052016 -1.3157916 2.1526276e-18)
(10.865772 -1.4837278 1.3863513e-18)
(10.647314 -1.4374255 -6.6653332e-19)
(10.471488 -1.5388716 1.2835348e-18)
(10.160539 -1.4557325 0)
(11.665042 0.37724957 0)
(11.67563 0.26447163 -8.4170185e-19)
(11.74656 0.071499464 1.6709844e-18)
(11.706466 -0.03574306 -1.2428411e-18)
(11.754944 -0.19805419 0)
(11.669128 -0.31940705 0)
(11.692073 -0.44673408 0)
(11.595641 -0.57143382 -7.7813208e-19)
(11.586217 -0.683766 -7.6032444e-19)
(11.463205 -0.82051518 0)
(11.411562 -0.92463655 -7.2287465e-19)
(11.243151 -1.0674488 -7.0147673e-19)
(11.140641 -1.127132 -6.7675373e-19)
(10.9238 -1.2534417 2.6288174e-18)
(10.78062 -1.2449496 -2.5389631e-18)
(10.520671 -1.3509488 -6.119945e-19)
(10.349207 -1.2486384 3.5645849e-18)
(10.118194 -1.3121462 -5.7293897e-18)
(9.8966247 -1.127392 3.3236318e-18)
(11.55899 0.35647514 -4.555566e-20)
(11.606689 0.22113448 9.0868126e-20)
(11.644279 0.047684718 9.0124506e-19)
(11.634927 -0.056927179 -2.1489002e-18)
(11.650224 -0.23667374 1.0584571e-18)
(11.585574 -0.32434756 0)
(11.581954 -0.49138818 0)
(11.477125 -0.58574236 6.7734633e-19)
(11.456776 -0.71414941 -2.6514796e-18)
(11.303865 -0.82940146 -6.5515058e-19)
(11.230886 -0.92662059 6.217086e-19)
(11.034178 -1.02704 3.0587082e-18)
(10.924948 -1.0712666 5.960233e-19)
(10.69307 -1.1488203 0)
(10.559367 -1.1038761 1.6800597e-18)
(10.297626 -1.1394794 0)
(10.125041 -1.0090076 -3.1610002e-18)
(9.8837138 -1.010378 9.1503874e-18)
(9.7292185 -0.77524906 -7.8716709e-18)
(11.466902 0.32513297 7.8258841e-20)
(11.541437 0.16880171 -7.7851755e-20)
(11.539751 0.023787349 0)
(11.560839 -0.11120403 -9.280754e-19)
(11.532929 -0.26561546 3.0016154e-19)
(11.494207 -0.3648793 1.2059604e-18)
(11.447646 -0.53254962 0)
(11.351961 -0.5977175 -2.9324446e-18)
(11.294716 -0.75309436 1.7190303e-18)
(11.128217 -0.81120157 -1.8834579e-21)
(11.034055 -0.91435498 0)
(10.808955 -0.97127443 0)
(10.688186 -1.0024504 -5.2019605e-19)
(10.441988 -1.0011937 0)
(10.327517 -0.9370628 3.6580108e-21)
(10.073466 -0.89952823 9.5810136e-19)
(9.9723103 -0.74806057 -2.7879125e-18)
(9.7454867 -0.69394624 7.1939614e-18)
(9.6550613 -0.42013413 -3.4846772e-18)
(11.408225 0.2978322 2.3586524e-19)
(11.481984 0.13797829 -2.0177733e-19)
(11.481147 0.010498124 0)
(11.508622 -0.14610363 0)
(11.450083 -0.26934838 0)
(11.429716 -0.39444634 0)
(11.334515 -0.52559282 -2.0643991e-18)
(11.259338 -0.6067151 2.0257457e-18)
(11.149047 -0.73512097 2.494677e-18)
(11.011037 -0.76233715 -9.745489e-19)
(10.876166 -0.87235363 0)
(10.659589 -0.8538111 3.7438737e-18)
(10.525832 -0.86644273 -6.8374578e-18)
(10.269588 -0.80383604 3.5499911e-18)
(10.160905 -0.73387929 -4.3299251e-18)
(9.9229929 -0.62976761 2.5232989e-18)
(9.8814024 -0.48264142 -8.1720003e-19)
(9.687814 -0.3616546 -7.9458817e-19)
(9.6947272 -0.089673527 7.6963502e-19)
(11.325273 0.25385229 2.3196877e-19)
(11.37362 0.1019603 -7.5264012e-19)
(11.381542 -0.021217763 4.6066296e-19)
(11.387869 -0.17810241 -9.1730429e-19)
(11.339755 -0.28398639 9.0772181e-19)
(11.307076 -0.42639134 0)
(11.186223 -0.52331212 -4.4576753e-19)
(11.109722 -0.61985233 1.759073e-18)
(10.954131 -0.69830718 -1.7255278e-18)
(10.834246 -0.73051658 -4.2367173e-19)
(10.655716 -0.78459493 -3.3337555e-18)
(10.495997 -0.71808948 3.2545857e-18)
(10.339966 -0.71987967 -3.9768672e-19)
(10.148361 -0.59396538 2.3362785e-18)
(10.054484 -0.5211361 -2.2716021e-18)
(9.8643664 -0.3593142 0)
(9.8602202 -0.21464239 -5.760084e-18)
(9.7139122 -0.033856335 6.2912791e-18)
(9.8136263 0.23007449 0)
(11.282495 0.22077376 -3.9920448e-19)
(11.317554 0.081769715 3.9889391e-19)
(11.338127 -0.048372069 -7.9382566e-19)
(11.322424 -0.19822992 7.8809196e-19)