/*--------------------------------*- C++ -*----------------------------------*\
  =========                 |
  \\      /  F ield         | OpenFOAM: The Open Source CFD Toolbox
   \\    /   O peration     | Website:  https://openfoam.org
    \\  /    A nd           | Version:  11
     \\/     M anipulation  |
\*---------------------------------------------------------------------------*/
FoamFile
{
    format      ascii;
    class       volVectorField;
    location    "0.285";
    object      U;
}
// * * * * * * * * * * * * * * * * * * * * * * * * * * * * * * * * * * * * * //

dimensions      [0 1 -1 0 0 0 0];

internalField   nonuniform List<vector> 
880
(
(25 1.660001447709695e-13 0)
(24.99999999696901 8.99698099305703e-09 0)
(24.99953645627008 -0.000257945040914305 0)
(24.8576935560583 0.0008029639421329779 0)
(25 -4.381991574131114e-12 0)
(24.99999999088155 -9.164203293349439e-09 0)
(24.99914028817395 -0.0007422115324555919 0)
(24.80120716283245 -0.1411520646092116 0)
(24.99999999996733 -2.201728003278581e-11 0)
(24.99999999006326 -3.929287522991158e-08 0)
(24.99793254172685 -0.001742916151868193 0)
(24.72054168689482 -0.2488875612981527 0)
(24.99999999980117 2.374505608071654e-10 0)
(25.00000004359665 -2.952320411126392e-07 0)
(24.99451849851939 -0.003721831647296763 0)
(24.39565767480767 -0.4019765559285766 0)
(25.0000000023188 -4.835037817463565e-09 0)
(24.99999999725383 1.909904907190641e-08 0)
(24.99999978056495 7.995272015495122e-08 0)
(24.9999922658193 6.055832503601978e-06 0)
(25.00000128374679 -1.369575070405351e-06 0)
(24.99998186101219 -5.597931261912088e-06 0)
(24.99990990822551 8.914634525218698e-05 0)
(25.00011987769837 -0.0006187528490870836 0)
(24.98384012539097 -0.006309966683491734 0)
(24.97043005733786 -0.001827113648154461 0)
(24.95397940303755 0.01502106137283754 0)
(24.95536878566481 -0.04489371315615646 0)
(23.71547934222513 -0.1180658805434158 0)
(23.05519220598747 0.5742777488889588 0)
(22.70818789859448 1.221379623875126 0)
(22.62938988363647 1.639162798894913 0)
(24.999977793902 -3.743841055164118e-05 0)
(24.99989917162844 -0.0002095834252910222 0)
(24.99981437216577 -0.0003865720710612106 0)
(24.9990300566656 -0.0020883790383271 0)
(24.99864302727893 -0.0001219837847529282 0)
(24.9948691076409 0.0006980435436735634 0)
(24.98878788656361 0.004058418538334935 0)
(24.97927977182994 0.007138753340080517 0)
(24.83764827152977 -0.001884109876940999 0)
(24.74484800800383 0.08057756178339207 0)
(24.6257205233715 0.2305345051748061 0)
(24.52748878446555 0.3263287062627593 0)
(22.46495725482255 2.171814932586876 0)
(22.42399010563673 2.567609433965113 0)
(22.31445249618289 3.1125059875525 0)
(22.7038703163647 3.477974278794162 0)
(23.69072122222362 4.034444516943294 0)
(24.32862323753649 3.852875948365722 0)
(24.64334322563358 3.442319105984255 0)
(24.89904090880857 3.025639866749454 0)
(24.31307574271186 0.6407292186205565 0)
(24.33528876389845 0.9875256255113943 0)
(24.45092676484853 1.197628241566939 0)
(24.60845423163334 1.332976628632103 0)
(24.93431684837532 0.02517021394877269 0)
(24.87965880890999 0.0816209524044605 0)
(24.83024196418805 0.170340766622748 0)
(24.80161868865201 0.2811302595918958 0)
(24.99492244553783 -0.005028820956341133 0)
(24.98803886390191 -0.01336552811713912 0)
(24.97829509827259 -0.02748151307138546 0)
(24.9677680841112 -0.04475971473296755 0)
(24.95940331749496 -0.06177759779186917 0)
(24.95340971636545 -0.06780944387890728 0)
(24.94591041447555 -0.06455057311715424 0)
(24.94173734252733 -0.05878065979174568 0)
(24.81399196501545 0.3938877425518398 0)
(24.8648377795777 0.4797723552778984 0)
(24.94022563592105 0.5279819975534508 0)
(25.0260391931487 0.5330604287718921 0)
(24.78906099602041 1.398228960446162 0)
(24.96529440495084 1.382911403324768 0)
(25.1240445048388 1.309459190354263 0)
(25.27106250105941 1.202359583206346 0)
(25.12266169693095 2.619063418675058 0)
(25.2781504410255 2.226891117389051 0)
(25.38842789386322 1.848633200642564 0)
(25.55461129022808 1.540960472632836 0)
(25.56992815475765 1.181955577006156 0)
(25.38752840274069 1.055101482603849 0)
(25.11746821556437 0.512589515355284 0)
(24.93948247052749 -0.04724239360037862 0)
(25.56012033788853 0.9582191310329166 0)
(25.46394402701425 0.9455794607239653 0)
(25.17537903948258 0.4578227486738142 0)
(24.9410243174223 -0.03734698396277333 0)
(23.57021685342716 1.366401535491014 0)
(25.43115380343722 0.8597563392076698 0)
(25.21039381618415 0.3834554464188791 0)
(24.94972977948197 -0.03096008982285829 0)
(17.74571000174604 1.659055039822513 0)
(24.78347014665697 0.9962383630193694 0)
(25.22752856892218 0.3006983610766501 0)
(24.96134762478278 -0.02273484816816834 0)
(24.95305598293488 -0.01657052830198713 0)
(25.15601649396656 0.2220293942304684 0)
(23.65811941404314 1.296660423735374 0)
(14.47901659777946 3.216052176078668 0)
(24.96048027756235 -0.01838986706079721 0)
(25.02336911459565 0.2114152608761113 0)
(22.66644071422693 1.917477198317605 0)
(14.49362387343058 5.104513610892483 0)
(24.96058848917085 -0.02868900780548228 0)
(24.80752198037146 0.3207288839752994 0)
(21.31342867223103 2.916788215428514 0)
(14.13987817819586 6.763081551121312 0)
(24.94237430034313 -0.05187834334576007 0)
(24.49526469876309 0.5864579943106882 0)
(20.07653185780556 4.222628006133039 0)
(14.03795520916685 8.20325415609407 0)
(14.21096891144539 9.270067369650244 0)
(19.0103399266987 5.663153938217865 0)
(23.98543573455991 1.137001160804471 0)
(24.89605517770931 -0.0944480417331529 0)
(14.7022484257755 9.944597097815691 0)
(18.23946728929196 7.044137547888671 0)
(23.34758564069014 2.039427830297796 0)
(24.79321287374482 -0.1475288868011583 0)
(15.54807575832828 10.33398925901255 0)
(18.29874573586411 8.186110202586127 0)
(22.64532051913747 3.261299775907455 0)
(24.63864332769862 -0.1756031949647034 0)
(16.70222965022948 10.47321072184341 0)
(19.13730927719593 8.916069939020396 0)
(22.2239158056744 4.595570756414894 0)
(24.40336744728205 -0.1344681037994593 0)
(24.13433615556786 -0.05756121587120528 0)
(22.70747835028207 5.554755474483933 0)
(20.69478130364843 8.780958027823543 0)
(18.29795112866497 10.4803501463726 0)
(24.19196573164235 -0.1820946482182446 0)
(23.73624990717177 5.279128536188542 0)
(22.77760369265109 8.284469958185165 0)
(20.43852895644955 10.15917010310577 0)
(24.50724563700208 -0.2267649415659306 0)
(24.91602356704575 4.698775073505626 0)
(24.93367433102839 7.373260732321896 0)
(23.06460582280609 9.316073144397466 0)
(24.56213424137497 -0.5665696544959945 0)
(25.5760163498698 3.724575009084554 0)
(26.75756136167612 5.881308509870662 0)
(26.03739814190582 7.460177665253759 0)
(24.70183437895934 -0.340818772320874 0)
(26.2898849120139 2.959346881728318 0)
(28.19908869417052 4.285236372324755 0)
(30.15765452021223 4.452863633283155 0)
(24.93903922670166 -0.313866641575843 0)
(26.69811068066561 2.015650446590108 0)
(28.90781101671083 2.667664409105372 0)
(33.49801697183408 0.8091244300640984 0)
(25.12031504814231 -0.2381871409649247 0)
(26.61846633960942 1.144281868711575 0)
(29.11657875653987 0.9728200171778216 0)
(36.4404160654104 -4.27342196976502 0)
(25.20002694707934 -0.187266724201133 0)
(26.34819107316656 0.6316811823121138 0)
(28.59210426359235 -0.1363492117909514 0)
(32.22849350205143 -5.080772004543179 0)
(26.58374903358451 -1.874732900819224 0)
(28.00338451459374 -1.1741003064109 0)
(26.09828550732582 0.1504487202116358 0)
(25.21636125043427 -0.1636924345828311 0)
(23.62357397695689 -1.631861506434253 0)
(27.32532180931715 -1.846647134207403 0)
(25.825804100534 -0.184009195237566 0)
(25.17525136602985 -0.1127388746116161 0)
(20.76089534273251 -4.031435020503246 0)
(26.62016598038642 -2.599895588613677 0)
(25.59688541870989 -0.5357248984753754 0)
(25.10174424092853 -0.05088430892173565 0)
(17.20217026481572 -4.442429966411527 0)
(25.54796995943906 -3.518802766512013 0)
(25.30093554956428 -0.7702297764460662 0)
(25.04657862057447 -0.04401318458041426 0)
(14.93602872679853 -6.631216941817951 0)
(24.17153539907464 -4.011888160363887 0)
(24.93026602416092 -0.7311569212216515 0)
(25.00346019120336 -0.04158708213622687 0)
(14.36323893798657 -8.425441600293517 0)
(23.31443117564556 -3.665861565481725 0)
(24.75622802160735 -0.4977370681389804 0)
(24.98704004831431 -0.02264701658389293 0)
(14.7692485395183 -7.391661668603195 0)
(22.88179615554861 -2.681203087381625 0)
(24.73539010856857 -0.2726477088640609 0)
(24.98892195944986 -0.009577771203337382 0)
(16.31702486210255 -5.852242598495961 0)
(23.35440354693202 -1.966098827648727 0)
(24.83812182082664 -0.2192850235119932 0)
(24.99492958217968 -0.006228279052944003 0)
(16.45869228585135 -0.3622025975186779 0)
(22.28704829607745 0.09961353566907134 0)
(24.58747017785465 0.008391089799848574 0)
(24.97731206618235 -7.250707839355023e-05 0)
(16.47163314606048 -1.405195408379626 0)
(22.23617787388496 0.2130060993664096 0)
(24.56687763166306 0.02856377584826292 0)
(24.9763562250523 0.000154773429853332 0)
(16.46870877555464 -1.782108495219454 0)
(22.15418649017919 0.1811926474114925 0)
(24.53717476662481 0.02371750472256782 0)
(24.97492947759972 0.0001240800192129065 0)
(16.47559001809568 -1.559172130839205 0)
(22.17405025866712 -0.07457591688308904 0)
(24.53086528818769 -0.005008422124079859 0)
(24.97413582636807 -0.0006312332715344148 0)
(16.31702486210909 5.852242598493003 0)
(23.35440354696676 1.966098827646299 0)
(24.83812182087875 0.2192850234748935 0)
(24.99492958223494 0.006228279040396101 0)
(14.76924853951614 7.39166166859715 0)
(22.881796155572 2.681203087400818 0)
(24.73539010858009 0.2726477088638373 0)
(24.9889219594744 0.009577771230279966 0)
(14.36323893798765 8.425441600307987 0)
(23.31443117566126 3.665861565505249 0)
(24.75622802161261 0.4977370681661777 0)
(24.98704004832888 0.02264701660087324 0)
(14.93602872678113 6.631216941822922 0)
(24.17153539909653 4.011888160387768 0)
(24.93026602416677 0.7311569212350909 0)
(25.003460191207 0.04158708215336811 0)
(25.21636125041739 0.1636924345643603 0)
(26.0982855073164 -0.1504487202126288 0)
(28.00338451460332 1.174100306411986 0)
(26.58374903358704 1.874732900875419 0)
(25.1752513660211 0.1127388746045367 0)
(25.82580410052526 0.184009195239051 0)
(27.32532180932504 1.846647134213843 0)
(23.62357397693977 1.631861506486735 0)
(25.10174424090863 0.05088430891751497 0)
(25.59688541869825 0.5357248984750215 0)
(26.62016598042173 2.599895588664334 0)
(20.76089534269345 4.031435020555943 0)
(25.04657862056246 0.04401318458617706 0)
(25.30093554954561 0.7702297764274327 0)
(25.54796995946398 3.518802766535092 0)
(17.20217026479585 4.442429966444547 0)
(32.22849350209124 5.080772004632482 0)
(28.5921042636009 0.1363492117925865 0)
(26.34819107317691 -0.6316811822976598 0)
(25.20002694707934 0.1872667241598154 0)
(36.4404160654343 4.273421969820944 0)
(29.11657875655902 -0.972820017159035 0)
(26.61846633960585 -1.14428186871679 0)
(25.12031504815884 0.2381871409148885 0)
(33.49801697185015 -0.8091244300414125 0)
(28.9078110167193 -2.667664409106679 0)
(26.69811068067651 -2.015650446577177 0)
(24.93903922669382 0.313866641536662 0)
(30.15765452021755 -4.452863633262915 0)
(28.19908869419089 -4.285236372309574 0)
(26.28988491202843 -2.95934688170137 0)
(24.70183437891959 0.3408187723375029 0)
(24.13433615553369 0.05756121588428865 0)
(22.70747835026713 -5.554755474517161 0)
(20.69478130360509 -8.780958027842809 0)
(18.29795112866679 -10.48035014636781 0)
(24.19196573163434 0.182094648236508 0)
(23.73624990720273 -5.279128536196773 0)
(22.77760369264405 -8.284469958175681 0)
(20.43852895644993 -10.15917010309856 0)
(24.50724563704793 0.2267649416314408 0)
(24.9160235670371 -4.698775073496508 0)
(24.9336743310321 -7.373260732295104 0)
(23.06460582281709 -9.316073144383676 0)
(24.56213424132142 0.5665696545737587 0)
(25.57601634986806 -3.724575009044407 0)
(26.75756136168032 -5.88130850984349 0)
(26.03739814191121 -7.460177665238573 0)
(16.70222965023446 -10.47321072183684 0)
(19.13730927717771 -8.91606993903949 0)
(22.22391580564721 -4.59557075643293 0)
(24.40336744719473 0.134468103788921 0)
(15.54807575833787 -10.33398925901639 0)
(18.29874573585255 -8.186110202614417 0)
(22.64532051912298 -3.261299775936145 0)
(24.63864332768545 0.1756031949667181 0)
(14.70224842577993 -9.944597097821266 0)
(18.23946728929236 -7.044137547904007 0)
(23.34758564072108 -2.039427830314149 0)
(24.7932128737166 0.1475288868028658 0)
(14.21096891144863 -9.270067369653104 0)
(19.01033992669529 -5.66315393820198 0)
(23.98543573452012 -1.137001160808463 0)
(24.89605517769431 0.09444804173708117 0)
(24.95305598293264 0.01657052830170342 0)
(25.15601649397203 -0.2220293942187883 0)
(23.65811941404371 -1.296660423746307 0)
(14.47901659777407 -3.216052176089965 0)
(24.96048027751199 0.0183898670577546 0)
(25.02336911459085 -0.2114152608425238 0)
(22.66644071425259 -1.917477198312433 0)
(14.49362387343386 -5.104513610896814 0)
(24.96058848910769 0.02868900780940223 0)
(24.80752198028793 -0.320728883970739 0)
(21.31342867222874 -2.916788215423512 0)
(14.13987817823544 -6.763081551127235 0)
(24.94237430031095 0.05187834334838991 0)
(24.49526469879601 -0.5864579942902293 0)
(20.07653185780573 -4.22262800614078 0)
(14.03795520916039 -8.203254156101766 0)
(24.96134762477699 0.02273484817010968 0)
(24.94972977948169 0.03096008982613267 0)
(24.9410243173918 0.03734698397327302 0)
(24.93948247054071 0.04724239359295771 0)
(25.22752856899039 -0.3006983610627101 0)
(25.21039381619642 -0.3834554464375975 0)
(25.17537903950978 -0.4578227486638255 0)
(25.11746821556101 -0.5125895153600809 0)
(24.78347014669237 -0.9962383630305081 0)
(25.43115380344538 -0.8597563392088299 0)
(25.46394402704999 -0.9455794607304456 0)
(25.38752840277065 -1.055101482611013 0)
(17.74571000177741 -1.659055039826515 0)
(23.57021685343463 -1.36640153548271 0)
(25.56012033788159 -0.9582191310269773 0)
(25.56992815475555 -1.181955576996107 0)
(24.94173734255763 0.05878065981114294 0)
(25.02603919303416 -0.5330604287389474 0)
(25.27106250106242 -1.202359583200682 0)
(25.55461129021417 -1.540960472613219 0)
(24.94591041457235 0.06455057314648534 0)
(24.94022563572216 -0.5279819974918584 0)
(25.12404450484573 -1.3094591903424 0)
(25.38842789385752 -1.848633200632835 0)
(24.95340971652292 0.06780944388068344 0)
(24.86483777937061 -0.4797723551553799 0)
(24.9652944049871 -1.38291140330882 0)
(25.27815044106086 -2.226891117397741 0)
(24.95940331764042 0.06177759768556548 0)
(24.81399196488484 -0.3938877424081139 0)
(24.78906099601636 -1.398228960388307 0)
(25.12266169693941 -2.619063418674961 0)
(24.99492244562287 0.005028821068803225 0)
(24.93431684844952 -0.02517021404454538 0)
(24.31307574267372 -0.6407292185449686 0)
(23.69072122221904 -4.034444516895247 0)
(24.98803886380329 0.01336552804661994 0)
(24.87965880903358 -0.08162095252923492 0)
(24.33528876382488 -0.987525625426077 0)
(24.32862323754735 -3.852875948329856 0)
(24.97829509810371 0.02748151276857874 0)
(24.83024196433519 -0.1703407666047057 0)
(24.45092676481195 -1.197628241462807 0)
(24.64334322568338 -3.442319105978541 0)
(24.9677680840935 0.04475971439837607 0)
(24.80161868867944 -0.2811302594389422 0)
(24.60845423160254 -1.33297662851601 0)
(24.89904090885538 -3.025639866747078 0)
(22.70387031637007 -3.477974278773778 0)
(24.527488784518 -0.3263287061423309 0)
(24.97927977190921 -0.00713875327194567 0)
(24.99903005653294 0.002088379586304338 0)
(22.31445249619289 -3.112505987584727 0)
(24.62572052328654 -0.2305345054020846 0)
(24.98878788632936 -0.004058418745466464 0)
(24.99981437251487 0.0003865717616529253 0)
(22.42399010565865 -2.567609433953462 0)
(24.74484800807039 -0.08057756180074764 0)
(24.99486910769318 -0.0006980435817280214 0)
(24.9998991718286 0.0002095832185146527 0)
(22.46495725481977 -2.171814932576483 0)
(24.83764827149985 0.001884109895808096 0)
(24.99864302724786 0.0001219838207086465 0)
(24.99997779384766 3.743846541344516e-05 0)
(22.62938988366364 -1.639162798882032 0)
(24.95536878567281 0.04489371318080843 0)
(25.00011987769822 0.0006187528772520882 0)
(24.99999226577738 -6.055820211822777e-06 0)
(22.70818789860203 -1.221379623879689 0)
(24.95397940304957 -0.01502106136419801 0)
(24.99990990826047 -8.914634024825174e-05 0)
(24.99999978055734 -7.994674874164936e-08 0)
(23.05519220599424 -0.5742777489042277 0)
(24.97043005734898 0.001827113646991829 0)
(24.99998186101556 5.597924796908762e-06 0)
(24.99999999726827 -1.910408890004911e-08 0)
(23.7154793422128 0.1180658805083403 0)
(24.98384012540515 0.006309966679025219 0)
(25.00000128377662 1.369582809618215e-06 0)
(25.00000000228781 4.831088275304521e-09 0)
(25.00000000000001 -2.602633692219345e-13 0)
(24.99999999695556 -9.017759237559657e-09 0)
(24.99953645626557 0.000257945035118818 0)
(24.85769355414533 -0.0008029633104340379 0)
(24.99999999999998 6.396711479399431e-12 0)
(24.99999999091646 9.16495041982794e-09 0)
(24.99914028817292 0.0007422115240777111 0)
(24.8012071618329 0.1411520644232385 0)
(24.99999999996364 2.506905881282292e-11 0)
(24.99999999008339 3.92958036614797e-08 0)
(24.9979325417301 0.001742916144593753 0)
(24.72054168664416 0.2488875611372785 0)
(24.99999999978916 -2.311657737003591e-10 0)
(25.00000004361931 2.952340055391771e-07 0)
(24.99451849852812 0.003721831640063542 0)
(24.3956576747496 0.4019765558774478 0)
(24.75710487740288 -1.203697572239097e-10 0)
(24.64550733109279 0.1402085527881018 0)
(24.36394600648651 0.1876555359645 0)
(23.53540647544619 0.06545802091822632 0)
(24.64550733228822 -0.1402085532789045 0)
(24.44791299440727 -2.88044404945723e-10 0)
(23.87771013868444 -0.03405522488551026 0)
(22.52821507421706 -0.4398893038713326 0)
(24.36394600720926 -0.1876555360579281 0)
(23.87771013922835 0.03405522468509311 0)
(22.6648884546208 2.753263281453389e-11 0)
(20.60414651457446 -0.5715702132029485 0)
(23.53540647558975 -0.0654580210282322 0)
(22.52821507441426 0.4398893037311352 0)
(20.60414651468672 0.5715702131284839 0)
(18.30713185764889 -6.230720584928451e-11 0)
(17.70141935335011 2.569545647400242 0)
(18.37583570519989 2.990776586049111 0)
(20.08339975242608 2.68467649688687 0)
(21.62637668663382 1.836872947546222 0)
(18.68909075881409 4.319183000844019 0)
(18.76620279080169 4.290600153794237 0)
(19.52416461458309 4.207079702606873 0)
(20.59677558735033 3.991265481414242 0)
(18.23922771172171 5.339491407940812 0)
(19.30063289644128 4.554819446796718 0)
(20.02293819862368 4.762563986046948 0)
(20.60691752323684 4.616974101319612 0)
(18.8761057932222 5.850990165799087 0)
(20.10759604288961 4.800220573559428 0)
(20.60617857694993 4.961896464671745 0)
(20.91151255865598 4.874379172768154 0)
(21.22552937845214 5.039126835285037 0)
(21.40998604854609 5.091731145722756 0)
(21.73006776010402 5.190114000128006 0)
(22.36363174468783 5.325605799351554 0)
(21.09072878930687 5.112091528333075 0)
(21.39025620174804 5.169908236457024 0)
(21.8015899117785 5.21203234859183 0)
(22.84546800734928 5.560725218827137 0)
(20.78636924847696 5.000478837795807 0)
(21.24377385395846 5.159362949835347 0)
(21.76443640093933 5.229060517733599 0)
(24.27901243068012 5.980924380593382 0)
(19.49720129442115 6.016576587323869 0)
(19.98748348627023 6.110615024379749 0)
(20.72483130410495 5.940610038390614 0)
(25.95991009910552 7.208402611698697 0)
(26.03922473558971 3.192262741665653 0)
(26.56294300001037 0.787814442245649 0)
(25.80387000791992 0.4308548958499652 0)
(25.6273654486977 0.424631285829294 0)
(28.53876312826769 2.194325880558277 0)
(28.70186079228313 0.3284470906635568 0)
(27.51971177015806 0.2635325431759574 0)
(26.81996591065502 0.3658208065499075 0)
(31.73225709164215 1.890455303065272 0)
(30.04681991982157 0.04195260307211951 0)
(28.61108732066165 0.03777451602735416 0)
(27.6271807025926 0.1323511944999148 0)
(25.20408708865222 1.926833829395231 0)
(24.1433329424619 0.5668401212015125 0)
(23.9973437965708 0.1294278178804598 0)
(23.98030470594904 -0.2317709042052197 0)
(25.55061906698517 0.3621050096778826 0)
(25.51233637554726 0.2874626399484235 0)
(25.51324323600703 0.2260396022631813 0)
(25.51901413455609 0.1583917443645042 0)
(26.35216936083725 0.3424135734510137 0)
(25.99254759417578 0.2818543927623787 0)
(25.70275079606476 0.1757927389289984 0)
(25.49303525902727 0.1582437639837098 0)
(26.89177138026989 0.146703197630025 0)
(26.30616434632517 0.1322370373025651 0)
(25.77034681646369 0.06726873187098799 0)
(25.41576898691333 0.1033212351312819 0)
(23.72789860059423 -0.4008589803857812 0)
(23.49693072097216 -0.5918551218194784 0)
(23.32332471831455 -0.5361501011019791 0)
(22.9739407382007 -0.516307077857192 0)
(25.57941752968068 0.0896269256377787 0)
(23.94124022283452 2.035385919438459 0)
(18.05432095385312 5.167249368256909 0)
(12.32946029320335 2.352358073544504 0)
(25.48505309462557 0.1265320994532372 0)
(22.3693424566088 2.662241804600987 0)
(13.7598724820908 4.530463503347288 0)
(7.411607143137223 0.900386672244933 0)
(25.22303582784266 0.2010014020184227 0)
(19.86230989791556 2.308045410604957 0)
(8.93284010017045 3.290340759972688 0)
(1.825318371731389 0.9730506465234819 0)
(22.45465738260927 -0.5712090934705468 0)
(14.71893477440682 -1.063695555827367 0)
(4.940544317215787 -0.5130008445448317 0)
(-0.4103920244691455 0.6978457200390951 0)
(10.34101863588468 3.660786973733094 0)
(11.92848692667595 5.440174520883256 0)
(12.04930196187626 6.835133336528179 0)
(13.17936525815803 7.69289117759531 0)
(8.38801617875588 3.157461515835785 0)
(11.37175536554256 5.491813553645184 0)
(12.07410520333462 7.062934214831363 0)
(13.10491784275371 7.899213842186895 0)
(5.143324762794746 1.332413092022991 0)
(9.612098446517017 4.681129345070305 0)
(11.38634403670343 7.038990270983778 0)
(12.58073214104107 7.957170160307508 0)
(1.212807535054799 0.9949251008908436 0)
(5.038806333944593 3.340954810336334 0)
(8.398433732833034 4.795614933081944 0)
(10.37115404764322 5.791765258510582 0)
(13.50829627098854 8.588087321744165 0)
(14.2451631379593 9.465852611929192 0)
(15.22724112840641 10.12195727818913 0)
(16.29406543349447 11.23216017919316 0)
(13.66554919524589 8.669564517694555 0)
(14.4281225480822 9.596128719497962 0)
(15.33191406924171 10.23968807463966 0)
(16.26861523762486 11.18234463690651 0)
(13.56102304421565 8.671723460145872 0)
(14.50366916874352 9.580918586431295 0)
(15.30572995468861 10.29072159052406 0)
(16.24163936706746 11.06252727751169 0)
(12.34542587102652 7.045959391871135 0)
(14.3249487979355 7.986094703025465 0)
(15.3461864594006 9.944421213144297 0)
(16.36130587454851 10.852037803725 0)
(17.58491385794741 11.77866867608804 0)
(19.39733083197238 11.9738032323323 0)
(21.88428910246526 11.62540199635402 0)
(24.75663323492561 9.995362022122036 0)
(17.48476484872065 11.75055948046794 0)
(19.03981796870687 11.94976972534501 0)
(21.34124991540343 11.73814283784023 0)
(24.87450001433775 12.13065130870361 0)
(17.36770974161069 11.7063850925321 0)
(18.68142249792902 11.96279023618033 0)
(21.36951738471448 12.64881903764139 0)
(30.99128368303311 17.99127399251908 0)
(17.41197784322456 11.51347636811821 0)
(18.63772606668699 11.83894358131913 0)
(22.08626244933869 13.24641436574755 0)
(42.4581567931697 24.97202023876656 0)
(30.26217514906472 4.881669557509718 0)
(32.10964197100413 -4.144781516254786 0)
(11.54791268866033 6.272793141160173 0)
(9.097336817059706 20.49665765847115 0)
(31.89785666416982 4.6509468740992 0)
(26.03166616965768 -2.020063450231796 0)
(8.818012890416137 14.09668056110335 0)
(7.586762052842768 23.28745857742094 0)
(31.66125891633911 2.99544971309574 0)
(16.42928284490752 -4.319670568065772 0)
(3.759849706035768 16.65627067375668 0)
(4.073104466367363 23.42606306820513 0)
(20.05227690805275 -8.369668559869442 0)
(6.342595888437714 -0.1699738656018308 0)
(1.967727509112599 18.82493040985414 0)
(2.077366435388226 22.93527956888165 0)
(4.454970207355251 14.51169069638199 0)
(1.064709318267292 12.25637287587266 0)
(-0.9669507467955963 10.57245462913809 0)
(-1.586259657815373 7.973691598592416 0)
(2.913378002084693 19.18413894925207 0)
(0.6277148884891753 15.5273555067756 0)
(-0.828267134100074 11.98983334915166 0)
(-0.6883184232642724 6.335482841853302 0)
(2.218866960777274 19.76369654042962 0)
(1.093382520823095 16.04175078350523 0)
(-0.1474441332927897 11.15547779465544 0)
(-0.48081011729866 4.487291150605563 0)
(0.5077628639131475 19.41126776535035 0)
(-0.2784343440898135 15.82981183754466 0)
(-1.307216320865049 10.52326824274572 0)
(-1.109605872216888 3.845615775739225 0)
(-2.305932699954016 2.400640571992854 0)
(3.59293875930722 -2.418296802743749 0)
(6.219495836520141 -6.199500661272271 0)
(8.916154814638707 -9.60772545757662 0)
(-3.924626116812158 2.350660011540434 0)
(-0.2548693266527976 -0.9857230393759142 0)
(4.529455923606039 -3.860851835427531 0)
(8.548460765934365 -8.498187178436787 0)
(-3.982064191150925 1.639703688048805 0)
(-3.117401530321397 -0.437719989239122 0)
(1.789810332242795 -2.212176877923374 0)
(7.645731508409535 -5.985175102449359 0)
(-2.878796683531856 1.966764002542493 0)
(-3.511284320211797 1.059667363786382 0)
(1.265569321921024 0.7300913225820227 0)
(7.841745260623727 -3.022207196221397 0)
(7.926854032000804 -9.083518693906834 0)
(7.401724595696352 -8.625369647486746 0)
(7.385698514553211 -7.986073291647565 0)
(6.978587817717614 -7.977664060972277 0)
(8.166397408876115 -10.59817037653321 0)
(7.421255997447438 -9.986870264486035 0)
(7.187723053576065 -9.460404304583495 0)
(6.181906925601456 -9.346493856572813 0)
(8.401128230500062 -10.69564390473633 0)
(7.263339593139171 -8.76096857350737 0)
(5.975810807313002 -6.913195236718222 0)
(3.735570638066798 -5.67508235950145 0)
(10.7043833885197 -8.634246740359051 0)
(9.262652445678974 -4.469877772163741 0)
(5.899795131961967 -0.8156427378552663 0)
(2.124274593606577 0.3039500564776928 0)
(0.04154047159557415 1.288177684260179 0)
(-1.006410217631466 1.390153167042372 0)
(-1.556692490995276 0.9934231443634384 0)
(-1.741664317198705 0.3184351416138753 0)
(1.581126294057777 -3.170315493863132 0)
(-0.5221758140417412 -1.911260301171544 0)
(-1.532538623314372 -0.8093303025607843 0)
(-1.924023446195763 -0.2781773224692016 0)
(4.569483966568894 -8.260522267497731 0)
(2.930002964944002 -6.365036227985611 0)
(1.508503398966443 -3.94220170316915 0)
(0.7145217840498981 -1.380059900225955 0)
(6.777550070253934 -7.20853982694906 0)
(6.485425440025806 -5.852457385026688 0)
(5.958663803885381 -3.637138730071772 0)
(5.401339641956388 -1.304775452654944 0)
(-1.741664317200249 -0.3184351416204368 0)
(-1.924023446194442 0.2781773224513833 0)
(0.7145217840512176 1.380059900189806 0)
(5.401339641959544 1.304775452613759 0)
(-1.556692490996974 -0.9934231443697799 0)
(-1.532538623314086 0.8093303025434745 0)
(1.508503398968664 3.942201703135662 0)
(5.958663803898093 3.637138730032348 0)
(-1.006410217632748 -1.39015316704686 0)
(-0.5221758140459504 1.911260301154074 0)
(2.930002964943909 6.365036227955003 0)
(6.485425440041578 5.852457384992952 0)
(0.04154047159342222 -1.288177684265783 0)
(1.581126294050395 3.170315493844256 0)
(4.569483966558848 8.260522267473227 0)
(6.777550070254741 7.208539826928985 0)
(6.978587817703968 7.977664060957896 0)
(7.38569851453563 7.986073291633992 0)
(7.401724595679093 8.625369647470633 0)
(7.926854031979864 9.083518693900862 0)
(6.181906925587041 9.346493856552433 0)
(7.187723053561652 9.460404304565202 0)
(7.421255997433422 9.986870264467516 0)
(8.166397408851838 10.5981703765202 0)
(3.7355706380572 5.675082359477151 0)
(5.975810807302651 6.913195236693882 0)
(7.263339593121813 8.760968573489405 0)
(8.401128230478212 10.69564390472015 0)
(2.124274593599303 -0.3039500564844121 0)
(5.899795131951122 0.8156427378462442 0)
(9.262652445665374 4.469877772154584 0)
(10.70438338850252 8.634246740351609 0)
(7.841745260608799 3.022207196224075 0)
(1.265569321911302 -0.7300913225741352 0)
(-3.511284320205645 -1.059667363779287 0)
(-2.878796683518775 -1.966764002532255 0)
(7.645731508389598 5.98517510244494 0)
(1.789810332228744 2.212176877926337 0)
(-3.117401530320357 0.4377199892418543 0)
(-3.982064191133019 -1.639703688038076 0)
(8.548460765911242 8.498187178431492 0)
(4.529455923579779 3.860851835435612 0)
(-0.2548693266626249 0.9857230393830185 0)
(-3.924626116804627 -2.350660011518124 0)
(8.916154814614604 9.607725457573485 0)
(6.21949583648435 6.199500661282334 0)
(3.592938759293635 2.418296802745062 0)
(-2.305932699973632 -2.400640571966584 0)
(-1.586259657849121 -7.973691598554872 0)
(-0.9669507468387973 -10.57245462914857 0)
(1.064709318241079 -12.25637287597665 0)
(4.454970207343052 -14.51169069654486 0)
(-0.6883184232850905 -6.335482841822363 0)
(-0.8282671341237541 -11.98983334913304 0)
(0.627714888504161 -15.52735550680517 0)
(2.913378002118147 -19.18413894931098 0)
(-0.4808101173100033 -4.487291150582315 0)
(-0.1474441333117081 -11.15547779462566 0)
(1.093382520823623 -16.04175078349666 0)
(2.21886696078468 -19.7636965404478 0)
(-1.109605872217698 -3.845615775718622 0)
(-1.307216320878514 -10.52326824271293 0)
(-0.2784343440987794 -15.82981183752239 0)
(0.5077628639092503 -19.41126776535869 0)
(9.097336817076968 -20.49665765873011 0)
(11.54791268850036 -6.272793141454726 0)
(32.10964197092916 4.144781516291138 0)
(30.26217514906111 -4.881669557488152 0)
(7.586762052882221 -23.28745857750905 0)
(8.818012890419562 -14.09668056124195 0)
(26.03166616960792 2.020063450198764 0)
(31.89785666416326 -4.650946874083481 0)
(4.073104466372469 -23.42606306826743 0)
(3.759849706027508 -16.65627067386867 0)
(16.4292828448879 4.319670568001307 0)
(31.66125891633241 -2.99544971308883 0)
(2.077366435389997 -22.93527956894791 0)
(1.967727509119126 -18.82493040996622 0)
(6.342595888459785 0.1699738655342385 0)
(20.05227690807588 8.369668559854556 0)
(24.7566332349378 -9.995362022106985 0)
(21.88428910247805 -11.62540199634869 0)
(19.39733083198571 -11.97380323232838 0)
(17.58491385797784 -11.77866867609211 0)
(24.87450001434049 -12.13065130869196 0)
(21.3412499154112 -11.73814283783353 0)
(19.03981796871611 -11.94976972533935 0)
(17.48476484873753 -11.75055948046821 0)
(30.9912836830208 -17.99127399250256 0)