/*--------------------------------*- C++ -*----------------------------------*\
  =========                 |
  \\      /  F ield         | OpenFOAM: The Open Source CFD Toolbox
   \\    /   O peration     | Website:  https://openfoam.org
    \\  /    A nd           | Version:  11
     \\/     M anipulation  |
\*---------------------------------------------------------------------------*/
FoamFile
{
    format      ascii;
    class       volVectorField;
    location    "0.2";
    object      U;
}
// * * * * * * * * * * * * * * * * * * * * * * * * * * * * * * * * * * * * * //

dimensions      [0 1 -1 0 0 0 0];

internalField   nonuniform List<vector> 
4455
(
(25.047825 -0.01091896 0)
(23.014506 0.0040949434 0)
(23.599269 0.045404543 0)
(25.094959 0.0089465214 0)
(23.092239 -0.16627923 0)
(15.045999 -0.37333329 0)
(5.5190216 -0.39728549 0)
(1.1670055 -0.18346933 0)
(0.21390331 -0.041002875 0)
(24.99206 -0.0016291559 0)
(23.034608 -0.082775981 0)
(23.863098 -0.06149747 0)
(25.357295 0.14439643 0)
(22.809801 0.44746189 0)
(13.880348 0.48445843 0)
(4.3783703 0.15861855 0)
(0.75672869 0.040562507 0)
(0.1055097 0.03145721 0)
(24.969986 -0.0090884125 0)
(23.013722 -0.053572065 0)
(23.864513 -0.0354272 0)
(25.203081 0.032456425 0)
(22.262941 0.0043122177 0)
(13.068439 -0.24631877 0)
(3.9127385 -0.39084624 0)
(0.6572195 -0.17244675 0)
(0.10117215 -0.048282381 0)
(24.92857 -0.017409963 0)
(23.046469 -0.064839701 0)
(24.040499 -0.003900465 0)
(25.259278 0.19169653 0)
(21.803624 0.31395303 0)
(12.06294 0.088952956 0)
(3.2587039 -0.1545664 0)
(0.4978958 -0.050585042 0)
(0.067804306 0.0094215223 0)
(24.898121 -0.023232569 0)
(23.050945 -0.066611732 0)
(24.110851 0.013387644 0)
(25.172282 0.20284526 0)
(21.239495 0.22349584 0)
(11.148255 -0.11166977 0)
(2.7782969 -0.28044156 0)
(0.39462776 -0.10473216 0)
(0.048666359 -0.029822538 0)
(24.852589 -0.033324308 0)
(23.10203 -0.042236786 0)
(24.29721 0.078654963 0)
(25.142293 0.24398069 0)
(20.590476 0.20374208 0)
(10.123353 -0.12500573 0)
(2.3122393 -0.22956444 0)
(0.31262483 -0.064677073 0)
(0.040155678 -0.004315253 0)
(24.84662 -0.017806108 0)
(23.139665 -0.072743245 0)
(24.299154 -0.038962872 0)
(24.91761 0.15963597 0)
(19.959097 0.21041507 0)
(9.3293091 -0.12612151 0)
(1.9884281 -0.22222459 0)
(0.25260474 -0.066246684 0)
(0.026689827 -0.016044184 0)
(24.764604 -0.070641669 0)
(23.156823 0.0021985452 0)
(24.610677 0.31996429 0)
(25.079236 0.52985765 0)
(19.387528 0.2778531 0)
(8.3621809 -0.18544912 0)
(1.6174354 -0.20673211 0)
(0.19468859 -0.050643748 0)
(0.022069018 -0.0071505162 0)
(24.844542 0.025649479 0)
(23.289848 -0.14566608 0)
(24.339447 -0.35253284 0)
(24.312576 -0.22236042 0)
(18.346867 -0.020451491 0)
(7.609591 -0.16335001 0)
(1.4271016 -0.1745135 0)
(0.167737 -0.045182749 0)
(0.016117233 -0.0093602145 0)
(24.601173 -0.1672839 0)
(24.918676 0.13533849 0)
(24.450638 -0.25592724 0)
(24.783432 0.10122837 0)
(24.664268 -0.13001998 0)
(24.502186 -0.12523341 0)
(24.492685 -0.016854861 0)
(24.951924 -0.1410181 0)
(24.458015 -0.34929165 0)
(23.188288 0.15502281 0)
(23.601498 -0.25814772 0)
(23.038288 0.037100075 0)
(24.132931 0.12476755 0)
(23.185237 -0.43857048 0)
(23.686174 0.3186484 0)
(24.40317 -0.034147063 0)
(24.211207 -0.016112771 0)
(23.405551 0.38273435 0)
(25.088876 0.7735421 0)
(24.278947 -0.7924305 0)
(25.270516 0.80703275 0)
(24.954682 -0.12317143 0)
(25.021517 0.14422224 0)
(24.710503 0.52310917 0)
(26.078828 0.07478058 0)
(24.023975 0.8399268 0)
(25.254909 0.93419041 0)
(25.224108 0.97332429 0)
(22.876219 -0.60695567 0)
(24.96447 1.1340505 0)
(21.916547 -0.1212459 0)
(23.773728 0.6257532 0)
(20.593903 0.30635827 0)
(23.078923 0.43518682 0)
(18.525802 0.90192568 0)
(21.470383 -0.36757348 0)
(18.25361 0.56062102 0)
(15.136915 -0.23647325 0)
(16.503387 0.46744597 0)
(12.142717 -0.20390288 0)
(14.133815 0.0059277084 0)
(9.6830338 -0.056550594 0)
(12.013795 -0.21707652 0)
(7.1113657 9.1532403e-05 0)
(10.194377 -0.26935931 0)
(6.710613 -0.1317331 0)
(4.8482201 -0.31217088 0)
(4.8729925 -0.30832538 0)
(2.9390391 -0.28530926 0)
(3.4680191 -0.40332113 0)
(1.8327264 -0.17142418 0)
(2.4598518 -0.39582424 0)
(1.0916719 -0.087391865 0)
(1.8483882 -0.30679939 0)
(1.0661334 -0.17061982 0)
(0.70522752 -0.14666846 0)
(0.61335986 -0.14942271 0)
(0.35430271 -0.090322446 0)
(0.38413806 -0.11677541 0)
(0.18688998 -0.045568481 0)
(0.24828414 -0.087968682 0)
(0.10125219 -0.018372937 0)
(0.17190533 -0.061486759 0)
(0.1118011 -0.034220281 0)
(0.070363305 -0.025951389 0)
(0.054225648 -0.022753782 0)
(0.031817964 -0.013767572 0)
(0.030837484 -0.015350616 0)
(0.015095838 -0.0063489234 0)
(0.018826528 -0.010709106 0)
(0.0076729385 -0.0022589153 0)
(0.012129528 -0.0070821019 0)
(0.010884884 -0.005101732 0)
(0.0059014776 -0.0040793171 0)
(0.0042590377 -0.003044543 0)
(0.0024322221 -0.0018870633 0)
(0.002107526 -0.0018032687 0)
(0.001044967 -0.00080120324 0)
(0.0011874143 -0.0011462813 0)
(0.00049554492 -0.00024323996 0)
(0.000698121 -0.00070000899 0)
(24.225433 0.34634562 0)
(24.993986 0.54544882 0)
(25.854362 -0.0056107701 0)
(26.027113 -0.22061154 0)
(25.560995 0.99045695 0)
(24.301848 2.6447279 0)
(22.413795 3.5339286 0)
(21.007606 5.305163 0)
(18.915155 7.501872 0)
(24.281225 0.42201267 0)
(26.151569 0.76547063 0)
(26.888282 1.0999921 0)
(24.012745 0.029576012 0)
(22.005316 1.3922583 0)
(23.889372 5.9142778 0)
(21.178521 5.7915569 0)
(8.4285628 -1.6793285 0)
(-3.588364 -7.2544135 0)
(25.570829 -0.16297273 0)
(23.610577 -1.1344123 0)
(21.943692 1.7605696 0)
(20.465352 5.0511343 0)
(14.191355 3.1041934 0)
(3.2107381 -2.1184486 0)
(-0.15428238 -1.1733293 0)
(0.36316155 1.0036657 0)
(0.56561478 1.1678595 0)
(18.458735 1.1028773 0)
(14.746658 2.2511167 0)
(9.0563306 0.64911417 0)
(3.1266101 -1.2839973 0)
(1.1596185 -0.33603272 0)
(0.52556027 0.11992239 0)
(0.20993951 -0.091945884 0)
(-0.065349423 -0.3017961 0)
(-0.094548305 -0.21472033 0)
(5.6548054 0.21725916 0)
(2.5342326 -0.32174549 0)
(1.1088466 0.018843093 0)
(0.38166756 0.0027624067 0)
(0.14350208 0.026228437 0)
(0.0040166745 -0.014847707 0)
(0.017932697 0.058453737 0)
(0.013685938 0.048178595 0)
(0.019851121 0.040052983 0)
(0.73239544 -0.0099692266 0)
(0.2733699 -0.060153618 0)
(0.12130525 0.0099985653 0)
(0.033472712 -0.018230091 0)
(0.023195328 0.011722947 0)
(0.0048548766 -0.008461775 0)
(0.0035937207 -0.0045007979 0)
(-0.0027395409 -0.0095571635 0)
(-0.0014827518 -0.0045205395 0)
(0.06609578 -0.0028713577 0)
(0.023990599 -0.010261505 0)
(0.011921314 0.0040669473 0)
(0.0024819346 -0.0032705559 0)
(0.0016864171 0.0018564388 0)
(-0.00049139402 -0.0005147939 0)
(0.00048532866 0.0017399332 0)
(5.8468725e-05 0.0006654893 0)
(0.00036914234 0.00084798753 0)
(0.0050594392 -0.00013764124 0)
(0.0018399691 -0.0013992676 0)
(0.0010087469 0.00052746456 0)
(0.0002144745 -0.00045400395 0)
(0.00029070985 0.00029095665 0)
(1.0615419e-05 -0.0002587633 0)
(7.3437462e-05 -9.1310221e-06 0)
(-4.5530967e-05 -0.00016908 0)
(-4.6925366e-06 -4.6725017e-05 0)
(0.0003316132 2.0351567e-05 0)
(0.00011961637 -0.0001589237 0)
(7.9103574e-05 7.3607337e-05 0)
(6.9363422e-06 -6.5408552e-05 0)
(1.7087944e-05 4.1857957e-05 0)
(-9.5338348e-06 -1.8871109e-05 0)
(6.583927e-06 2.6251387e-05 0)
(-2.6354886e-06 9.7388379e-07 0)
(4.2110619e-06 1.142204e-05 0)
(6.0868412e-07 2.6121745e-06 0)
(2.4060796e-06 4.2272356e-06 0)
(5.4685864e-07 9.6981315e-07 0)
(7.9259078e-07 1.0220941e-06 0)
(1.6215341e-07 2.008576e-07 0)
(1.6567647e-07 1.7022737e-07 0)
(2.8920204e-08 2.8082287e-08 0)
(2.4450037e-08 2.0882095e-08 0)
(3.6200695e-09 2.8872792e-09 0)
(-3.0516442e-05 -6.3272068e-05 0)
(-1.015949e-05 -2.037108e-05 0)
(-1.1390747e-05 -1.6316615e-05 0)
(-3.2050954e-06 -4.3711645e-06 0)
(-2.4104024e-06 -2.7056471e-06 0)
(-5.6578996e-07 -6.0628558e-07 0)
(-3.4141233e-07 -3.1702989e-07 0)
(-6.7803392e-08 -6.0268163e-08 0)
(-3.5205836e-08 -2.7791535e-08 0)
(0.00014980467 0.00033144516 0)
(0.00015721674 0.00024542045 0)
(5.3065903e-05 7.7330547e-05 0)
(3.5198914e-05 4.2354717e-05 0)
(9.5430147e-06 1.083961e-05 0)
(4.9678817e-06 4.919423e-06 0)
(1.1151405e-06 1.0498081e-06 0)
(4.9379343e-07 4.1562636e-07 0)
(9.390312e-08 7.5396072e-08 0)
(-0.0018812104 -0.0033843522 0)
(-0.00079308109 -0.0012750371 0)
(-0.00049871117 -0.00064896863 0)
(-0.00015695328 -0.00018952038 0)
(-7.3661294e-05 -7.7446167e-05 0)
(-1.862315e-05 -1.8462152e-05 0)
(-7.2928286e-06 -6.4843593e-06 0)
(-1.5383046e-06 -1.2993992e-06 0)
(-5.2760752e-07 -4.0554236e-07 0)
(0.010745014 0.018737186 0)
(0.0067534324 0.009413095 0)
(0.0024837475 0.0031422606 0)
(0.001086213 0.0011972012 0)
(0.00030716535 0.00031574127 0)
(0.00010924526 0.00010112447 0)
(2.5320351e-05 2.2140197e-05 0)
(7.7982388e-06 6.2368447e-06 0)
(1.5304201e-06 1.1631094e-06 0)
(-0.075350823 -0.12167448 0)
(-0.034445589 -0.047599782 0)
(-0.015024347 -0.017683986 0)
(-0.0047503286 -0.0050914064 0)
(-0.0015864192 -0.0015241389 0)
(-0.00039865581 -0.00035795382 0)
(-0.00011287753 -9.2870095e-05 0)
(-2.3796994e-05 -1.8513998e-05 0)
(-5.9648579e-06 -4.2946849e-06 0)
(0.39520858 0.61297727 0)
(0.19819657 0.24747307 0)
(0.071155682 0.077811981 0)
(0.022894651 0.022293056 0)
(0.0060529302 0.0054333462 0)
(0.0015890616 0.001310059 0)
(0.00034942616 0.00027069021 0)
(8.0545477e-05 5.8034759e-05 0)
(1.5309624e-05 1.0452926e-05 0)
(-2.5872058 -3.9163673 0)
(-0.96682526 -1.3028994 0)
(-0.31000369 -0.34716142 0)
(-0.084215222 -0.080302425 0)
(-0.020783581 -0.017458878 0)
(-0.0045513235 -0.0034953191 0)
(-0.00096403377 -0.00068271281 0)
(-0.00018372949 -0.00012220546 0)
(-3.5140399e-05 -2.1871863e-05 0)
(13.886047 7.1335432 0)
(6.8449932 4.0216268 0)
(1.9773828 1.2230542 0)
(0.39609479 0.24148624 0)
(0.06934702 0.040644781 0)
(0.011674649 0.0065325572 0)
(0.0019171678 0.0010227869 0)
(0.00030993319 0.00015711725 0)
(4.8559326e-05 2.3397299e-05 0)
(7.5065333e-06 3.4252462e-06 0)
(1.1071277e-06 4.7856164e-07 0)
(1.6208759e-07 6.6106674e-08 0)
(2.2230536e-08 8.5478023e-09 0)
(3.0603841e-09 1.1048445e-09 0)
(3.8747456e-10 1.3099849e-10 0)
(4.9907931e-11 1.5799402e-11 0)
(5.7208819e-12 1.6460644e-12 0)
(7.2113082e-13 1.9423792e-13 0)
(-5.9749989e-06 -3.5245027e-06 0)
(-1.0491831e-06 -5.8140836e-07 0)
(-1.6037634e-07 -8.4411279e-08 0)
(-2.6007063e-08 -1.2849838e-08 0)
(-3.5874597e-09 -1.6813663e-09 0)
(-5.3898015e-10 -2.3628953e-10 0)
(-6.725462e-11 -2.781002e-11 0)
(-9.2372288e-12 -3.5547686e-12 0)
(-1.1243779e-12 -4.1220512e-13 0)
(3.1847488e-06 2.03274e-06 0)
(5.3209408e-07 3.2282442e-07 0)
(1.0117336e-07 5.7436075e-08 0)
(1.5008377e-08 8.098394e-09 0)
(2.6271115e-09 1.3240577e-09 0)
(3.4888747e-10 1.6679419e-10 0)
(5.6424663e-11 2.5101639e-11 0)
(6.8905772e-12 2.9141297e-12 0)
(1.0470381e-12 4.1198889e-13 0)
(-1.0830023e-06 -7.4100234e-07 0)
(-2.4542235e-07 -1.560329e-07 0)
(-3.8984241e-08 -2.3582611e-08 0)
(-8.0814311e-09 -4.5451495e-09 0)
(-1.1358938e-09 -6.0722545e-10 0)
(-2.1722627e-10 -1.0771948e-10 0)
(-2.7051337e-11 -1.2799535e-11 0)
(-4.6722471e-12 -2.1264396e-12 0)
(-4.8187369e-13 -1.9558853e-13 0)
(4.2082183e-07 2.9475946e-07 0)
(7.1335971e-08 4.7581591e-08 0)
(1.7812898e-08 1.0984627e-08 0)
(2.6458993e-09 1.5530456e-09 0)
(6.0632567e-10 3.291277e-10 0)
(7.9873524e-11 4.1127827e-11 0)
(1.7274592e-11 8.1438923e-12 0)
(1.8583738e-12 8.2961858e-13 0)
(6.7175584e-13 2.4578434e-13 0)
(-9.5045737e-08 -6.9619473e-08 0)
(-2.928888e-08 -1.9663856e-08 0)
(-4.5812577e-09 -2.9321776e-09 0)
(-1.287943e-09 -7.5779868e-10 0)
(-1.7744216e-10 -9.9309004e-11 0)
(-4.5719688e-11 -2.3557186e-11 0)
(-5.4769368e-12 -2.6509145e-12 0)
(-1.2774129e-12 -4.9354438e-13 0)
(-1.2962687e-13 -5.1309518e-14 0)
(3.6785127e-08 2.6756676e-08 0)
(6.0299512e-09 4.1871627e-09 0)
(2.1367266e-09 1.3531864e-09 0)
(3.061448e-10 1.8489009e-10 0)
(9.9317394e-11 5.4823891e-11 0)
(1.2633607e-11 6.594122e-12 0)
(3.7399059e-12 1.7854726e-12 0)
(3.8945101e-13 1.8961833e-13 0)
(1.154874e-13 4.3664264e-14 0)
(-6.0059172e-09 -4.5436919e-09 0)
(-2.7799908e-09 -1.8916e-09 0)
(-4.1302622e-10 -2.6929e-10 0)
(-1.739536e-10 -1.0259056e-10 0)
(-2.2792281e-11 -1.286433e-11 0)
(-8.7134087e-12 -4.4597211e-12 0)
(-1.0824355e-12 -5.2310062e-13 0)
(-3.5475572e-13 -1.5932026e-13 0)
(-1.4085441e-14 -5.4181316e-15 0)
(2.713978e-09 1.9723144e-09 0)
(3.4232951e-10 2.2929537e-10 0)
(2.3613248e-10 1.4788679e-10 0)
(2.5487466e-11 1.4509575e-11 0)
(1.635175e-11 8.8663874e-12 0)
(1.5422535e-12 7.5101241e-13 0)
(9.5791192e-13 4.3848192e-13 0)
(3.8982277e-14 1.3941169e-14 0)
(-3.2426352e-14 -5.3438706e-15 0)
(5.1568379e-29 -9.7897334e-15 0)
(1.5412328e-14 2.0821952e-14 0)
(-2.6717902e-14 5.5987515e-15 0)
(-4.5151838e-14 1.4306364e-13 0)
(1.1008807e-14 1.1361186e-14 0)
(-7.0538133e-14 -1.7688341e-13 0)
(7.2652296e-14 2.3501252e-14 0)
(-1.5185511e-13 -5.0878267e-14 0)
(9.3287004e-14 3.723737e-14 0)
(5.8846358e-14 1.4377904e-15 0)
(3.5179573e-14 -2.8153865e-15 0)
(-2.7018108e-16 -2.1389335e-15 0)
(5.3639632e-14 1.2066903e-14 0)
(-4.718233e-13 -1.5609781e-13 0)
(-3.7609978e-14 -8.1654702e-15 0)
(1.2656482e-15 6.3282408e-16 0)
(-5.2525315e-30 4.7112131e-15 0)
(-1.0822772e-14 -2.6528989e-15 0)
(-1.8450826e-15 4.5832637e-15 0)
(-5.2190982e-14 -1.0547069e-14 0)
(2.996008e-14 2.245505e-14 0)
(5.3639632e-14 7.4154038e-14 0)
(2.5687212e-14 -9.2833634e-15 0)
(1.5021804e-14 -4.1875776e-14 0)
(0 5.7770721e-15 0)
(-1.9279588e-15 -9.4366024e-15 0)
(5.4377823e-15 -1.0074856e-15 0)
(-5.7001275e-14 -4.6127065e-16 0)
(0 -8.5056995e-15 0)
(-2.9900035e-14 -5.8539224e-16 0)
(-5.774922e-14 -1.4464165e-14 0)
(-3.1959554e-13 -9.8696478e-14 0)
(2.2166589e-14 1.1083295e-14 0)
(0 0 0)
(1.8863756e-14 4.715939e-15 0)
(1.7580405e-14 4.3951012e-15 0)
(-8.3904324e-30 -4.9071356e-15 0)
(5.0966161e-14 1.4876471e-14 0)
(-3.005014e-14 0 0)
(-4.3620818e-14 -3.5451988e-14 0)
(-2.4180492e-14 -9.6843476e-15 0)
(2.2166589e-14 3.8658398e-14 0)
(4.0766119e-14 -5.1008683e-15 0)
(0 0 0)
(-3.5160806e-14 -8.7902016e-15 0)
(-1.5594603e-29 -2.443753e-15 0)
(1.7011399e-14 6.3750218e-15 0)
(2.996008e-14 3.7450099e-15 0)
(-2.283109e-15 2.3301142e-15 0)
(1.4510723e-13 4.2297628e-14 0)
(-2.2166592e-14 5.5305535e-15 0)
(0 -1.0183876e-14 0)
(9.4507777e-15 3.5416789e-15 0)
(0 0 0)
(-3.8199762e-30 1.6610647e-14 0)
(-1.5412328e-14 -1.9350466e-15 0)
(-3.9626552e-15 5.215995e-16 0)
(1.6760704e-14 -4.1633159e-15 0)
(0 -6.0694241e-15 0)
(-2.2166589e-14 -5.5416473e-15 0)
(-4.0766119e-14 -2.5466066e-15 0)
(-4.2906535e-15 3.3786534e-16 0)
(0 -1.2626566e-14 0)
(8.4587391e-28 -9.5247501e-15 0)
(6.2261732e-15 2.0838968e-16 0)
(-3.512354e-14 -4.5480482e-15 0)
(-2.0386823e-14 3.3507987e-15 0)
(0 -9.1132506e-18 0)
(0 5.5471951e-18 0)
(0 -4.3940451e-15 0)
(-5.1601251e-15 -3.0242492e-15 0)
(0 8.7902024e-15 0)
(4.6816655e-29 7.6683792e-14 0)
(-4.9673285e-15 -4.4272166e-15 0)
(9.1261164e-15 -5.5574747e-15 0)
(-2.2481909e-14 -4.6333683e-16 0)
(0 0 0)
(0 -2.7735972e-15 0)
(0 5.0983172e-15 0)
(1.8882658e-14 5.7862398e-15 0)
(0 -8.7902016e-15 0)
(1.7653979e-14 0 0)
(-1.8861244e-14 -7.0682463e-15 0)
(1.014465e-17 3.7966351e-15 0)
(-1.0962905e-14 2.7407262e-15 0)
(-1.1924732e-14 0 0)
(-4.111007e-14 -7.4295505e-15 0)
(1.4491384e-14 6.3381728e-15 0)
(-6.6405426e-14 -1.879437e-15 0)
(1.6353664e-14 -1.5570544e-14 0)
(1.7825329e-14 2.1233375e-15 0)
(-9.529236e-15 6.0703525e-15 0)
(2.053959e-17 -6.4109195e-15 0)
(3.3305373e-14 -4.1562284e-15 0)
(1.2098026e-14 1.2079879e-14 0)
(9.2030993e-15 -2.8054181e-16 0)
(2.2077235e-14 -3.6795391e-15 0)
(8.8469473e-15 -1.8176681e-15 0)
(2.6057485e-14 -3.463842e-14 0)
(-1.8036464e-17 4.5091161e-15 0)
(1.9289254e-14 6.0260808e-15 0)
(-3.1194214e-17 -6.4922957e-15 0)
(3.3755828e-14 4.2279231e-15 0)
(-2.3805237e-13 -1.0464127e-14 0)
(1.5419818e-13 9.1701088e-15 0)
(7.4915294e-15 2.8111964e-15 0)
(1.6805658e-14 2.0922875e-15 0)
(1.0817843e-13 -6.8670457e-14 0)
(-2.7314525e-14 -2.7350993e-15 0)
(4.9058018e-15 8.7347947e-15 0)
(1.0529595e-17 -1.0512485e-14 0)
(-5.6897883e-14 4.5033932e-14 0)
(6.0356992e-14 -3.7676394e-15 0)
(3.3951348e-14 -5.5856826e-14 0)
(-6.1030459e-17 1.7887646e-14 0)
(1.7186986e-14 6.4451198e-15 0)
(-4.8083112e-14 1.7751721e-14 0)
(0 0 0)
(-1.4842759e-14 0 0)
(1.0643128e-14 0 0)
(-3.4659583e-14 -5.7746683e-15 0)
(2.0070986e-13 -8.2972915e-16 0)
(-8.9501626e-14 1.413936e-15 0)
(-2.1448678e-14 8.7543244e-15 0)
(7.0197311e-17 5.0454317e-15 0)
(2.1297293e-14 -8.2851634e-14 0)
(9.3118381e-15 0 0)
(-1.0007472e-14 0 0)
(1.0802868e-14 -5.4014341e-15 0)
(1.173563e-14 2.7967106e-30 0)
(-2.9504244e-14 -2.8900544e-16 0)
(-1.8809627e-14 3.5853192e-15 0)
(-1.580654e-14 3.9516349e-15 0)
(2.5456681e-15 -4.4728465e-15 0)
(9.2230256e-14 -6.2252648e-14 0)
(7.9844062e-15 -2.460366e-15 0)
(1.0129213e-14 7.7032664e-15 0)
(0 0 0)
(0 -5.9397977e-15 0)
(1.6907538e-14 2.8480917e-15 0)
(-2.6264595e-15 3.6005584e-15 0)
(1.614533e-14 -6.0504623e-15 0)
(-2.086844e-14 -3.1896972e-15 0)
(1.2371186e-13 -4.9245453e-14 0)
(-1.7601006e-14 0 0)
(-1.0253994e-17 -6.4023376e-16 0)
(-2.2170329e-14 6.9247619e-16 0)
(-1.2076099e-14 0 0)
(1.3280179e-14 -5.7968246e-15 0)
(-2.9371421e-14 3.6714276e-15 0)
(0 0 0)
(-1.5586765e-14 -1.5212083e-14 0)
(1.3328088e-14 1.3776251e-14 0)
(9.6451226e-15 -4.8177387e-15 0)
(1.0361085e-14 3.890598e-15 0)
(3.3676331e-14 4.2053262e-15 0)
(1.2253825e-14 -1.2235445e-14 0)
(-2.6909212e-14 4.3905921e-15 0)
(0 3.7523062e-15 0)
(1.6796897e-14 4.1992243e-15 0)
(3.8311595e-14 -4.7865537e-15 0)
(-7.8321578e-14 2.4821495e-14 0)
(-2.0934199e-14 1.4523549e-14 0)
(-1.9597344e-14 4.9091446e-15 0)
(-1.7125581e-14 -2.1406976e-15 0)
(3.0445488e-14 -3.805686e-15 0)
(4.0959103e-14 -6.8379251e-15 0)
(0 1.2424483e-14 0)
(5.6891756e-14 -1.4242879e-18 0)
(1.0502463e-14 -8.8269572e-15 0)
(0 -3.981341e-15 0)
(-3.7469622e-14 1.6720616e-14 0)
(0 -1.0040163e-14 0)
(1.7485703e-14 2.181337e-15 0)
(-1.5506333e-14 1.9359657e-14 0)
(-2.7767269e-14 3.4709086e-15 0)
(-1.2625519e-14 -6.2938215e-15 0)
(-4.6140247e-14 7.2159118e-15 0)
(-1.0700651e-14 -4.3481375e-15 0)
(1.9737982e-14 -4.9320269e-15 0)
(-1.2649672e-14 8.4856826e-15 0)
(4.5724244e-14 6.5158592e-15 0)
(3.3773646e-14 -2.319815e-15 0)
(5.9726338e-15 -8.121518e-15 0)
(-8.4689693e-14 1.7672586e-14 0)
(1.281995e-14 -3.2049875e-15 0)
(-4.6777928e-14 1.1697411e-14 0)
(-1.0688305e-14 9.5612331e-15 0)
(-1.9974898e-14 5.0012188e-15 0)
(3.0082324e-14 -1.2370302e-14 0)
(-6.7992909e-14 3.8577163e-15 0)
(-5.2786349e-14 8.6195778e-15 0)
(-2.21945e-14 -1.3263549e-14 0)
(1.4371134e-14 -3.6359834e-15 0)
(-2.6145111e-14 1.6272337e-14 0)
(2.3728724e-14 -4.4617605e-15 0)
(-2.1842899e-14 -2.0542596e-15 0)
(0 -6.1188746e-15 0)
(3.2121153e-14 -4.6020782e-14 0)
(-2.1636741e-14 2.7073e-15 0)
(3.7344347e-14 -9.8638396e-15 0)
(0 5.6663123e-16 0)
(5.8437669e-14 -1.4774268e-14 0)
(-1.3121496e-14 3.3465105e-15 0)
(1.2030127e-14 3.0195861e-15 0)
(3.319465e-14 -2.7652981e-15 0)
(1.0238226e-14 1.0222868e-14 0)
(5.1099544e-14 -1.3226859e-14 0)
(8.8858743e-14 -1.6655455e-14 0)
(-3.8201667e-14 1.9081723e-14 0)
(3.3475728e-14 -1.2410984e-14 0)
(-1.491593e-14 -8.5617438e-15 0)
(5.3736744e-14 -1.349467e-14 0)
(-1.2206872e-14 1.6127015e-14 0)
(1.1176606e-14 -1.1266377e-14 0)
(-2.0710669e-14 -1.3760467e-14 0)
(6.8772628e-14 -1.2784369e-14 0)
(2.2801546e-14 -1.1178012e-14 0)
(3.9118706e-17 -9.7698969e-15 0)
(-1.7064547e-14 8.5365481e-15 0)
(4.5518653e-14 3.7970181e-18 0)
(2.0123345e-14 -2.8210935e-15 0)
(-1.2413721e-14 -3.0972235e-15 0)
(6.7964647e-14 -1.6988318e-14 0)
(2.0961278e-14 -1.0485887e-14 0)
(-1.2770032e-13 8.4385661e-14 0)
(-1.0806281e-14 2.6310945e-15 0)
(5.0014795e-14 -2.3855675e-14 0)
(-1.7457327e-17 8.7112064e-15 0)
(-3.0940577e-17 3.8675721e-15 0)
(-4.1140371e-14 2.5278689e-15 0)
(5.0582948e-14 6.1684985e-15 0)
(-2.29149e-14 1.6191505e-14 0)
(-5.3258486e-15 -2.3285971e-14 0)
(6.4736237e-14 -8.1051695e-14 0)
(-5.7195994e-14 1.7743812e-14 0)
(-1.028242e-14 5.1309479e-15 0)
(1.783122e-14 -8.9066945e-15 0)
(-3.1447636e-14 0 0)
(-8.6869077e-15 2.2762523e-14 0)
(2.5539454e-14 6.3912612e-15 0)
(-7.1008421e-14 1.0606824e-14 0)
(5.4054941e-15 8.0705535e-15 0)
(-2.1763699e-14 0 0)
(1.2738113e-14 -2.7321904e-14 0)
(-1.289783e-14 -6.2838839e-15 0)
(-4.2278644e-14 1.6375531e-14 0)
(7.6009443e-15 -3.8004722e-15 0)
(-1.6906938e-14 -6.4056816e-15 0)
(-1.9037972e-14 1.9037972e-17 0)
(4.0356837e-14 -1.8383573e-15 0)
(-1.2042106e-13 2.1850269e-13 0)
(1.1067206e-14 1.1067206e-17 0)
(1.7900734e-14 -8.9324661e-15 0)
(-2.5869461e-14 5.2353937e-14 0)
(1.6526979e-14 3.5020781e-15 0)
(2.3381408e-14 -2.3342413e-14 0)
(0 0 0)
(2.9438607e-14 -1.4699691e-14 0)
(-2.2306806e-14 -2.5885799e-16 0)
(-2.2448551e-15 -3.4253848e-14 0)
(-1.1258962e-14 5.6351105e-15 0)
(-2.4314177e-14 3.2824139e-16 0)
(-1.3184491e-14 1.2497524e-14 0)
(4.3249771e-14 -3.605353e-14 0)
(-1.5981685e-14 5.0342309e-15 0)
(-1.7853958e-14 -1.0873061e-14 0)
(-2.2447631e-14 2.6937157e-14 0)
(3.6841118e-15 -7.0767591e-15 0)
(-3.645882e-14 9.0061373e-14 0)
(1.1457515e-14 0 0)
(4.3237289e-14 -2.4728261e-14 0)
(-1.3485117e-17 -6.7223306e-15 0)
(-1.7013307e-15 8.5806244e-16 0)
(1.6384692e-14 -8.1923462e-15 0)
(0 9.1699984e-15 0)
(-8.1194673e-15 -1.4840466e-14 0)
(1.2593147e-13 -6.655721e-14 0)
(-9.4581188e-14 -4.723849e-14 0)
(2.330302e-14 -3.4907878e-14 0)
(-2.5537306e-14 1.1834053e-14 0)
(-2.7927472e-14 2.9270139e-14 0)
(-1.3367635e-14 1.546437e-14 0)
(-2.0455983e-14 1.8254065e-14 0)
(1.8892173e-14 0 0)
(4.3023189e-14 -3.2262e-14 0)
(-8.3273139e-14 7.0348847e-14 0)
(1.0718568e-13 2.4122324e-14 0)
(-1.1888227e-14 1.7814525e-14 0)
(-7.6713672e-14 4.4642308e-14 0)
(-1.3604822e-14 1.4294208e-14 0)
(4.643798e-14 -3.0976737e-14 0)
(-1.3493337e-14 -1.6590593e-14 0)
(0 9.7289631e-15 0)
(1.1152906e-16 -2.3443408e-14 0)
(3.7366371e-15 -4.3324086e-14 0)
(9.5125344e-15 1.3955397e-15 0)
(1.2109574e-14 1.8085728e-14 0)
(1.3166853e-14 -2.6281143e-17 0)
(2.873222e-14 -3.5872134e-14 0)
(0 -7.9155792e-15 0)
(1.7707891e-14 1.7690166e-14 0)
(4.007712e-14 -4.007712e-14 0)
(2.3075733e-14 5.774708e-16 0)
(1.6827898e-13 -6.3516398e-14 0)
(-1.7269773e-13 9.0490114e-14 0)
(6.1634962e-17 1.8447344e-14 0)
(6.6549368e-14 -2.655537e-14 0)
(0 7.3529782e-15 0)
(-3.2504318e-14 1.6260297e-14 0)
(9.129612e-15 -1.8204556e-14 0)
(-2.0697596e-17 3.1046394e-17 0)
(-2.5914187e-14 4.8858541e-15 0)
(-6.16624e-15 1.3483322e-14 0)
(1.4162564e-13 -9.8820971e-14 0)
(0 -6.081636e-15 0)
(-1.3489039e-14 -6.9088531e-15 0)
(0 0 0)
(0 -4.4491581e-15 0)
(6.7494807e-16 5.2870932e-15 0)
(-4.2692978e-14 4.059788e-14 0)
(-2.1310872e-14 -2.0378366e-14 0)
(-1.2664703e-13 7.2252994e-14 0)
(6.2617619e-14 -1.5340878e-13 0)
(-6.2101874e-17 1.2432795e-14 0)
(-5.4054229e-14 4.1172709e-14 0)
(-1.4491972e-14 1.8114965e-15 0)
(0 0 0)
(-2.6698146e-14 0 0)
(0 9.6636882e-15 0)
(1.0894706e-14 -3.2542771e-14 0)
(4.6307431e-14 -1.9226408e-14 0)
(8.2012178e-14 -7.7748415e-14 0)
(-2.404248e-14 4.0305449e-14 0)
(7.1106867e-16 -7.4338997e-15 0)
(1.3967684e-14 -2.786553e-14 0)
(0 0 0)
(0 0 0)
(3.675668e-14 -1.8387543e-14 0)
(1.0293207e-16 -2.18216e-15 0)
(-1.2589571e-13 8.7013064e-14 0)
(-9.6724479e-14 3.8174503e-14 0)
(0 5.8289467e-15 0)
(3.7478823e-14 -3.756639e-14 0)
(2.828105e-14 -1.0770524e-14 0)
(1.4569766e-14 -1.458438e-14 0)
(3.186283e-14 -3.186283e-14 0)
(1.7568392e-17 1.7550823e-14 0)
(-2.9375078e-14 1.1843844e-14 0)
(-3.0278816e-14 2.3782633e-14 0)
(-1.4425048e-13 2.5115546e-14 0)
(2.2620418e-14 -1.6973809e-14 0)
(2.4221883e-14 6.0584999e-15 0)
(-7.5285727e-15 -1.471849e-15 0)
(4.2213695e-14 -2.9372171e-14 0)
(-1.5306842e-14 2.8882279e-14 0)
(-3.3573956e-14 1.6786978e-14 0)
(-1.8602604e-14 0 0)
(-3.8332158e-15 3.8332158e-15 0)
(-1.0237437e-15 -1.0149857e-13 0)
(2.0038877e-14 -6.652115e-15 0)
(-1.1760047e-14 1.3043232e-33 0)
(-4.4466008e-14 2.0676883e-14 0)
(-2.71296e-14 4.0701192e-14 0)
(-4.5317096e-14 4.5302358e-14 0)
(-1.6102885e-14 0 0)
(0 0 0)
(5.9239323e-14 -3.9473116e-14 0)
(-1.0704348e-13 3.0242932e-14 0)
(-1.9483583e-14 1.9408688e-14 0)
(1.0728676e-14 2.0020782e-14 0)
(-1.7717168e-14 1.901057e-14 0)
(-2.7795335e-14 2.0472484e-15 0)
(1.1072448e-15 -1.1072448e-15 0)
(3.0916395e-14 0 0)
(3.3935028e-14 0 0)
(-2.6306066e-14 1.0699179e-14 0)
(-8.2241969e-14 3.419984e-14 0)
(-1.0462919e-14 8.3391023e-15 0)
(-2.2115422e-14 2.1971456e-14 0)
(-3.0303625e-14 1.2916299e-14 0)
(-9.1128583e-15 9.1128583e-15 0)
(2.7370311e-14 -1.367831e-14 0)
(1.4788768e-14 -1.4818494e-14 0)
(-3.2506453e-17 -1.622072e-14 0)
(-1.1887754e-14 -6.6341917e-15 0)
(-1.6541331e-13 3.7607111e-14 0)
(-2.0173649e-15 2.0173649e-15 0)
(0 1.3941374e-14 0)
(3.8090556e-14 -1.9280546e-14 0)
(-2.3629906e-14 1.4364722e-14 0)
(-1.1818774e-13 9.1834176e-14 0)
(4.2936324e-17 -1.432642e-14 0)
(3.5248422e-15 -3.5248422e-15 0)
(1.0966077e-15 1.3690461e-14 0)
(-4.5335972e-14 2.109976e-15 0)
(2.0052626e-15 7.8383048e-15 0)
(2.0915594e-14 -1.0442087e-14 0)
(9.4934979e-14 -6.2145744e-14 0)
(2.3746538e-14 2.3377359e-14 0)
(-1.0712519e-29 4.6665926e-15 0)
(-2.7545881e-14 -2.7159465e-14 0)
(-4.0475854e-14 5.0759719e-14 0)
(-2.1131378e-14 3.2779886e-14 0)
(-1.9665769e-13 5.6162031e-16 0)
(-3.1183049e-15 5.3109817e-15 0)
(2.4016847e-14 -4.8081823e-14 0)
(9.5099613e-15 -2.3186761e-14 0)
(3.4035772e-14 -1.7017886e-14 0)
(1.1786489e-13 -1.0351032e-13 0)
(1.3136955e-14 -1.3163281e-14 0)
(-2.3636512e-14 -1.3254892e-14 0)
(-1.0732348e-14 -2.1443232e-14 0)
(1.9650246e-17 -4.9076489e-15 0)
(3.4309173e-14 -8.4368133e-14 0)
(-2.3306913e-14 0 0)
(4.8476673e-14 -4.8476673e-14 0)
(-1.6635374e-17 1.6635374e-14 0)
(3.6294031e-14 -3.7938468e-14 0)
(1.9373988e-14 -2.5827673e-14 0)
(-3.5368539e-14 5.154566e-14 0)
(2.1475205e-15 8.4313981e-15 0)
(-2.0750275e-15 -5.4784603e-16 0)
(1.1243695e-13 -9.0173944e-14 0)
(-2.7249944e-14 4.5552146e-14 0)
(-9.345325e-15 -1.1350597e-16 0)
(-4.7962783e-14 2.0092957e-14 0)
(4.2729924e-14 -6.7049159e-14 0)
(-1.2571227e-14 -5.3513516e-15 0)
(1.200797e-14 -1.9237959e-14 0)
(-2.2945594e-14 -7.8223616e-16 0)
(-1.7074611e-14 1.9668344e-14 0)
(-4.1092792e-14 5.1966421e-14 0)
(-2.4973503e-14 6.5338927e-14 0)
(-4.0950338e-15 9.3706179e-15 0)
(-6.5907212e-15 3.0103995e-14 0)
(-3.4892546e-14 6.9897107e-14 0)
(-8.7799795e-14 1.065819e-13 0)
(6.8940883e-15 1.5672486e-14 0)
(-8.1147542e-15 1.8409899e-14 0)
(9.4487674e-15 -9.4487674e-18 0)
(1.0475836e-13 -3.386682e-14 0)
(4.2504421e-14 -8.5094022e-14 0)
(5.3938413e-14 -1.8015466e-14 0)
(0 0 0)
(-4.1197891e-14 2.0530236e-14 0)
(-1.2301179e-14 6.2550449e-15 0)
(-2.8984891e-14 3.2341271e-14 0)
(2.7997151e-15 6.8572733e-15 0)
(-9.3296404e-15 4.6648202e-15 0)
(2.3348616e-13 -2.4000573e-13 0)
(2.0699241e-14 -4.1357084e-14 0)
(-9.470326e-15 1.5321195e-14 0)
(3.0525772e-17 0 0)
(2.6982512e-14 2.6982512e-14 0)
(9.6656793e-14 -8.4810413e-14 0)
(0 -7.2703884e-15 0)
(-4.8632574e-15 -3.6024129e-15 0)
(1.8426959e-14 1.8417746e-14 0)
(5.9238128e-14 -3.141831e-14 0)
(-8.6987135e-15 -5.1145214e-15 0)
(-1.3644276e-14 -1.4965797e-14 0)
(1.4909579e-14 -2.9878976e-14 0)
(-1.3249712e-14 -2.6499424e-14 0)
(2.3787735e-17 -2.3787735e-14 0)
(-2.1579484e-17 -2.1536325e-14 0)
(9.8633283e-15 -1.9746403e-14 0)
(-1.8200353e-14 -1.8200353e-14 0)
(6.9184589e-14 -3.527462e-14 0)
(-7.0882832e-14 3.4226058e-14 0)
(5.032083e-17 1.6740063e-14 0)
(4.3901355e-14 -5.8544912e-14 0)
(3.8945756e-14 -5.1936353e-14 0)
(-1.1705693e-14 -1.1729104e-14 0)
(2.129058e-14 -2.126931e-17 0)
(9.7042122e-15 0 0)
(0 1.7979233e-14 0)
(-9.6831759e-16 4.935849e-14 0)
(-3.2540723e-14 2.6429789e-14 0)
(-4.9205486e-14 1.6401829e-14 0)
(-5.735035e-14 5.7379098e-14 0)
(2.5532117e-14 -2.5506534e-14 0)
(0 2.3046878e-14 0)
(-2.0968047e-17 -2.0947079e-14 0)
(-1.9175496e-14 1.9233196e-17 0)
(1.1475194e-14 -3.1068288e-14 0)
(-2.5181848e-13 3.4285126e-13 0)
(0 -1.0685942e-14 0)
(0 0 0)
(-1.4568769e-14 1.5008166e-14 0)
(-2.3405341e-14 2.3393609e-14 0)
(0 1.0240981e-14 0)
(0 0 0)
(0 -2.4496416e-17 0)
(3.7070861e-15 1.849836e-15 0)
(1.1652645e-13 -8.4764703e-14 0)
(0 4.0431559e-14 0)
(0 -2.3172292e-16 0)
(2.7105364e-14 -6.7832065e-15 0)
(0 -1.0899028e-14 0)
(0 -1.0240969e-14 0)
(0 1.816333e-14 0)
(0 -4.0745723e-15 0)
(-1.1106426e-14 1.4806096e-14 0)
(-6.9219284e-14 1.2135146e-13 0)
(1.0415136e-14 -3.1203748e-14 0)
(3.3070142e-14 -3.1133603e-14 0)
(-2.4867144e-14 2.6981744e-14 0)
(-1.1708536e-14 1.1696804e-14 0)
(-1.0220499e-14 1.4839181e-14 0)
(-9.0771219e-15 -1.9898796e-15 0)
(0 -2.2944967e-15 0)
(0 -3.6996705e-15 0)
(-7.2112785e-14 6.5367136e-14 0)
(1.9143063e-14 4.1452334e-15 0)
(-1.6551637e-17 8.3089219e-15 0)
(-1.3593856e-15 -1.2014771e-14 0)
(2.3323202e-14 -2.1223176e-14 0)
(0 -2.1506036e-15 0)
(-9.0862081e-18 9.0862081e-18 0)
(0 4.0745723e-15 0)
(1.110643e-14 -3.6996719e-15 0)
(3.6238938e-15 -2.3456987e-14 0)
(-2.9558157e-14 1.6435085e-14 0)
(-3.305362e-14 1.6518534e-14 0)
(1.3703725e-14 1.3731187e-17 0)
(-2.2056174e-15 -1.1708544e-14 0)
(2.0440997e-14 -3.0620532e-14 0)
(0 0 0)
(0 -8.1573066e-15 0)
(7.4141664e-18 7.4030452e-15 0)
(-8.7085821e-16 -6.8400996e-14 0)
(0 2.8870758e-14 0)
(0 0 0)
(-1.3717436e-14 2.7434872e-14 0)
(-2.1117588e-14 3.5031731e-14 0)
(0 1.0220488e-14 0)
(-4.7008741e-30 9.0680314e-15 0)
(0 1.6322779e-14 0)
(-7.4141722e-15 7.4141722e-15 0)
(4.9891896e-14 -2.28917e-14 0)
(0 7.2489509e-15 0)
(0 0 0)
(-1.36488e-14 1.36488e-14 0)
(1.1708544e-14 -1.1696812e-14 0)
(0 -2.0440997e-14 0)
(-9.0680401e-15 1.8154253e-14 0)
(-8.1573101e-15 -8.1818065e-15 0)
(-7.3993439e-15 1.8516895e-14 0)
(2.2501852e-14 -9.3234501e-14 0)
(0 -2.2871639e-14 0)
(0 0 0)
(7.6634897e-29 5.3276929e-15 0)
(0 1.1696797e-14 0)
(0 -1.0169283e-14 0)
(0 -1.8172408e-14 0)
(8.1573031e-15 8.173634e-15 0)
(0 3.7070832e-15 0)
(2.6490945e-14 -4.635213e-15 0)
(4.1618885e-14 -6.2365836e-14 0)
(0 0 0)
(1.364878e-14 -1.364878e-14 0)
(-1.1708536e-14 1.1720268e-14 0)
(-1.5105446e-14 3.0897038e-14 0)
(0 2.8712432e-15 0)
(0 -8.1654756e-15 0)
(0 -7.4141722e-15 0)
(3.054747e-15 -1.0401341e-13 0)
(-8.4706488e-16 0 0)
(4.5836594e-15 -2.7506547e-14 0)
(-4.3082547e-16 1.3911367e-14 0)
(-3.1384263e-15 -3.341702e-14 0)
(1.16645e-15 0 0)
(1.2532027e-15 8.0092729e-15 0)
(8.7316703e-16 0 0)
(-3.1244966e-15 1.2472965e-14 0)
(-1.5815471e-15 5.6301785e-14 0)
(-2.6597837e-16 5.4130834e-14 0)
(5.7267051e-15 0 0)
(-8.046414e-15 -1.3897484e-14 0)
(-4.6717142e-15 1.116133e-17 0)
(8.7343781e-15 0 0)
(-3.2540177e-15 4.0006279e-15 0)
(-1.7533616e-15 0 0)