/*--------------------------------*- C++ -*----------------------------------*\
  =========                 |
  \\      /  F ield         | OpenFOAM: The Open Source CFD Toolbox
   \\    /   O peration     | Website:  https://openfoam.org
    \\  /    A nd           | Version:  11
     \\/     M anipulation  |
\*---------------------------------------------------------------------------*/
FoamFile
{
    format      ascii;
    class       surfaceScalarField;
    location    "16.8";
    object      phi;
}
// * * * * * * * * * * * * * * * * * * * * * * * * * * * * * * * * * * * * * //

dimensions      [0 3 -1 0 0 0 0];

internalField   nonuniform List<scalar> 
10792
(
0.06776255
-0.041637201
-0.068145694
0.042020346
0.067179182
-0.039488545
0.040071913
0.066568942
-0.037197961
0.037808201
0.065906241
-0.03504668
0.035709382
0.065196041
-0.03247408
0.03318428
0.064416293
-0.030191704
0.030971452
0.06358985
-0.027532098
0.028358541
0.062907635
-0.025260287
0.025942502
0.062045929
-0.022483813
0.023345518
0.061293629
-0.01994736
0.020699661
0.060577287
-0.017243557
0.0179599
0.059870757
-0.014555743
0.015262272
0.05929276
-0.011807752
0.01238575
0.058681596
-0.0090176876
0.0096288517
0.058161697
-0.0061753646
0.0066952638
0.057690245
-0.0033091995
0.0037806513
0.057418686
-0.0004994099
0.00077096933
0.05722705
0.0024979563
-0.0023063198
0.0054055502
0.05703267
-0.0052111702
0.071956206
-0.041120792
-0.072472616
0.071358924
-0.038891263
0.070806209
-0.036645246
0.070061754
-0.034302225
0.069284514
-0.03169684
0.068514128
-0.029421318
0.067824403
-0.026842373
0.067037431
-0.024473314
0.066172672
-0.021619054
0.065478192
-0.01925288
0.064726461
-0.016491825
0.064086854
-0.013916136
0.063478859
-0.011199756
0.062875541
-0.00841437
0.062427972
-0.0057277946
0.062007418
-0.0028886452
0.061621113
-0.00011310468
0.061368728
0.0027503409
0.0056450051
0.061129274
0.076518967
-0.040588451
-0.077051307
0.075973425
-0.038345721
0.075335989
-0.03600781
0.074555832
-0.033522068
0.073894531
-0.031035539
0.073210607
-0.028737394
0.072412844
-0.02604461
0.071569272
-0.023629742
0.070807202
-0.020856983
0.070082431
-0.018528109
0.069336769
-0.015746163
0.068696809
-0.013276176
0.068025158
-0.010528105
0.067477609
-0.0078668202
0.066946165
-0.0051963506
0.066482584
-0.0024250636
0.066114528
0.00025495095
0.065826685
0.0030381842
0.0058471345
0.065624556
0.081293433
-0.039961651
-0.081920233
0.080804622
-0.03785691
0.080121838
-0.035325025
0.079384409
-0.032784639
0.078762662
-0.030413792
0.077906198
-0.02788093
0.077110594
-0.025249007
0.076332099
-0.022851247
0.075572706
-0.020097589
0.07483021
-0.017785613
0.074063734
-0.014979687
0.073347057
-0.012559499
0.072635151
-0.0098162
0.07208982
-0.0073214883
0.071537338
-0.0046438681
0.071140183
-0.002027909
0.070762776
0.00063235822
0.070528356
0.0032726048
0.0060204361
0.070355055
0.08656564
-0.039526404
-0.087000887
0.085934649
-0.037225919
0.085125234
-0.03451561
0.084512047
-0.032171452
0.083720507
-0.029622252
0.082904849
-0.027065271
0.08224658
-0.024590738
0.081452148
-0.022056815
0.080757629
-0.019403071
0.079932148
-0.016960131
0.079196551
-0.014244091
0.078494158
-0.011857105
0.077864094
-0.0091861354
0.077331081
-0.0067884753
0.076795927
-0.0041087136
0.076414366
-0.0016463483
0.075984761
0.0010619643
0.075785609
0.0034717571
0.00621822
0.075587825
0.092074123
-0.03884751
-0.092753016
0.091425479
-0.036577276
0.090799789
-0.03388992
0.09011154
-0.031483203
0.089274318
-0.02878503
0.088643624
-0.026434577
0.087871761
-0.023818874
0.08703155
-0.021216604
0.086250387
-0.018621908
0.085402756
-0.0161125
0.084749369
-0.013590703
0.084030848
-0.011138584
0.083449268
-0.0086045553
0.082801765
-0.0061409718
0.082294933
-0.0036018814
0.081806184
-0.0011575993
0.081492791
0.0013753575
0.08124069
0.0037238586
0.0063595755
0.081099335
0.097969283
-0.038277953
-0.09853884
0.097293037
-0.03590103
0.096532045
-0.033128927
0.0958469
-0.030798058
0.095136414
-0.028074544
0.094375342
-0.025673506
0.093486769
-0.022930301
0.092759148
-0.020488982
0.092041514
-0.017904274
0.091320857
-0.015391842
0.090632457
-0.012902303
0.089897521
-0.010403648
0.089300705
-0.008007739
0.088680182
-0.0055204484
0.0882611
-0.0031827986
0.087770452
-0.00066695153
0.087512059
0.0016337504
0.087224078
0.0040118404
0.0063998427
0.087183811
0.10468994
-0.037630715
-0.10533718
0.10396923
-0.035180314
0.1032365
-0.032396202
0.10246356
-0.030025111
0.10162023
-0.027231218
0.10082555
-0.024878827
0.10003854
-0.022143287
0.099324198
-0.019774642
0.098525235
-0.017105311
0.097761845
-0.014628453
0.096969438
-0.012109895
0.096250111
-0.0096843208
0.095573995
-0.0073316229
0.09496222
-0.0049086728
0.094462558
-0.0026831365
0.094035772
-0.00024016474
0.093738827
0.0019306951
0.093459172
0.0042914961
0.0064751757
0.093383839
0.11112592
-0.036803171
-0.11195347
0.11030414
-0.034358531
0.10961788
-0.03170994
0.10886811
-0.029275341
0.10814764
-0.026510744
0.10741398
-0.024145175
0.10658148
-0.021310784
0.10581315
-0.019006314
0.10499879
-0.016290947
0.10435201
-0.013981675
0.10364261
-0.011400496
0.10302566
-0.0090673671
0.10239743
-0.0067033984
0.10187114
-0.0043823832
0.1013938
-0.0022057931
0.10093367
0.00021997229
0.10067162
0.0021927446
0.1004058
0.0045573073
0.0065539949
0.10032699
0.11922406
-0.036124088
-0.11990315
0.11836819
-0.033502653
0.11755046
-0.030892218
0.11667578
-0.028400653
0.11590221
-0.025737177
0.11502329
-0.023266253
0.11421872
-0.02050622
0.11337764
-0.018165236
0.1124962
-0.015409501
0.11171297
-0.013198442
0.11087429
-0.010561821
0.11020421
-0.0083972861
0.1094392
-0.0059383864
0.10889277
-0.003835956
0.10827956
-0.0015925768
0.10795888
0.00054065206
0.10761646
0.0025351606
0.10748109
0.0046926798
0.0066448872
0.1073902
0.12667402
-0.035200746
-0.12759736
0.12574116
-0.032569794
0.12495371
-0.030104763
0.12400791
-0.027454861
0.12318005
-0.024909317
0.12231435
-0.022400552
0.12156257
-0.019754432
0.12069552
-0.017298188
0.1199571
-0.014671083
0.11920846
-0.012449804
0.11851206
-0.009865414
0.11787747
-0.007762696
0.11725866
-0.0053195832
0.11684146
-0.0034187566
0.11635741
-0.0011085222
0.11618175
0.00071631162
0.11581951
0.0028973963
0.11576584
0.0047463504
0.0068116787
0.11559905
0.13580645
-0.034160768
-0.13684643
0.13484614
-0.031609483
0.13393609
-0.029194712
0.13303202
-0.026550792
0.1321697
-0.024046991
0.13118176
-0.021412621
0.13032582
-0.018898484
0.12941621
-0.01638858
0.12868573
-0.0139406
0.12776874
-0.011532818
0.12703273
-0.0091294003
0.1262318
-0.0069617667
0.12556719
-0.0046549748
0.12493517
-0.002786735
0.12443834
-0.0006116959
0.12410393
0.0010507205
0.12383022
0.0031711131
0.12379815
0.0047784141
0.0068958299
0.123714
0.14448462
-0.033098497
-0.14554689
0.14347136
-0.030596221
0.14244429
-0.028167644
0.14149845
-0.025604948
0.14064523
-0.023193776
0.13979071
-0.020558099
0.13892576
-0.01803353
0.13805376
-0.015516587
0.13731626
-0.013203093
0.13655444
-0.010770999
0.13599171
-0.0085666713
0.13530623
-0.0062762838
0.13478461
-0.0041333548
0.1341304
-0.0021325281
0.13375736
-0.00023865696
0.13330508
0.001503003
0.13312088
0.0033553172
0.13299951
0.0048997847
0.0068298
0.13306554
0.15503759
-0.031995845
-0.15614024
0.15394755
-0.029506181
0.15274708
-0.026967175
0.15171709
-0.024574955
0.15070581
-0.022182496
0.14980916
-0.01966145
0.14887907
-0.017103442
0.14788796
-0.014525469
0.14689575
-0.012210884
0.1459858
-0.009861049
0.14527819
-0.0078590632
0.1446197
-0.0056177978
0.14413688
-0.0036505266
0.14363725
-0.0016328989
0.14328628
0.00011230757
0.14290105
0.001888233
0.14281378
0.0034425937
0.14263668
0.0050768796
0.0066314971
0.14283499
0.1648021
-0.030848475
-0.16594947
0.1637409
-0.028444984
0.16270431
-0.025930586
0.16169393
-0.023564579
0.16067341
-0.021161969
0.15984488
-0.018832929
0.15907461
-0.016333164
0.15838986
-0.013840725
0.15756237
-0.011383387
0.15673637
-0.0090350535
0.1558838
-0.0070064976
0.1551151
-0.0048490935
0.15451815
-0.0030535708
0.15402196
-0.001136716
0.1536492
0.00048507511
0.15331792
0.0022195125
0.15317879
0.0035817249
0.15303392
0.0052217478
0.0064328944
0.15323252
0.17702132
-0.029626303
-0.17824349
0.17576581
-0.027189477
0.17458732
-0.024752088
0.17335679
-0.022334057
0.1721079
-0.019913072
0.17091983
-0.017644858
0.16990077
-0.015314109
0.16909005
-0.013030002
0.16833778
-0.010631117
0.16768228
-0.0083795485
0.16694862
-0.0062728423
0.16629033
-0.0041908007
0.16564031
-0.0024035555
0.16515455
-0.00065095565
0.16472723
0.00091239991
0.16447704
0.0024697018
0.16432455
0.0037342187
0.16432378
0.005222509
0.006222579
0.1645341
0.18844768
-0.028354494
-0.18971949
0.18713559
-0.025877388
0.18614057
-0.023757067
0.18512198
-0.021315467
0.18420896
-0.019000052
0.18314666
-0.016582558
0.18209312
-0.014260568
0.18106643
-0.012003316
0.18019257
-0.0097572521
0.17943684
-0.0076238237
0.17872632
-0.0055623222
0.17812493
-0.0035894042
0.17752717
-0.0018058016
0.17708153
-0.00020531479
0.17668258
0.0013113554
0.17645255
0.002699732
0.17626926
0.0039175043
0.176303
0.0051887756
0.0060799475
0.17644563
0.20226846
-0.026724125
-0.20389883
0.2007173
-0.024326225
0.19924332
-0.022283086
0.1978647
-0.019936851
0.19675535
-0.017890698
0.19569202
-0.015519232
0.19474321
-0.013311752
0.19374722
-0.011007335
0.19289557
-0.0089055958
0.19207695
-0.006805203
0.19140625
-0.0048916279
0.19082188
-0.0030050315
0.19032711
-0.0013110364
0.18990925
0.00021255011
0.18960019
0.0016204113
0.18941982
0.0028801071
0.18933321
0.0040041162
0.18947927
0.0050427122
0.0058325934
0.18972663
0.21596712
-0.025085863
-0.21760538
0.21456501
-0.022924111
0.21312562
-0.020843702
0.21183245
-0.01864368
0.21051388
-0.01657213
0.20930214
-0.014307492
0.20827633
-0.012285942
0.2073281
-0.010059104
0.20651778
-0.0080952784
0.20574683
-0.0060342529
0.20509601
-0.004240803
0.20449498
-0.002404002
0.20402743
-0.00084348942
0.20366581
0.0005741717
0.20339872
0.0018875077
0.20323756
0.0030412657
0.20320001
0.0040416657
0.20330526
0.0049374607
0.0055693157
0.20356854
0.23128944
-0.023202803
-0.2331725
0.22965964
-0.021294315
0.22817279
-0.01935685
0.22687742
-0.017348309
0.22557759
-0.015272302
0.22443034
-0.01316024
0.22325393
-0.011109531
0.22224514
-0.0090503223
0.22128934
-0.0071394769
0.22049139
-0.0052362999
0.2198051
-0.0035545102
0.2192514
-0.0018502994
0.21881863
-0.00041072421
0.21848686
0.00090593897
0.21830789
0.0020664776
0.21826554
0.0030836171
0.21835946
0.0039477457
0.21859398
0.0047029397
0.0051992659
0.21896403
0.24781744
-0.021045757
-0.24997449
0.24581073
-0.019287601
0.24400881
-0.017554929
0.24244279
-0.015782288
0.24111607
-0.013945591
0.23997634
-0.012020505
0.23891175
-0.010044943
0.23799445
-0.0081330255
0.23710344
-0.0062484655
0.23636113
-0.0044939848
0.23563159
-0.0028249674
0.23511771
-0.0013364201
0.23469252
1.4463854e-05
0.23439733
0.0012011276
0.23421217
0.0022516432
0.23416658
0.0031292066
0.23424879
0.0038655303
0.23448865
0.0044630802
0.0048276811
0.23486024
0.26575591
-0.018703437
-0.26809823
0.26365594
-0.017187635
0.26177408
-0.015673068
0.25997834
-0.013986549
0.25836028
-0.012327526
0.25692444
-0.010584666
0.2557075
-0.0088280103
0.25469474
-0.0071202635
0.25388078
-0.0054345016
0.25319202
-0.0038052265
0.25265115
-0.0022840968
0.2522275
-0.00091276575
0.251867
0.00037495909
0.25169783
0.0013702966
0.25166574
0.0022837326
0.25179463
0.0030003221
0.25200779
0.0036523654
0.25240688
0.0040639906
0.0043712657
0.2528633
0.28539961
-0.015763252
-0.28833979
0.2828375
-0.014625525
0.28059312
-0.013428685
0.27865712
-0.012050552
0.27691251
-0.010582921
0.27540044
-0.0090725931
0.27406535
-0.0074929185
0.2729134
-0.0059683113
0.27198732
-0.004508422
0.27120379
-0.0030216993
0.27063701
-0.0017173146
0.27022548
-0.00050123521
0.27004715
0.00055328902
0.26996213
0.0014553164
0.27003643
0.0022094315
0.27024879
0.002787958
0.27060251
0.0032986512
0.27110549
0.00356101
0.0037875272
0.27168923
0.30676626
-0.01246971
-0.3100598
0.30373583
-0.011595097
0.30098137
-0.010674232
0.29858838
-0.0096575582
0.29662734
-0.0086218839
0.29495084
-0.0073960928
0.29362841
-0.0061704862
0.29254538
-0.0048852763
0.29168874
-0.003651782
0.2910877
-0.0024206604
0.29063015
-0.0012597653
0.29030828
-0.00017936418
0.29015012
0.00071144417
0.29017234
0.0014331011
0.29034109
0.0020406749
0.29063399
0.0024950668
0.29108878
0.0028438605
0.29167014
0.0029796487
0.0030616918
0.29239597
0.33050022
-0.0087764592
-0.33419347
0.32708157
-0.0081764498
0.32393429
-0.0075269481
0.32108057
-0.0068038409
0.31857785
-0.006119164
0.31642262
-0.0052408644
0.3146423
-0.0043901631
0.31322177
-0.0034647479
0.31214212
-0.002572126
0.31142825
-0.001706795
0.31104721
-0.00087872017
0.31102942
-0.00016157963
0.31120831
0.00053255234
0.31153404
0.0011073779
0.31198172
0.0015929924
0.3125267
0.0019500908
0.31313965
0.0022309054
0.31386268
0.0022566192
0.002274346
0.31465003
0.35578791
-0.004612835
-0.35995154
0.35194514
-0.0043336783
0.34840717
-0.0039889793
0.34523321
-0.0036298757
0.34236017
-0.0032461237
0.33992706
-0.0028077599
0.33789126
-0.0023543615
0.33630606
-0.0018795464
0.33513471
-0.0014007802
0.33437777
-0.00094984989
0.33399532
-0.00049626991
0.33392083
-8.7086996e-05
0.33422092
0.00023246003
0.33477176
0.00055654125
0.33551632
0.00084842655
0.33635108
0.0011153362
0.33721348
0.0013685041
0.33823302
0.0012370752
0.0013834793
0.33912389
0.38386091
-0.38847375
0.37952723
0.37553825
0.37190838
0.36866225
0.36585449
0.36350013
0.36162059
0.36021981
0.35926996
0.35877369
0.3586866
0.35891906
0.3594756
0.36032403
0.36143936
0.36280787
0.36404494
0.36542842
0.056742567
0.0086976224
-0.0084075181
0.056587263
0.011701614
-0.01154631
0.056488923
0.0147036
-0.01460526
0.05658388
0.017719869
-0.017814825
0.056876408
0.02073018
-0.021022708
0.057302523
0.023945749
-0.024371864
0.057871592
0.027025825
-0.027594894
0.058506688
0.030277361
-0.030912457
0.059215493
0.033395652
-0.034104457
0.059964384
0.036648081
-0.037396972
0.060703898
0.039853713
-0.040593227
0.061497965
0.043085966
-0.043880034
0.062303121
0.046323239
-0.047128395
0.063038197
0.04973044
-0.050465516
0.063664351
0.053204392
-0.053830546
0.064039569
0.056590097
-0.056965314
0.064203477
0.06007605
-0.060239958
0.064044054
0.063495558
-0.063336136
0.067180459
0.063371426
-0.06650783
0.06079764
0.0090292565
0.060689437
0.011809817
0.06073989
0.014653148
0.061016633
0.017443126
0.061388018
0.020358796
0.061969444
0.023364323
0.062590403
0.026404866
0.063309865
0.029557898
0.06406604
0.032639478
0.064849454
0.035864667
0.06561677
0.039086398
0.066380923
0.042321813
0.067079258
0.045624904
0.067738318
0.04907138
0.068342892
0.052599818
0.068789192
0.056143796
0.069034297
0.059830945
0.068945469
0.063584386
0.067837688
0.068288239
0.065264052
0.0093897603
0.065116309
0.01195756
0.065149903
0.014619554
0.065409487
0.017183541
0.065770549
0.019997733
0.066390795
0.022744077
0.067046109
0.025749552
0.067895946
0.028708061
0.068744754
0.03179067
0.069717236
0.034892185
0.07064894
0.038154694
0.071554226
0.041416527
0.072370004
0.044809126
0.073198937
0.048242447
0.073969512
0.051829242
0.074599756
0.055513553
0.075163024
0.059267677
0.075491577
0.063255834
0.067562798
0.075766467
0.070062376
0.0096824392
0.06993581
0.012084127
0.07005477
0.014500594
0.070297781
0.01694053
0.070743864
0.01955165
0.071353968
0.022133973
0.072061931
0.025041589
0.072928771
0.027841222
0.073893644
0.030825797
0.074871015
0.033914814
0.075991566
0.037034143
0.077086327
0.040321766
0.078261246
0.043634206
0.079350794
0.047152899
0.080596601
0.050583436
0.081822615
0.054287538
0.08330817
0.057782122
0.084761789
0.061802214
0.065336622
0.086987965
0.075319547
0.0099507167
0.075165375
0.012238299
0.075358444
0.014307525
0.075605782
0.016693192
0.076163845
0.018993587
0.07671636
0.021581458
0.077542801
0.024215147
0.078421207
0.026962817
0.079482733
0.029764271
0.080519321
0.032878227
0.081848615
0.035704849
0.083139136
0.039031246
0.084711997
0.042061345
0.086262298
0.045602597
0.088315583
0.048530151
0.090400436
0.052202685
0.093334285
0.054848273
0.096648014
0.058488485
0.060457384
0.10152725
0.080816905
0.010233147
0.080698711
0.012356493
0.080919554
0.014086683
0.081242031
0.016370714
0.081901788
0.01833383
0.082541696
0.02094155
0.083527285
0.023229557
0.084492758
0.025997344
0.085724257
0.028532772
0.086993075
0.03160941
0.088559286
0.034138638
0.090164468
0.037426064
0.092155784
0.040070029
0.094369947
0.043388434
0.097247506
0.045652592
0.10064063
0.048809561
0.10512811
0.050360791
0.11048784
0.053128756
0.053308442
0.11763678
0.086823713
0.010593244
0.086885696
0.012294511
0.087056075
0.013916303
0.087523512
0.015903277
0.088115463
0.017741879
0.088891597
0.020165415
0.089933123
0.022188032
0.091097324
0.024833143
0.092518598
0.027111498
0.094114909
0.030013098
0.095954446
0.032299102
0.098080125
0.035300384
0.10070272
0.037447434
0.10384573
0.040245425
0.10769388
0.041804441
0.11244532
0.044058118
0.11810151
0.044704605
0.12503982
0.046190442
0.045161831
0.13318643
0.093009997
0.010967087
0.093174055
0.012130453
0.093274392
0.013815967
0.093940224
0.015237445
0.094540973
0.01714113
0.095673908
0.01903248
0.096829151
0.021032789
0.098274458
0.023387836
0.09988263
0.025503327
0.10185174
0.02804399
0.104119
0.030031845
0.10690852
0.032510863
0.11023143
0.03412452
0.11429907
0.036177781
0.11909326
0.037010252
0.12484472
0.038306663
0.13138281
0.038166511
0.13885017
0.038723085
0.036998237
0.14701376
0.10005516
0.011238917
0.10028266
0.011902953
0.10048623
0.01361239
0.10120762
0.014516057
0.10187417
0.016474577
0.10318652
0.017720132
0.10438573
0.019833576
0.10617985
0.02159372
0.1080173
0.023665876
0.11044863
0.025612658
0.11309743
0.027383043
0.11656419
0.029044111
0.1204495
0.030239211
0.12531841
0.031308868
0.13067427
0.031654392
0.137024
0.031956934
0.14368144
0.031509068
0.15097411
0.031430416
0.029781072
0.15819127
0.10727282
0.011356299
0.10743013
0.011745636
0.10783756
0.013204968
0.10864062
0.013712993
0.10954201
0.015573183
0.11094713
0.01631502
0.11235755
0.018423152
0.11447037
0.0194809
0.11661636
0.021519889
0.11962428
0.022604737
0.12273906
0.024268262
0.12688117
0.024902004
0.13119142
0.02592896
0.13661434
0.025885948
0.14212349
0.026145236
0.14850453
0.025575894
0.15462268
0.025390922
0.1611926
0.024860496
0.024197013
0.16677666
0.11561651
0.011338845
0.11559058
0.011771559
0.11622685
0.0125687
0.11702406
0.012915783
0.11823259
0.014364656
0.11968539
0.014862216
0.12147053
0.016638009
0.1237696
0.017181835
0.12636036
0.018929125
0.12966222
0.019302884
0.13320314
0.02072734
0.137686
0.020419145
0.14220248
0.021412482
0.14777384
0.020314581
0.15287775
0.021041327
0.15866728
0.019786372
0.16365991
0.020398285
0.16870629
0.01981412
0.020269569
0.17263373
0.12388207
0.011170781
0.12386446
0.011789169
0.12473279
0.011700363
0.12551105
0.012137529
0.12700465
0.012871059
0.12857358
0.013293283
0.13080649
0.014405092
0.13332547
0.014662858
0.13636393
0.015890663
0.13983456
0.015832261
0.14375356
0.016808334
0.14824091
0.015931793
0.15288567
0.016767728
0.15802165
0.015178593
0.16246593
0.016597056
0.16727242
0.014979878
0.17072149
0.016949215
0.17429703
0.016238582
0.018435763
0.17613083
0.13317542
0.011060901
0.13343165
0.011532937
0.13442357
0.010708442
0.13525648
0.011304612
0.13707562
0.011051918
0.13868271
0.011686196
0.1412017
0.011886101
0.14378651
0.012078048
0.14708239
0.01259478
0.15062712
0.012287529
0.15473788
0.012697578
0.15899152
0.01167815
0.16329764
0.012461609
0.16733723
0.011139005
0.17088933
0.01304496
0.1739376
0.011931608
0.17567629
0.015210528
0.17715431
0.014760562
0.019205235
0.17638483
0.14281236
0.011083528
0.14343771
0.010907583
0.14426977
0.0098763817
0.14541635
0.010158034
0.14730411
0.0091641588
0.14906278
0.0099275305
0.15192206
0.009026821
0.15451227
0.0094878364
0.15810258
0.0090044674
0.16155168
0.0088384295
0.16549669
0.0087525727
0.1690562
0.0081186388
0.17273107
0.0087867329
0.17568479
0.0081852852
0.17804145
0.010688298
0.17915886
0.0108142
0.17913485
0.015234539
0.17811257
0.015782843
0.022190181
0.17512762
0.15329525
0.011020804
0.15418134
0.01002149
0.154855
0.0092027199
0.15647033
0.0085427008
0.15814623
0.0074882632
0.16037914
0.0076946143
0.16316525
0.0062407188
0.16587288
0.0067802029
0.16955754
0.0053198015
0.17249534
0.0059006352
0.17608566
0.0051622506
0.17886383
0.0053404729
0.18161573
0.0060348279
0.18287648
0.0069245334
0.18369216
0.00987262
0.18288184
0.01162452
0.18128808
0.016828301
0.17820826
0.018862661
0.026673328
0.17372511
0.16485399
0.010700916
0.16576682
0.0091086603
0.16667076
0.0082987756
0.16852608
0.0066873865
0.17008081
0.0059335343
0.17269384
0.0050815832
0.17506735
0.0038672034
0.17810235
0.003745204
0.18117755
0.0022445977
0.18387375
0.0032044422
0.1869967
0.0020392973
0.18853667
0.0038005001
0.18991333
0.0046581649
0.1894156
0.0074222693
0.18855707
0.010731151
0.18587282
0.014308763
0.18293996
0.019761169
0.17811802
0.023684599
0.032687101
0.17210424
0.17691593
0.010230612
0.1776905
0.0083340945
0.17880739
0.0071818866
0.18056209
0.0049326848
0.18236557
0.0041300534
0.18509971
0.0023474358
0.18722775
0.0017391638
0.19023806
0.00073489448
0.19241592
6.6737814e-05
0.19501466
0.00060570132
0.19667211
0.00038185191
0.19716003
0.0033125769
0.1973135
0.0045046924
0.19544819
0.0092875771
0.19339449
0.012784859
0.18918552
0.018517728
0.18466843
0.024278259
0.17798003
0.030373004
0.040114904
0.17055222
0.19041781
0.0095394268
0.19122313
0.0075287806
0.1926138
0.0057912106
0.19427784
0.0032686425
0.19635485
0.0020530425
0.19874659
-4.4300663e-05
0.20077691
-0.00029115469
0.20332497
-0.001813169
0.20476541
-0.0013737026
0.20652157
-0.0011504579
0.20637316
0.00053025874
0.20624013
0.0034456043
0.20463839
0.0061064406
0.20183593
0.012090031
0.19848922
0.01613157
0.19307066
0.023936288
0.18789063
0.029458294
0.18063707
0.037626561
0.045812086
0.17493989
0.20418581
0.008922152
0.20502589
0.006688699
0.20652475
0.0042923519
0.2079915
0.0018018939
0.21001817
2.6376236e-05
0.21187947
-0.0019056082
0.21394012
-0.0023517978
0.21574579
-0.0036188397
0.21660871
-0.0022366254
0.21728128
-0.0018230251
0.2164326
0.0013789329
0.21554168
0.004336521
0.21230066
0.0093474686
0.20896197
0.015428716
0.20419843
0.020895106
0.19910543
0.029029293
0.19474535
0.033818374
0.19027942
0.042092494
0.045447003
0.1906445
0.21975132
0.0081348695
0.22088709
0.005552926
0.22226487
0.0029145725
0.22366799
0.00039877163
0.22550251
-0.0018081464
0.22695041
-0.0033535094
0.22877703
-0.0041784194
0.22959052
-0.0044323241
0.22998803
-0.0026341368
0.22954579
-0.0013807827
0.22801682
0.002907894
0.22576639
0.0065869509
0.22193577
0.013178088
0.2187768
0.01858769
0.21444134
0.02523057
0.21226475
0.031205878
0.21101723
0.035065896
0.21332434
0.039785388
0.037899234
0.2208721
0.23565979
0.0073353115
0.23677472
0.0044380026
0.23812306
0.0015662308
0.23961662
-0.0010947954
0.2409731
-0.0031646216
0.24207688
-0.004457287
0.24300714
-0.00510868
0.2427634
-0.0041885871
0.24278477
-0.0026555078
0.24125557
0.0001484107
0.23923542
0.0049280443
0.23618652
0.0096358559
0.2330832
0.016281411
0.23093011
0.02074078
0.22960986
0.026550814
0.23154562
0.029270116
0.23516367
0.031447849
0.2441263
0.030822754
0.027317765
0.25470777
0.25383226
0.0063663508
0.25491432
0.0033559411
0.25611256
0.00036798586
0.25727488
-0.0022571132
0.25825642
-0.0041461646
0.25905602
-0.0052568813
0.25915193
-0.0052045929
0.25893186
-0.0039685153
0.25822557
-0.0019492207
0.2561142
0.0022597812
0.25416524
0.0068770015
0.25151772
0.012283379
0.25039302
0.017406103
0.25044571
0.020688098
0.25291284
0.024083682
0.25789631
0.024286642
0.26532492
0.024019243
0.27563682
0.020510847
0.019469432
0.28348516
0.27273093
0.0053246464
0.27379959
0.0022872867
0.27474191
-0.00057434006
0.27530435
-0.0028195481
0.27571679
-0.004558606
0.27562062
-0.0051607191
0.27490291
-0.0044868818
0.27398936
-0.0030549635
0.27225088
-0.00021073838
0.27054067
0.0039699901
0.26902946
0.00838821
0.26851709
0.01279575
0.27022533
0.015697857
0.27317851
0.017734921
0.2786559
0.018606297
0.28560853
0.017334003
0.29366418
0.015963592
0.30028339
0.013891639
0.016278969
0.30347386
0.29352856
0.0041920637
0.29448925
0.0013265952
0.29517221
-0.0012573052
0.29552286
-0.0031701964
0.29559933
-0.0046350791
0.29535711
-0.0049184959
0.29486254
-0.0039923097
0.29379791
-0.0019903359
0.29232237
0.0012648005
0.29133826
0.0049540976
0.29100787
0.0087185956
0.29236458
0.011439047
0.29511482
0.01294761
0.29921215
0.013637596
0.30510792
0.012710521
0.31109404
0.011347887
0.31614497
0.010912665
0.31845628
0.011580332
0.01638722
0.31834802
0.31594522
0.0028968738
0.31678704
0.00048477131
0.31677237
-0.0012426396
0.31626864
-0.002666464
0.31523242
-0.0035988559
0.31381251
-0.003498595
0.31227255
-0.0024523497
0.31093297
-0.00065074739
0.31020682
0.0019909427
0.31061786
0.0045430649
0.31270242
0.0066340324
0.31643517
0.007706297
0.32125231
0.008130468
0.32692392
0.0079659836
0.3324135
0.0072209459
0.33613379
0.0076275922
0.33815262
0.0088938325
0.33820239
0.011530569
0.016163397
0.33842621
0.34059781
0.0014229474
0.34119238
-0.00010979064
0.34086664
-0.00091690238
0.33988514
-0.0016849642
0.33870108
-0.0024148001
0.33768613
-0.0024836409
0.33689173
-0.001657953
0.33656574
-0.00032476035
0.33721961
0.0013370773
0.33894654
0.0028161351
0.34150653
0.0040740395
0.34482711
0.0043857163
0.3480759
0.0048816758
0.35133365
0.0047082347
0.3531704
0.0053841908
0.35483321
0.0059647816
0.35653502
0.0071920284
0.35965221
0.0084133805
0.009351976
0.36646363
0.36685137
0.36674158
0.36582468
0.36413971
0.36172491
0.35924127
0.35758332
0.35725856
0.35859563
0.36141177
0.36548581
0.36987152
0.3747532
0.37946144
0.38484562
0.39081041
0.39800243
0.40641582
0.41576779
0.057546072
0.075407354
-0.069582001
0.051188685
0.078749008
-0.072391621
0.043864464
0.082719383
-0.075395163
0.036068033
0.086316964
-0.078520533
0.026120925
0.090205306
-0.080258197
0.014174575
0.094409056
-0.082462706
-0.0018965772
0.096089287
-0.080018135
-0.021262255
0.085519345
-0.066153667
-0.041404338
0.073281053
-0.053138969
-0.061682938
0.074474037
-0.054195437
-0.081817446
0.073910325
-0.053775817
-0.099501895
0.073568054
-0.055883605
-0.11439117
0.071147796
-0.056258523
-0.12576242
0.062706947
-0.0513357
-0.13281565
0.05160474
-0.044551509
-0.13671404
0.043379541
-0.03948115
-0.1376906
0.037167181
-0.036190614
-0.13615683
0.031841143
-0.033374914
0.028908146
-0.13250483
-0.032560146
0.062449972
0.081245622
0.055764309
0.085434671
0.048167916
0.090315776
0.039492895
0.094991985
0.028981646
0.10071655
0.016274451
0.10711625
-0.0011195018
0.11348324
-0.02621051
0.11061035
-0.053831209
0.10090175
-0.076195817
0.096838645
-0.096119095
0.093833603
-0.11294931
0.09039827
-0.12761291
0.085811397
-0.14006659
0.075160628
-0.14992967
0.061467814
-0.15578306
0.049232933
-0.1570094
0.03839352
-0.15385824
0.028689981
0.021846929
-0.14679702
0.070379048
0.086633042
0.064083254
0.091730465
0.057749277
0.096649754
0.050149107
0.10259215
0.041966789
0.10889887
0.032829381
0.11625366
0.021384676
0.12492794
0.0012605754
0.13073445
-0.027262835
0.12942516
-0.055556462
0.12513227
-0.080888359
0.1191655
-0.10126997
0.11077988
-0.11735613
0.10189756
-0.13118157
0.088986067
-0.14245167
0.072737914
-0.14946256
0.056243821
-0.15179851
0.040729466
-0.1503974
0.027288869
0.017755134
-0.1463056
0.082304467
0.09131654
0.077744309
0.096290622
0.073252152
0.10114191
0.068978607
0.1068657
0.065007292
0.11287019
0.061593698
0.11966725
0.059135731
0.12738591
0.054346791
0.13552339
0.044068923
0.13970303
0.028775759
0.14042543
0.010009942
0.13793132
-0.0096061406
0.13039597
-0.026402708
0.11869412
-0.04090377
0.10348713
-0.053540691
0.085374835
-0.064229498
0.066932627
-0.073069781
0.049569749
-0.081097742
0.03531683
0.025084722
-0.08842733
0.098246795
0.094596997
0.095868255
0.098669162
0.093508526
0.10350164
0.092298
0.10807622
0.09174249
0.1134257
0.092761154
0.11864859
0.095592451
0.12455461
0.10045647
0.13065938
0.10435947
0.13580003
0.10628026
0.13850464
0.10642911
0.13778247
0.10286629
0.13395879
0.096287564
0.12527285
0.086592234
0.11318246
0.074177791
0.097789279
0.059759379
0.081351038
0.043583533
0.065745595
0.02636756
0.052532802
0.042319492
0.0091327903
0.11555158
0.096682197
0.11415921
0.10006153
0.1137439
0.10391696
0.11410242
0.1077177
0.11552255
0.11200557
0.1184788
0.11569234
0.12299744
0.12003598
0.13012371
0.1235331
0.13846238
0.12746136
0.14687386
0.13009316
0.15475353
0.1299028
0.1602974
0.12841491
0.16264443
0.12292582
0.16037701
0.11544987
0.15368797
0.10447832
0.14260551
0.092433495
0.12723956
0.081111544
0.10916674
0.070605625
0.06189503
0.089591203
0.13172995
0.098138678
0.13064004
0.10115144
0.13089135
0.10366566
0.13159464
0.1070144
0.13352157
0.11007865
0.13658983
0.11262408
0.14121891
0.1154069
0.14702326
0.11772874
0.15416907
0.12031556
0.16271832
0.12154391
0.17113756
0.12148357
0.17923431
0.12031816
0.18418897
0.11797117
0.18640396
0.11323488
0.18419783
0.10668445
0.17792191
0.098709416
0.1678554
0.09117805
0.15433161
0.08412942
0.078037579
0.13818906
0.14547592
0.099676522
0.14472604
0.10190132
0.1446061
0.10378559
0.14506301
0.10655749
0.14640256
0.1087391
0.14868701
0.11033962
0.15234835
0.11174556
0.15630006
0.11377703
0.16178551
0.11483011
0.16839927
0.11493015
0.17524321
0.11463963
0.18188978
0.11367159
0.18753378
0.11232716
0.1922567
0.10851196
0.19301375
0.10592741
0.18960661
0.10211656
0.18329628
0.097488375
0.1747724
0.092653303
0.088684808
0.16412517
0.15624002
0.10162778
0.15506696
0.10307438
0.15401201
0.10484055
0.15428143
0.10628807
0.15484691
0.10817363
0.15629159
0.10889494
0.1583682
0.10966895
0.16124855
0.11089668
0.16505906
0.1110196
0.16979086
0.11019834
0.17446309
0.1099674
0.17879609
0.10933859
0.1828115
0.10831175
0.18527448
0.10604898
0.18743041
0.10377147
0.18806807
0.1014789
0.18621587
0.099340574
0.18120232
0.097666859
0.09619938
0.17368775
0.16458483
0.10381961
0.16250069
0.10515851
0.16082841
0.10651283
0.1599272
0.10718928
0.15971207
0.10838875
0.16020742
0.10839959
0.16086208
0.10901429
0.16272537
0.1090334
0.16509724
0.10864772
0.16792142
0.10737417
0.17004446
0.10784436
0.17321448
0.10616857