/*--------------------------------*- C++ -*----------------------------------*\
  =========                 |
  \\      /  F ield         | OpenFOAM: The Open Source CFD Toolbox
   \\    /   O peration     | Website:  https://openfoam.org
    \\  /    A nd           | Version:  11
     \\/     M anipulation  |
\*---------------------------------------------------------------------------*/
FoamFile
{
    format      ascii;
    class       volVectorField;
    location    "16.8";
    object      U;
}
// * * * * * * * * * * * * * * * * * * * * * * * * * * * * * * * * * * * * * //

dimensions      [0 1 -1 0 0 0 0];

internalField   nonuniform List<vector> 
5472
(
(10.039358 2.5017806 1.7400595e-18)
(10.225396 2.5174 -1.8118957e-18)
(10.408831 2.5261278 -1.8357922e-18)
(10.588309 2.4813753 -1.872916e-18)
(10.762576 2.485919 5.8159688e-18)
(10.950572 2.4144086 -3.2223062e-20)
(11.102546 2.3713168 -3.0802476e-18)
(11.281178 2.2815882 1.0715087e-18)
(11.452384 2.2050206 0)
(11.572891 2.0967641 0)
(11.736788 2.0021948 0)
(11.8454 1.8706074 -3.3979115e-18)
(11.971559 1.7562897 1.7471267e-18)
(12.091083 1.6112322 -1.9980055e-20)
(12.163428 1.4694796 1.1885503e-18)
(12.279316 1.3218318 -6.1028086e-19)
(12.319924 1.1623837 -9.1684419e-19)
(12.397893 1.0307146 3.1326806e-19)
(12.436983 0.87079847 0)
(10.061313 2.3131026 -1.5891709e-18)
(10.203838 2.3080747 3.2825952e-18)
(10.400022 2.325831 -1.6956544e-18)
(10.558047 2.2958157 -1.7124602e-18)
(10.727608 2.2894809 2.0896337e-20)
(10.87348 2.2300227 0)
(11.046353 2.2066374 1.8484377e-18)
(11.239863 2.1121374 -3.7786419e-18)
(11.342834 2.064769 4.8826782e-18)
(11.50997 1.9630641 9.9875967e-19)
(11.646291 1.8722513 0)
(11.763447 1.7632172 2.0822407e-18)
(11.904317 1.647108 0)
(11.995344 1.5279345 5.3093231e-19)
(12.110749 1.3908498 -5.4674374e-19)
(12.182208 1.264794 0)
(12.253144 1.1318049 0)
(12.313867 0.9934881 -2.7661135e-19)
(12.34587 0.85456463 0)
(10.044445 2.1463281 0)
(10.195193 2.179682 1.4921605e-18)
(10.346889 2.1779616 1.5314897e-18)
(10.50748 2.1720805 0)
(10.644324 2.1861079 -1.7033552e-20)
(10.818779 2.1383507 -2.3564406e-20)
(10.995222 2.1118818 -1.6979675e-18)
(11.115042 2.0522848 0)
(11.262988 2.009066 -1.7540577e-18)
(11.428446 1.9116641 -4.4967015e-18)
(11.549165 1.8386754 1.1244366e-20)
(11.700407 1.7270589 -9.1914565e-19)
(11.808066 1.6222706 -9.471696e-19)
(11.922876 1.5106383 1.9417102e-18)
(12.020154 1.3840938 1.4677234e-18)
(12.087144 1.2691689 4.9573605e-19)
(12.180632 1.1302642 2.4835895e-19)
(12.217673 0.99801456 -3.7543972e-19)
(12.279669 0.87108264 1.2523528e-19)
(10.037998 1.9838623 0)
(10.201374 1.9801599 -1.3468049e-18)
(10.365958 2.0063165 -1.3808168e-18)
(10.465543 2.0283869 2.8202987e-18)
(10.646523 2.0127467 -1.4796103e-18)
(10.794862 1.9796325 0)
(10.907013 1.9790716 -1.5324367e-18)
(11.069728 1.9056995 1.550534e-18)
(11.210467 1.8787937 -1.6055195e-18)
(11.356069 1.7842848 -1.6737397e-20)
(11.489135 1.7270414 -1.6668668e-18)
(11.606669 1.6186909 0)
(11.712067 1.5309092 0)
(11.814886 1.4235727 -8.6417067e-19)
(11.905114 1.3096427 -8.739859e-19)
(11.991821 1.1967303 0)
(12.071268 1.0659119 -2.2295527e-19)
(12.124989 0.93974991 1.1279898e-19)
(12.186133 0.81112011 2.2499375e-19)
(10.036459 1.8147677 0)
(10.203945 1.8553376 0)
(10.278188 1.890972 0)
(10.432804 1.8946439 -2.5509184e-18)
(10.568804 1.8970912 1.3276517e-18)
(10.667613 1.8975493 -4.027609e-18)
(10.834823 1.8613189 5.5188533e-18)
(10.981505 1.8310335 -2.8189133e-18)
(11.119093 1.8054575 3.0411717e-21)
(11.263919 1.7240425 1.4596795e-18)
(11.380112 1.6818166 1.4859942e-18)
(11.504271 1.5832594 -3.0373176e-18)
(11.619936 1.5153145 2.3168359e-18)
(11.733633 1.3927941 -7.8451218e-19)
(11.837589 1.3012449 0)
(11.922593 1.1796887 8.0000099e-19)
(11.999934 1.0693013 -4.0240822e-19)
(12.063288 0.94013382 2.0068452e-19)
(12.117329 0.8252934 -2.0004106e-19)
(10.055498 1.6623683 0)
(10.187179 1.7040393 -4.3924458e-18)
(10.287234 1.7361226 2.2692392e-18)
(10.439622 1.762802 2.3198906e-18)
(10.518443 1.7613717 1.1825927e-18)
(10.679523 1.7414226 -1.2043542e-18)
(10.818038 1.7419198 2.5012034e-18)
(10.934729 1.7191035 1.2620561e-18)
(11.075702 1.6832599 2.5746728e-18)
(11.180023 1.6333152 -2.64042e-18)
(11.324126 1.5795288 1.5220284e-20)
(11.438729 1.4924058 2.7288668e-18)
(11.570528 1.4186823 0)
(11.659294 1.3136782 -7.033656e-19)
(11.765705 1.2322537 7.0448794e-19)
(11.833201 1.1076028 -1.7789978e-18)
(11.923024 1.0139543 7.1555217e-19)
(11.976932 0.87297592 -1.7943011e-19)
(12.036323 0.77362765 3.1678421e-22)
(10.042644 1.5371244 3.8806919e-18)
(10.175334 1.5629716 3.9633461e-18)
(10.252952 1.6113135 0)
(10.378826 1.6205043 -5.8785752e-21)
(10.469238 1.6338087 -4.2725258e-18)
(10.625808 1.6489189 4.3912385e-18)
(10.702848 1.6352754 0)
(10.849555 1.622198 -1.1452975e-18)
(10.968634 1.6031004 -4.6416441e-18)
(11.108347 1.5550909 2.3836443e-18)
(11.248448 1.5048962 1.1983455e-18)
(11.346094 1.4401759 -1.2293145e-18)
(11.48126 1.3676693 0)
(11.559467 1.2887151 6.2316265e-19)
(11.688723 1.1931214 0)
(11.748201 1.0981117 -6.3467984e-19)
(11.859668 0.99043938 9.6076151e-19)
(11.898423 0.86991332 7.504664e-22)
(11.984042 0.76432682 -7.7189652e-22)
(10.089837 1.3929217 1.7369926e-18)
(10.191389 1.4442178 -3.5611568e-18)
(10.266572 1.4875995 -3.6385849e-18)
(10.392371 1.4949278 3.7511422e-18)
(10.462964 1.5319059 -1.9273426e-18)
(10.593456 1.5234813 -1.958671e-18)
(10.673723 1.5274671 0)
(10.841775 1.5208832 3.0544704e-18)
(10.930502 1.4840741 -1.203817e-20)
(11.083234 1.4711645 -3.1773945e-18)
(11.165622 1.4171682 3.251107e-18)
(11.296562 1.36588 0)
(11.395265 1.2941296 0)
(11.488178 1.2137702 1.1143341e-18)
(11.603364 1.1248761 -5.7081094e-19)
(11.664239 1.0408416 -1.135999e-18)
(11.771846 0.92791402 2.8752345e-19)
(11.802341 0.82825988 2.8915705e-19)
(11.899062 0.71202059 7.092464e-20)
(10.061144 1.2654463 -1.5588068e-18)
(10.138623 1.2930557 4.7813819e-18)
(10.215945 1.3477829 -4.9296236e-18)
(10.323532 1.3816533 3.3565797e-18)
(10.398527 1.4015113 0)
(10.537673 1.4055759 1.7512885e-18)
(10.613173 1.4240468 -1.8056071e-18)
(10.755637 1.404483 0)
(10.8339 1.4058696 9.2659877e-19)
(10.991966 1.3778563 -1.913579e-18)
(11.073884 1.341785 -9.5949821e-19)
(11.228739 1.3012158 -8.1888697e-21)
(11.305773 1.2273705 -2.9674851e-18)
(11.441719 1.1711239 5.0919001e-19)
(11.517711 1.074342 -4.9687108e-19)
(11.623054 1.0010884 1.0142718e-18)
(11.689732 0.89388178 -5.0623e-19)
(11.760393 0.79961672 2.5805838e-19)
(11.815207 0.6853324 2.5389047e-19)
(10.106501 1.1508987 -2.7980829e-18)
(10.181279 1.1928044 0)
(10.27098 1.2393799 1.4661121e-18)
(10.356626 1.2484685 -4.4932332e-18)
(10.430483 1.2955561 1.5468707e-18)
(10.527914 1.3044672 -1.5750873e-18)
(10.601293 1.3242369 1.5988743e-18)
(10.73818 1.316708 -1.6447294e-18)
(10.811633 1.3153479 0)
(10.950463 1.2825092 8.4364183e-19)
(11.019048 1.2579 0)
(11.159511 1.2122081 8.6616772e-19)
(11.217055 1.164631 1.9250573e-23)
(11.350363 1.1055242 -4.4126127e-19)
(11.395999 1.0269494 4.4479579e-19)
(11.521575 0.96204134 4.4791726e-19)
(11.561879 0.84752194 -2.3705526e-21)
(11.670232 0.77137592 -6.7718713e-19)
(11.693781 0.65355203 0)
(10.08555 1.0127405 0)
(10.134068 1.0702885 1.2799037e-18)
(10.214734 1.1172999 0)
(10.271165 1.1594115 1.332515e-18)
(10.355365 1.1775569 -4.119592e-18)
(10.445516 1.188386 4.2171227e-18)
(10.5304 1.2175462 -1.4180898e-18)
(10.641778 1.2137871 4.3930858e-18)
(10.721413 1.2267754 0)
(10.857923 1.1961118 7.5576872e-19)
(10.934127 1.189403 0)
(11.075363 1.139439 -1.53992e-18)
(11.145148 1.1014465 3.1239913e-18)
(11.291058 1.0266094 -6.8097289e-21)
(11.353071 0.96642055 -3.978886e-19)
(11.489851 0.88271055 0)
(11.530995 0.80104574 0)
(11.641025 0.71614627 0)
(11.657646 0.62189137 -5.0022705e-20)
(10.109022 0.92439424 4.4505408e-18)
(10.166491 0.97838026 -5.7222684e-18)
(10.245482 1.0127184 2.3325382e-18)
(10.301739 1.0410565 -6.6185369e-21)
(10.386333 1.0781914 0)
(10.446626 1.1007411 -2.4911499e-18)
(10.540363 1.1176125 1.2859657e-18)
(10.616604 1.1282955 -1.2952279e-18)
(10.721067 1.1336454 0)
(10.820048 1.1214263 -6.6776796e-19)
(10.898449 1.1080696 1.3514257e-18)
(11.016045 1.0678643 -1.1457328e-20)
(11.080281 1.0416388 -1.3915709e-18)
(11.198425 0.97362755 -2.7876789e-18)
(11.254858 0.9298093 2.4586129e-18)
(11.372666 0.83816202 -1.4104204e-18)
(11.416768 0.77716156 8.8665877e-19)
(11.524456 0.67323107 1.7761496e-19)
(11.547269 0.60120877 4.3904998e-20)
(10.08285 0.81111028 -6.953988e-18)
(10.138283 0.85927982 4.0795654e-18)
(10.194519 0.88959797 0)
(10.24433 0.93940214 -5.3147052e-18)
(10.318109 0.96427367 4.3652511e-18)
(10.384578 0.99903891 1.1120087e-18)
(10.473633 1.0219072 3.390633e-18)
(10.547042 1.0290024 -2.3126585e-18)
(10.66127 1.0331875 -2.9188924e-18)
(10.738897 1.0303969 1.7891334e-18)
(10.851956 1.0188182 2.3954412e-18)
(10.950166 0.99710575 -3.6514224e-18)
(11.048609 0.96279908 2.4531223e-18)
(11.147177 0.90892191 -6.2446983e-19)
(11.226891 0.85543523 3.0764011e-19)
(11.322063 0.77570945 -3.6744553e-21)
(11.37471 0.71704379 -7.8228332e-19)
(11.4673 0.62069428 -1.5574623e-19)
(11.497361 0.56289409 -3.903582e-20)
(10.109964 0.7251126 2.6566015e-18)
(10.164443 0.76934001 3.6135545e-18)
(10.208136 0.81062614 -3.7104856e-18)
(10.262741 0.84390805 9.4655998e-19)
(10.322508 0.8710806 -2.88861e-18)
(10.38288 0.90752999 2.9679413e-18)
(10.45809 0.93374155 9.9899699e-19)
(10.522792 0.95835069 -5.1060931e-18)
(10.612381 0.95987939 3.6258713e-18)
(10.674649 0.95929564 -1.585318e-18)
(10.779583 0.9391226 0)
(10.86046 0.92622588 -5.3858106e-19)
(10.965972 0.89923183 -1.6230202e-18)
(11.052016 0.86398588 5.5466625e-19)
(11.158969 0.80806802 1.6481175e-18)
(11.22797 0.7464178 5.4861898e-19)
(11.315476 0.67110119 -1.1025694e-18)
(11.378774 0.59153862 2.7740123e-19)
(11.434879 0.51815492 3.0927842e-19)
(10.066718 0.61279631 -3.9209413e-18)
(10.110626 0.66269079 3.2213471e-18)
(10.158717 0.71203973 0)
(10.217853 0.74192555 -8.3904403e-19)
(10.2771 0.76784617 3.4187576e-18)
(10.347032 0.79346184 -6.9821118e-18)
(10.417472 0.82737179 9.0875205e-19)
(10.500848 0.85749079 3.6275727e-18)
(10.589529 0.87151266 2.7529872e-18)
(10.665443 0.87789738 -4.6498665e-19)
(10.756616 0.85999278 0)
(10.826529 0.84951343 2.3628009e-18)
(10.920764 0.81472171 -9.6274542e-19)
(11.003566 0.78459923 9.6120574e-19)
(11.100223 0.73251131 -1.4522109e-18)
(11.16243 0.68418612 -2.4293668e-19)
(11.255685 0.61318708 0)
(11.297348 0.55282287 0)
(11.369883 0.47138539 -3.0303675e-20)
(10.108183 0.52758843 6.817047e-19)
(10.14995 0.57609272 -6.4234996e-18)
(10.184018 0.62477421 2.9081226e-18)
(10.221953 0.66310238 -3.7206171e-18)
(10.262069 0.69939007 -7.574935e-19)
(10.312442 0.72023797 0)
(10.372211 0.74501975 -3.9162767e-18)
(10.444534 0.76652581 2.4013398e-18)
(10.518042 0.79298124 -8.0953958e-19)
(10.603198 0.80587234 -1.3573977e-21)
(10.689203 0.79941077 0)
(10.774926 0.79161253 0)
(10.861038 0.76149699 -4.1966043e-19)
(10.944497 0.73364661 -4.2197514e-19)
(11.027885 0.68774729 2.1185299e-19)
(11.098692 0.6405733 1.2760072e-18)
(11.182274 0.57083137 -8.5547508e-19)
(11.233109 0.51626547 1.069464e-19)
(11.305565 0.43059281 2.6474369e-20)
(10.068288 0.43383987 4.3225816e-18)
(10.101939 0.47962261 -4.4258349e-18)
(10.148513 0.51714865 0)
(10.20002 0.55814607 6.5693839e-19)
(10.250373 0.59716019 0)
(10.307878 0.62774862 6.8153244e-19)
(10.368731 0.65628923 6.9277111e-19)
(10.427238 0.67655355 0)
(10.493248 0.69647769 3.5526099e-18)
(10.566194 0.70678716 -2.5312281e-18)
(10.639735 0.71194836 1.8168081e-18)
(10.724504 0.70986236 -1.4735696e-18)
(10.803723 0.69155857 1.4745109e-18)
(10.893123 0.66220932 -8.9824369e-21)
(10.965876 0.6237166 -1.4970052e-18)
(11.045145 0.57849322 -1.8653164e-19)
(11.107709 0.52048259 -1.8768435e-19)
(11.170303 0.46777564 -9.3339269e-20)
(11.224153 0.38978203 0)
(10.102 0.35684661 4.9236862e-18)
(10.108978 0.41608109 0)
(10.147789 0.44242051 0)
(10.163296 0.48740766 5.8010452e-19)
(10.211763 0.51294122 0)
(10.257634 0.55426415 -6.0012945e-19)
(10.316814 0.5852782 -6.0931176e-19)
(10.378534 0.6098016 -2.4677845e-18)
(10.444313 0.62973886 2.5111196e-18)
(10.510881 0.64138995 0)
(10.585135 0.64701966 -2.8709332e-18)
(10.665946 0.64578389 2.2639133e-18)
(10.746657 0.63317943 1.2942501e-18)
(10.832533 0.60884039 -2.608886e-18)
(10.906253 0.5766549 2.6180108e-18)
(10.988696 0.53414962 -1.9693824e-18)
(11.047612 0.48258328 6.5717916e-19)
(11.120089 0.42797004 0)
(11.16985 0.35734978 0)
(10.068877 0.2830497 7.7342169e-18)
(10.098563 0.32413636 -3.9473162e-18)
(10.131514 0.35983538 4.0136312e-18)
(10.15664 0.39722462 -4.606141e-18)
(10.205864 0.42650067 -4.1544676e-18)
(10.234102 0.46310633 4.2336214e-18)
(10.294393 0.48768707 2.1406781e-18)
(10.346385 0.52297092 -8.8747816e-21)
(10.41091 0.53805514 -2.2048325e-18)
(10.477863 0.5565621 0)
(10.549278 0.55932377 0)
(10.624622 0.56284573 2.8218894e-19)
(10.700888 0.55618451 0)
(10.779554 0.53646364 1.1394225e-18)
(10.854163 0.51018783 -1.1490851e-18)
(10.926167 0.47515244 -5.7276754e-19)
(10.988987 0.43089445 7.1901202e-19)
(11.053426 0.37963213 -3.5849485e-19)
(11.098245 0.31683514 2.8633275e-19)
(10.052324 0.2204772 0)
(10.084723 0.25947367 0)
(10.103568 0.29187236 3.5371164e-18)
(10.140519 0.33067663 -3.6046194e-18)
(10.175791 0.36353844 4.1120654e-18)
(10.215196 0.39941775 -4.1844898e-18)
(10.272208 0.42629013 0)
(10.316878 0.45562429 4.7710074e-19)
(10.376459 0.47522188 1.9253329e-18)
(10.43091 0.49603502 -1.9529844e-18)
(10.501396 0.50245911 1.9606146e-18)
(10.570619 0.50852143 -1.0170142e-20)
(10.650943 0.49718402 -3.9799488e-18)
(10.725084 0.48186057 2.0033333e-18)
(10.801422 0.45781311 0)
(10.872791 0.42532764 -1.0012764e-18)
(10.938677 0.38518847 1.5699097e-18)
(11.00501 0.33935972 -6.9039679e-19)
(11.054097 0.27954667 2.5015587e-19)
(10.052492 0.15804942 1.1667363e-17)
(10.074368 0.18800229 -6.132421e-18)
(10.08671 0.21705894 0)
(10.120732 0.24414631 -3.9584649e-19)
(10.144961 0.27740524 -4.0177733e-19)
(10.194383 0.31000146 4.0745489e-19)
(10.236185 0.34419981 0)
(10.293878 0.37146672 -4.1760644e-19)
(10.345351 0.39394046 3.3723884e-18)
(10.407551 0.41177757 -3.4175273e-18)
(10.467975 0.42269911 0)
(10.53438 0.43047478 0)
(10.608975 0.4276879 2.176263e-19)
(10.674878 0.41625935 1.0922638e-19)
(10.75023 0.39762583 -1.0949915e-19)
(10.8128 0.37109567 0)
(10.876708 0.33698232 -4.9187508e-19)
(10.933298 0.29720037 4.3852661e-19)
(10.982341 0.2468463 0)
(10.037847 0.11034577 -1.05967e-17)
(10.0531 0.14016472 1.111848e-17)
(10.075641 0.16542573 -7.9751438e-21)
(10.098542 0.19512171 -5.2177793e-18)
(10.124897 0.21925906 0)
(10.160582 0.24991414 2.8547618e-18)
(10.199801 0.27769006 -5.9680405e-18)
(10.248529 0.3046358 2.93061e-18)
(10.299046 0.3305097 0)
(10.362181 0.34805442 -2.9750421e-18)
(10.420017 0.36285112 3.0090689e-18)
(10.49757 0.36531828 1.5068747e-18)
(10.560404 0.36744864 -1.5203108e-18)
(10.638874 0.35541225 1.3285256e-18)
(10.705145 0.33945174 -1.4338691e-18)
(10.777855 0.31518075 0)
(10.840201 0.28470505 -4.7782046e-20)
(10.899877 0.24704735 -1.4262648e-19)
(10.950096 0.19986926 2.0206465e-19)
(10.036644 0.068495527 2.912898e-19)
(10.051332 0.085369458 -5.9218941e-19)
(10.067431 0.10378387 4.8053633e-18)
(10.08691 0.12859698 2.9718079e-19)
(10.111596 0.1550668 -3.1859626e-19)
(10.14093 0.18037001 -5.0113152e-18)
(10.181788 0.20883726 1.5817033e-19)
(10.218432 0.23238646 2.7144891e-18)
(10.271816 0.2528013 -2.5862854e-18)
(10.320932 0.27513349 -1.6279879e-19)
(10.381469 0.28826513 0)
(10.447849 0.29985469 2.7945572e-18)
(10.50995 0.30202021 -2.817309e-18)
(10.586734 0.29790864 -1.241039e-18)
(10.6486 0.28776004 8.9084249e-20)
(10.721845 0.26927548 1.996403e-18)
(10.778933 0.25040755 -6.2461815e-19)
(10.84253 0.21849394 -6.2198328e-20)
(10.890533 0.18705465 -1.0314679e-20)
(10.015713 0.047161632 0)
(10.028616 0.058787789 2.5987356e-19)
(10.038748 0.071427414 4.2143574e-18)
(10.05562 0.08750418 -4.6776449e-18)
(10.077427 0.1064184 4.4592743e-18)
(10.109793 0.12778916 -4.3833346e-18)
(10.147127 0.14937491 1.3838799e-19)
(10.192394 0.17024498 -1.3956351e-19)
(10.242347 0.18880579 2.1084978e-18)
(10.294788 0.20567773 -2.1317096e-18)
(10.359081 0.21846506 2.1359862e-18)
(10.421735 0.22596075 -2.3705537e-18)
(10.493252 0.22755931 0)
(10.559629 0.22175574 1.1515864e-18)
(10.627472 0.21047577 -1.3026772e-18)
(10.692471 0.19416846 5.7684155e-19)
(10.75085 0.17174679 -5.4270991e-19)
(10.80761 0.144277 -2.5193439e-19)
(10.853736 0.11287665 2.9220907e-19)
(10.018318 0.024117575 -4.9867802e-21)
(10.028394 0.031176052 -7.2948557e-18)
(10.041356 0.038476996 1.1547784e-19)
(10.054365 0.050169771 -7.1048214e-23)
(10.070729 0.058874036 1.1825392e-19)
(10.093727 0.076949175 0)
(10.118775 0.09294914 3.8609397e-18)
(10.158216 0.11264561 -4.0267514e-18)
(10.196583 0.1297585 1.2273187e-19)
(10.245978 0.14673228 -1.9139181e-18)
(10.302405 0.16141528 4.0422091e-18)
(10.362707 0.17298704 -3.9974611e-18)
(10.434753 0.18164595 2.0092224e-18)
(10.504932 0.18435678 0)
(10.577915 0.1831533 -9.7146234e-19)
(10.646195 0.17532581 1.0070215e-18)
(10.708183 0.1654437 -1.5639895e-20)
(10.766538 0.14510255 2.5588578e-23)
(10.814929 0.12436364 -3.8936407e-21)
(10.005907 0.011507364 6.3544281e-18)
(10.012577 0.015261963 -6.3837483e-18)
(10.021207 0.021142058 6.3680779e-18)
(10.033604 0.026071443 1.0218767e-19)
(10.050004 0.031035316 0)
(10.070159 0.03804618 0)
(10.098918 0.045096043 -5.2572105e-20)
(10.134853 0.052822752 -3.3405958e-18)
(10.178055 0.060482334 3.4805081e-18)
(10.231087 0.066515659 3.4096545e-18)
(10.287655 0.072648396 -1.6576632e-18)
(10.352902 0.075433274 -1.8206021e-18)
(10.421454 0.074945578 0)
(10.492053 0.072804435 2.7271756e-20)
(10.565353 0.069169795 2.7230149e-20)
(10.632299 0.064042564 8.5583866e-19)
(10.695691 0.055425568 -8.8557989e-19)
(10.749798 0.041619624 1.9646288e-19)
(10.796632 0.027303247 -2.1661914e-19)
(10.005307 0.0027149353 -4.2791326e-20)
(10.00929 0.0042415126 5.5243473e-18)
(10.016173 0.0067386411 -3.5591635e-21)
(10.026259 0.010385832 -5.0758236e-21)
(10.040029 0.014893919 -5.7158871e-18)
(10.058634 0.019952445 0)
(10.083475 0.025405657 2.8604597e-18)
(10.115546 0.030890632 -2.8882069e-18)
(10.155371 0.036121383 -4.6021362e-20)
(10.202781 0.040760931 -2.3131784e-20)
(10.257505 0.044548025 -2.3228503e-20)
(10.318852 0.048037251 2.3300007e-20)
(10.380404 0.052240694 0)
(10.444912 0.058200427 1.4774146e-18)
(10.511398 0.062786383 -1.5133023e-18)
(10.576673 0.066665717 -7.4188925e-19)
(10.6546 0.073361935 7.5604523e-19)
(10.706761 0.061168294 3.8167794e-19)
(10.765751 0.066512719 -3.7545728e-19)
(12.475438 0.74648784 -1.5068735e-19)
(12.511936 0.61948587 -6.0282388e-19)
(12.509619 0.48623601 5.9018722e-19)
(12.510724 0.36816924 0)
(12.496837 0.26367342 -1.1047814e-18)
(12.496127 0.16888105 -2.127862e-18)
(12.454287 0.071618352 0)
(12.429149 -0.012528275 -1.9070418e-20)
(12.371275 -0.098473335 3.6127638e-18)
(12.331592 -0.1640888 1.7330571e-18)
(12.265222 -0.22721393 -1.6158263e-18)
(12.227113 -0.26484587 3.1099367e-18)
(12.175977 -0.2997672 -2.901465e-18)
(12.147178 -0.31259949 0)
(12.108714 -0.31546419 1.3143358e-18)
(12.062567 -0.30607233 -1.2334311e-18)
(12.033012 -0.26709142 -2.3770832e-18)
(11.976512 -0.20422532 2.2334714e-18)
(11.95659 -0.13698794 -1.0724938e-18)
(12.394335 0.7109816 -1.300452e-19)
(12.392869 0.56909159 7.7772068e-19)
(12.424188 0.43454509 -5.0931257e-19)
(12.413954 0.31256166 0)
(12.405684 0.18801486 -9.6658399e-19)
(12.410153 0.10310618 2.7749237e-18)
(12.386299 0.0023563466 0)
(12.366294 -0.065827995 0)
(12.329269 -0.14356101 0)
(12.292776 -0.19299979 0)
(12.242601 -0.24495212 2.8853895e-18)
(12.194509 -0.27754626 -4.135256e-18)
(12.145852 -0.29704497 -3.9539496e-18)
(12.105753 -0.30079181 2.4425805e-18)
(12.084543 -0.28652797 -2.3342323e-18)
(12.073681 -0.2608466 2.2500422e-18)
(12.068986 -0.20499785 6.0047987e-21)
(12.088194 -0.15178108 -2.0260366e-18)
(12.105555 -0.038047665 1.9517823e-18)
(12.311244 0.72539871 0)
(12.323577 0.58574203 -4.5100188e-19)
(12.352209 0.45933614 -8.854858e-19)
(12.326401 0.31387604 -4.5208101e-21)
(12.32821 0.2090897 -6.7293009e-21)
(12.309794 0.091243727 1.6394707e-18)
(12.282812 0.004000245 -3.1245114e-18)
(12.277218 -0.084396364 1.4893722e-18)
(12.226724 -0.1524311 1.6248547e-20)
(12.206329 -0.2166989 0)
(12.183258 -0.25625003 3.9042212e-18)
(12.155695 -0.28595913 1.2761183e-20)
(12.128737 -0.29916177 2.3459323e-18)
(12.108889 -0.29847347 2.2007122e-18)
(12.104468 -0.28259727 3.1421549e-18)
(12.119581 -0.25603771 -4.0118137e-18)
(12.142518 -0.20278574 -2.7079481e-20)
(12.215258 -0.14897563 3.6639148e-18)
(12.335206 -0.03563786 1.7754785e-18)
(12.220466 0.6758201 3.907317e-19)
(12.247408 0.53661958 -7.7914148e-19)
(12.270686 0.40381023 1.1485718e-18)
(12.248463 0.2742003 0)
(12.256646 0.1631586 2.1945251e-18)
(12.204954 0.0482278 -3.5421861e-18)
(12.20905 -0.036434986 2.7403692e-18)
(12.152114 -0.11949858 -1.5432596e-21)
(12.138058 -0.18878539 1.4639135e-20)
(12.100019 -0.23988028 -1.2172903e-18)
(12.089863 -0.27973033 0)
(12.076017 -0.30879929 -1.0976015e-18)
(12.085524 -0.32171152 1.0648701e-18)
(12.097645 -0.31956607 -1.9711396e-18)
(12.130478 -0.30931706 0)
(12.169452 -0.29408666 0)
(12.25848 -0.2856315 -1.7262412e-18)
(12.355025 -0.23968328 0)
(12.511402 -0.23208976 1.5843109e-18)
(12.163342 0.68331632 3.3748006e-19)
(12.194234 0.5464929 -3.3545144e-19)
(12.213906 0.40664161 3.3009734e-21)
(12.207466 0.27711994 -6.5201269e-19)
(12.208172 0.15802675 6.2851653e-19)
(12.164622 0.050341701 -2.5404332e-22)
(12.161195 -0.032300013 -1.1933624e-18)
(12.104928 -0.11509989 0)
(12.098954 -0.18137131 -2.2284189e-18)
(12.065745 -0.22535224 1.0652049e-18)
(12.053188 -0.27568623 0)
(12.058093 -0.29849033 0)
(12.071232 -0.33298704 -1.8574029e-18)
(12.110738 -0.33294023 -1.7797159e-18)
(12.158862 -0.36659512 1.7061632e-18)
(12.254917 -0.36071575 3.2548887e-18)
(12.354567 -0.41045535 1.551996e-18)
(12.513624 -0.4163395 -1.4688891e-18)
(12.677323 -0.51843093 1.8378583e-20)
(12.078743 0.62463325 0)
(12.113509 0.50602611 2.9143387e-19)
(12.11835 0.35389104 -1.4354062e-18)
(12.135313 0.24698142 5.6467112e-19)
(12.111494 0.11129906 1.6604475e-18)
(12.10735 0.025039985 -1.085498e-18)
(12.071981 -0.075785873 -2.1081018e-18)
(12.049542 -0.14264898 2.022598e-18)
(12.029282 -0.21611673 -9.9568133e-19)
(12.02328 -0.24835769 1.8774336e-18)
(12.003687 -0.3170786 0)
(12.033667 -0.32913624 0)
(12.050827 -0.3817625 -1.6519817e-18)
(12.119032 -0.38942643 4.7319156e-18)
(12.158319 -0.46692871 -6.0289606e-18)
(12.287873 -0.49086494 2.8708609e-18)
(12.347686 -0.61964874 -5.4684623e-18)
(12.55658 -0.68767548 1.2914632e-18)
(12.612272 -0.91025113 2.4568095e-18)
(12.007351 0.62573114 6.3241044e-20)
(12.069149 0.49778202 2.5273214e-19)
(12.070726 0.34387684 -4.9553492e-19)
(12.091182 0.22935666 0)
(12.063509 0.095396009 -9.6516077e-19)
(12.063857 0.019227201 2.8243092e-18)
(12.015534 -0.088672533 -1.8242588e-18)
(12.022958 -0.14843218 8.923759e-19)
(11.983847 -0.23048519 -1.7312319e-18)
(12.003898 -0.27296898 4.9885567e-18)
(11.982948 -0.34346708 -3.1691003e-18)
(12.031192 -0.37192952 0)
(12.039936 -0.44672069 1.4624258e-18)
(12.134349 -0.48881745 2.8078947e-18)
(12.14882 -0.59858751 -4.0075378e-18)
(12.295725 -0.68381768 3.8164159e-18)
(12.295694 -0.85012576 -3.6241269e-18)
(12.481858 -1.0017476 -2.2736083e-18)
(12.438733 -1.2809142 -1.0623191e-18)
(11.885624 0.59639986 1.6346622e-19)
(11.993319 0.44950039 2.1739194e-19)
(11.942617 0.31915038 -4.2876174e-19)
(12.01013 0.18762866 0)
(11.947656 0.073962774 1.6679887e-18)
(11.986452 -0.023414637 -8.2119872e-19)
(11.928666 -0.12114014 0)
(11.96043 -0.1935028 -1.5521162e-18)
(11.910079 -0.26871852 7.5605331e-19)
(11.949017 -0.32107699 0)
(11.92379 -0.40190622 -1.4046372e-18)
(11.988797 -0.45367902 1.3495324e-18)
(11.978969 -0.55156648 1.2946098e-18)
(12.084592 -0.63423033 -2.4790848e-18)
(12.06669 -0.76790265 2.3657477e-18)
(12.195373 -0.90931222 -1.1291802e-18)
(12.139191 -1.0966095 -1.072449e-18)
(12.246695 -1.3050894 -1.0170896e-18)
(12.084186 -1.5862786 -9.6723117e-19)
(11.854463 0.58095532 3.757817e-19)
(11.9233 0.41717968 -1.8645968e-19)
(11.91916 0.30391012 0)
(11.960507 0.15630698 0)
(11.911439 0.066360915 -1.4469215e-18)
(11.945464 -0.056644821 1.4213367e-18)
(11.882142 -0.13935672 0)
(11.92379 -0.22154218 6.7525277e-19)
(11.870288 -0.30263045 -6.5580715e-19)
(11.920163 -0.37231115 0)
(11.88189 -0.45784467 1.2283933e-18)
(11.950883 -0.5446064 3.3944655e-21)
(11.9124 -0.6551392 1.7004815e-21)
(12.002804 -0.77811773 0)
(11.94369 -0.9349613 -4.1804579e-18)
(12.019097 -1.1010889 3.9935347e-18)
(11.916952 -1.3092978 4.7549488e-18)
(11.924777 -1.4949285 -6.3399935e-18)
(11.711884 -1.7661696 4.3222895e-18)
(11.783341 0.5505904 0)
(11.795208 0.37710043 1.3099905e-21)
(11.851847 0.28049459 0)
(11.845265 0.1194003 0)
(11.852574 0.038469287 6.2464566e-19)
(11.840568 -0.10378492 4.5466021e-21)
(11.818293 -0.16385753 -6.0732811e-19)
(11.824957 -0.28052676 -1.7821654e-18)
(11.802511 -0.34150006 2.2940234e-18)
(11.838935 -0.44872416 0)
(11.80583 -0.52964102 -1.082406e-18)
(11.866186 -0.65763698 -6.2603041e-18)
(11.802746 -0.76585827 3.005027e-18)
(11.866801 -0.93108692 0)
(11.762295 -1.0727607 -3.6918087e-18)
(11.773653 -1.2747182 4.4197062e-18)
(11.608608 -1.4328157 -3.3811258e-18)
(11.563094 -1.6279249 4.0441196e-18)
(11.293333 -1.7990433 0)
(11.753958 0.51513278 -2.7994756e-19)
(11.749099 0.3559442 1.4024031e-19)
(11.814375 0.2470209 0)
(11.791762 0.093128243 -1.1027856e-18)
(11.825181 0.010104498 1.6277359e-18)
(11.793964 -0.13311652 -5.3356356e-19)
(11.793071 -0.19816701 -1.5872712e-18)
(11.776389 -0.32857258 3.6052832e-18)
(11.77023 -0.39253277 -2.001706e-18)
(11.770355 -0.52870906 0)
(11.742725 -0.60396105 9.442923e-19)
(11.757107 -0.76869653 5.4870504e-18)
(11.682294 -0.86115014 -3.5205302e-18)
(11.689279 -1.0593724 0)
(11.53348 -1.1729232 0)
(11.488535 -1.3730713 -1.5652081e-18)
(11.271789 -1.4775335 7.5300209e-19)
(11.164352 -1.6432424 -2.1638491e-18)
(10.847105 -1.7169646 0)
(11.656282 0.46905056 -2.415298e-19)
(11.651733 0.34271463 7.2354177e-19)
(11.725929 0.20677637 -7.1869848e-19)
(11.686252 0.066969604 0)
(11.738176 -0.033360668 1.4185286e-18)
(11.685896 -0.16128149 -1.8498544e-18)
(11.714831 -0.24489382 0)
(11.675596 -0.37633085 8.9736923e-19)
(11.688682 -0.45264396 8.7625056e-19)
(11.654208 -0.59373015 0)
(11.636828 -0.67502029 0)
(11.589756 -0.85143455 -7.992761e-19)
(11.516051 -0.93416323 -2.3200783e-18)
(11.435631 -1.1482481 -3.7809427e-21)
(11.295929 -1.1992877 2.1546349e-18)
(11.172627 -1.3993666 1.3853677e-18)
(10.945298 -1.4244917 -6.6557462e-19)
(10.802642 -1.5552842 1.2803454e-18)
(10.487946 -1.548053 0)
(11.601027 0.42849757 0)
(11.60694 0.3283862 -8.3239514e-19)
(11.686786 0.15735419 1.6532006e-18)
(11.64052 0.045487547 -1.2308701e-18)
(11.699861 -0.081348732 0)
(11.633408 -0.19814956 0)
(11.663635 -0.30167204 0)
(11.596263 -0.42161693 -7.7551593e-19)
(11.610653 -0.51696308 -7.5900713e-19)
(11.53397 -0.64932788 0)
(11.515599 -0.74805731 -7.2234331e-19)
(11.406263 -0.91159742 -7.0098306e-19)
(11.331803 -0.99490621 -6.7699392e-19)
(11.166924 -1.1667384 2.625485e-18)
(11.03164 -1.1900367 -2.5352208e-18)
(10.82359 -1.3500547 -6.1090262e-19)
(10.621937 -1.2958627 3.5526149e-18)
(10.420458 -1.4057595 -5.7096149e-18)
(10.136463 -1.2879929 3.3097215e-18)
(11.509793 0.401206 -4.5067237e-20)
(11.54303 0.29152603 8.9918957e-20)
(11.597273 0.11855582 8.927444e-19)
(11.577001 0.032418035 -2.1301446e-18)
(11.614383 -0.1290028 1.0491963e-18)
(11.558247 -0.20902165 0)
(11.582685 -0.34559553 0)
(11.497885 -0.45195018 6.7538282e-19)
(11.506013 -0.56276804 -2.6479482e-18)
(11.40337 -0.68569323 -6.5562038e-19)
(11.365595 -0.79164424 6.2102341e-19)
(11.210442 -0.92597153 3.0552299e-18)
(11.117469 -0.99046363 5.949394e-19)
(10.917681 -1.1209736 0)
(10.785888 -1.1127114 1.6761306e-18)
(10.558686 -1.2045906 0)
(10.375735 -1.1038658 -3.1499344e-18)
(10.130661 -1.1618902 9.1218996e-18)
(9.9074986 -0.96485243 -7.8476121e-18)
(11.416186 0.37494631 7.7439031e-20)
(11.489769 0.23850971 -7.7038605e-20)
(11.50432 0.096727964 0)
(11.51552 -0.014574659 -9.2146127e-19)
(11.515339 -0.16934155 2.9631969e-19)
(11.479875 -0.24364996 1.1978641e-18)
(11.473421 -0.40791302 0)
(11.38858 -0.47645616 -2.9248521e-18)
(11.376469 -0.6222816 1.7145612e-18)
(11.243526 -0.7104214 -1.6009147e-21)
(11.184629 -0.81598574 0)
(10.995455 -0.907707 0)
(10.887445 -0.97140776 -5.1925892e-19)
(10.645936 -1.0333984 0)
(10.523356 -0.99552747 3.3464482e-21)
(10.275301 -1.0127727 9.5517788e-19)
(10.15229 -0.87813194 -2.7787653e-18)
(9.9177296 -0.87148198 7.1705504e-18)
(9.7719769 -0.621301 -3.4733658e-18)
(11.354107 0.34504521 2.3358815e-19)
(11.438167 0.20082159 -1.9977958e-19)
(11.441541 0.084833707 0)
(11.480975 -0.055611134 0)
(11.44348 -0.17819429 0)
(11.435379 -0.28143599 0)
(11.378342 -0.42173526 -2.0573957e-18)
(11.314498 -0.4943457 2.0188731e-18)
(11.245313 -0.64630862 2.4890457e-18)
(11.123493 -0.68564431 -9.7223185e-19)
(11.037418 -0.80863037 0)
(10.831391 -0.84523274 3.7347738e-18)
(10.710944 -0.88477822 -6.819117e-18)
(10.461867 -0.87245913 3.5399739e-18)
(10.338507 -0.82267604 -4.3162885e-18)
(10.073655 -0.76586186 2.515396e-18)
(9.9990107 -0.62853204 -8.1463783e-19)
(9.7858588 -0.55539871 -7.9216414e-19)
(9.7303884 -0.28855631 7.6708637e-19)
(11.282466 0.30343835 2.298249e-19)
(11.344835 0.161468 -7.4598516e-19)
(11.3538 0.05156678 4.5670587e-19)
(11.375243 -0.096963736 -9.1136712e-19)
(11.334561 -0.19610049 9.0187502e-19)
(11.333541 -0.32540545 0)
(11.242901 -0.43196474 -4.4408389e-19)
(11.1882 -0.52834079 1.7539044e-18)
(11.06183 -0.63515382 -1.7204628e-18)
(10.955864 -0.67548161 -4.2265925e-19)
(10.80603 -0.77605163 -3.3251154e-18)
(10.63713 -0.74328179 3.2461605e-18)
(10.50012 -0.77072049 -3.9661242e-19)
(10.282848 -0.68843626 2.329409e-18)
(10.182392 -0.62691216 -2.2648254e-18)
(9.9625924 -0.50990075 0)
(9.9265295 -0.36874507 -5.7435891e-18)
(9.7421217 -0.22767806 6.2733001e-18)
(9.7778446 0.044903932 0)
(11.243761 0.26815901 -3.9569941e-19)
(11.291857 0.13807609 3.9538885e-19)
(11.318002 0.024339361 -7.8814946e-19)