/*--------------------------------*- C++ -*----------------------------------*\
  =========                 |
  \\      /  F ield         | OpenFOAM: The Open Source CFD Toolbox
   \\    /   O peration     | Website:  https://openfoam.org
    \\  /    A nd           | Version:  11
     \\/     M anipulation  |
\*---------------------------------------------------------------------------*/
FoamFile
{
    format      ascii;
    class       volVectorField;
    location    "17";
    object      U;
}
// * * * * * * * * * * * * * * * * * * * * * * * * * * * * * * * * * * * * * //

dimensions      [0 1 -1 0 0 0 0];

internalField   nonuniform List<vector> 
5472
(
(10.602874 2.6775856 1.5827653e-18)
(10.813975 2.6728922 -1.6480995e-18)
(11.021805 2.6313308 -1.6519773e-18)
(11.235349 2.5816693 -1.6730245e-18)
(11.428912 2.5275702 5.1830068e-18)
(11.623684 2.4275106 -3.9733229e-20)
(11.841094 2.346077 -2.7205162e-18)
(12.000968 2.2210664 9.5007498e-19)
(12.187763 2.1018611 0)
(12.353271 1.9495618 0)
(12.504426 1.8077087 0)
(12.639759 1.6223606 -2.8820429e-18)
(12.769328 1.4770091 1.478731e-18)
(12.916081 1.2509575 -2.7111983e-20)
(12.977219 1.0888169 9.8610836e-19)
(13.116386 0.85383331 -5.0849717e-19)
(13.149146 0.64735416 -7.5591973e-19)
(13.236345 0.43114111 2.6128453e-19)
(13.248805 0.19156979 0)
(10.54899 2.4523992 -1.4514528e-18)
(10.738436 2.4419981 2.9901912e-18)
(10.954583 2.418835 -1.5404461e-18)
(11.127713 2.3774615 -1.5381059e-18)
(11.322628 2.3203669 2.7849869e-20)
(11.531096 2.2405022 0)
(11.715883 2.1609889 1.6300715e-18)
(11.869675 2.0515641 -3.3112819e-18)
(12.066832 1.9509959 4.2747364e-18)
(12.231177 1.7979915 8.6989693e-19)
(12.359242 1.6796032 0)
(12.534095 1.5195018 1.7930829e-18)
(12.663895 1.3442893 0)
(12.769742 1.1703409 4.4795972e-19)
(12.887081 0.98989486 -4.6323209e-19)
(12.981944 0.77476202 0)
(13.025511 0.59579775 0)
(13.121655 0.37766553 -2.2945578e-19)
(13.105268 0.19265445 0)
(10.555102 2.2676606 0)
(10.767552 2.2735635 1.3666599e-18)
(10.917646 2.2616016 1.3958375e-18)
(11.086868 2.2354731 0)
(11.290643 2.1836145 -2.2821009e-20)
(11.44872 2.1334728 -2.9866366e-20)
(11.610556 2.069472 -1.5141367e-18)
(11.787501 1.9757834 0)
(11.97662 1.8727333 -1.5357235e-18)
(12.09169 1.7667517 -3.9250689e-18)
(12.280391 1.6299995 1.4374219e-20)
(12.425561 1.4798224 -7.8544123e-19)
(12.5197 1.3387426 -8.112296e-19)
(12.668565 1.1685501 1.6635635e-18)
(12.749008 0.98032008 1.2483138e-18)
(12.838666 0.8026069 4.2037154e-19)
(12.917903 0.60930846 2.0884571e-19)
(12.968643 0.41169679 -3.1542516e-19)
(13.009035 0.21097395 1.050037e-19)
(10.540572 2.0884241 0)
(10.658308 2.1002115 -1.2335158e-18)
(10.812049 2.0824722 -1.2584971e-18)
(10.994375 2.0514352 2.5568892e-18)
(11.146469 2.0198783 -1.3481739e-18)
(11.314904 1.9688113 0)
(11.496932 1.9007132 -1.3729186e-18)
(11.675161 1.8194306 1.3743503e-18)
(11.827791 1.7347778 -1.4224912e-18)
(12.003496 1.6196096 -2.3469513e-20)
(12.15802 1.4935027 -1.4619426e-18)
(12.270742 1.3761608 0)
(12.41156 1.2257618 0)
(12.523823 1.0677864 -7.4064768e-19)
(12.611844 0.90221796 -7.4565112e-19)
(12.723299 0.72322507 0)
(12.775942 0.52969679 -1.8896274e-19)
(12.851918 0.34600657 9.5903966e-20)
(12.881662 0.14865202 1.9038427e-19)
(10.502274 1.9335978 0)
(10.6514 1.9180424 0)
(10.804845 1.9275257 0)
(10.946423 1.9182248 -2.3228629e-18)
(11.107383 1.888143 1.2095869e-18)
(11.276439 1.8541726 -3.6362065e-18)
(11.442549 1.8068176 4.9584624e-18)
(11.599 1.7474444 -2.5194557e-18)
(11.75912 1.6590543 2.8741718e-21)
(11.907652 1.5724028 1.2867685e-18)
(12.030588 1.4632588 1.3029574e-18)
(12.173298 1.3477611 -2.6568117e-18)
(12.293998 1.2016291 2.0185461e-18)
(12.40842 1.0656191 -6.8107999e-19)
(12.512064 0.89652598 0)
(12.602905 0.72385268 6.8905679e-19)
(12.669735 0.5508985 -3.4540448e-19)
(12.731292 0.36505945 1.7089151e-19)
(12.759697 0.1849441 -1.6967915e-19)
(10.458519 1.7542714 0)
(10.582388 1.7505043 -4.0578597e-18)
(10.709418 1.7747565 2.0927473e-18)
(10.861369 1.7535023 2.1293041e-18)
(11.011607 1.747223 1.0766491e-18)
(11.170314 1.7137477 -1.0902369e-18)
(11.314338 1.6647348 2.2631484e-18)
(11.470061 1.612205 1.1308379e-18)
(11.601571 1.5347966 2.2949842e-18)
(11.749666 1.4505306 -2.3477034e-18)
(11.875059 1.3498357 1.9416404e-20)
(12.025193 1.2390463 2.4008106e-18)
(12.139736 1.1135217 0)
(12.264658 0.97728365 -6.149265e-19)
(12.355044 0.81075762 6.1018664e-19)
(12.452839 0.66589683 -1.5363221e-18)
(12.511213 0.47579443 6.1584383e-19)
(12.57845 0.31556324 -1.5393417e-19)
(12.610297 0.12302727 4.9144952e-22)
(10.470531 1.6002089 3.6134423e-18)
(10.584608 1.6145279 3.6731855e-18)
(10.717698 1.6317442 0)
(10.853104 1.6204275 -6.5010939e-21)
(10.980323 1.6205408 -3.9102196e-18)
(11.122427 1.5861976 4.0084196e-18)
(11.247842 1.5637224 0)
(11.38945 1.5193865 -1.0357367e-18)
(11.521886 1.4506727 -4.1641588e-18)
(11.674684 1.3770297 2.1361163e-18)
(11.802559 1.2793368 1.0635835e-18)
(11.951261 1.1875943 -1.0910778e-18)
(12.047515 1.0748616 0)
(12.177922 0.94485936 5.4471776e-19)
(12.249226 0.80225753 0)
(12.366404 0.64340352 -5.514374e-19)
(12.407301 0.48281762 8.3385338e-19)
(12.488719 0.31758483 1.1440928e-21)
(12.507158 0.14359342 -1.1471887e-21)
(10.423502 1.447973 1.6211919e-18)
(10.529006 1.481662 -3.3108342e-18)
(10.645135 1.4916256 -3.3639306e-18)
(10.751156 1.4891792 3.4617757e-18)
(10.874462 1.4908126 -1.7745815e-18)
(11.000407 1.4685021 -1.7874188e-18)
(11.130925 1.4516911 0)
(11.276273 1.3998558 2.7651553e-18)
(11.40505 1.350265 -1.5269433e-20)
(11.546386 1.2710051 -2.8526357e-18)
(11.659905 1.1923432 2.9143464e-18)
(11.788646 1.0982155 0)
(11.892396 0.99911713 0)
(12.013784 0.87712501 9.8091495e-19)
(12.091379 0.73388007 -5.0426967e-19)
(12.203215 0.58820142 -9.9482895e-19)
(12.242906 0.42612738 2.5205263e-19)
(12.338042 0.26846379 2.5370413e-19)
(12.334669 0.10174804 6.1400851e-20)
(10.455792 1.302277 -1.4548871e-18)
(10.543356 1.3501263 4.4495793e-18)
(10.64062 1.3506431 -4.5851261e-18)
(10.730573 1.3651016 3.1078902e-18)
(10.837567 1.3686079 0)
(10.957618 1.3501586 1.6038883e-18)
(11.087861 1.3321568 -1.6536465e-18)
(11.209587 1.2972117 0)
(11.324194 1.2632995 8.388559e-19)
(11.451311 1.1993922 -1.735831e-18)
(11.570055 1.1277144 -8.6012627e-19)
(11.704482 1.0377052 -1.1297876e-20)
(11.816892 0.94629556 -2.645321e-18)
(11.936968 0.82863154 4.5617224e-19)
(12.017792 0.70864442 -4.3729282e-19)
(12.109713 0.55785764 8.9507486e-19)
(12.152373 0.41973767 -4.441294e-19)
(12.222782 0.25973225 2.2829704e-19)
(12.236886 0.11395934 2.2219206e-19)
(10.374897 1.2019737 -2.6276217e-18)
(10.457071 1.2411454 0)
(10.550116 1.2328952 1.3635603e-18)
(10.64543 1.2613415 -4.165867e-18)
(10.766261 1.2444359 1.434326e-18)
(10.874132 1.2425796 -1.452985e-18)
(10.98649 1.2294064 1.463514e-18)
(11.094225 1.1968944 -1.5054895e-18)
(11.214716 1.1638542 0)
(11.335668 1.0962423 7.6318352e-19)
(11.453932 1.0371034 0)
(11.571453 0.95340831 7.7684817e-19)
(11.675527 0.87439582 -5.270981e-22)
(11.78608 0.77406394 -3.9268535e-19)
(11.87923 0.66012812 3.9411648e-19)
(11.971428 0.52224406 3.9617427e-19)
(12.028275 0.38477951 -3.0647693e-21)
(12.095351 0.22806752 -5.9669733e-19)
(12.113691 0.092831262 0)
(10.385424 1.0798418 0)
(10.47658 1.1012987 1.1996814e-18)
(10.548035 1.1062534 0)
(10.630944 1.1390194 1.2348392e-18)
(10.720532 1.1379203 -3.8240677e-18)
(10.8257 1.1481805 3.8997348e-18)
(10.937832 1.1251341 -1.2982516e-18)
(11.046296 1.1121496 4.0354421e-18)
(11.162591 1.0742427 0)
(11.273002 1.0306135 6.8919869e-19)
(11.389438 0.97222231 0)
(11.495725 0.89003272 -1.3877653e-18)
(11.600388 0.81045598 2.8111647e-18)
(11.698501 0.70760855 -8.9694261e-21)
(11.789515 0.60588268 -3.5623598e-19)
(11.866632 0.4798954 0)
(11.927599 0.35423818 0)
(11.974907 0.21103461 0)
(12.004308 0.080387294 -4.4383627e-20)
(10.335125 0.99808741 4.1806501e-18)
(10.433967 1.001248 -5.3737604e-18)
(10.489941 1.0273369 2.1798101e-18)
(10.590239 1.0306334 -9.5645368e-21)
(10.665943 1.0299492 0)
(10.753822 1.0399591 -2.3039554e-18)
(10.84263 1.0196077 1.1933353e-18)
(10.94066 1.0134979 -1.1896719e-18)
(11.046236 0.97600272 0)
(11.153853 0.95208139 -6.0894555e-19)
(11.263093 0.89566754 1.2277151e-18)
(11.374896 0.83699879 -1.5143599e-20)
(11.475136 0.76062588 -1.2593795e-18)
(11.564778 0.66904948 -2.507459e-18)
(11.663262 0.56738174 2.2081591e-18)
(11.733307 0.45130092 -1.2631764e-18)
(11.803807 0.33055346 7.9286764e-19)
(11.843462 0.19655764 1.5866307e-19)
(11.877118 0.074077092 3.8954671e-20)
(10.339291 0.87019378 -6.5575511e-18)
(10.411213 0.88452461 3.8409005e-18)
(10.453959 0.92366485 0)
(10.546535 0.93019944 -4.9621735e-18)
(10.606184 0.95849334 4.0762728e-18)
(10.717884 0.95198573 1.0344421e-18)
(10.801468 0.94047203 3.1376026e-18)
(10.904764 0.91962352 -2.1379704e-18)
(10.994874 0.88426521 -2.6828255e-18)
(11.101427 0.85984934 1.6434811e-18)
(11.195765 0.80838473 2.1846475e-18)
(11.30067 0.76094109 -3.3262519e-18)
(11.38637 0.68539383 2.2257528e-18)
(11.476383 0.60617192 -5.6787423e-19)
(11.56313 0.509354 2.7605126e-19)
(11.623479 0.40741382 -4.693892e-21)
(11.692394 0.29092213 -7.0215305e-19)
(11.727529 0.17537196 -1.3910733e-19)
(11.761755 0.049863629 -3.501891e-20)
(10.312325 0.80313538 2.5160982e-18)
(10.395122 0.80729375 3.4008502e-18)
(10.450067 0.82185904 -3.4913433e-18)
(10.525056 0.82337602 8.8809677e-19)
(10.576982 0.85734636 -2.692996e-18)
(10.67544 0.8504722 2.7721387e-18)
(10.739605 0.86612899 9.262623e-19)
(10.837594 0.84578308 -4.7285085e-18)
(10.909346 0.82908221 3.3441918e-18)
(11.009149 0.79753886 -1.4624163e-18)
(11.099223 0.75603371 0)
(11.200342 0.70930831 -4.9283862e-19)
(11.287024 0.64635316 -1.4773062e-18)
(11.37659 0.56924223 5.0727023e-19)
(11.453764 0.47852998 1.4936313e-18)
(11.521935 0.3866877 4.9501845e-19)
(11.578763 0.27293505 -9.9391451e-19)
(11.618864 0.17122514 2.5017303e-19)
(11.648308 0.049739016 2.7803857e-19)
(10.305777 0.68803273 -3.7094201e-18)
(10.343379 0.72712179 3.0445021e-18)
(10.403141 0.74430911 0)
(10.473174 0.75228492 -7.8721886e-19)
(10.533091 0.76374531 3.1986261e-18)
(10.616442 0.76311591 -6.5196822e-18)
(10.672581 0.77818172 8.5645056e-19)
(10.768026 0.75811533 3.3748821e-18)
(10.837671 0.74454936 2.549838e-18)
(10.934796 0.71033846 -4.2968411e-19)
(11.009933 0.68438968 0)
(11.102102 0.63346866 2.1626348e-18)
(11.183582 0.58178117 -8.8273425e-19)
(11.268352 0.50677853 8.7650545e-19)
(11.340243 0.42656612 -1.3211521e-18)
(11.410691 0.34037797 -2.2072199e-19)
(11.460196 0.23921886 0)
(11.502926 0.14410925 0)
(11.524236 0.033675191 -2.7418366e-20)
(10.3044 0.61402352 6.3787573e-19)
(10.334036 0.6435681 -6.0795638e-18)
(10.393567 0.64649184 2.7405588e-18)
(10.428045 0.67723971 -3.5058976e-18)
(10.502032 0.68427346 -7.1009059e-19)
(10.559929 0.6983217 0)
(10.633086 0.69935769 -3.6499625e-18)
(10.720151 0.68968149 2.2399333e-18)
(10.787588 0.68048824 -7.5233595e-19)
(10.881631 0.65342506 -2.2475744e-21)
(10.9555 0.63094516 0)
(11.051269 0.58376817 0)
(11.123354 0.54051171 -3.8413647e-19)
(11.204489 0.46925516 -3.852553e-19)
(11.268205 0.39614885 1.9290469e-19)
(11.332778 0.31380965 1.16087e-18)
(11.379702 0.22319836 -7.7807338e-19)
(11.420808 0.13296328 9.7232469e-20)
(11.445869 0.031573321 2.3953415e-20)
(10.260349 0.55789841 4.0977059e-18)
(10.301267 0.57240359 -4.1955664e-18)
(10.355329 0.57299514 0)
(10.398551 0.59600553 6.1878139e-19)
(10.466469 0.59475578 0)
(10.508064 0.62022842 6.3971651e-19)
(10.582929 0.61120326 6.4872331e-19)
(10.63336 0.6184858 0)
(10.713309 0.59849877 3.3010998e-18)
(10.783042 0.5865759 -2.352911e-18)
(10.865841 0.55786008 1.6790215e-18)
(10.942548 0.52482843 -1.3610804e-18)
(11.015838 0.48614014 1.3547791e-18)
(11.092069 0.42109513 -1.1483842e-20)
(11.150885 0.35965352 -1.3721969e-18)
(11.213773 0.27847177 -1.7010334e-19)
(11.257119 0.19843115 -1.7146139e-19)
(11.295515 0.11116064 -8.4860817e-20)
(11.322701 0.021447362 0)
(10.237093 0.48841603 4.6867709e-18)
(10.279584 0.50963128 0)
(10.31413 0.52206903 0)
(10.366931 0.53849993 5.4819268e-19)
(10.422559 0.54259794 0)
(10.475514 0.5566952 -5.6330694e-19)
(10.547183 0.55225384 -5.7056918e-19)
(10.5987 0.5560261 -2.3048848e-18)
(10.683724 0.53802069 2.3453677e-18)
(10.7424 0.53012567 0)
(10.832956 0.49644981 -2.6587844e-18)
(10.890921 0.47788668 2.0965928e-18)
(10.97891 0.4263703 1.1925974e-18)
(11.03472 0.3855317 -2.401209e-18)
(11.103847 0.31554434 2.4045293e-18)
(11.15542 0.25098345 -1.8058312e-18)
(11.203768 0.17396562 6.0141997e-19)
(11.233269 0.094907121 0)
(11.259173 0.017223869 0)
(10.210233 0.41197699 7.3608502e-18)
(10.25816 0.42624957 -3.7513201e-18)
(10.292303 0.44044768 3.8002305e-18)
(10.34498 0.45371972 -4.3603026e-18)
(10.381304 0.46930698 -3.9152283e-18)
(10.440306 0.48182782 3.9898324e-18)
(10.490353 0.48287862 2.0081922e-18)
(10.545618 0.48781684 -1.3099309e-20)
(10.607324 0.476968 -2.0635338e-18)
(10.668555 0.46974019 0)
(10.740091 0.44506631 0)
(10.800765 0.42275562 2.6130127e-19)
(10.877459 0.38461887 0)
(10.927693 0.34636898 1.0505246e-18)
(10.998972 0.2832698 -1.0594659e-18)
(11.036567 0.22639944 -5.2618531e-19)
(11.087189 0.15002315 6.602461e-19)
(11.1102 0.082019816 -3.2885659e-19)
(11.136625 0.0022956192 2.625754e-19)
(10.178139 0.3522627 0)
(10.210707 0.37489715 0)
(10.244549 0.38861542 3.3536516e-18)
(10.297148 0.40273594 -3.4176583e-18)
(10.343803 0.41344901 3.8823033e-18)
(10.407763 0.42076188 -3.9497414e-18)
(10.453253 0.42516023 0)
(10.518969 0.42730507 4.4828404e-19)
(10.570329 0.42017442 1.8006609e-18)
(10.643001 0.41226731 -1.8265259e-18)
(10.698637 0.3933807 1.8245028e-18)
(10.76922 0.37047179 -1.3637461e-20)
(10.829147 0.33806092 -3.6912429e-18)
(10.888182 0.30449785 1.8559861e-18)
(10.948365 0.25277458 0)
(10.987777 0.20334439 -9.2260486e-19)
(11.028283 0.13446785 1.4460966e-18)
(11.047789 0.070779853 -6.3543737e-19)
(11.068428 -0.0027456763 2.3010908e-19)
(10.167011 0.28352401 1.1120112e-17)
(10.194359 0.29952908 -5.8395691e-18)
(10.226806 0.31530439 0)
(10.265357 0.33178959 -3.7561559e-19)
(10.305768 0.34649389 -3.7994237e-19)
(10.351284 0.35799731 3.844827e-19)
(10.399448 0.3630284 0)
(10.453273 0.36916389 -3.9238241e-19)
(10.505172 0.36342659 3.1602697e-18)
(10.569114 0.35937199 -3.2025752e-18)
(10.623194 0.34420712 0)
(10.691198 0.32027852 0)
(10.743333 0.29490823 2.0243114e-19)
(10.809225 0.25862747 1.0139174e-19)
(10.857193 0.22197759 -1.0145254e-19)
(10.910062 0.17557733 0)
(10.939061 0.12376 -4.5394455e-19)
(10.96872 0.068339098 4.04759e-19)
(10.975919 0.0053242998 0)
(10.114327 0.22877347 -1.0117982e-17)
(10.149143 0.24675987 1.0591641e-17)
(10.186454 0.26104515 -1.6220809e-20)
(10.227582 0.27522986 -4.959201e-18)
(10.276654 0.2879166 0)
(10.324018 0.29631064 2.6969916e-18)
(10.374013 0.30500449 -5.6327708e-18)
(10.421836 0.31059675 2.7631768e-18)
(10.478418 0.31130615 0)
(10.533866 0.30918416 -2.7864816e-18)
(10.592299 0.29580352 2.8183574e-18)
(10.649434 0.27969496 1.4049951e-18)
(10.701762 0.2512322 -1.417159e-18)
(10.755643 0.21904121 1.2332311e-18)
(10.805277 0.18218528 -1.3313828e-18)
(10.849423 0.14164104 0)
(10.882747 0.092946622 -4.4256726e-20)
(10.911477 0.042441153 -1.3179617e-19)
(10.915826 -0.0080846522 1.868164e-19)
(10.088998 0.16297204 2.7785937e-19)
(10.12018 0.17890357 -5.6461932e-19)
(10.143301 0.19954117 4.5722359e-18)
(10.183822 0.21473884 2.7443985e-19)
(10.22296 0.23148301 -3.114784e-19)
(10.272165 0.23849219 -4.7505897e-18)
(10.320604 0.24407194 1.4938667e-19)
(10.374281 0.24850476 2.5577255e-18)
(10.428562 0.24970608 -2.4366562e-18)
(10.485634 0.25351223 -1.5296787e-19)
(10.541816 0.24803225 0)
(10.600011 0.23878914 2.6098869e-18)
(10.654324 0.22290188 -2.6306025e-18)
(10.700721 0.19650383 -1.1549281e-18)
(10.750696 0.16939687 8.4687273e-20)
(10.784555 0.13582059 1.8543446e-18)
(10.821538 0.097533539 -5.7978665e-19)
(10.840632 0.059425988 -5.7610066e-20)
(10.854143 0.011478154 -9.5472878e-21)
(10.069389 0.10757695 0)
(10.093684 0.12305417 2.4785686e-19)
(10.122987 0.14063814 4.0135442e-18)
(10.15921 0.15743081 -4.4542226e-18)
(10.195869 0.17219065 4.2327261e-18)
(10.241765 0.18460478 -4.1607635e-18)
(10.283512 0.19129862 1.3108248e-19)
(10.335419 0.19494658 -1.3173862e-19)
(10.384238 0.19367251 1.9849567e-18)
(10.441827 0.19151838 -2.0073541e-18)
(10.498209 0.18400274 2.0011745e-18)
(10.556495 0.17215156 -2.2210057e-18)
(10.610048 0.15572509 0)
(10.66064 0.13249153 1.072152e-18)
(10.703111 0.1081969 -1.2127931e-18)
(10.739782 0.078419371 5.3563071e-19)
(10.769968 0.047293858 -5.0391559e-19)
(10.786424 0.016488294 -2.3381231e-19)
(10.799386 -0.018562851 2.7120484e-19)
(10.038946 0.056000147 -9.2335694e-21)
(10.053887 0.071602371 -6.9664853e-18)
(10.079525 0.087971826 1.1017574e-19)
(10.111721 0.1002203 -1.707997e-22)
(10.149911 0.11643946 1.1240543e-19)
(10.196225 0.12624209 0)
(10.241772 0.13879909 3.6563828e-18)
(10.291666 0.14610509 -3.8131809e-18)
(10.342702 0.15232141 1.1578765e-19)
(10.394496 0.15967569 -1.8012821e-18)
(10.450074 0.15838061 3.8001489e-18)
(10.50689 0.1600227 -3.750119e-18)
(10.559019 0.15059303 1.8829807e-18)
(10.614611 0.14023459 0)
(10.657869 0.12239001 -9.0574554e-19)
(10.699842 0.10034774 9.3884533e-19)
(10.729928 0.075882007 -1.4513254e-20)
(10.749503 0.045983145 4.2982676e-23)
(10.760798 0.018243207 -3.6171353e-21)
(10.020367 0.023381846 6.067525e-18)
(10.03441 0.03251339 -6.0947479e-18)
(10.054695 0.040416085 6.079774e-18)
(10.080648 0.049703352 9.7381059e-20)
(10.11768 0.056716358 0)
(10.15953 0.06173819 0)
(10.208114 0.064874279 -4.9767033e-20)
(10.261147 0.064263804 -3.1592191e-18)
(10.316165 0.063499692 3.2914824e-18)
(10.373771 0.060545182 3.2098291e-18)
(10.431729 0.055656536 -1.5644427e-18)
(10.487821 0.051264063 -1.709763e-18)
(10.54402 0.043305722 0)
(10.593907 0.036201043 2.5499269e-20)
(10.635745 0.027283641 2.540002e-20)
(10.673735 0.01777518 7.9681153e-19)
(10.69855 0.007278374 -8.2453142e-19)
(10.715336 -0.0071455364 1.8281045e-19)
(10.723475 -0.020697326 -2.0156616e-19)
(10.007638 0.0074705239 -4.0873704e-20)
(10.016884 0.010745114 5.2774539e-18)
(10.032485 0.016048463 -6.1375436e-21)
(10.054792 0.022675681 -8.9582269e-21)
(10.084121 0.029985625 -5.4532099e-18)
(10.120506 0.037513683 0)
(10.163625 0.044957591 2.7176971e-18)
(10.212619 0.05199822 -2.7440933e-18)
(10.266469 0.057918427 -4.3528054e-20)
(10.324205 0.062591012 -2.1828894e-20)
(10.384366 0.065438594 -2.1867072e-20)
(10.445928 0.066053172 2.1880122e-20)
(10.504609 0.064978424 0)
(10.560328 0.062586817 1.3792272e-18)
(10.611083 0.058126951 -1.4112852e-18)
(10.654329 0.054122878 -6.9003687e-19)
(10.689186 0.042825824 7.0435842e-19)
(10.711284 0.036750222 3.5532379e-19)
(10.728763 0.023940391 -3.4898464e-19)
(13.291801 0.0069205468 -1.2316552e-19)
(13.293243 -0.25984659 -4.9416758e-19)
(13.288347 -0.41820564 4.8123892e-19)
(13.299766 -0.66267692 0)
(13.223927 -0.82037467 -8.9828133e-19)
(13.188557 -1.0638889 -1.7455472e-18)
(13.123074 -1.1890412 0)
(13.072238 -1.4073146 -2.6712551e-20)
(12.994262 -1.5431091 2.9870315e-18)
(12.895682 -1.7523148 1.4334641e-18)
(12.828112 -1.8955172 -1.3492023e-18)
(12.68347 -2.0791806 2.5508419e-18)
(12.62931 -2.2366449 -2.3881082e-18)
(12.461503 -2.4082281 0)
(12.396527 -2.5832115 1.0868811e-18)
(12.271707 -2.7367983 -1.0002093e-18)
(12.165964 -2.9244382 -1.9252209e-18)
(12.069934 -3.0798016 1.8068821e-18)
(11.949585 -3.3113475 -8.4730674e-19)
(13.186634 -0.036432955 -1.0731218e-19)
(13.135264 -0.22316853 6.4184269e-19)
(13.165752 -0.491867 -4.2092319e-19)
(13.106147 -0.65160874 0)
(13.09213 -0.90580805 -8.0046221e-19)
(13.005122 -1.0818866 2.3021582e-18)
(12.957177 -1.2845495 0)
(12.878514 -1.4598705 0)
(12.784528 -1.6387366 0)
(12.707925 -1.8191279 0)
(12.585411 -1.9735869 2.4133898e-18)
(12.488037 -2.1473377 -3.4588613e-18)
(12.342593 -2.2836699 -3.3069468e-18)
(12.218673 -2.4672117 2.0604144e-18)
(12.065166 -2.5852287 -1.9636854e-18)
(11.956152 -2.7739892 1.8897373e-18)
(11.806625 -2.8781675 -1.7300822e-20)
(11.676273 -3.0888328 -1.671121e-18)
(11.551177 -3.2257133 1.6172235e-18)
(13.046382 -0.0016393699 0)
(13.019368 -0.22308944 -3.776363e-19)
(13.055606 -0.45628426 -7.3831326e-19)
(12.96325 -0.63706412 -4.5496923e-21)
(12.964436 -0.89718534 -9.1838749e-21)
(12.833003 -1.0474606 1.3785359e-18)
(12.809235 -1.2907214 -2.6180332e-18)
(12.649796 -1.4202391 1.2443839e-18)
(12.600277 -1.6603582 2.0769705e-20)
(12.442911 -1.7673099 0)
(12.358631 -1.9909106 3.2924183e-18)
(12.204543 -2.0787655 1.1857567e-20)
(12.083578 -2.2984349 1.9885792e-18)
(11.931035 -2.3843701 1.9167916e-18)
(11.758677 -2.5901606 2.6991816e-18)
(11.650209 -2.679344 -3.3924586e-18)
(11.442407 -2.8606723 -1.8054039e-20)
(11.331495 -2.9900738 3.0890699e-18)
(11.09371 -3.1575447 1.5101107e-18)
(12.906098 -0.064147708 3.2880421e-19)
(12.915446 -0.28314231 -6.5676653e-19)
(12.883668 -0.51484831 9.6703089e-19)
(12.843789 -0.72508561 0)
(12.781841 -0.9369885 1.8474453e-18)
(12.699127 -1.1189167 -2.9871981e-18)
(12.59824 -1.3257243 2.3184856e-18)
(12.48688 -1.4753901 -5.7709481e-21)
(12.37633 -1.676162 2.366753e-20)
(12.227206 -1.7954007 -1.0428069e-18)
(12.108659 -1.9889842 0)
(11.932995 -2.0817118 -9.3305641e-19)
(11.811254 -2.2735404 9.3414258e-19)
(11.60645 -2.3531018 -1.7011447e-18)
(11.452798 -2.530662 0)
(11.27051 -2.604475 0)
(11.08541 -2.7784063 -1.4772188e-18)
(10.925111 -2.8535263 0)
(10.683671 -3.0441226 1.3583314e-18)
(12.784127 -0.024724931 2.8631049e-19)
(12.77527 -0.2377753 -2.8455989e-19)
(12.743083 -0.48549107 5.0645755e-21)
(12.709037 -0.67853854 -5.5197249e-19)
(12.623477 -0.89659171 5.3122355e-19)
(12.551939 -1.0931507 -3.4284522e-21)
(12.425181 -1.2827854 -1.0184962e-18)
(12.330735 -1.4554957 0)
(12.172129 -1.6248773 -1.9152998e-18)
(12.048642 -1.7611056 9.1253015e-19)
(11.876647 -1.9163675 0)
(11.721358 -2.0269598 0)
(11.537378 -2.1739838 -1.6128541e-18)
(11.381561 -2.2566108 -1.5795601e-18)
(11.149557 -2.3880368 1.5122214e-18)
(10.982644 -2.4837719 2.880366e-18)
(10.731681 -2.578386 1.4173767e-18)
(10.525072 -2.6900302 -1.282817e-18)
(10.254464 -2.7741456 -3.1954024e-20)
(12.644889 -0.072777073 0)
(12.635001 -0.29992674 2.4991398e-19)
(12.61485 -0.53802977 -1.2259748e-18)
(12.560546 -0.72234079 4.8441469e-19)
(12.482522 -0.96683398 1.42287e-18)
(12.377546 -1.1171545 -9.3995512e-19)
(12.262378 -1.323289 -1.8214581e-18)
(12.115211 -1.4671502 1.7466821e-18)
(11.967958 -1.6246229 -8.7343816e-19)
(11.808192 -1.7538615 1.6356996e-18)
(11.634737 -1.8740626 0)
(11.460314 -1.9926101 0)
(11.250665 -2.0906958 -1.4857114e-18)
(11.08913 -2.1770677 4.243326e-18)
(10.828601 -2.2718805 -5.399475e-18)
(10.683337 -2.329896 2.588758e-18)
(10.380041 -2.3928921 -5.0154848e-18)
(10.213432 -2.4453815 1.2020643e-18)
(9.87758 -2.4836589 2.3049507e-18)
(12.559903 -0.044648533 5.4650689e-20)
(12.523717 -0.29026435 2.1832839e-19)
(12.519053 -0.4958922 -4.2666353e-19)
(12.422934 -0.72098829 0)
(12.360023 -0.91352663 -8.3738652e-19)
(12.223122 -1.1002466 2.4481154e-18)
(12.116467 -1.2803839 -1.5844221e-18)
(11.950313 -1.4191285 7.8438017e-19)
(11.80833 -1.5731808 -1.5233021e-18)
(11.617702 -1.6813302 4.4110648e-18)
(11.449488 -1.795174 -2.8185305e-18)
(11.225885 -1.8968655 0)
(11.037154 -1.9628724 1.3090648e-18)
(10.810411 -2.0437796 2.5665564e-18)
(10.571301 -2.0833614 -3.6536387e-18)
(10.351168 -2.124952 3.5711796e-18)
(10.062898 -2.1368745 -3.4249695e-18)
(9.8321658 -2.1496427 -2.2276928e-18)
(9.5338014 -2.129174 -1.0860407e-18)
(12.401274 -0.085014827 1.4191283e-19)
(12.33794 -0.30625113 1.8843011e-19)
(12.356391 -0.52663061 -3.7185417e-19)
(12.233237 -0.74005087 0)
(12.192352 -0.93214408 1.452996e-18)
(12.018406 -1.1173557 -7.2106373e-19)
(11.930526 -1.2624074 0)
(11.718345 -1.4181213 -1.3722503e-18)
(11.591047 -1.5270195 6.7524438e-19)
(11.369588 -1.6404692 0)
(11.220005 -1.7176233 -1.2758409e-18)
(10.966598 -1.8004247 1.2362924e-18)
(10.801069 -1.8366668 1.1960341e-18)
(10.524622 -1.8864417 -2.3079007e-18)
(10.346589 -1.8740767 2.1990835e-18)
(10.072995 -1.8886834 -1.0578448e-18)
(9.8332268 -1.8225542 -1.0384028e-18)
(9.5632884 -1.8040186 -1.001252e-18)
(9.2787129 -1.6898044 -9.6466726e-19)
(12.28895 -0.080733575 3.2792362e-19)
(12.247416 -0.30592173 -1.6225077e-19)
(12.257462 -0.51802082 0)
(12.125973 -0.72736386 0)
(12.087233 -0.90622055 -1.2704143e-18)
(11.888909 -1.086058 1.2532156e-18)
(11.799855 -1.2197795 0)
(11.565956 -1.3611282 5.9969081e-19)
(11.433783 -1.4540752 -5.8664235e-19)
(11.175486 -1.5573628 0)
(11.022526 -1.6014834 1.1148072e-18)
(10.743729 -1.6715027 1.817778e-20)
(10.569702 -1.6602513 1.7451319e-20)
(10.26995 -1.6904024 0)
(10.080399 -1.6297617 -4.0023028e-18)
(9.7986554 -1.6061595 3.8228594e-18)
(9.6269169 -1.4773522 4.6592689e-18)
(9.3294546 -1.4246554 -6.2884269e-18)
(9.1643204 -1.2004665 4.3086508e-18)
(12.153493 -0.10936693 0)
(12.114478 -0.30099261 2.087023e-21)
(12.094936 -0.53958847 0)
(11.973933 -0.72041633 0)
(11.908339 -0.90949595 5.5060801e-19)
(11.716536 -1.0601553 8.3371535e-21)
(11.619824 -1.1873491 -5.4511374e-19)
(11.378862 -1.3099781 -1.6090111e-18)
(11.255706 -1.3817785 2.0735189e-18)
(10.993025 -1.4612331 0)
(10.839947 -1.4797277 -1.0047763e-18)
(10.557 -1.514258 -5.8578359e-18)
(10.39723 -1.4664348 2.8177917e-18)
(10.107353 -1.4642084 0)
(9.9313209 -1.3448579 -3.5807954e-18)
(9.6473341 -1.2973161 4.2952642e-18)
(9.4700774 -1.1001307 -3.3527562e-18)
(9.2238237 -1.0057943 4.0201771e-18)
(9.1190588 -0.722772 0)
(12.024696 -0.10366504 -2.47448e-19)
(12.002086 -0.30421403 1.2431843e-19)
(11.963843 -0.53123897 0)
(11.847753 -0.69284779 -9.8090527e-19)
(11.754118 -0.89350365 1.4509935e-18)
(11.565158 -1.0035834 -4.7598803e-19)
(11.433597 -1.1504113 -1.4401558e-18)
(11.188948 -1.2215587 3.2768251e-18)
(11.056106 -1.3036329 -1.82545e-18)
(10.773979 -1.3356799 0)
(10.626318 -1.3416177 8.7594721e-19)
(10.326627 -1.3283653 5.192444e-18)
(10.179693 -1.2705497 -3.337804e-18)
(9.8997158 -1.2051535 0)
(9.7785544 -1.0629353 0)
(9.5226319 -0.9514312 -1.537789e-18)
(9.4325502 -0.72863541 7.4743251e-19)
(9.2135588 -0.59790492 -2.1618005e-18)
(9.1816942 -0.28424211 0)
(11.889704 -0.10723145 -2.148076e-19)
(11.886838 -0.30473594 6.4387464e-19)
(11.817827 -0.50799386 -6.4056528e-19)
(11.727908 -0.67868019 0)
(11.604558 -0.8565943 1.2797762e-18)
(11.448829 -0.95252484 -1.6650231e-18)
(11.288333 -1.0917621 0)
(11.063855 -1.1305401 8.2503012e-19)
(10.903879 -1.2117024 8.1313055e-19)
(10.654512 -1.1797997 0)
(10.50533 -1.1874773 0)
(10.219344 -1.115115 -7.568902e-19)
(10.078928 -1.0459173 -2.2454913e-18)
(9.7954164 -0.91717237 -3.1018215e-20)
(9.7065538 -0.77394468 2.0976008e-18)
(9.4745434 -0.60608851 1.3670286e-18)
(9.4572886 -0.3963816 -6.606234e-19)
(9.287182 -0.21282552 1.2784728e-18)
(9.366345 0.077192845 0)
(11.767477 -0.11530829 0)
(11.766122 -0.30878476 -7.4535609e-19)
(11.684776 -0.49969456 1.4812765e-18)
(11.594384 -0.6709198 -1.1068032e-18)
(11.436238 -0.8171727 0)
(11.29612 -0.91817025 0)
(11.100758 -1.0186176 0)
(10.900804 -1.0444496 -7.1298107e-19)
(10.694925 -1.097909 -7.0426042e-19)
(10.479752 -1.0364343 0)
(10.315959 -1.0304178 -6.8898992e-19)
(10.08647 -0.89580583 -6.7474382e-19)
(9.9715236 -0.81775147 -6.5348203e-19)
(9.7483364 -0.64362644 2.5733096e-18)
(9.7001241 -0.50020633 -2.4867302e-18)
(9.5121501 -0.28985233 -6.0391904e-19)
(9.5500659 -0.096471538 3.5329854e-18)
(9.4322174 0.10871881 -5.6725363e-18)
(9.5665307 0.37217251 3.3033295e-18)
(11.656556 -0.11083283 -4.0579269e-20)
(11.652384 -0.30325665 8.1043423e-20)
(11.566619 -0.46745937 8.0530966e-19)
(11.474555 -0.63087634 -1.9318334e-18)
(11.31794 -0.75428251 9.5033211e-19)
(11.181653 -0.854607 0)
(10.980039 -0.91584106 0)
(10.814529 -0.94000102 6.3046297e-19)
(10.584245 -0.94766429 -2.4982398e-18)
(10.395195 -0.87814385 -6.4607449e-19)
(10.193851 -0.83178118 5.7041498e-19)
(10.020529 -0.67789413 2.9374821e-18)
(9.8988261 -0.59849097 5.7985345e-19)
(9.7527698 -0.37724386 0)
(9.7344669 -0.24435793 1.6496401e-18)
(9.6242999 0.0011542198 0)
(9.7124448 0.15322749 -3.1221033e-18)
(9.6576066 0.39229505 9.0443287e-18)
(9.8760925 0.61758295 -7.7877684e-18)
(11.534767 -0.1174615 6.9894176e-20)
(11.511611 -0.2991672 -6.9433429e-20)
(11.434295 -0.45281233 0)
(11.330987 -0.60852494 -8.4219933e-19)
(11.174513 -0.71189452 2.6309918e-19)
(11.019057 -0.80879814 1.1005221e-18)
(10.826007 -0.83398882 0)
(10.673943 -0.84495299 -2.7478475e-18)
(10.457773 -0.8001741 1.6095818e-18)
(10.316193 -0.72657961 -4.526299e-21)
(10.123134 -0.64032276 0)
(10.009521 -0.49551741 0)
(9.8847326 -0.3733139 -5.0594714e-19)
(9.8218792 -0.14281344 0)
(9.8027448 -0.019567644 2.651757e-21)
(9.7908057 0.23790241 9.4129601e-19)
(9.9085718 0.34080492 -2.7481094e-18)
(9.9536784 0.59767531 7.0902265e-18)
(10.262358 0.70869999 -3.4340379e-18)
(11.456249 -0.1144873 2.1199907e-19)
(11.424157 -0.27772271 -1.8109045e-19)
(11.359002 -0.41695797 0)
(11.244048 -0.55364934 0)
(11.093938 -0.64265134 0)
(10.921474 -0.72215675 0)
(10.731168 -0.72174135 -1.9301294e-18)
(10.559608 -0.72505607 1.8939743e-18)
(10.366245 -0.64542486 2.3716414e-18)
(10.243832 -0.57801545 -9.240187e-19)
(10.07533 -0.45241948 0)
(10.014142 -0.31257633 3.6386607e-18)
(9.9212474 -0.14810226 -6.6611598e-18)
(9.9411643 0.039464705 3.4657744e-18)
(9.9410946 0.16731944 -4.2460236e-18)
(10.047986 0.37752024 2.4729303e-18)
(10.168907 0.43590591 -8.0360159e-19)
(10.341791 0.63814277 -7.785539e-19)
(10.639171 0.58579284 7.579865e-19)
(11.32711 -0.11413496 2.0939231e-19)
(11.290414 -0.26979335 -6.8056799e-19)
(11.219156 -0.40450997 4.1709432e-19)
(11.103202 -0.51968313 -8.4031873e-19)
(10.97651 -0.59381038 8.3153693e-19)
(10.80569 -0.64220276 0)
(10.641885 -0.62237357 -4.1800174e-19)
(10.472581 -0.60491157 1.6675258e-18)
(10.326014 -0.50735108 -1.6356966e-18)
(10.206497 -0.43436331 -4.0574898e-19)
(10.080037 -0.277883 -3.2274968e-18)
(10.045247 -0.14970782 3.1508339e-18)
(9.9996181 0.023569738 -3.8745399e-19)
(10.069893 0.15451571 2.2848943e-18)
(10.111899 0.28245307 -2.2209709e-18)
(10.296467 0.39941436 0)
(10.413597 0.41891204 -5.6302925e-18)
(10.670261 0.46747998 6.1512819e-18)
(10.801576 0.26954856 0)
(11.262359 -0.10322292 -3.6197578e-19)
(11.222408 -0.23754447 3.6169555e-19)
(11.130399 -0.3632273 -7.2594609e-19)