/*--------------------------------*- C++ -*----------------------------------*\
  =========                 |
  \\      /  F ield         | OpenFOAM: The Open Source CFD Toolbox
   \\    /   O peration     | Website:  https://openfoam.org
    \\  /    A nd           | Version:  11
     \\/     M anipulation  |
\*---------------------------------------------------------------------------*/
FoamFile
{
    format      ascii;
    class       volScalarField;
    location    "0.3592351";
    object      Ma;
}
// * * * * * * * * * * * * * * * * * * * * * * * * * * * * * * * * * * * * * //

dimensions      [0 0 0 0 0 0 0];

internalField   nonuniform List<scalar> 
880
(
1.118016635923817
1.118016634793396
1.117913278613531
1.101702634495718
1.118016635922823
1.118016632481563
1.117870541372933
1.096269172840724
1.118016635905756
1.118016621504525
1.117737699875003
1.089039376929047
1.118016635824109
1.118016566727008
1.117400367035448
1.069555363540574
1.118016636535325
1.118016634945924
1.118016603635063
1.118016146181502
1.118016282149857
1.118014695903628
1.118008386371865
1.118021818287618
1.116457630293913
1.115369384333001
1.113824385592104
1.11310927258932
1.031318718853798
0.9943410383779413
0.97233783690023
0.9700775882680476
1.11801099236694
1.117995259930892
1.117968928262929
1.11785930242675
1.11790255688821
1.117468096850263
1.116770921945375
1.115507670442223
1.1044341098602
1.097435569733551
1.088274711516142
1.079904123533828
0.9590694253357208
0.9591352487386113
0.9575137493404536
0.9810536954193374
1.040053178216755
1.075624266190233
1.089969226698569
1.104393091359423
1.06563176911706
1.065219113943374
1.069326363597255
1.077707461640124
1.111149066108567
1.10555268121507
1.100432820131057
1.097673181879635
1.117316754055335
1.116401049205233
1.115078593060817
1.113440688696764
1.11189012313625
1.110735972036497
1.109985386782811
1.10983999331757
1.097061492266617
1.098712181694139
1.102514900201607
1.107802593959638
1.086124924482553
1.096164060302876
1.105647028213531
1.113536481919481
1.111645874285263
1.119220192970269
1.123416397891742
1.126389529783614
1.128791881251354
1.120906549496593
1.113436960675727
1.109951962642245
1.079490678404237
1.125823037891207
1.120187713258713
1.110313940836005
0.8046149254486659
1.115050975752478
1.125647190387443
1.111386110475723
0.573404742511794
1.037972235205507
1.125572555676283
1.113024058174587
1.113322206306358
1.121409879208424
0.9542289166435194
0.5177905153339268
1.10880295138136
1.108874643007692
0.8848704047835931
0.5549432743091585
1.106524225318696
1.080246675152389
0.8075060658961264
0.5746167187903749
1.100895844822985
1.033510478861013
0.7627582723358872
0.6140861971786946
0.6624722090523476
0.7509879117799939
0.9748999631927749
1.089464042345722
0.7143565482905628
0.7749391261829395
0.9219158894472573
1.069248534825021
0.7674916881385752
0.8176035997930359
0.9053486093066158
1.037926955450752
0.8151714790888049
0.8746818854049963
0.9234563344273455
1.006076256122981
0.9854194660102303
0.9755972017075715
0.950370455213251
0.8753675328438368
1.009919955773067
1.039761014267009
1.036596027633619
0.9571062994815202
1.038620620582368
1.101927590691934
1.127949758221685
1.064399229459448
1.064422963630885
1.149828095637758
1.21600307012452
1.193060792443664
1.084293464831297
1.191061020649105
1.305726394104216
1.394837738059051
1.109067118339844
1.22150596358436
1.366102852616065
1.585974731114947
1.124974300180544
1.226891859044071
1.411597954420043
1.774902073605367
1.134436761663601
1.212807985171687
1.386970792331943
1.945072530376657
1.717464509773267
1.321799295218459
1.201072859969341
1.140474196296728
1.181726534249845
1.275074195514274
1.188874119826128
1.140461558482271
1.027533227763976
1.25284544617238
1.179569271402569
1.136956387676045
0.8788694073295384
1.215797801863434
1.165456542524199
1.132922898422651
0.8055031057635409
1.162028836019588
1.142392012445486
1.125674910401113
0.7301835041252188
1.092242139926363
1.117139505467967
1.118953262170226
0.6969535402650796
1.041878864759825
1.105959151254404
1.117614319005163
0.6807098178391326
1.033195489929771
1.106960160334916
1.11761470495723
0.6500054762636428
0.9389531670595157
1.069466142803459
1.113028414268946
0.6571852022085048
0.9372247627470074
1.06960550303768
1.112891712244101
0.6852873019944344
0.9362584061534918
1.070401459747915
1.112842284938102
0.7090162054614303
0.9439671611445325
1.07378491332679
1.113118203989821
0.680709817839618
1.03319548993107
1.10696016033891
1.117614704962395
0.6969535402661748
1.041878864763923
1.105959151256241
1.117614319008457
0.7301835041279029
1.092242139929512
1.117139505468908
1.118953262173628
0.8055031057644012
1.162028836024129
1.142392012446066
1.125674910402518
1.140474196294599
1.201072859970498
1.321799295218184
1.717464509772854
1.140461558481827
1.188874119826579
1.275074195514874
1.181726534253363
1.136956387674055
1.179569271402224
1.252845446177898
1.027533227761985
1.13292289841994
1.165456542520757
1.215797801865695
0.8788694073311591
1.94507253038245
1.386970792332818
1.212807985174111
1.134436761663222
1.77490207360605
1.411597954420769
1.226891859045671
1.124974300178899
1.585974731114097
1.366102852614415
1.221505963586314
1.109067118334788
1.394837738057239
1.305726394106246
1.191061020652978
1.084293464826575
0.9854194660081382
0.9755972017044859
0.9503704552111817
0.8753675328441152
1.009919955772679
1.039761014267318
1.036596027631697
0.9571062994811362
1.038620620586197
1.101927590693856
1.127949758220461
1.064399229458721
1.064422963629894
1.149828095640447
1.216003070124017
1.193060792441738
0.8151714790891504
0.8746818854044809
0.9234563344252623
1.006076256115828
0.7674916881394022
0.8176035997935368
0.9053486093058739
1.037926955449211
0.7143565482909059
0.774939126183905
0.9219158894471641
1.06924853482182
0.6624722090532865
0.7509879117792447
0.9748999631885078
1.089464042344565
1.113322206307133
1.121409879208177
0.9542289166451959
0.5177905153354152
1.10880295137594
1.108874643006441
0.8848704047844435
0.5549432743108245
1.10652422531002
1.080246675146439
0.8075060658960754
0.5746167187911704
1.100895844820736
1.033510478862878
0.7627582723372616
0.6140861971793213
1.113024058173832
1.111386110476396
1.110313940832158
1.109951962641661
1.125572555680589
1.125647190390638
1.120187713257004
1.113436960674607
1.03797223521008
1.115050975752785
1.125823037894289
1.120906549497807
0.5734047425140243
0.8046149254517092
1.079490678403502
1.128791881251072
1.109839993314948
1.10780259395741
1.113536481918534
1.126389529782932
1.109985386785723
1.102514900197983
1.10564702821301
1.1234163978912
1.110735972036174
1.098712181693583
1.096164060306603
1.119220192973266
1.111890123139074
1.097061492267158
1.086124924480859
1.11164587428583
1.117316754055631
1.111149066112904
1.065631769115828
1.040053178214444
1.116401049208245
1.105552681219801
1.065219113942866
1.07562426619083
1.115078593056809
1.100432820135371
1.06932636359952
1.089969226703781
1.113440688699056
1.097673181880719
1.077707461640054
1.104393091361872
0.9810536954201501
1.079904123534091
1.115507670446685
1.117859302423098
0.9575137493414129
1.088274711515605
1.116770921947581
1.117968928264703
0.9591352487386782
1.097435569735459
1.117468096858336
1.117995259933472
0.9590694253363643
1.104434109863065
1.117902556892042
1.118010992364349
0.9700775882668657
1.113109272589682
1.118021818288094
1.11801614617932
0.9723378368983562
1.113824385592605
1.118008386375402
1.118016603632449
0.9943410383719711
1.115369384334204
1.118014695907249
1.118016634947369
1.031318718844757
1.116457630296514
1.118016282152567
1.118016636532614
1.118016635923625
1.118016634792657
1.117913278613414
1.101702634494841
1.118016635921967
1.118016632485307
1.11787054137402
1.096269172830094
1.118016635905015
1.118016621508175
1.117737699874866
1.089039376913339
1.118016635822624
1.118016566729194
1.117400367035627
1.069555363528562
1.09002198231027
1.079809433298759
1.058234855886082
1.008456262892236
1.079809433307786
1.064150639233792
1.027796448119106
0.9529334906544948
1.0582348559057
1.027796448133673
0.9622082948379633
0.8591095732102354
1.008456262910974
0.9529334906764422
0.8591095732235881
0.7515453501736725
0.725958160888855
0.7634730382106361
0.8354135416733397
0.9069060449983876
0.7808841268223294
0.7857146918601581
0.8156865933452021
0.8610037534428238
0.7683372198605942
0.8085910785259661
0.8384377991662272
0.8598148962146858
0.8035048459238187
0.8475338780437539
0.8694717108038332
0.8807783351041221
0.8966521373989511
0.9095158775891011
0.9296248245229712
0.9684916012793738
0.8949921717572441
0.910617055680875
0.9352853018204643
0.9903472678015334
0.8839071580314519
0.9081222968638046
0.9365983718083087
1.054092933504457
0.8334670513130993
0.8609972818484251
0.8995071646604881
1.141561390755656
1.149102639279229
1.190190962808078
1.162244734356511
1.155848555114706
1.270484102186572
1.298132307932648
1.245479986407527
1.213594535216604
1.425516407214927
1.363578555818276
1.297061610073841
1.251312173201385
1.160550748465236
1.101035949181704
1.087576855545746
1.089678410515364
1.158621868940832
1.159546122118557
1.157141151320029
1.153222046457808
1.197679288944785
1.182974972642304
1.168753794770357
1.156243687535019
1.223635531946091
1.1984580424239
1.175102520397029
1.153896329571783
1.088934774593847
1.078627575940859
1.068265206065808
1.050980268760003
1.122114505229432
0.8700134288354334
0.5643572132215587
0.3648341692748104
1.090920406830644
0.6976144190485312
0.3661660204713703
0.1741361330538233
1.032836987120386
0.5043403668035024
0.1475441423358179
0.03135554251940299
0.8517608434261674
0.3004646842186163
0.02332793458778518
0.1011544628389334
0.3408977573500061
0.4415094752409555
0.506076443599769
0.5696193574659658
0.2433985933659973
0.399128339087759
0.4925647445417699
0.5666266157406894
0.1101849081570978
0.3087582895870035
0.4557145573653063
0.5501826307304104
0.009858457473787418
0.160977616317752
0.3251027706876442
0.4612703100304215
0.6437896285309452
0.7091233382408264
0.7653463238642964
0.8044259447407022
0.6372069017167072
0.7038025649898003
0.7599631092690297
0.7996776246426979
0.620788754748447
0.6914813816417865
0.7536166215586816
0.797635678403287
0.5749307836053846
0.6673092452041788
0.7485519175673079
0.7963447887688877
0.8505508788234635
0.9213132813866215
1.016683896219166
1.130832210311552
0.8424443594168421
0.907217762127531
0.9950902758141392
1.146748670032664
0.8386707607653987
0.8955821662304693
1.009277152189193
1.465247445789935
0.8366972192008536
0.8901276396620205
1.035239609567561
2.043034407968121
1.358004103000385
1.502747206039179
0.7467048932018187
1.540948335511299
1.440688660922744
1.291888328213502
1.120960555800057
1.900704390879685
1.484630785659158
0.9245273379373418
1.364564721008664
1.930162478781226
1.143592125659359
0.4372431805466477
1.650010359989148
1.864180688929775
1.320056152950324
0.8906984043156286
0.6860904751748848
0.451893799104103
1.399963590409856
0.9917533031808046
0.7130691430566202
0.3512399332419194
1.337997662399102
0.9695901583333039
0.614746483628471
0.2354614383441151
1.27545302098635
0.9266890186770861
0.5551664647228256
0.1790069189849623
0.3129811348104702
0.09001560647524627
0.1519546818125461
0.3539394935647441
0.3575666991333982
0.2740353743220123
0.067430992660692
0.2737594299159855
0.3253535644042601
0.3765514903860439
0.2087352055349771
0.1802093073339158
0.2563800415031337
0.3770712399829706
0.2874954333880602
0.0546021240867531
0.3303612814273721
0.3633325896010699
0.3674663176832766
0.3665578566880214
0.3127525095668675
0.2977564794472589
0.3017590897657794
0.2879432713996357
0.2125423225901161
0.1577257060590741
0.1531302115663337
0.1300879516302515
0.1153294870359104
0.06703533463238608
0.08520925603050097
0.08051859980998852
0.06427396778848374
0.06053968137464224
0.05568906117123201
0.04946471478864913
0.08590704134655615
0.03554233118689113
0.01249124516341183
0.03216506801780687
0.2343477049962766
0.1729370603045172
0.1018706393792859
0.04156911334855935
0.3263223275684891
0.2781478478632959
0.2179032284465068
0.1782805016174095
0.04946471478839997
0.03216506801784246
0.04156911334835855
0.178280501617275
0.05568906117054634
0.0124912451635454
0.1018706393793081
0.2179032284473388
0.06053968137404719
0.03554233118706616
0.1729370603046375
0.278147847863992
0.06427396778806993
0.08590704134682069
0.2343477049964622
0.3263223275685585
0.366557856687003
0.3674663176832242
0.3633325896006145
0.3303612814271401
0.287943271399594
0.3017590897656873
0.2977564794467935
0.3127525095665701
0.1300879516303851
0.1531302115663267
0.1577257060590383
0.2125423225898928
0.08051859981008325
0.08520925603087824
0.06703533463294237
0.1153294870364291
0.05460212408641432
0.2874954333858851
0.3770712399804477
0.2563800415015061
0.1802093073338069
0.2087352055335139
0.3765514903829899
0.3253535644010292
0.2737594299158624
0.06743099265998193
0.2740353743185397
0.3575666991300075
0.3539394935648301
0.1519546818139517
0.09001560647124979
0.3129811348053107
0.4518937990994593
0.6860904751756786
0.8906984043305261
1.320056152938822
0.3512399332390547
0.713069143055336
0.9917533031866097
1.399963590411024
0.2354614383429184
0.6147464836275526
0.9695901583344525
1.337997662400604
0.1790069189851174
0.5551664647227924
0.9266890186773986
1.275453020989321
1.540948335471066
0.7467048931982294
1.502747206035054
1.358004102997339
1.900704390869905
1.120960555808239
1.291888328212373
1.440688660921984
1.930162478786931
1.364564721015421
0.924527337935802
1.484630785657268
1.864180688932662
1.650010359998002
0.4372431805472217
1.143592125660578
1.1308322103104
1.01668389621882
0.9213132813871848
0.8505508788238879
1.146748670032465
0.9950902758130569
0.9072177621270706
0.8424443594176605
1.46524744578944
1.009277152189005
0.8955821662295261
0.8386707607654623
2.04303440796499
1.035239609566999
0.8901276396606146
0.8366972192014622
0.8044259447419415
0.7653463238656795
0.7091233382405119
0.6437896285312351
0.7996776246438265
0.7599631092688542
0.7038025649909005
0.6372069017167791
0.7976356784027381
0.7536166215594111
0.6914813816420936
0.6207887547487529
0.7963447887694218
0.7485519175674923
0.6673092452042798
0.5749307836045228
0.5696193574666358
0.5060764436016173
0.4415094752409464
0.3408977573506317
0.5666266157409782
0.4925647445437202
0.3991283390884716
0.2433985933668575
0.5501826307307452
0.4557145573661802
0.3087582895877589
0.1101849081578819
0.461270310029686
0.3251027706867837
0.1609776163180045
0.009858457474005678
0.3648341692757948
0.5643572132240997
0.870013428836215
1.122114505227234
0.1741361330546962
0.3661660204738237
0.6976144190510136
1.090920406828703
0.03135554251880671
0.1475441423374374
0.5043403668060481
1.032836987118231
0.1011544628387743
0.02332793458789321
0.3004646842194427
0.8517608434230493
1.153222046456686
1.157141151323839
1.159546122124694
1.158621868945578
1.156243687533002
1.168753794771297
1.182974972647353
1.197679288948267
1.153896329569333
1.175102520397026
1.198458042428654
1.223635531949945
1.05098026875573
1.068265206067024
1.078627575943821
1.088934774597453
1.15584855511957
1.162244734363449
1.19019096280685
1.149102639278225
1.213594535222837
1.245479986414453
1.298132307931518
1.270484102186153
1.251312173207973
1.297061610080768
1.363578555816645
1.425516407215483
1.089678410516006
1.08757685555129
1.101035949180731
1.160550748467671
0.9684916012794315
0.9296248245227866
0.9095158775861033
0.8966521373967407
0.9903472678017805
0.9352853018171458
0.9106170556774753
0.8949921717537488
1.054092933504982
0.9365983718077369
0.9081222968602218
0.8839071580263549
1.141561390754888
0.8995071646580751
0.8609972818451715
0.8334670513090723
0.8807783351023607
0.8598148962117469
0.8610037534398272
0.9069060449865931
0.8694717108019111
0.8384377991615571
0.8156865933399701
0.8354135416604056
0.8475338780376713
0.8085910785186844
0.7857146918525052
0.7634730382013181
0.8035048459196529
0.768337219853558
0.7808841268147267
0.7259581608854141
0.623286328795687
1.002705695000587
1.09902071795346
1.116673362520133
0.6574128639658046
0.9785219691245381
1.091855377238507
1.11585072119592
0.6902745243963413
0.9705200316775608
1.08581956592796
1.114840434713644
0.7062611462048982
0.9574433260175398
1.079433156524086
1.113852905259319
1.113028414266776
1.069466142803138
0.9389531670583842
0.6500054762615702
1.112891712244571
1.06960550303777
0.9372247627459751
0.6571852022094394
1.112842284938643
1.070401459748533
0.9362584061525655
0.6852873019947572
1.113118203991089
1.073784913328867
0.9439671611438146
0.7090162054604534
1.113852905259792
1.114840434711094
1.115850721196659
1.116673362524387
1.079433156527868
1.085819565929698
1.091855377241484
1.099020717956804
0.9574433260182119
0.9705200316789168
0.9785219691253019
1.00270569500042
0.706261146204637
0.6902745243966045
0.6574128639656632
0.6232863287955098
)
;

boundaryField
{
    back
    {
        type            empty;
    }
    inlet
    {
        type            calculated;
        value           nonuniform List<scalar> 
16
(
1.118016635923817
1.118016635923327
1.118016635921991
1.118016635900154
1.118016636034887
1.118016635839496
1.118016624558386
1.118016452908622
1.118016452907765
1.118016624557791
1.118016635839877
1.118016636034292
1.118016635923624
1.118016635923231
1.118016635921705
1.118016635899328
)
;
    }
    front
    {
        type            empty;
    }
    top
    {
        type            calculated;
        value           uniform 0;
    }
    outlet
    {
        type            calculated;
        value           nonuniform List<scalar> 
16
(
1.111558909256061
1.11142220863066
1.111388632801616
1.111763759351381
1.116097282002879
1.115120075512026
1.113890255505112
1.112672826152321
1.111558909253477
1.111422208630711
1.111388632802179
1.111763759352754
1.11267282615266
1.113890255502407
1.115120075513123
1.116097282007308
)
;
    }
    bottom
    {
        type            calculated;
        value           uniform 0;
    }
    wall
    {
        type            calculated;
        value           uniform 0;
    }
}


// ************************************************************************* //
