/*--------------------------------*- C++ -*----------------------------------*\
  =========                 |
  \\      /  F ield         | OpenFOAM: The Open Source CFD Toolbox
   \\    /   O peration     | Website:  https://openfoam.org
    \\  /    A nd           | Version:  11
     \\/     M anipulation  |
\*---------------------------------------------------------------------------*/
FoamFile
{
    format      ascii;
    class       volScalarField;
    location    "0.3592351";
    object      p;
}
// * * * * * * * * * * * * * * * * * * * * * * * * * * * * * * * * * * * * * //

dimensions      [0 2 -2 0 0 0 0];

internalField   nonuniform List<scalar> 
880
(
80.0000000000004
80.00000016385775
80.01345655233392
81.8803393602214
80.00000000017729
80.0000004813165
80.01669037966919
82.76388648686324
80.00000000090172
80.00000187777135
80.03089483892781
83.82257547003789
80.0000000120275
80.00000824566727
80.06380917169822
85.40754077270709
79.9999999446778
80.00000002780087
80.00000611597612
80.0000943554829
80.00003799609972
80.00014606239247
80.00091099664203
80.00134649012162
80.14459774522444
80.23457318339281
80.38548727227418
80.53778538894026
88.34435704964949
91.3955867863158
94.00064939516555
95.23496338993345
80.0002334353602
80.00190270279873
80.00718961968201
80.022280864019
80.01262416018794
80.05407582288699
80.10847671878851
80.22875561633651
81.2704943353485
81.90766208074267
82.71481455942883
83.7651176307313
96.38506434226738
97.95087267872292
98.27348067672311
97.50849026095146
90.9866525367682
87.50957058744956
85.83751721382809
84.74259133345359
85.69173824854415
86.37140718141093
86.7739613810554
86.80858622994241
80.63879717476541
81.1235365336528
81.63899857313324
82.02322974107763
80.07908800163644
80.19128727354199
80.36115789870782
80.59965661185048
80.87775266996742
81.15708260948517
81.433618099135
81.64004154331188
82.31285207729643
82.48080761222329
82.56760349787464
82.57334470032083
86.44905967029618
85.94967821103289
85.29454884616197
84.61630403372837
83.58709994852299
82.89855097978983
82.50699130058324
82.07914378016835
82.083448480283
84.14366104733602
82.52050082271546
81.76636246367258
87.74219737056822
83.86378022361725
82.36950053149691
81.74665313941927
120.556743507112
85.26202252802321
82.18750569942418
81.49455651104365
158.3473989926344
93.05751871241318
82.67017846490381
81.40186018684517
81.37293448187765
83.39320363873446
102.771236836889
175.0764706040731
80.87268504822742
84.75154810782912
113.7340422017499
174.2793751449315
81.08509920513249
87.90143218823879
128.3723511791791
176.1372808132469
81.891351624997
93.58543206173768
142.2706967436873
173.4128342721272
167.7074995260115
149.9506453194336
102.2395958411934
83.66775429617685
160.7384512582829
151.1909417524991
111.8296513916263
86.84015747325991
153.3432134386108
148.9209236072291
120.1254281986242
91.94262234358547
145.6347239314733
138.9088059904529
121.4586737985639
98.31224061974322
103.9487447373213
117.3638463149121
126.5676525467257
136.6078118340479
103.137477001904
109.2148127706719
113.4276163120932
123.6649312617664
100.8366004057643
101.4842532098281
100.6813481810976
107.3274205097728
97.84646954045107
95.22407891466337
89.17513931422778
88.30752755322392
95.46828561542759
89.32755356611293
78.7237589257964
66.39565606456375
91.68564068065643
83.96082444725486
69.93168828199596
43.06378141758668
88.80541254103743
81.54220877705879
63.23963932845412
26.39392723650887
86.35645783958159
80.46176825859534
58.99112948245568
14.84809291265687
15.60578542650882
60.56919206165699
79.58678770085447
84.17247567933735
24.76325840325763
61.36500944015109
78.99418646239613
82.7050883579943
27.33971244330358
61.04523700890946
78.13600299022295
81.71382199056691
25.83949448492106
60.43858783749131
77.52980576935843
81.17534966009644
31.2691013693925
63.06655722015979
77.20209977862578
80.23974804532963
36.9581693843949
65.60888137979934
77.11657438439161
79.68640184320373
43.59639376751615
68.84971546124724
77.31449366727571
79.6658558547519
51.42002637790505
71.09838768619555
77.69929139366879
79.73914844305284
53.28210844596729
58.94016643115745
73.28919686373804
79.2609370189885
51.93648244681574
60.14529734169179
73.5143181351051
79.25271488465717
49.49653668080472
61.86261041925057
74.01488409565623
79.25461318929457
47.1745585168585
63.82102736795487
74.73205920009019
79.313125877385
51.42002637789977
71.09838768612755
77.69929139368391
79.73914844272919
43.59639376754649
68.84971546094455
77.31449366716801
79.66585585430019
36.95816938439489
65.6088813795751
77.11657438398974
79.68640184267265
31.26910136944881
63.06655721992718
77.20209977853726
80.23974804500766
84.17247567956755
79.58678770090147
60.56919206164717
15.60578542623697
82.7050883579695
78.99418646235956
61.36500944009677
24.76325840300252
81.71382199059815
78.13600299026558
61.04523700847715
27.33971244323683
81.17534966010921
77.52980576960658
60.43858783737664
25.83949448492308
14.84809291266347
58.99112948235653
80.46176825854411
86.35645783966135
26.39392723639442
63.23963932850138
81.5422087771485
88.80541254109671
43.06378141752526
69.93168828218816
83.96082444727112
91.68564068089783
66.39565606464947
78.72375892560677
89.32755356578954
95.46828561559293
103.948744737509
117.3638463155726
126.5676525472198
136.6078118339924
103.1374770017944
109.2148127705296
113.4276163123012
123.6649312618502
100.8366004052736
101.4842532096926
100.6813481810593
107.3274205098317
97.84646954032834
95.22407891447308
89.17513931413721
88.30752755338428
145.6347239314763
138.9088059906636
121.4586737989529
98.31224062057896
153.3432134385583
148.9209236073551
120.1254281987946
91.94262234370055
160.7384512583163
151.1909417524648
111.82965139149
86.84015747351008
167.7074995257344
149.9506453197656
102.2395958415577
83.66775429622002
81.37293448182038
83.39320363878412
102.7712368367773
175.0764706038078
80.87268504871604
84.75154810800169
113.7340422017471
174.2793751445497
81.08509920588978
87.9014321888949
128.3723511792612
176.1372808131296
81.89135162511556
93.58543206161356
142.2706967438228
173.4128342718893
81.40186018685766
81.49455651097972
81.7466531397795
81.76636246373529
82.67017846450479
82.18750569917728
82.36950053155448
82.52050082269088
93.05751871196797
85.26202252805923
83.86378022332026
84.14366104722482
158.3473989921698
120.5567435067337
87.74219737063896
82.08344848029067
81.64004154357569
82.57334470041788
84.61630403390089
82.07914378035569
81.43361809885863
82.56760349810006
85.29454884636601
82.50699130069593
81.15708260947271
82.48080761225478
85.94967821092806
82.89855097943551
80.87775266970262
82.31285207710272
86.44905967062931
83.58709994859102
80.07908800150541
80.63879717452286
85.69173824879933
90.98665253702583
80.1912872732437
81.12353653324226
86.37140718170994
87.50957058740582
80.36115789900035
81.63899857275781
86.7739613810721
85.83751721333478
80.59965661162292
82.0232297409556
86.80858623028935
84.7425913331889
97.50849026086476
83.765117630798
80.22875561615142
80.02228086440627
98.27348067668729
82.71481455951564
80.10847671866613
80.00718961964984
97.95087267882639
81.90766208063788
80.05407582217252
80.00190270252061
96.38506434221081
81.27049433513605
80.01262415994701
80.00023343574185
95.23496338980493
80.53778538900865
80.00134649018698
80.00009435593991
94.0006493947231
80.38548727226717
80.00091099637875
80.00000611627051
91.39558678590491
80.23457318334953
80.00014606215207
80.0000000276608
88.3443570492996
80.14459774511226
80.0000379960387
79.99999994537085
80.00000000002807
80.00000016396199
80.01345655233843
81.88033936008878
80.00000000026193
80.00000048100623
80.01669037960589
82.76388648689237
80.00000000110963
80.00000187755403
80.03089483899763
83.82257547030598
80.00000001233936
80.0000082455911
80.06380917174855
85.40754077282232
83.52397558756144
85.09526010789187
87.64366337178714
92.78680084098637
85.09526010818331
87.1505810006918
90.99714638689576
98.69100192839058
87.64366337190688
90.99714638691465
97.31190761157043
106.8207670134446
92.78680084104506
98.69100192821985
106.8207670137247
117.1819303490361
127.9923752817802
119.0251433657572
115.1012981431836
106.8655327036577
126.2796570599577
123.6455995254776
123.6040213731452
119.5300677839818
126.3198024904913
125.4943026530018
125.0506405237498
123.6400967143072
123.73733156573
123.3302473991352
123.2434447055585
122.3928481818037
119.6767714541614
117.8559321140899
114.2518085272997
109.3401077221077
119.9428911458546
118.0397961817131
114.3867895225266
109.805089887715
120.2785776718168
118.2215668806516
114.3689865272665
110.2399003077885
120.4533578280366
118.1133035167888
114.5207652657046
108.5601449300842
82.83050793345058
71.90504594926225
70.60493299141503
70.98549520203134
75.82087370125589
69.03044241649059
69.65708204599325
70.38174143490728
69.99731701843847
68.89584825353515
70.22945164242803
70.92989940103841
60.73660946335554
66.59797685109166
69.23782950496353
70.19844206833974
70.93009193085855
71.29237624950662
72.10775016168472
73.05117329745384
70.472777235815
70.85097138624944
71.735560293711
72.92905591893873
70.90452290033737
71.13424954112386
71.87254137185458
72.80678847488585
70.29693379408671
70.61811133142926
71.55371205586783
72.84659102655809
78.67351562721403
114.0346073455148
165.0701641559961
181.4274403914954
81.36326648033717
121.5212925683095
162.5389751293762
173.2945069078942
83.49431202448163
125.2960590851763
161.3136647041592
171.9957555844297
84.86347131439879
130.7120255361731
161.6590329864264
171.972797247111
218.1626621036781
209.3377008871153
201.7908766195253
190.5377615356568
219.3305798597655
212.1167294281952
203.9478551966159
192.3782938607081
218.3263997092628
213.6473843234419
205.0482828048792
193.498958372441
213.2096153396976
215.5723049489076
206.9711526486647
195.2369603516539
178.1486785600134
167.8958400160287
158.2747325832482
153.3866585738253
180.1470589775534
169.2804087276459
158.964892980094
153.7599948487829
181.2955471254049
169.4894498317298
159.5126783370399
153.7252938973148
183.7018606352934
170.9145413949313
161.1740554985328
154.8235232697056
148.5697465393346
140.6581779169767
126.774181128557
105.8850766326578
149.2635400982954
142.1818484405979
128.8939497671499
114.3600029727656
149.2078855290554
142.6097166143747
130.6897740457889
119.6674809713042
150.3700399894364
144.9548554185838
134.0436677639417
134.58346223296
64.62303867649324
16.5490086508041
2.690620771453353
1.28361571721359
49.95164592475168
10.39447653996863
2.242197118605437
1.464418781652782
34.7386880774777
6.571959442131877
1.963437867623119
1.620819482908099
19.55113860987463
3.061009961389685
1.72620725019365
1.813277866853423
1.929257168516235
4.153559020417239
6.78578670103699
10.6716162283345
2.736372773372918
5.087925361046227
7.800740725593672
11.94484884198031
3.199583271110716
5.473015197255813
8.6460231685405
12.64696774354639
3.753888221307527
6.199497302632735
10.09296522936808
13.79309876823481
12.517268314007
18.94030622822012
26.03305613733938
34.74108684943394
12.12982702524248
17.8773471777967
24.72002859129807
33.23101929098171
12.44053587887261
16.35111012217019
22.87554442654877
32.23959848229479
11.69549675352658
14.4608142793596
19.06073329003922
30.28221425869256
35.03391368195621
33.2077724342986
32.54791097016052
33.17743000013726
31.86525225197275
31.7864712653965
32.24761227250152
32.35376816908152
31.01255840013913
32.65718720006596
32.98672553497396
33.02248527694529
29.23679794247748
31.45588020526034
31.7760991328146
32.50252001484181
32.92046577466503
33.23141365288285
33.49142697267443
33.61798350651583
32.97863388693879
32.9362408666053
32.84476568609221
32.95096842089908
32.92856031303404
33.39768680666708
33.83633190419937
34.09498140779167
34.75146006785872
35.80220155201633
36.54013156094879
36.5422278195214
33.61798350651772
32.95096842087958
34.09498140781632
36.54222781952591
33.49142697270167
32.84476568609378
33.83633190421065
36.5401315609526
33.23141365285933
32.93624086661717
33.39768680669818
35.80220155205338
32.92046577471589
32.97863388692128
32.92856031304404
34.75146006790597
33.17743000022582
32.54791097017392
33.20777243435617
35.03391368198753
32.35376816910669
32.24761227254969
31.78647126545528
31.86525225200991
33.02248527697908
32.98672553503671
32.65718720011876
31.01255840019606
32.50252001484932
31.77609913284343
31.4558802052933
29.23679794252827
30.28221425878801
19.06073329016037
14.46081427946072
11.6954967536123
32.23959848237263
22.87554442663964
16.35111012227696
12.44053587898235
33.23101929105979
24.72002859141332
17.87734717791022
12.12982702533978
34.74108684949652
26.03305613745001
18.94030622831013
12.51726831414486
10.67161622839304
6.785786701063489
4.153559020378511
1.929257168543164
11.94484884203769
7.800740725638788
5.087925361034803
2.736372773374451
12.64696774360977
8.646023168599378
5.473015197255963
3.199583271106307
13.79309876829634
10.09296522942344
6.199497302646405
3.753888221301227
1.283615717250674
2.690620771415824
16.54900865070128
64.62303867657596
1.464418781666954
2.242197118592889
10.39447653992232
49.95164592468474
1.620819482907315
1.963437867613259
6.571959442120416
34.73868807748532
1.813277866850812
1.726207250183552
3.061009961390016
19.55113860985391
105.8850766327167
126.7741811284775
140.6581779167683
148.5697465392539
114.360002972696
128.8939497670812
142.1818484405007
149.2635400981183
119.6674809711816
130.6897740456037
142.6097166142998
149.2078855290042
134.5834622329766
134.0436677638147
144.9548554186029
150.3700399892888
153.3866585737482
158.2747325829474
167.8958400157614
178.1486785594999
153.7599948486837
158.9648929800187
169.2804087268155
180.1470589769256
153.7252938974478
159.5126783367015
169.4894498309516
181.2955471248154
154.8235232696495
161.1740554983358
170.9145413945144
183.7018606349093
190.5377615352975
201.7908766191489
209.3377008868391
218.1626621037099
192.3782938604609
203.9478551964049
212.1167294277956
219.3305798598002
193.4989583722679
205.0482828045701
213.6473843231533
218.3263997092464
195.2369603515691
206.9711526484925
215.572304948452
213.2096153398974
181.4274403914979
165.0701641557373
114.0346073455775
78.67351562749643
173.2945069078088
162.5389751292023
121.5212925683489
81.36326648063526
171.9957555843393
161.3136647040123
125.2960590851656
83.49431202479468
171.9727972468294
161.6590329862833
130.7120255361596
84.86347131472206
73.05117329767535
72.10775016143252
71.29237624899221
70.93009193050845
72.92905591919411
71.73556029360169
70.85097138572314
70.47277723559363
72.80678847516489
71.87254137168169
71.13424954061787
70.90452290011571
72.84659102683236
71.55371205564025
70.61811133090454
70.2969337937583
70.98549520158826
70.60493299107159
71.90504594938876
82.8305079335877
70.38174143447802
69.65708204557636
69.03044241671004
75.82087370134283
70.92989940061035
70.22945164199534
68.89584825379006
69.99731701848806
70.19844206790548
69.23782950444961
66.59797685133267
60.7366094634353
109.3401077221425
114.2518085273205
117.8559321143797
119.6767714540415
109.8050898876838
114.3867895227956
118.0397961819556
119.9428911456609
110.2399003077991
114.3689865272523
118.2215668806896
120.2785776716637
108.5601449300447
114.5207652659409
118.1133035171097
120.4533578278769
122.3928481812048
123.6400967134597
119.5300677830658
106.865532703627
123.2434447047423
125.050640522729
123.6040213717714
115.1012981427406
123.3302473985058
125.494302651911
123.6455995239385
119.0251433647149
123.7373315649693
126.3198024895721
126.2796570580442
127.9923752796215
54.09199960273921
71.27156166814152
77.56393064968731
79.75944589359634
50.81868627536245
69.89471078775067
76.93571682900014
79.66604286293381
48.2221206075094
68.23889343680324
76.32179340967218
79.54990498906487
46.39903172717318
65.93404095462114
75.50441757101123
79.42097273108295
79.26093701891418
73.28919686373879
58.94016643117074
53.28210844601779
79.25271488451773
73.5143181351182
60.14529734172238
51.93648244684463
79.25461318927076
74.01488409576598
61.86261041923497
49.49653668085895
79.31312587734564
74.73205920005623
63.82102736795431
47.17455851690324
79.42097273094862
79.54990498895496
79.66604286287696
79.75944589336368
75.50441757076143
76.32179340955908
76.93571682873885
77.56393064959437
65.93404095464865
68.23889343683008
69.8947107878913
71.27156166830119
46.39903172714769
48.22212060745227
50.81868627535952
54.09199960276396
)
;

boundaryField
{
    back
    {
        type            empty;
    }
    inlet
    {
        type            zeroGradient;
    }
    front
    {
        type            empty;
    }
    top
    {
        type            zeroGradient;
    }
    outlet
    {
        type            fixedValue;
        value           uniform 80;
    }
    bottom
    {
        type            zeroGradient;
    }
    wall
    {
        type            zeroGradient;
    }
}


// ************************************************************************* //
