/*--------------------------------*- C++ -*----------------------------------*\
  =========                 |
  \\      /  F ield         | OpenFOAM: The Open Source CFD Toolbox
   \\    /   O peration     | Website:  https://openfoam.org
    \\  /    A nd           | Version:  11
     \\/     M anipulation  |
\*---------------------------------------------------------------------------*/
FoamFile
{
    format      ascii;
    class       volScalarField;
    location    "4.225";
    object      p;
}
// * * * * * * * * * * * * * * * * * * * * * * * * * * * * * * * * * * * * * //

dimensions      [0 2 -2 0 0 0 0];

internalField   nonuniform List<scalar> 
4455
(
6081.8792
6089.6702
6105.5116
6132.4358
6171.8161
6224.0734
6297.2381
6393.4986
6559.5462
6142.0168
6144.4671
6156.5557
6180.7477
6220.5434
6277.0589
6356.7448
6464.8461
6637.3058
6195.5569
6194.2906
6202.8493
6225.2655
6265.4066
6324.2147
6405.0759
6519.1452
6679.8398
6242.1297
6238.3571
6244.1115
6265.6184
6306.6486
6368.3627
6453.8924
6577.6104
6748.7245
6281.679
6276.1215
6280.5845
6301.6033
6344.2487
6409.8591
6502.2818
6638.8854
6814.1547
6314.0843
6308.2815
6312.0591
6333.2485
6377.8295
6447.6642
6548.8729
6700.2524
6883.1462
6339.9885
6334.9066
6338.8227
6360.3373
6406.7588
6481.3051
6591.7485
6762.3032
6958.0026
6360.1815
6356.4295
6360.8128
6382.7411
6431.1233
6511.1885
6629.0707
6826.2501
7039.5036
6375.2778
6373.2192
6378.5065
6401.0214
6450.8818
6537.3236
6659.7127
6892.4636
7132.6418
6386.1303
6393.611
6398.4877
6401.5199
6403.1624
6403.8115
6403.8922
6403.8238
6403.9534
6385.9887
6395.0116
6400.8562
6404.2143
6405.9044
6406.362
6405.7993
6404.2982
6401.8104
6392.2507
6402.1871
6408.7055
6412.4319
6413.9125
6413.8539
6412.8116
6411.516
6410.805
6416.3634
6427.6975
6435.1616
6439.5659
6441.276
6440.5981
6437.6559
6433.2851
6427.6125
6467.0423
6479.6351
6488.7377
6494.4479
6497.2389
6497.0372
6494.8333
6490.8643
6485.3355
6561.3428
6580.6495
6595.0195
6603.9147
6606.9559
6605.0455
6599.0063
6589.9427
6580.0134
6689.154
6717.8021
6744.707
6767.3007
6782.6726
6790.0827
6789.4549
6782.9122
6772.6019
6971.9361
7049.3397
7106.1754
7144.3616
7162.1763
7163.8528
7153.5346
7135.0976
7111.893
7278.9833
7503.5166
7672.0678
7715.6248
7698.3107
7657.338
7598.1221
7525.6647
7444.4199
6404.2658
6403.8102
6403.0042
6402.124
6401.1945
6400.0265
6398.6701
6396.7707
6394.2037
6399.5876
6398.5947
6398.0638
6397.4609
6396.4965
6395.0177
6392.9964
6390.2208
6386.4215
6410.472
6411.3411
6412.2175
6412.9156
6412.8239
6411.9149
6410.0351
6407.27
6404.2686
6422.8297
6422.7338
6425.2262
6428.6101
6431.7773
6433.7333
6434.0801
6432.9116
6430.6459
6481.0817
6485.3258
6492.4423
6499.4566
6505.2063
6508.9058
6510.2816
6509.7276
6507.745
6573.1759
6578.6401
6589.5963
6600.2136
6607.6922
6611.9359
6612.9537
6611.4716
6608.1463
6763.1876
6768.0797
6778.5866
6787.5539
6791.9702
6791.2016
6786.5833
6779.0219
6768.3746
7090.217
7074.943
7061.3108
7044.1638
7021.1228
6992.4283
6959.6666
6924.1121
6889.2912
7373.3084
7311.0675
7244.6883
7173.0233
7102.0156
7033.47
6967.8141
6908.609
6859.1159
6828.0855
6800.2322
6789.1115
6804.644
6845.7302
6905.674
6977.9104
7055.9606
7137.1635
6860.5167
6838.1769
6821.1013
6810.3841
6805.9194
6806.8177
6811.5786
6821.3756
6838.2999
6757.5461
6749.4756
6742.612
6736.1904
6729.6742
6722.4182
6715.7936
6712.3284
6711.0672
6603.4039
6598.2752
6592.7645
6586.955
6580.7542
6573.9148
6566.4364
6557.9459
6548.3137
6504.7464
6501.2215
6496.7885
6491.1738
6484.0773
6475.2293
6464.1727
6451.8356
6438.2945
6427.2874
6422.6696
6416.8504
6410.1279
6402.3609
6392.9543
6381.4796
6369.2088
6354.5442
6399.9763
6394.2154
6387.4712
6379.7568
6370.3004
6358.797
6346.0239
6331.3063
6315.1576
6381.5697
6375.8539
6369.0372
6360.8225
6351.1242
6339.3744
6326.1068
6311.6422
6293.9028
6390.9759
6386.4585
6380.9687
6374.3256
6366.4047
6356.878
6345.4201
6332.7556
6318.5381
6302.4992
6283.3332
6261.5124
6236.5203
6208.1203
6176.572
6141.9073
6103.7162
6061.2421
6274.2017
6252.3384
6227.695
6200.5304
6170.16
6137.2362
6100.737
6060.666
6016.172
6296.9482
6277.1258
6254.7297
6230.0406
6202.5443
6172.3905
6138.5031
6102.3303
6063.2679
6337.2205
6317.6563
6296.2891
6272.3391
6246.9539
6219.456
6187.1014
6153.3288
6116.2558
6423.4267
6407.3582
6390.3241
6372.1693
6352.0886
6329.7981
6305.3499
6278.3498
6248.6611
6537.9598
6526.953
6515.8742
6504.2684
6491.7475
6477.6287
6461.8926
6443.7347
6422.8249
6710.8628
6711.8715
6714.0041
6717.0462
6721.3184
6725.9326
6729.5691
6731.2937
6731.1821
6860.9423
6887.3611
6917.6488
6950.3792
6983.5189
7017.3112
7046.589
7072.7816
7091.3367
7221.9635
7309.8818
7398.717
7490.2679
7580.1387
7664.0775
7753.0623
7826.4227
7878.4056
7896.0159
7089.7848
6728.0779
6398.3635
6215.508
6073.2115
6019.2647
5968.2104
6014.1253
7876.2445
7081.307
6720.2778
6370.0372
6179.32
6026.7981
5971.9116
5916.287
5962.0947
7887.9467
7077.4278
6707.0001
6337.5585
6138.9073
5977.2062
5920.9996
5860.1686
5905.1016
7938.7743
7085.2675
6689.8379
6299.5543
6093.8125
5921.1621
5865.1759
5798.7845
5842.5015
8013.1871
7103.2443
6669.4794
6255.4535
6044.5537
5860.2226
5804.5889
5732.6369
5774.2255
8097.4014
7123.559
6646.9256
6205.2962
5989.0569
5794.508
5737.9537
5661.1258
5700.2455
8173.6934
7137.7904
6619.4952
6148.2311
5925.9593
5719.0724
5666.0234
5584.6143
5620.6034
8243.8928
7143.431
6584.593
6083.5346
5856.789
5640.9871
5589.6372
5502.3518
5535.4139
8325.5111
7143.9873
6538.9683
6009.3441
5780.4954
5555.3578
5505.0503
5415.1022
5446.193
5357.0313
5321.7261
5412.0071
5458.7095
5691.0559
5922.3128
6477.2345
7135.4054
8467.975
5270.1382
5222.9752
5310.1574
5356.878
5585.1421
5816.0382
6380.9586
7063.6533
8448.9685
5165.7195
5116.8672
5198.6943
5244.3428
5465.7536
5688.37
6249.5726
6932.4728
8281.9788
5040.4268
5003.7461
5079.2195
5119.5665
5333.238
5541.8818
6090.3002
6766.7922
8077.3476
4899.7711
4882.026
4951.3083
4986.6216
5187.0308
5380.3402
5909.8967
6579.8652
7845.2674
4755.0449
4753.4422
4814.4273
4847.6139
5029.5874
5207.4651
5712.9447
6372.5589
7604.7676
4606.2295
4616.751
4672.6215
4700.1589
4863.1673
5023.2894
5500.5386
6144.6058
7350.4421
4453.9779
4475.1029
4524.5374
4545.1753
4688.8854
4829.2506
5272.8977
5890.979
7075.5236
4293.6335
4328.0127
4368.2744
4385.5964
4506.5826
4624.2183
5030.2723
5619.3623
6800.084
6505.2817
5324.8901
4773.3153
4410.7629
4318.3998
4221.1914
4209.9631
4177.1277
4127.8341
6205.6288
5013.9786
4506.0691
4188.6028
4125.5739
4051.8276
4047.2252
4021.4597
3955.8613
5895.4128
4684.215
4226.8888
3960.4385
3930.4205
3880.2386
3878.3452
3864.1097
3780.23
5572.7436
4335.8825
3936.1845
3728.2027
3734.2849
3708.1494
3711.7025
3703.773
3600.4203
5232.2775
3967.0643
3639.8579
3495.532
3538.8967
3535.8025
3541.1943
3540.4576
3419.8788
4876.7653
3581.7195
3340.8577
3267.5051
3345.9895
3365.3611
3370.5254
3376.7156
3235.9718
4490.2886
3178.5429
3041.2507
3042.3105
3157.1951
3197.6413
3205.1875
3212.8905
3052.2718
4077.3618
2760.3957
2745.4948
2829.7358
2978.8234
3036.6031
3036.4863
3046.6873
2866.4507
3628.5644
2329.0642
2465.5689
2634.3493
2809.4022
2878.2766
2877.3434
2882.7469
2684.9704
2513.2439
2716.8063
2722.2265
2725.1477
2646.178
2447.746
2190.1782
1863.7705
3096.5708
2346.1029
2550.5418
2559.9022
2574.7813
2496.5743
2279.8342
1940.0488
1369.2703
2413.0875
2162.0715
2384.1012
2401.115
2432.0339
2361.6467
2142.6598
1742.5745
911.73233
1619.6651
1974.0902
2217.3263
2250.3765
2296.3636
2239.1101
2033.5705
1613.0639
531.48984
672.58109
1785.2699
2048.1101
2100.7603
2162.0765
2125.702
1948.52
1555.848
284.43317
-450.36679
1602.2208
1876.7418
1946.2961
2029.2728
2017.6987
1880.5936
1572.8242
205.95877
-1740.4913
1418.9304
1702.9741
1794.2651
1900.8417
1916.6642
1819.042
1639.2821
342.11756
-3132.8406
1242.642
1527.7459
1644.2035
1772.9968
1817.468
1754.7297
1733.7751
756.259
-4283.7553
1008.3907
1351.3121
1491.4076
1641.4249
1717.2834
1673.701
1793.8047
1476.2992
-4962.0697
770.61642
1175.7186
1328.1573
1509.4948
1604.3334
1559.2417
1750.2257
2171.7379
-5525.282
563.90295
1005.2262
1164.3042
1377.9784
1474.8083
1444.9277
1703.7023
2000.2261
-6870.9035
390.95132
837.07476
1004.0933
1248.0559
1349.2493
1340.886
1677.0025
1563.9501
-8726.6349
232.08115
670.09426
852.07902
1125.4947
1236.9187
1264.3163
1682.8957
1047.668
-8605.296
75.526374
503.18723
696.57123
1001.0163
1139.9532
1205.5787
1701.1285
322.08231
-6659.6012
-77.435515
336.08032
538.90345
871.51986
1052.4686
1139.6474
1730.4715
-367.86292
-6513.4446
-222.78335
167.11767
376.28361
731.63248
968.77068
1088.0975
1737.7637
-1051.9967
-7353.7529
-360.54763
-0.24433907
208.71553
578.50043
878.50607
1047.475
1713.5251
-1479.8059
-7780.4563
-486.62436
-163.56236
37.912019
413.26167
782.9534
1018.3216
1704.5903
-1626.0666
-7719.3235
-7688.1701
-1642.8565
1732.9533
999.13011
685.17076
241.49114
-128.58727
-320.28526
-598.1856
-7548.2747
-1702.6478
1763.6688
981.29742
581.42946
66.520673
-286.44785
-469.46828
-689.86761
-7439.942
-1795.3015
1766.7308
952.95146
465.15722
-119.43048
-439.61894
-613.44076
-757.15676
-7279.8476
-1849.2331
1762.491
920.12862
336.7207
-312.16834
-588.95298
-749.16174
-806.4825
-6996.1454
-1934.3358
1707.1219
884.86978
188.99109
-512.09572
-733.61873
-872.47789
-854.35227
-6798.6052
-2084.0228
1604.1476
838.81254
22.924907
-718.66887
-874.39025
-982.43592
-882.18926
-6544.6988
-2243.1735
1424.5851
810.37633
-157.12525
-926.25917
-1007.8342
-1076.7481
-894.34746
-6440.7355
-2339.7144
1235.509
804.36388
-351.40877
-1132.2378
-1132.1691
-1154.0509
-888.25556
-6274.529
-2563.9149
1019.7243
764.41409
-577.83756
-1336.0735
-1246.7706
-1213.8676
-856.08884
-6168.2066
-2710.1704
795.92629
637.45613
-969.56613
-1666.1036
-1421.2784
-1281.163
-767.60782
-6230.1532
-2396.9378
739.16192
297.89863
-1662.9281
-2065.3113
-1584.8135
-1271.2528
-609.675
-6200.4621
-2255.852
480.58975
-103.26019
-2388.6342
-2412.9999
-1671.7904
-1170.6161
-425.02114
-6358.4596
-2157.1834
234.913
-551.20939
-3118.0079
-2637.9825
-1663.3749
-968.15267
-226.67631
-6542.6793
-2130.533
-63.806117
-1011.057
-3809.5187
-2727.4772
-1542.3388
-716.27776
-30.591029
-6754.6987
-2057.6728
-356.23354
-1529.1834
-4439.6654
-2680.9833
-1330.3074
-455.6328
125.83871
-6901.2391
-2161.2949
-628.78143
-2108.0273
-4982.1184
-2485.7062
-1091.5631
-204.51212
245.54457
-6970.1859
-2227.2534
-759.81496
-2958.4842
-5426.4171
-2144.6033
-834.15681
7.2769833
275.91559
-6967.3915
-2238.1951
-682.31265
-3734.7622
-5677.2065
-1702.3166
-625.83204
129.09689
316.8848
-10146.967
-9528.305
-6664.2382
-5227.4643
-4288.2888
-3900.8138
-2299.4313
-871.50043
116.86437
-10053.429
-9291.133
-6572.5137
-5378.73
-4880.556
-4234.5002
-2530.9058
-884.65874
34.478737
-9955.375
-9050.0245
-6456.4964
-5497.2372
-5450.4554
-4507.5519
-2698.1036
-864.66127
-35.53207
-9852.8468
-8799.0187
-6327.2027
-5578.1141
-5999.238
-4718.5403
-2803.7628
-802.44423
-101.40215
-9743.8774
-8535.9804
-6170.2675
-5627.0524
-6524.8401
-4863.5467
-2851.4702
-697.22063
-170.28046
-9629.7978
-8257.9438
-5960.965
-5644.4368
-6986.4912
-4927.5259
-2845.4478
-559.75386
-224.56563
-9516.8167
-7967.9193
-5704.971
-5621.7989
-7358.2977
-4904.1282
-2771.4396
-415.47355
-250.08318
-9394.4318
-7663.0425
-5413.7567
-5543.2767
-7631.036
-4805.1334
-2624.9441
-290.92598
-248.24446
-9255.5362
-7338.2991
-5083.8253
-5375.0041
-7820.7901
-4643.425
-2413.9935
-196.07193
-221.32921
-11572.644
-13527.936
-4122.6585
-112.95272
1740.0825
2243.2956
3421.95
3674.8464
2847.4842
-11921.394
-13612.774
-4997.745
-487.20825
1485.1036
2121.7576
3216.8346
3626.3476
3325.3251
-11896.347
-13733.347
-5854.0052
-1000.0449
1186.6471
1941.2603
2971.2586
3598.8273
3510.9847
-12057.8
-13894.164
-6649.3439
-1630.6402
909.61468
1787.0734
2675.8262
3391.8746
3669.5319
-12387.081
-14061.589
-7373.1447
-2369.7867
521.86522
1622.6793
2393.5752
3205.0781
3608.8997
-12943.222
-14205.002
-7986.3544
-3128.4847
37.508084
1337.4689
2079.4419
2859.0345
3445.2288
-13862.539
-14346.357
-8484.6665
-3823.9337
-485.80746
1007.4945
1779.1809
2559.215
3183.0187
-14861.415
-14518.719
-8884.2951
-4440.563
-1082.0497
655.68519
1498.1896
2206.4085
2912.2269
-15337.291
-14759.274
-9229.3015
-4946.7222
-1587.7731
281.88529
1210.668
1884.5945
2613.7648
1266.9556
368.91404
-16.651508
-1148.6099
-2691.7206
-5278.5571
-8739.9862
-14930.627
-15065.062
1443.1318
524.33627
101.79207
-1034.8551
-2652.8775
-5357.9912
-8982.8164
-15059.369
-15039.814
1600.692
684.33451
225.77253
-898.95111
-2584.29
-5393.8224
-9145.7305
-15145.541
-15037.719
1745.7401
844.89367
355.37549
-751.36019
-2493.2661
-5398.0205
-9266.1172
-15164.475
-14993.907
1885.1292
1005.6033
484.45704
-599.49671
-2390.2852
-5388.9134
-9367.7977
-15171.83
-14970.671
2021.031
1164.7639
612.24629
-447.61893
-2278.9723
-5376.6704
-9455.7152
-15150.412
-14949.01
2154.6601
1322.2207
739.94069
-297.87427
-2161.3983
-5351.1424
-9521.44
-15129.457
-15046.871
2280.0386
1477.809
865.79568
-147.23238
-2035.6222
-5306.5935
-9566.3042
-15092.932
-15241.748
2401.3066
1629.0281
991.58963
4.6639583
-1896.4698
-5223.9805
-9580.6302
-15105.657
-15370.749
-14992.395
-14825.862
-8330.8272
-5128.697
-2693.5675
-1247.2386
-130.87903
215.8601
1074.2089
-15216.932
-14818.885
-7746.1183
-4917.8954
-2674.3969
-1328.1139
-246.90121
70.159117
893.2406
-14610.65
-13886.119
-7139.5955
-4673.6461
-2636.983
-1396.7193
-356.04854
-66.756013
730.53911
-12718.911
-12372.317
-6562.4046
-4418.0912
-2584.9301
-1445.2269
-460.33229
-196.3573
567.38352
-12919.654
-10882.104
-6047.1605
-4155.0347
-2522.7704
-1475.3282
-549.56459
-312.69495
401.86087
-15140.302
-9534.4711
-5512.109
-3866.4428
-2423.6856
-1482.9693
-625.35688
-414.74547
237.89835
-16140.924
-8223.4011
-4900.0414
-3577.5406
-2308.9691
-1477.5217
-690.25619
-501.53132
78.328431
-14762.052
-6879.3687
-4299.1045
-3327.3493
-2225.3201
-1477.7412
-763.9214
-579.98115
-62.79604
-13104.184
-6033.6426
-3998.2747
-3168.8665
-2205.1622
-1505.8729
-861.70735
-655.30816
-173.45668
-618.76582
-683.18402
-871.1889
-1166.6616
-1553.6526
-2004.4114
-2386.1571
-2311.7312
-378.82213
-676.65436
-770.99288
-987.82274
-1321.7731
-1769.1987
-2311.4774
-2863.5678
-3098.1352
-1208.936
-705.01177
-831.98242
-1074.7167
-1447.3147
-1950.6053
-2576.4564
-3297.9493
-3912.6124
-2158.1731
-703.5187
-869.69302
-1130.5496
-1538.6293
-2089.5174
-2793.7078
-3666.593
-4703.6432
-3238.135
-671.02789
-886.07767
-1152.6383
-1599.3186
-2193.0282
-2954.213
-3954.254
-5442.0714
-4489.436
-610.14543
-878.51927
-1145.9765
-1629.3175
-2250.584
-3056.5082
-4141.0994
-6042.2491
-5985.8097
-525.17749
-848.3302
-1109.8645
-1631.698
-2280.8809
-3108.0608
-4205.3943
-6437.3443
-7823.4069
-418.41879
-797.48057
-1048.8472
-1608.0567
-2273.3382
-3119.7332
-4147.1055
-6549.8714
-9844.3753
-294.14179
-731.13559
-966.4793
-1563.5179
-2243.0832
-3122.6127
-4027.7901
-6315.7773
-11593.349
274.54859
-1612.4771
-1900.4147
-1674.8042
-1314.2389
-987.20841
-731.15893
-569.4492
-531.2063
817.17316
-991.69032
-1435.1867
-1337.6244
-1061.287
-792.74913
-571.88532
-434.56834
-420.64316
1319.9443
-406.71267
-967.33187
-988.46577
-793.57544
-579.96712
-395.09106
-280.02221
-283.22697
1787.1548
143.09246
-510.4205
-633.36514
-512.91777
-356.99208
-203.05125
-111.00185
-127.24377
2224.0617
659.57281
-62.038276
-275.67787
-225.57321
-121.27777
-0.031398047
70.295111
47.880077
2637.471
1142.9191
366.62869
77.700266
64.823276
118.9641
212.93224
262.09108
236.26659
3024.6173
1597.8161
781.03891
424.6005
354.78821
362.76094
431.77162
461.23154
436.49566
3392.7748
2023.386
1174.5869
761.22232
642.76195
606.3164
652.01047
665.58055
644.86096
3752.6245
2423.0393
1549.7497
1087.0476
923.83775
849.65276
876.06663
871.28279
858.437
2640.7944
2561.3775
2650.9953
2684.6641
2937.5347
3268.9512
3946.7173
4951.2304
6542.4891
2489.0041
2401.8176
2488.9846
2525.581
2777.1498
3111.1655
3794.0243
4805.5154
6297.9918
2321.7965
2235.8001
2316.2277
2354.2488
2595.5752
2922.685
3593.7729
4584.3669
5977.5968
2129.5589
2060.9116
2131.6854
2169.2126
2397.8352
2713.3206
3361.7921
4329.7985
5671.5183
1924.9312
1877.4229
1939.7984
1972.4211
2183.7595
2480.9534
3105.8964
4058.1994
5371.9079
1716.5084
1685.6336
1740.4423
1765.3845
1955.7901
2233.5453
2834.5906
3772.828
5069.8446
1504.9153
1487.4791
1529.9639
1547.5033
1713.7757
1970.3393
2543.2464
3469.0692
4759.5728
1290.6749
1285.3039
1315.8909
1321.1726
1460.0106
1692.2293
2233.3901
3144.9987
4436.1149
1074.361
1079.3859
1097.6025
1088.2126
1196.5777
1397.0373
1901.8346
2796.0393
4099.9235
2797.1378
2952.3013
3101.3006
3243.0722
3377.7938
3505.5375
3625.9185
3740.0264
3847.4592
2713.7162
2859.427
2998.7542
3131.1846
3257.0679
3376.736
3490.4438
3598.2613
3700.7674
2802.6195
2943.6014
3075.0488
3201.9076
3319.7302
3431.2703
3538.5633
3638.2024
3733.9768
2833.5903
2970.1665
3098.6891
3219.0269
3330.7338
3435.2788
3534.3187
3626.238
3714.5585
3077.4204
3200.4843
3312.8225
3415.9078
3511.0754
3597.5049
3679.1568
3754.4325
3823.8661
3398.1174
3506.9129
3602.3962
3686.3139
3760.0519
3825.7241
3884.0714
3936.9989
3985.0517
4050.8267
4127.6466
4187.1083
4232.7553
4267.3666
4293.1557
4311.6791
4325.3449
4334.3253
5011.2162
5033.6465
5032.7342
5015.8387
4986.3459
4947.7035
4902.6372
4853.0475
4800.9918
6559.6924
6524.4761
6443.8111
6344.6021
6228.8011
6108.8119
5984.9645
5864.0654
5741.6265
3949.1571
3798.8513
3825.0331
3797.6647
3890.939
4029.7185
4341.3573
4747.8712
5622.7704
4044.429
3891.1925
3910.5343
3877.1118
3954.6875
4071.7396
4347.2739
4695.0814
5507.3611
4134.7085
3979.8145
3993.3074
3953.6426
4014.4133
4112.2744
4352.1187
4643.2491
5395.3946
4219.8115
4064.2844
4071.6108
4026.6372
4073.3784
4151.7593
4357.4593
4592.9541
5284.4113
4299.699
4144.4941
4146.4487
4097.4513
4130.9494
4191.3176
4363.9545
4545.3344
5175.8226
4375.1384
4221.0532
4218.0837
4165.7303
4186.4361
4231.1952
4371.6656
4501.1494
5069.0962
4445.8224
4294.3389
4286.5522
4231.9479
4241.8444
4271.9222
4381.8988
4460.8584
4964.3568
4512.2088
4363.6949
4352.0639
4296.058
4295.8877
4313.0351
4395.1221
4424.6257
4861.0445
4574.8885
4429.288
4414.8051
4358.2605
4349.0508
4354.5788
4412.7169
4392.6716
4758.9851
4974.4785
4886.4764
4858.3193
4829.3068
4802.6777
4766.5294
4754.2742
4471.2809
4275.4011
4938.5733
4847.1751
4818.5347
4785.4865
4755.7685
4720.2964
4703.1416
4430.7933
4248.6649
4902.045
4804.7678
4776.4877
4739.2419
4707.3422
4672.5223
4654.1334
4393.5187
4237.6635
4864.7922
4759.7551
4731.9997
4690.6179
4657.7197
4624.3923
4607.7188
4364.6343
4253.7687
4826.1954
4711.8789
4684.9578
4639.7939
4607.285
4576.5625
4564.3964
4345.3932
4300.1882
4784.2544
4661.1188
4635.7479
4587.1141
4556.4108
4529.5823
4524.8986
4336.2864
4373.9776
4738.4976
4607.9849
4584.4946
4532.8078
4505.238
4483.875
4490.0957
4337.3914
4463.521
4688.3112
4551.618
4530.9401
4476.699
4453.6085
4439.6441
4459.7888
4347.3843
4559.2735
4633.8612
4492.1195
4474.4427
4418.5442
4401.7444
4396.6876
4434.2342
4366.2384
4658.0043
4317.496
4512.0737
4809.8325
4812.487
4849.0382
4871.2411
4896.0722
4922.4554
5004.0629
4398.692
4558.5035
4869.6389
4858.5171
4894.2831
4911.3252
4931.3939
4955.4504
5027.4329
4486.8531
4609.8629
4929.1622
4903.0858
4936.9343
4948.7463
4964.0103
4985.7176
5047.0599
4570.7554
4667.7581
4986.8997
4946.0815
4976.873
4983.818
4994.1046
5013.9475
5064.6695
4656.3704
4730.5388
5043.5415
4987.6421
5014.4172
5016.8939
5021.7779
5040.0868
5078.9139
4744.3786
4797.5722
5099.2875
5027.783
5050.036
5048.0873
5047.296
5062.7925
5091.3309
4834.3641
4866.0037
5155.8535
5066.636
5084.4119
5077.0796
5070.8515
5081.8556
5100.7724
4933.2239
4932.0197
5213.7679
5104.8173
5117.8703
5104.0913
5092.9077
5097.8138
5107.5769
5042.6283
4992.4827
5268.3339
5144.7887
5150.0474
5129.4561
5113.5629
5110.2272
5110.2503
5161.7625
5057.5339
5320.5693
5197.9981
5187.2154
5160.2477
5138.5218
5123.0414
5112.3419
5287.5856
5136.8839
5375.5709
5263.0721
5237.2293
5203.9582
5175.0808
5146.1793
5123.2105
5436.8837
5221.2594
5431.7587
5326.3143
5288.467
5249.6042
5213.773
5174.6796
5140.9142
5613.6887
5306.9768
5491.5624
5390.5525
5342.3936
5297.7519
5255.515
5208.3342
5164.8432
5808.8103
5397.9423
5554.3116
5455.4847
5398.5165
5348.5668
5300.5076
5246.803
5195.0268
6030.767
5495.6473
5619.9309
5521.0203
5456.7433
5401.9165
5348.8911
5290.1738
5231.2337
6297.2211
5601.728
5687.8891
5587.1956
5516.6518
5457.7515
5400.66
5338.0224
5273.5985
6538.8952
5713.8162
5757.0286
5653.65
5577.8015
5515.8376
5455.6084
5389.9861
5322.1428
6682.3263
5826.7616
5824.3516
5719.3579
5639.8523
5575.5883
5513.398
5446.1435
5376.5268
6016.2756
6030.1369
6052.738
6085.2287
6127.9147
6181.7594
6259.3177
6356.2101
6529.7309
5946.0414
5966.4984
5996.8465
6035.7115
6082.5408
6141.7225
6226.3307
6331.5312
6569.7522
5871.915
5900.6623
5938.8382
5982.8706
6034.5533
6097.1285
6185.899
6297.4493
6591.1207
5795.6489
5833.4919
5878.71
5928.0315
5982.8832
6049.1074
6141.2112
6257.3378
6606.5359
5719.1336
5765.7222
5817.4074
5871.2945
5928.2571
5998.1738
6093.0866
6209.7998
6627.1095
5643.6835
5698.2714
5755.6584
5812.6491
5872.4159
5945.6946
6042.5219
6152.7357
6651.4099
5570.6766
5631.9252
5693.8567
5753.3111
5815.0999
5891.4211
5990.0436
6086.0899
6676.3433
5501.3101
5567.3189
5632.7188
5693.8345
5757.1943
5835.7793
5935.9298
6009.7948
6695.1296
5436.4172
5505.3612
5572.5165
5634.9423
5699.4708
5779.4751
5882.3348
5925.5216
6697.3449
6789.1258
6823.2355
6855.1377
6887.5552
6917.4531
6932.8761
6915.8532
6859.4574
6690.2367
6853.5183
6882.92
6910.3271
6941.4605
6969.4398
6980.8752
6955.7224
6884.8685
6707.509
6913.5045
6948.0676
6978.4214
7008.8479
7034.4142
7041.6646
7010.6325
6919.6457
6727.7992
6994.154
7030.5189
7062.9512
7093.2007
7117.1549
7119.4253
7085.1161
6970.6092
6762.7922
7088.4452
7128.1235
7163.2685
7195.3398
7219.7252
7218.2329
7182.3038
7050.1802
6809.7732
7200.7849
7246.5305
7288.6246
7326.7266
7356.3589
7356.7628
7311.7337
7185.8895
6950.9888
7350.8616
7403.4855
7457.1679
7505.2269
7542.7852
7545.7047
7478.6372
7297.065
6965.2987
7570.856
7629.3398
7697.6319
7764.6511
7822.1516
7859.6825
7860.3566
7775.296
7585.0534
7887.4311
7948.11
8028.3322
8115.3345
8191.5186
8250.3484
8264.4577
8177.8294
7779.5699
11031.626
10481.504
10088.976
9639.4666
9278.9889
8967.6703
8732.9935
8563.0287
8454.1288
9598.2841
9719.0291
9660.1761
9583.5476
9462.2981
9320.3139
9161.2953
9005.3453
8879.1687
9266.1006
9279.4093
9252.371
9216.8628
9161.5691
9094.0202
9014.6105
8922.5039
8827.172
8872.9501
8920.794
8895.2048
8888.5882
8861.711
8831.2481
8794.8636
8750.4233
8688.6431
8566.9334
8601.9644
8589.7695
8597.4564
8584.0039
8570.403
8553.6629
8535.2598
8498.9488
8329.9407
8348.7011
8336.1952
8344.9839
8334.7439
8327.0983
8314.0576
8305.233
8280.8406
8139.8296
8144.069
8134.1257
8133.35
8123.2092
8115.7908
8103.2904
8096.1274
8079.0465
7965.9276
7965.8461
7952.8473
7952.103
7939.6982
7933.8636
7920.4192
7914.1547
7900.1123
7815.3722
7806.5759
7797.2375
7789.9347
7779.1686
7770.6447
7759.6394
7751.2763
7739.1259
7592.4665
7453.5343
7309.4538
7144.1114
6958.6982
6732.1991
6466.024
6137.6883
5889.3449
7603.5006
7463.4336
7316.3018
7149.6838
6956.9522
6726.7421
6449.628
6127.8204
5831.3435
7609.9158
7469.6628
7317.9617
7149.3919
6948.7718
6713.2662
6422.9265
6097.7765
5753.3401
7622.1284
7477.4617
7325.0081
7151.7135
6948.4072
6703.2025
6402.6019
6053.2201
5659.0509
7628.8617
7485.1685
7328.8444
7155.5642
6948.6021
6697.563
6383.5809
6004.6266
5559.1187
7641.0531
7493.8366
7337.4031
7161.1921
6952.1256
6695.9493
6369.9494
5958.079
5459.5772
7647.1826
7502.5458
7343.3669
7170.0056
6958.284
6702.6475
6363.667
5929.5796
5380.1306
7658.5698
7509.97
7351.9142
7174.3315
6966.4125
6703.1237
6365.2171
5902.742
5355.3682
7671.0616
7524.9865
7365.8961
7193.2297
6984.4285
6730.6852
6386.2248
5930.7672
5292.0964
5894.9505
6066.6526
6339.5788
6565.294
6716.1404
6840.2494
6972.1999
7114.0218
7262.0177
5803.7598
5986.6936
6304.6679
6551.3132
6706.4233
6833.9672
6970.2978
7115.6317
7266.144
5689.4985
5904.5499
6280.7284
6542.8012
6697.0662
6828.4297
6968.1369
7116.9874
7270.3171
5551.2281
5816.4316
6253.3126
6531.4882
6688.8833
6826.5967
6972.1362
7123.4781
7277.1922
5380.4037
5729.466
6220.9379
6504.3984
6662.9813
6808.9907
6960.8689
7117.351
7274.6739
5127.4004
5685.0333
6238.2552
6515.7575
6674.1297
6821.9334
6974.6019
7130.1171
7285.9372
4757.2466
5522.8191
6180.4805
6465.741
6635.4335
6796.6102
6957.7387
7118.0424
7277.5618
4427.0675
5588.4072
6234.8769
6485.7016
6654.6328
6813.7889
6972.3571
7130.6965
7288.4141
3427.1721
5428.3639
6202.4135
6451.0614
6633.1171
6800.9608
6963.3494
7123.2922
7282.7824
7411.9065
7563.8927
7723.5891
7892.0032
8072.4178
8268.175
8420.9173
8436.9206
8214.6105
7418.2623
7572.39
7735.5284
7908.4753
8097.5467
8297.0626
8473.7138
8493.0295
8287.9107
7424.792
7581.7868
7747.7473
7926.1331
8121.4522
8330.5012
8540.9617
8559.2008
8376.9536
7432.9321
7590.9892
7761.1809
7946.1754
8142.8993
8366.9454
8596.5884
8684.0682
8486.7436
7433.4684
7594.5718
7766.6028
7959.8374
8161.3354
8400.326
8620.1932
8852.8038
8627.9162
7443.8875
7604.371
7780.8827
7975.9086
8179.8142
8433.2575
8664.0325
8990.6352
8799.0835
7438.4791
7601.6134
7780.3988
7980.3585
8188.5423
8455.0756
8731.7679
9085.6383
8989.7789
7448.6154
7610.6089
7790.6853
7992.0856
8201.1445
8485.5198
8781.8139
9169.6098
9187.4437
7443.8253
7607.317
7791.4303
7987.5374
8202.3982
8494.5166
8797.5934
9202.3922
9251.3263
7546.9211
7207.1108
7501.1226
7922.9513
8139.1741
8133.7821
8088.6663
8193.1956
7865.3618
7523.2607
7109.4327
7441.6554
7917.4823
8158.7582
8138.7776
8088.1282
8195.0287
7738.9976
7475.2782
6967.3638
7394.848
7929.0617
8184.3685
8134.3982
8091.0498
8190.7291
7687.1553
7409.4679
6799.6325
7343.8285
7937.2868
8206.3005
8125.1893
8097.7453
8197.2786
7525.4235
7343.3998
6625.3374
7283.5722
7941.3247
8222.061
8110.4911
8108.5572
8229.8563
7515.5223
7385.1083
6540.1727
7251.7055
7942.4033
8229.182
8102.9174
8081.927
8219.0639
7496.9022
7523.6701
6550.2739
7238.9116
7924.8065
8226.0373
8107.2099
8100.5957
8251.3119
7576.9057
7728.2335
6711.0698
7256.0445
7892.4583
8182.2868
8095.0233
8079.0811
8200.2694
7552.7487
7815.8147
6798.6726
7295.3625
7885.8557
8178.0294
8105.783
8100.9902
8227.5568
8002.6018
9271.0537
9655.4258
9519.4592
9194.5141
8843.3513
8510.0206
8160.3684
7806.4109
7468.6997
9262.646
9719.1915
9610.0066
9279.3775
8918.8882
8581.4858
8219.3898
7862.702
7518.5512
9207.6006
9756.5706
9692.1055
9359.2581
8995.8651
8652.6156
8278.6178
7918.6351
7567.9604
9136.1311
9792.7857
9778.316
9440.631
9075.5293
8724.4229
8339.2779
7975.2815
7613.195
9052.3146
9812.398
9856.8682
9515.9418
9151.3547
8795.0464
8401.604
8036.6737
7670.5656
9004.1258
9812.4786
9925.4321
9586.5598
9225.3947
8858.5149
8449.1974
8079.6756
7702.3684
8947.0818
9795.0311
9978.1255
9651.5752
9301.5222
8935.0636
8522.859
8151.4992
7774.2427
8861.2308
9767.0143
10015.063
9697.5291
9344.9617
8969.0633
8549.8683
8175.3352
7788.099
8717.27
9700.5346
10025.396
9761.0374
9423.6069
9054.0017
8635.1297
8257.8501
7869.4029
7128.8887
6802.9186
6473.1442
6148.6127
5811.9953
5461.0666
5098.2841
4719.2796
4330.0845
7177.188
6846.1956
6514.5038
6185.3985
5849.187
5496.7187
5136.0799
4754.2383
4365.8457
7227.5058
6894.2718
6560.5325
6230.5226
5894.5277
5543.4269
5185.0359
4806.3895
4419.9108
7273.4175
6933.5825
6603.0928
6266.9301
5936.2839
5581.2787
5228.646
4846.5623
4466.2877
7326.0524
6985.7718
6651.3611
6316.6839
5981.9172
5631.3276
5276.2014
4899.0727
4517.3238
7363.2745
7013.5098
6685.1021
6342.5051
6014.5163
5658.9476
5310.4568
4930.102
4553.8333
7428.7502
7080.7351
6748.0885
6406.7436
6076.019
5723.7087
5372.9904
4998.8311
4617.6543
7446.2533
7090.9858
6762.0889
6416.2978
6089.6048
5734.4709
5388.0884
5011.7443
4635.1379
7524.1482
7168.2722
6837.8376
6492.0167
6164.681
5812.2321
5465.813
5095.5291
4714.1054
3877.5627
3390.7925
2855.3091
2412.8266
1898.1791
1389.0947
538.91247
-906.74964
-3128.7381
3912.6262
3450.3367
2927.2157
2503.541
2005.9875
1547.651
798.17148
-564.14344
-2801.5873
3975.0109
3522.0561
3006.8144
2558.0312
2047.3248
1521.2638
844.72068
-390.8646
-2379.0864
4026.3417
3586.4266
3084.3765
2624.419
2122.574
1589.4378
953.06296
-173.08078
-1869.7161
4085.2682
3650.7661
3169.3713
2706.2137
2215.9211
1685.3362
1090.2304
105.96526
-1215.3324
4131.0049
3703.901
3243.9575
2777.1791
2293.9337
1766.0837
1190.7203
357.26612
-417.4603
4205.3221
3781.1728
3349.7043
2886.5981
2420.2755
1876.8027
1362.8116
492.83388
658.13011
4232.1063
3810.998
3392.4303
2939.3125
2472.7627
1948.5682
1341.3608
747.3668
328.37696
4326.3751
3917.8373
3530.1583
3096.3011
2668.9146
2176.374
1686.9928
300.5852
4337.6264
-5122.6653
-7440.2265
-8951.8897
-8091.9179
-8249.609
-7986.1848
-8344.2099
-7733.6057
-5581.8048
-5046.5235
-7643.9627
-8904.3111
-7960.5531
-8131.9544
-7864.6366
-8228.543
-7604.5344
-5539.3575
-5103.1029
-7921.1173
-8745.4681
-7885.8795
-8148.057
-7983.7399
-8320.3847
-7441.8637
-5475.4324
-5336.7543
-8252.6624
-8539.0162
-7830.1474
-8128.5425
-7910.9949
-8190.0791
-7290.9587
-5372.277
-5708.1423
-8575.5079
-8143.5249
-7813.938
-8089.8333
-7984.8868
-8243.6614
-7130.3554
-5254.2171
-5687.6469
-8507.9568
-7948.9464
-7853.7072
-8049.1733
-7960.1421
-8083.4132
-6918.4745
-5120.7163
-4939.418
-8080.8159
-7911.8726
-7851.5868
-8020.681
-7955.4377
-7995.4679
-6676.7734
-4987.736
-5715.8012
-8902.4414
-7784.707
-7921.2627
-7990.4991
-7938.7929
-7875.6629
-6466.1342
-4877.0755
-15672.825
-6775.4499
-7972.4777
-7875.2556
-7971.5433
-7884.3967
-7709.8124
-6240.1709
-4800.8559
-4303.1389
-3995.589
-3823.257
-3793.9581
-3875.7397
-4111.2317
-4243.0693
-4027.1658
-3693.8991
-4290.1168
-3914.1626
-3718.1189
-3684.2359
-3783.2309
-3998.3553
-4146.2497
-3932.1185
-3647.8143
-4274.9691
-3906.1382
-3712.3803
-3689.8474
-3797.016
-3965.779
-4052.3642
-3841.7445
-3580.8667
-4232.1759
-3867.4251
-3675.3333
-3664.5849
-3773.1373
-3903.5905
-3966.0039
-3757.8798
-3533.1938
-4176.1942
-3808.3599
-3621.946
-3620.8987
-3741.9934
-3856.9054
-3894.9692
-3678.411
-3491.7254
-4122.8447
-3755.0637
-3575.7862
-3588.9444
-3720.7833
-3819.3397
-3830.1358
-3616.3335
-3442.3581
-4085.8776
-3710.9965
-3539.9945
-3572.7125
-3708.0117
-3794.5695
-3773.4617