/*--------------------------------*- C++ -*----------------------------------*\
  =========                 |
  \\      /  F ield         | OpenFOAM: The Open Source CFD Toolbox
   \\    /   O peration     | Website:  https://openfoam.org
    \\  /    A nd           | Version:  11
     \\/     M anipulation  |
\*---------------------------------------------------------------------------*/
FoamFile
{
    format      ascii;
    class       surfaceScalarField;
    location    "0.038";
    object      phi;
}
// * * * * * * * * * * * * * * * * * * * * * * * * * * * * * * * * * * * * * //

dimensions      [0 3 -1 0 0 0 0];

internalField   nonuniform List<scalar> 
1652
(
2.843686947071611
0.8895636090847481
0
1.954123337988149
0.8895636090834618
2.220446049250313e-16
1.064559728903287
0.889563609084864
0
0.8895635891160374
-2.414966004948838e-10
0.1749961326563633
2.843686947076741
1.779127218162428
1.954123337998014
1.779127218162189
1.064559728910183
1.779127218172693
1.779127046707947
0.1749963284112476
2.843686947090741
2.668690827246526
1.954123338008367
2.668690827244562
1.06455972891429
2.668690827266933
2.668679569583782
0.1749981486783131
2.843686947092868
3.558254436328659
1.954123338013008
3.558254436324421
1.064559728916597
3.558254436359912
3.558187303285359
0.1749290959116792
4.418652025448567
2.872852967045247
5.279049614570545
2.872852967043177
6.139447203693198
2.872852967042502
2.872852967040008
6.99984479281694
4.418652025437509
2.012455377932159
5.279049614550977
2.012455377929712
6.139447203664234
2.012455377929244
2.012455377926213
6.99984479277803
4.418652025490292
1.152057788818091
5.279049615051806
1.152057788747409
6.139429418496024
1.152058016543231
1.152056613135231
6.999936772972517
4.423432247713602
0.2756516292937327
5.312039983152985
0.1913367367616114
6.20726294332724
0.101693035588026
7.082631143246773
0.0733242654633055
6.941512752761647
0.0583320377008224
6.883180712809385
0.05833203692150346
6.824848672878678
0.05833203655752905
0.05833203861160752
6.766516633046272
6.941512795500422
0.1166638486733642
6.883180759979985
0.1166638205990853
6.82484871874389
0.1166637956926447
0.1166638726257002
6.766516762143735
6.941598193620056
0.1746795563139947
6.883271139385339
0.1746420190668972
6.824936504887068
0.1746221304183569
0.1746035441531679
6.766717362688987
7.034033617628236
0.05000996353290055
6.97748923561877
0.04738454900829836
6.916395030493126
0.04672255532114733
6.876807670593131
0.01822025450734843
6.88215913482979
0.000779959071239511
-0.1827308870984006
6.822097158610993
0.0005369756218613908
-0.06919856430159216
6.777110450642118
0.0001841184295433562
-0.0142591053584516
2.448334580301692e-05
6.767027258073336
-0.001017427567649609
6.766730289999558
9.530242790489751e-07
6.766648926800178
6.992670386063438e-07
6.766546796432173
2.577642826961934e-07
3.492476763344854e-08
6.766518267469178
6.766516799220563
1.268386173869374e-08
6.766516742432136
9.704308245872539e-09
6.76651665766838
3.615044708027426e-09
4.581277579518428e-10
6.76651663427392
6.76651663273644
6.766516632766852
6.766516632969337
6.766516633041396
6.766516633046028
-1.606892396921467e-11
6.766516633047141
-1.056488230233299e-12
6.766516633048259
-1.116218228958132e-12
-1.084021761244003e-12
6.766516633049343
6.76651663305416
-1.214932265902746e-09
6.766516633047048
6.504796701278792e-13
6.76651663304814
1.225908263791098e-12
-1.333599897179738e-12
6.766516633049348
6.766516643750274
-7.265151207858089e-07
6.766516632299959
4.519311369577395e-09
6.766516632316478
2.75586531373051e-09
6.635358928974711e-10
6.76651663299041
6.766519250613888
7.169650965199725e-06
6.766516180068281
1.865232067410627e-06
6.766516357071876
3.922212542528669e-07
6.766516620527415
1.511567088163801e-08
-2.413069744022778e-12
6.766516631537367
-1.198856014461569e-10
-1.058042542467774e-13
6.766516633046482
1.998401444325282e-15
6.766516633049234
6.766516633049344
-9.423342994807626e-09
6.766516787686354
1.021779327814443e-10
-3.393354486291855e-10
6.766516633230665
-4.068967385251199e-13
6.766516633001432
6.766516633049336
4.845725338653573e-06
6.766471450405637
1.195295992961753e-06
1.263223303737959e-08
6.766517800690385
1.576451191809269e-10
6.766516634573541
6.766516633046761
-0.0002205661330703657
6.751290092900629
0.02198121480375037
-3.920616373775943e-07
6.766506407848031
-3.695792560876043e-10
6.76651662637075
6.766516633016205
0.1555520676152605
6.610964565426737
0.3111040775451934
6.610964595566694
0.4664599713176212
6.611045521866052
6.661356140666753
0.3577000948785814
0.1555520591372094
6.455412497939613
0.3111033397034765
6.455412583374584
0.4655570068770676
6.455559768948485
6.564360753939931
0.0667631778006017
0.1555520543197867
6.299860430378684
0.3111029472494033
6.299860528480348
0.4651469467966388
6.300017567096309
6.40991625309413
0.0006580435896963444
0.1555520512049219
6.144308362842967
0.3111027113004735
6.144308474714989
0.4649715561786939
6.144473138212729
6.245382106807415
-0.004641804660342475
-0.4647810254153529
6.080556820891199
-0.004207670849786016
-0.3111026555051632
5.988930340817404
-0.155552163880233
5.988756307965416
5.988756178686334
-0.4645476971648753
5.912489921738586
-0.003742513098490274
-0.3111022776208887
5.833382136261173
-0.1555521585143733
5.833204139771151
5.833203994580112
-0.4642811100903261
5.747074780775367
-0.003631279950467969
-0.3111018150896684
5.677849713673931
-0.1555521518317294
5.677651993025805
5.677651810563659
-0.4638921864983061
5.57363401213496
-0.002944372763120318
-0.3111010613393876
5.522269274067417
-0.1555521397906613
5.522099788298648
5.522099626269245
0.1993010651977559
5.322798528758344
0.3985997454270307
5.322798632104644
0.5953751334971946
5.322917279320639
5.359418006639869
0.06419872908678981
0.1993010637903269
5.123497431369419
0.3985995945338083
5.123497529896572
0.5953633043606132
5.123599676683791
5.145084441016333
0.1036575192504838
0.1993010602161881
4.924196328273552
0.3985993949141121
4.924196415615169
0.5954073823407793
4.924275507985622
4.933180953590391
0.1794961947111956
0.1993010752336881
4.724895231070383
0.3986005719406666
4.724895279479756
0.5965774287396444
4.724935692086061
4.7274230213467
0.4551914970307074
-0.3354080294811883
5.060304451909323
-0.6704713421732952
5.060251471562121
-1.006847037410695
5.057487125480541
5.003869953365101
-1.403438750335313
-0.335409022676124
5.395713683471144
-0.6707155275494038
5.395690354323528
-0.988342580604389
5.387448870354495
4.774645512739984
-0.6009491307127138
-0.3354090848077481
5.731122915161264
-0.6706939800741409
5.731098635317217
-0.9673410337780481
5.715971188697495
4.509637587308444
-0.09649871092188578
-0.3354091020732081
6.066532146691977
-0.6706752813714103
6.066519952905919
-0.9544155354398191
6.056634676094743
4.791229568387037
-0.02710398019004202
0.5027223542186863
5.086881656277022
-0.0121658553672747
0.349922068560617
6.232326318974232
0.1749960143188043
6.241517318726283
6.241528268235689
0.5059430911396575
5.355781621897775
-0.01285847730642882
0.349934804165676
6.409948522725938
0.1749960393346122
6.416517760043313
6.416524390816861
0.5100742153522103
5.549959009640983
-0.0154860718416165
0.3499530760142915
6.585173497821362
0.1749960683772485
6.591514092365643
6.591520510813431
0.5065340086053146
5.798902590783526
0.001021544990505954
0.3499440679299227
6.761926600473617
0.1749960599383766
6.766512251914714
6.766516631216589
-0.005445440534788237
6.566914561222156
0.198571283693762
-1.630132007979235e-05
6.766258184078136
-2.305037494210183e-08
6.766516456558901
6.766516633003769
-0.0005891319043552778
6.754795346143503
0.07436279774889626
-1.071774003991166e-06
6.76651213529452
-1.027810725418021e-09
6.766516631624687
6.766516633069328
-0.0001074545835515472
6.766071717659644
0.02810667160022584
-1.66867248463376e-07
6.766519627816994
-1.49904311186333e-10
6.766516636843767
6.766516633088703
-0.0003007102343989265
0.04665752416405666
6.767876407589295
-6.678713047048035e-07
6.766479110107394
-8.245437665976851e-10
6.766516507983454
6.766516633193992
1.104434666853252
-0.8599496174455652
-0.06713662986677149
-9.446665671930532e-12
1.983270482298131
-0.8748860244176129
-1.508482228018693e-11
2.858269925668834
-0.8749804099660601
1.217692613408872e-12
-0.8749805998943208
-1.483257960899209e-13
1.104441858957025
-1.71973769373077
-0.06748030005151417
1.983270505436659
-1.74977071089285
2.858269925569998
-1.749960805079252
-1.74996119942654
1.104447398164811
-2.577997211145702
-0.06829832046906761
1.983270479981791
-2.624648532971357
2.858269924378784
-2.624941182192803
-2.624941798124255
1.104472562679673
-0.07058401906896924
-3.435976946801286
1.983270581332114
-3.499540937446915
2.858269922251893
-3.49992156926477
-3.499922397187727
-0.0003007102347044599
-6.766071717660474
0.04665752416336627
6.767876407577702
-6.678713420082971e-07
-6.766519627816923
6.766479110105604
-8.245077953716873e-10
-6.766516636846557
6.76651650798378
-6.766516633086618
6.766516633197158
-0.0001074545836585727
-6.754795346146776
0.02810667159988317
-1.668683344835387e-07
-6.766512135294979
-1.500961577249882e-10
-6.766516631628797
-6.766516633069109
-0.0005891319057073074
-6.566914561229256
0.07436279774990884
-1.071775088234972e-06
-6.766258184079938
-1.027783858020825e-09
-6.76651645655807
-6.76651663300654
-0.005445440535270962
-5.7989025907772
0.1985712836947709
-1.630131978624938e-05
-6.761926600471853
-2.305027035909291e-08
-6.766512251914614
-6.766516631216765
-0.1749960143093616
6.241528268272301
-6.066532146737473
-0.3499220685394934
6.241517318761342
-6.066519952952662
-0.502722354209595
6.232326318941976
-6.05663467604678
5.086881656236549
-4.791229568345607
-0.01216585536711616
-0.1749960393228283
6.416524390841581
-0.3499348041442184
6.416517760065463
-0.5059430911297035
6.40994852270306
5.355781621866536
-0.01285847730639759
-0.1749960683651227
6.591520510826287
-0.3499530759915737
6.59151409237638
-0.5100742153416766
6.585173497810094
5.549959009627215
-0.01548607184120281
-0.17499605992634
-0.3499440679040914
-0.5065340085924288
0.001021544990276665
0.9544155354483084
-4.509637587272056
-0.02710398019043012
0.670675281397743
-5.715971188666392
0.3354091020866745
-5.731098635350667
-5.731122915193433
0.9673410337870364
-4.774645512717944
-0.09649871092064059
0.6706939800971805
-5.387448870336514
0.3354090848196922
-5.395690354345709
-5.395713683491719
0.9883425806166987
-5.00386995335809
-0.6009491307111169
0.670715527571852
-5.057487125472756
0.3354090226862178
-5.060251471573952
-5.060304451918269
1.006847037422671
-4.727423021346645
-1.40343875033959
0.6704713421933166
-4.724935692085558
0.3354080294899153
-4.724895279480993
-4.724895231070556
0.199301065204098
5.322798528775653
-5.522099626293132
0.3985997454417076
5.32279863212459
-5.522099788327351
0.5953751335048878
5.322917279302454
-5.522269274039866
5.359418006619135
-5.573634012108649
0.06419872908899094
0.1993010637964757
5.123497431380237
0.3985995945477717
5.123497529911027
0.5953633043681035
5.123599676669705
5.145084441001345
0.1036575192515321
0.199301060221982
4.924196328278969
0.3985993949269009
4.924196415622834
0.5954073823464641
4.924275507978627
4.933180953583748
0.1794961947112789
0.1993010752391708
0.3986005719527054
0.5965774287446748
0.4551914970321866
-0.463892186491796
-5.747074780754552
-0.002944372758853175
-0.311101061326828
-5.677849713651988
-0.1555521397849409
-5.677651993047681
-5.677651810582017
-0.4642811100832812
-5.91248992172539
-0.003631279949598887
-0.3111018150765579
-5.8333821362404
-0.1555521518259
-5.833204139788473
-5.833203994592319
-0.4645476971589848
-6.080556820895511
-0.003742513097489408
-0.3111022776074542
-5.98893034081194
-0.1555521585082483
-5.988756307972227
-5.98875617869231
-0.4647810254096471
-6.245382106799521
-0.004207670849718292
-0.3111026554910936
-6.1444731382232
-0.1555521638738648
-6.144308474716144
-6.144308362842491
0.155552067615306
6.610964565426667
-6.76651663301606
0.3111040775453419
6.610964595567636
-6.766516626370414
0.4664599713186282
6.611045521865549
-6.766506407848627
6.661356140667721
-6.751290092898826
0.3577000948763008
0.1555520591373082
6.455412497939148
0.3111033397037582
6.455412583373445
0.4655570068773141
6.455559768950057
6.564360753938908
0.06676317780161267
0.155552054319661
6.299860430378533
0.311102947248978
6.299860528481221
0.4651469467958328
6.300017567086886
6.409916253097203
0.0006580435895892078
0.1555520512048236
0.3111027113003859
0.4649715561778683
-0.004641804658815474
-6.766516633046892
3.696787320706107e-10
-6.76651663304934
-1.576814234738322e-10
-6.766516633049343
3.280709037767338e-13
-1.887379141862766e-15
-6.766516633049345
-6.766516634571967
3.920618264485753e-07
-6.766516633002897
-1.263245297256077e-08
-6.766516633049234
3.409345028515531e-10
9.681144774731365e-14
-6.766516633049345
-6.766517800692363
0.0002205661327192576
-6.766516633228529
-4.845724482060998e-06
-6.766516633046721
9.422660429692087e-09
2.354061390263951e-12
-6.766516632990228
-6.766471450405885
0.02198121480355059
-6.766516787686703
1.195295068312507e-06
-6.766516631537164
1.016613460080862e-10
-6.766516620527133
-1.197941190689278e-10
-1.101341240428155e-12
-6.766516633048242
-1.343369859796439e-12
-6.766516633048159
6.63292476499322e-10
-6.766516632318433
-6.766516357071733
1.51159723071892e-08
-1.099453861286293e-12
-6.766516633047141
1.171174268677078e-12
-6.766516633047061
2.75622913381568e-09
-6.766516632301847
-6.766516180068391
3.922211159745892e-07
-1.094013768465629e-12
-6.766516633046027
6.571410082756302e-13
-6.766516633053945
4.519263463453882e-09
-6.766516643750561
-6.766519250613952
1.865232160003227e-06
-1.609790079015738e-11
-6.766516633041452
-1.215049616476449e-09
-6.766516634271765
-7.265153127433699e-07
-6.766518267469131
-6.767027258072662
7.169650831251317e-06
-1.268903981888059e-08
6.766516632721062
-6.76651663302679
-9.530343920705064e-07
6.766516799203396
-6.766516762121825
-0.0007799590767736397
6.766730290015051
-6.766717362709644
6.882159134844363
-6.876807670612907
-0.1827308870980466
-9.708873704994403e-09
6.76651663275614
-6.992761507618184e-07
6.766516742426515
-0.0005369756263512437
6.766648926811318
6.822097158620668
-0.06919856430272603
-3.620136745929869e-09
6.766516632964273
-2.577743486442685e-07
6.766516657667549
-0.0001841184345813263
6.766546796435375
6.777110450647945
-0.01425910535839042
-4.634697070571292e-10
-3.493517697350512e-08
-2.448335026927762e-05
-0.001017427569061591
-0.1746035441581203
-6.916395030504309
0.01822025450908549
-0.1166638726448835
-6.824936504896521
-0.05833203861561542
-6.824848718737315
-6.824848672863189
-0.1746221304253777
-6.977489235623084
0.04672255532214242
-0.1166637957124843
-6.883271139382085
-0.05833203656187735
-6.883180759989153
-6.883180712798182
-0.1746420190755543
-7.034033617634997
0.04738454900943956
-0.1166638206190161
-6.941598193593118
-0.05833203692568567
-6.941512795531259
-6.941512752754385
-0.1746795563268438
-7.082631143237544
0.05000996353170589
-0.1166638486944124
-6.999936772907205
-0.05833203770543727
-6.999844792821211
-6.999844792814154
-1.152056613129401
-6.207262943321331
0.07332426546425397
-2.012455377910965
-6.139429418503846
-2.87285296703993
-6.139447203692224
-6.139447203690341
-1.152058016539226
-5.312039983150405
0.1016930355888178
-2.01245537791648
-5.27904961504504
-2.872852967042259
-5.279049614566445
-5.279049614567443
-1.152057788747346
-4.423432247707204
0.1913367367619992
-2.012455377921992
-4.418652025488743
-2.872852967044603
-4.418652025443834
-4.418652025446892
-1.152057788817491
-3.558187303270659
0.2756516292939913
-2.012455377927508
-3.55825443635911
-2.872852967046921
-3.558254436324422
-3.55825443632866
2.843686947076677
0.8895636090796828
1.954123337995112
0.8895636090815646
1.064559728908975
0.8895636090861367
0.8895635892842024
0.1749961327161866
2.843686947077599
1.7791272181565
1.954123337999196
1.779127218159969
1.064559728911147
1.779127218174185
1.779127046711908
0.1749963284133298
2.843686947089469
2.668690827241873
1.95412333800662
2.668690827242819
1.064559728912863
2.66869082726794
2.668679569572968
0.1749981486861776
2.843686947088214
1.954123338006611
1.064559728911391
0.174929095910105
0.1749961525855149
0.1749961526210649
0.1749962820132037
0.1749966015615447
0.1749951809807806
0.1749976620937883
0.1747564292262909
0.1750428670531652
0.1749966015634116
0.1749962820249816
0.1749970223324313
0.1749970223304082
0.175000660250434
0.1749857106222873
0.174696589553864
0.1748463329219715
0.1749976620930503
0.1749951809840632
0.1749857106232266
0.1750006602509198
0.1749406623616211
0.1749406623600815
0.1723942514656342
0.1758650538649648
0.1747564292288001
0.1750428670542456
0.1746965895555654
0.1748463329231615
0.1723942514671787
0.1758650538636412
0.170847013011372
0.1708470130123663
-0.0919658744095887
0.2572987660190104
-0.1702566822419747
0.2422206151508623
-0.2388362408893191
0.2332254158499317
0.2048776224502049
-0.0149517674276779
0.2823523587774918
-0.05457768167329446
0.2803678522776202
-0.1125120814861186
0.2834837863690584
0.2563669859891755
0.008855517453901895
0.294323059615877
-0.004568208337321189
0.3013744812637483
-0.02714975913960627
0.3051867868998583
0.2849529710059103
0.01437791191058335
0.2965709048238683
0.008906738207213882
0.3063108415853947
-0.004027464516450197
0.310276120229695
0.2934967043430882
0.2946129990180486
-0.002434580460858093
0.295194766257616
-0.003467682985124454
0.2955278225793406
-0.003606768776078462
-0.03270047608942683
0.2989410601497559
0.3106391263756137
-0.01238870796692937
0.3108539971148443
-0.01296500096189923
0.3112560186816039
-0.01300574836084101
-0.05199781879389342
0.3260243614667382
0.3068273026765174
-0.01604585536198805
0.3071069790989563
-0.01601225414387797
0.3075003519380455
-0.0158039911324756
-0.07745427770754676
0.3271973782195601
0.2967140446021163
0.2967950193774835
0.2970405429978422
0.2487423204036474
0.2836406699676026
-0.1920050498203583
0.2521119790682196
-0.0630341316281755
0.2361809503382401
-0.0104055508760954
-0.0004924781211902429
0.2334353732597038
0.2891597065619973
-0.145099853605372
0.2533513712155605
-0.01977327737028561
0.2361864158221169
0.003443697848066973
0.0005718636498181495
0.2334426946914534
0.266039822326872
-0.05515967226564045
0.249393685107704
0.02278860045416298
0.2381986848912733
0.01393226014159799
0.002522677140064822
0.2335647067758601
0.192312300797712
0.2135670997117211
0.2296071862061466
0.233027711539072
0.2333281868775562
2.394576869257925e-05
0.23332769166383
3.048939117011873e-06
0.233328109427928
2.481107411744787e-07
6.668885443872341e-10
0.233328158699257
0.2333287061832808
5.948608678069123e-05
0.2333281989426219
6.034376242913808e-06
0.2333281602843183
3.346423139705124e-07
3.659772762620861e-09
0.2333281585108614
0.2333313608947641
0.0001524567483614514
0.2333283744821774
1.075002174649731e-05
0.2333281672085334
6.075883118294989e-07
8.58418625071522e-09
0.2333281597155529
0.2333087235926304
0.233326958569436
0.2333281319634274
0.2333281596735589
0.2333281601865756
-1.072973931925958e-10
0.2333281603317201
4.701772304827045e-11
0.2333281649580717
5.163093628746118e-07
0.007967289117648879
0.2273745748245469
0.2333281597422567
-1.785350756122739e-10
0.2333281600486837
-1.84494086674647e-11
0.2333282181353603
1.287081104472954e-07
-0.04101019021369434
0.2303546912357488
0.2333281597132914
-3.706995821417536e-11
0.2333281598060649
-2.075251082089835e-11
0.2333281768688673
3.062026182609756e-08
-0.0688915058074151
0.2042278830675466
0.2333281597715903
0.2333281597769068
0.2333281619089353
0.1912033674466547
0.2799716394577407
0.20960680313917
0.309859526128233
-0.004884038302277127
0.3170881721966205
-0.06320101210688045
-0.06897060435072355
0.3175256430072842
0.2807975684202846
0.124853083403919
0.3190319796322831
-0.005129267746308508
0.3309268451609288
-0.053516719562132
-0.05729123222645616
0.3314418460996025
0.2548858350208237
0.0722948527524544
0.3139362860687154
0.005283533006667507
0.329791542968188
-0.004423618220954717
-0.002530291529259654
0.3303966060329702
0.244529744111512
0.2698681132446745
0.2833036927037668
0.2846636654954769
0.3175863982045019
-0.06883396156140165
0.3176582722421574
-0.06850092359210314
0.3178771208854707
-0.0683827740788201
-0.06740657120909943
0.3183777522096046
0.3314406956287202
-0.05725525323130221
0.3314178348968688
-0.05711674860094007
0.3314590088353261
-0.0571259704374163
-0.0568375199821356
0.3318651977354625
0.3303958647095944
-0.0025401128570397
0.330340364867298
-0.002528592066013968
0.3303885060962476
-0.002603338713666581
-0.002113783243949063
0.3304475933858749
0.2846705172558523
0.2846500102045699
0.2846351659450962
0.2856296873956652
0.3297046189520793
-0.04835549850341625
0.3440652314986229
-0.0305404754124976
0.3693663284127313
0.0364084044724049
0.2735599530256871
0.436580957353909
0.3363211725947508
-0.04514810354463084
0.3441151782895496
-0.03095904167384633
0.3740602083310616
0.03105998525346432
0.1717780427195509
0.5125335647079966
0.3349407345837943
0.003865373364807967
0.3427172524535412
0.007969426847976524
0.3669128337822781
0.05172335953868146
0.06660434069965826
0.5238096813099723
0.2936097611386355
0.3098519750143326
0.3861778042361773
0.4591432952958826
0.2464679727492962
-1.247837684932311
0.05057259536915058
-0.3387958368772214
0.004635937220518159
-0.02484531375379388
0.005882000196186593
0.0001778505352202347
0.1673378762836187
-0.8926551005673004
0.01818799525335353
-0.1394806689076436
-0.0002914938168125641
0.0129553214852698
0.02505065256499676
0.0001660929095200197
0.09098310291990656
-0.4426006400715282
0.008411711675486646
-0.05106915782092784
-0.001126474409849592
0.01999787133906956
0.02317808801417373
0.0004567187358852417
0.04375859392017871
-0.002766935885213358
-0.0004055565440336528
0.0007733150666165414
0.002032958369208037
0.002539768945454032
0.00352092658529537
0.00176522489781316
0.005199934776437279
-0.002675404782244241
-0.004048677898766322
0.02397027650611545
-0.0008763630865969534
0.01888509826790157
-0.003417303171873607
0.01922089344671344
-0.008325730252562219
0.01573828215799475
0.001154747632632153
-0.003533907875886685
-0.001377123911810377
0.02067296000475228
-0.005462431614360863
0.02176724358993717
-0.01138544432579153
0.01880954713822883
0.007277986614239527
-0.01514863560463897
-0.0004464735832267336
-0.004044623219207374
-0.01096009307997594
-0.01189028548826317
0.1665966992439538
0.09897378264244647
0.2205257974577403
0.07779179822087767
0.2319144417159411
0.04941213112513698
0.0574414059380573
0.2446015259126663
0.1127779463629332
0.01277014809803839
0.1960192894545439
0.05229941648466294
0.2350967033629961
0.06770068099760207
0.05550540566614987
0.2634412010043289
0.05832718825751962
-0.0281733729165798
0.1646729867597257
-0.007653782831504391
0.2337351102474847
0.05714904026724643
0.02267468669424944
0.2866099280919416
-0.006282036387101494
0.05750021606363501
0.1773494917903037
0.246622933967459
0.2017043672552864
-0.3427543544375874
0.4210522366455186
0.1484088747877461
-0.2694253151150556
0.3539428227858728
0.07562015148641488
-0.1794452207729606
0.2618045916381702
-0.09184143606867377
0.01300473797289517
0.1783533822125895
0.2300218835822967
-0.2600575369682436
0.1912312405886667
-0.1461324246890565
0.1184377520693428
-0.1066904861771628
-0.05234961872099542
0.03328090120856274
0.1706790589142094
-0.156344509734535
0.1419183712348098
-0.05095614784537764
0.1366940550470337
-0.02436713432289844
-0.01776653170072067
0.0843179206864878
0.09824472373167188
0.05086805054779096
0.04168779888506462
0.03361082456577814
0.01604496431412391
0.005416334856322605
0.001417873620478306
0.002555945996265041
0.0001454682600075287
0.001970874688854902
0.001969746408761045
-3.010786064905346e-14
0.02454123824492684
0.01404229152687915
0.003124449533398799
0.008492132377635471
0.0009115924239074431
0.007275931133173059
0.007055738771954761
1.96266614072016e-14
0.007281241249792264
0.02856223913835885
0.002080533547654445
0.02576281102836512
0.0009382917541263316
0.02514612572035141
0.02486763209700708
-5.043881978750164e-14
0.003286167715810182
0.001344703416448545
0.0006577440710438809
-5.93206039845029e-13
0.001969746408760208
-0.0001454682600682926
0.007055738772018755
-0.0009115924238814431
0.02486763209693794
-0.0009382917541465516
-0.000657744070995947
0.06713662986645882
0.001970874688825326
-0.001417873620479451
0.007275931133265662
-0.003124449533480182
0.02514612572040881
-0.002080533547553838
-0.001344703415901732
0.0674803000514578
0.002555945996243533
-0.01604496431418471
0.008492132377635995
-0.02454123824496047
0.02576281102829685
-0.007281241249648032
-0.003286167715572358
0.06829832046935956
0.005416334856374315
-0.03361082456582627
0.01404229152685135
-0.08431792068640864
0.02856223913844536
-0.03328090120861401
-0.01300473797271533
0.07058401906895086
-0.07562015148622794
-0.0918414360687268
0.1783533822126213
-0.1484088747873192
-0.1794452207725114
0.2618045916377623
-0.2017043672551227
-0.2694253151150739
0.3539428227860475
-0.342754354437629
-0.2446015259127174
0.4210522366456062
-0.1184377520694678
-0.05234961872091193
-0.191231240588383
-0.1066904861770982
-0.2300218835819627
-0.146132424688912
-0.2600575369680603
-0.2634412010043063
-0.1366940550469861
-0.01776653170072061
-0.1419183712348029
-0.02436713432287078
-0.1706790589138727
-0.05095614784537394
-0.1563445097343059
-0.2866099280917089
-0.04168779888508723
-0.05086805054776757
-0.09824472373165812
-0.2466229339671337
-0.177349491789951
-0.02267468669423245
-0.05750021606400843
-0.05714904026690876
0.006282036387086645
0.00765378283100851
0.02817337291637655
0.01189028548830987
-0.233735110247546
-0.05550540566553624
-0.1646729867598009
-0.06770068099716109
-0.05832718825765035
-0.05229941648520389
-0.01277014809850233
0.01514863560469271
-0.2350967033630799
-0.05744140593727903
-0.1960192894547733
-0.0494121311249851
-0.1127779463631388
-0.07779179822172616
-0.09897378264312606
0.003533907875909771
-0.2319144417159151
-0.2205257974578707
-0.166596699244193
-0.02397027650599271
-0.005199934776544866
-0.004048677898838584
-0.003520926585258079
-0.00267540478215543
-0.002032958369211453
0.001765224897733113
0.002539768945379259
-0.0001778505352100553
0.008325730252479792
0.001154747632524412
0.003417303171896278
0.0157382821578799
0.0008763630865925957
0.01922089344670859
0.01888509826781964
-0.0001660929095199607
0.01138544432577886
0.007277986614146428
0.005462431614410066
0.01880954713804863
0.001377123911824339
0.02176724359004513
0.0206729600047668
-0.0004567187358922482
0.01096009308006786
0.004044623219246939
0.0004464735832173479
-0.0007733150666281762
-0.004635937220476715
0.00588200019545837
-0.05057259536801047
-0.02484531375310508
-0.246467972747692
-0.3387958368757538
-1.247837684934655
-0.436580957354083
0.0002914938167425645
0.0250506525644312
-0.01818799525289959
0.01295532148570647
-0.1673378762823809
-0.1394806689068791
-0.8926551005679274
-0.5125335647081221
0.001126474409831218
0.02317808801388097
-0.008411711675250955
0.01999787133939573
-0.09098310291930581
-0.05106915782059292
-0.442600640071829
-0.5238096813099151
0.0004055565440433777
0.002766935885371624
-0.04375859391991356
-0.4591432952958089
-0.3693663284129621
0.2735599530269348
-0.3440652314984655
0.03640840447298088
-0.3297046189517329
-0.03054047541206306
-0.04835549850139542
-0.3183777522090122
-0.3740602083313137
0.1717780427201265
-0.3441151782894756
0.03105998525408138
-0.3363211725950797
-0.03095904167284025
-0.04514810354147114
-0.3318651977355587
-0.3669128337823868
0.06660434069935661
-0.3427172524538428
0.05172335953901719
-0.3349407345841621
0.007969426848867478
0.003865373365831704
-0.3304475933860281
-0.3861778042364648
-0.309851975014787
-0.2936097611392791
-0.2856296873966601
-0.3178771208850869
-0.06740657120480531
-0.3176582722421391
-0.06838277407709359
-0.31758639820437
-0.06850092359137827
-0.06883396156069854
-0.3175256430069505
-0.3314590088352289
-0.05683751997799902
-0.3314178348970415
-0.05712597043540402
-0.331440695628764
-0.05711674860003191
-0.05725525323023262
-0.3314418460996855
-0.3303885060965565
-0.002113783242037703
-0.3303403648674333
-0.002603338712579006
-0.3303958647098108
-0.002528592065846769
-0.002540112856577292
-0.3303966060331806
-0.2846351659460019
-0.2846500102048654
-0.2846705172561502
-0.2846636654958037
-0.3170881721967072
-0.06897060434996982
-0.3098595261281644
-0.06320101210649032
-0.2799716394582481
-0.004884038301053328
0.2096068031376517
-0.2273745748245301
-0.3309268451610473
-0.05729123222587773
-0.3190319796323017
-0.05351671956139892
-0.2807975684205409
-0.005129267745894617
0.1248530834031657
-0.2303546912356954
-0.3297915429682566
-0.002530291529284412
-0.3139362860688188
-0.004423618220177339
-0.2548858350209245
0.005283533007242824
0.07229485275186476
-0.204227883067479
-0.2833036927039635
-0.2698681132447771
-0.2445297441115183
-0.1912033674464757
-0.2333281649579796
0.007967289117305265
-0.2333281603315955
5.163088803716853e-07
-0.2333281601865063
4.676492526556331e-11
-1.071940869401544e-10
-0.2333281586992748
-0.2333282181352789
-0.04101019021410246
-0.2333281600485845
1.287078973399858e-07
-0.2333281597422481
-1.851524489282497e-11
-1.784320469155887e-10
-0.2333281585108163
-0.2333281768688319
-0.06889150580807796
-0.2333281598060493
3.062018993915672e-08
-0.2333281597132613
-2.078076599687506e-11
-3.707328888324923e-11
-0.2333281597155225
-0.2333281619089234
-0.2333281597769103
-0.2333281597715861
-0.2333281596735372
-0.2333281094278845
6.670918817341942e-10
-0.2333276916638269
2.48110726575046e-07
-0.2333281868775479
3.048939078986734e-06
2.394576908421042e-05
-0.2334353732596836
-0.2333281602842464
3.659838931913129e-09
-0.2333281989423343
3.346422168259977e-07
-0.233328706183565
6.034376276664588e-06
5.948608701683566e-05
-0.2334426946912179
-0.2333281672084311
8.584200072991877e-09
-0.2333283744818075
6.07588194034836e-07
-0.2333313608953181
1.075002191114338e-05
0.0001524567482866224