/*--------------------------------*- C++ -*----------------------------------*\
  =========                 |
  \\      /  F ield         | OpenFOAM: The Open Source CFD Toolbox
   \\    /   O peration     | Website:  https://openfoam.org
    \\  /    A nd           | Version:  11
     \\/     M anipulation  |
\*---------------------------------------------------------------------------*/
FoamFile
{
    format      ascii;
    class       volScalarField;
    location    "0.359185";
    object      T;
}
// * * * * * * * * * * * * * * * * * * * * * * * * * * * * * * * * * * * * * //

dimensions      [0 0 0 1 0 0 0];

internalField   nonuniform List<scalar> 
880
(
500.0000000000027
500.0000002917973
500.0240420041876
503.3398465310983
500.0000000004407
500.0000008559167
500.0298468686955
504.8859164820356
500.0000000016356
500.0000033338121
500.0553139285083
506.7142033858593
500.0000000211684
500.0000146038216
500.1147135179325
509.4266844435316
499.9999999006574
500.0000000750398
500.0000101547656
500.0001636716477
500.0000670970828
500.0002567760342
500.0016139386256
500.0023556498494
500.2632659245813
500.4345618031773
500.7184525080624
500.9603893350146
514.9158903129281
521.1104088109381
526.3718514935638
529.0267385305211
500.0004089971505
500.0033833496636
500.0128167834969
500.0397590550892
500.0227832588011
500.0985218399947
500.2004198693298
500.4218325997237
502.4150423760402
503.6976366411595
505.2850856901998
507.2293146556883
531.254980287194
533.8962599447373
534.3907838458541
533.1629528002599
522.8395464294455
517.6386765795727
515.4442194025244
513.9699279360304
511.0459446621829
512.6624604838297
513.5763313560242
513.7061070096945
501.1768187784941
502.0595905921451
503.0073333367122
503.7654267380133
500.1410799491392
500.3404584848139
500.6410202526475
501.0635509472509
501.5568840881372
502.0491340197504
502.5346010764868
502.8859800078005
504.3915163811395
504.7475979696937
504.9491081347958
504.8992270589713
513.0666497831102
512.1683511451319
510.986267791877
509.7488837042699
512.2217855710338
511.032899432968
510.2808858958313
509.513690716551
508.9393356024112
508.8783233332512
504.7585512143485
503.0936935816181
519.1868034563134
508.0397189929216
504.3852714786067
503.0542988578882
571.2845574202975
510.4305941903507
503.9281779085309
502.6016592319546
620.3240717113536
523.8863723258499
504.7788930862552
502.4435261144505
502.3938343039928
506.0646734479446
539.6653211574746
637.4016197738586
501.5138497371918
508.5856533882364
556.2866005136904
635.1834767806463
501.8896449726009
514.4332624569834
576.5914572972537
636.1926171949553
503.3212343886111
524.8519412915555
594.7322615397121
633.4414115256292
628.3235933423181
604.7977053738231
539.794766609633
506.480451358538
621.8208138913081
607.453918534115
554.976291099268
512.1538622682041
614.5065296999054
605.2863854142045
566.9780104958414
521.1435666028559
606.6474042673433
594.2627927899958
569.0755911476
532.0692498191383
541.2734134159243
563.5965289926341
579.7633425447719
597.155334484763
539.8162246380584
552.0515551069101
562.8318973003687
582.2100909999646
535.8211080052008
540.3177963622228
544.5147541824351
560.5791617318717
530.6256026468154
529.8327134755422
525.315793391136
530.4088533219613
526.7429406303191
520.448318974194
508.5004687149921
495.535338683425
520.5839410667321
511.2759868653732
491.9748992433354
459.839471895984
515.756790741729
506.0161959925011
477.9490926490608
425.1106148694427
511.5833211552297
504.5826253975518
477.704978601806
399.8208484623327
410.6168573416637
486.8499964976598
503.2603001828588
507.7648939862923
477.9844519067659
493.0498162394137
502.4041810921352
505.1665891458789
517.2809491708221
495.7451813313764
500.8744791933067
503.3568619046575
530.1949004242874
500.4180037971505
500.2280891454814
502.2879343865825
539.0042843073686
504.3328731483861
498.9657763881581
500.391533350682
533.7866046071118
504.2983523825441
497.6631833361297
499.2217721941361
525.7737839515239
503.4809904501768
497.2759400521917
499.1947351987814
517.6846854192123
499.1095233425754
497.0802661646081
499.4045390765363
479.7546523380643
469.4049135464504
488.9423142240064
498.6820489928592
474.2348030061221
471.2960350126871
489.4310055307066
498.6818283200338
465.2077298183391
473.4211489188035
490.3318505661344
498.6958494789877
459.4835567799217
476.2533564200459
491.382895102933
498.7849717418104
517.6846854192825
499.1095233422615
497.080266165007
499.4045390762824
525.7737839516518
503.4809904495474
497.2759400522102
499.1947351980758
533.7866046071592
504.2983523818149
497.6631833349751
499.2217721931839
539.0042843074502
504.3328731476649
498.9657763879683
500.3915333500942
507.7648939865243
503.2603001831113
486.8499964980156
410.6168573407509
505.1665891457919
502.4041810921927
493.0498162400629
477.9844519059009
503.3568619046047
500.8744791933787
495.7451813305265
517.2809491706123
502.2879343863863
500.2280891458525
500.4180037965062
530.194900424636
399.8208484636612
477.7049786016127
504.5826253975549
511.5833211553694
425.1106148695114
477.9490926490726
506.0161959929252
515.7567907417099
459.8394718962085
491.9748992437486
511.2759868653934
520.5839410668773
495.5353386837584
508.5004687147652
520.4483189737437
526.7429406304304
541.2734134159264
563.5965289932282
579.7633425454356
597.1553344852164
539.8162246376118
552.0515551065997
562.8318973005623
582.2100910005155
535.8211080044192
540.3177963619437
544.5147541823732
560.5791617322127
530.6256026465862
529.8327134751563
525.315793390945
530.4088533223365
606.647404267679
594.2627927903752
569.0755911478919
532.0692498200826
614.506529700335
605.2863854145705
566.9780104959568
521.1435666027714
621.8208138918092
607.4539185343963
554.9762910989565
512.1538622681853
628.3235933427405
604.7977053742018
539.794766610077
506.480451358463
502.3938343038997
506.0646734478814
539.6653211573413
637.4016197738234
501.5138497379465
508.5856533886812
556.286600513797
635.1834767807252
501.8896449736561
514.4332624579874
576.5914572975989
636.1926171948193
503.3212343886557
524.8519412913477
594.7322615402481
633.441411525819
502.4435261142627
502.6016592318106
503.0542988584115
503.093693581763
504.7788930854982
503.9281779082597
504.3852714784942
504.7585512141884
523.8863723251145
510.4305941903154
508.0397189923926
508.8783233330807
620.3240717110847
571.2845574198961
519.1868034563671
508.9393356022827
502.8859800082699
504.8992270593004
509.7488837046938
509.5136907170419
502.5346010763323
504.949108135226
510.9862677923072
510.2808858960914
502.0491340197701
504.7475979698898
512.1683511450808
511.0328994323546
501.5568840876972
504.3915163810001
513.0666497834853
512.221785571222
500.1410799486811
501.1768187781427
511.0459446627908
522.8395464298599
500.3404584841666
502.059590591728
512.6624604844779
517.6386765797224
500.6410202529346
503.007333336496
513.5763313564371
515.4442194017782
501.0635509468328
503.7654267379174
513.7061070102576
513.9699279355684
533.1629528003019
507.2293146558364
500.4218325995902
500.0397590554985
534.390783845965
505.2850856903859
500.2004198690547
500.0128167833413
533.8962599451443
503.6976366411201
500.0985218387936
500.0033833490601
531.2549802873109
502.4150423758148
500.022783258418
500.0004089978161
529.0267385302902
500.9603893352882
500.0023556500994
500.0001636724151
526.3718514930679
500.7184525080831
500.0016139382782
500.0000101552798
521.1104088103034
500.434561803103
500.0002567756351
500.00000007472
514.9158903123844
500.2632659244993
500.0000670967806
499.999999901189
500.0000000001753
500.0000002919334
500.0240420041328
503.3398465308823
500.0000000005271
500.0000008556246
500.0298468686672
504.8859164821023
500.0000000018922
500.0000033336324
500.0553139285954
506.714203386363
500.0000000219066
500.0000146036315
500.1147135179783
509.4266844437573
506.2237707555265
508.9257776271263
513.2465603087159
521.8923273740533
508.9257776276237
512.384259102762
518.752505186759
531.3285182293091
513.2465603089873
518.7525051868528
528.8771372220945
544.0733518573575
521.8923273741248
531.3285182291586
544.0733518578751
560.2565741778257
577.2394409181351
564.233217895127
557.3513132620454
544.9464084342399
575.4536913628647
571.5430616962545
570.3287231212964
564.625797569856
575.3905104648146
574.3199118679258
573.7592599766326
572.0548089892106
571.9784712058068
571.5434316487822
571.6822468350409
570.9777623274668
567.8971515747913
565.5527039613092
560.4607404178533
553.2869266466082
567.5566690738658
565.152421906116
560.2391030189566
553.9648424799481
567.573103411321
564.9918369539023
559.9821973978409
554.5587906130129
567.6355032160468
564.7351406716116
560.1856451338441
550.9726095334396
512.382270536758
492.8110613899398
489.9517085168573
490.4519728790456
501.8275474782372
488.7094969207505
489.9724882215606
491.0987156497489
491.5809235715762
488.8788433626743
491.5614712501973
492.8394446844099
469.927311393145
484.1246587167398
489.9035469109236
491.6008130320342
490.7951947587975
491.8128317813145
493.3347982517737
494.8487212439182
491.0063560015689
491.4835279251738
492.8650190424697
494.8635341517974
492.3191689205224
492.3415199410866
493.2698213471581
494.7382468796033
491.2510590502417
491.4224228384921
492.7281985109165
494.8428619389754
505.0110909014166
567.6430121253616
639.3318786731667
664.532715150836
510.9247535789725
581.1316483658709
641.9848006662342
660.2389526490291
516.4004316991798
589.4647318147988
641.9549485494695
660.9388843875219
520.206423642986
597.7350651151841
642.1640280732847
661.3499642503456
694.298980584265
681.4501791356521
670.1522854010782
656.8885198832256
702.7489634408194
690.0119778207376
676.9074865199641
662.5624923515246
708.727483981206
697.4774700897559
683.0218434142613
668.0508837400603
706.6509399047113
701.2992906210389
687.1988462055734
671.842850619258
643.6345464665322
633.041901217852
623.2253296909694
618.9689402354427
648.7360008926271
637.1333765183941
625.9591251938829
621.067950987631
653.8974895540534
640.6447822878368
629.5191444240788
623.179205916046
658.3141515125202
643.7096969919621
633.0077356606538
625.6013954464689
615.0671165310649
607.6477723145168
590.98255561418
565.0096074421613
616.8431821802765
609.234613898057
593.780726347077
592.6525093795597
617.8364914548116
610.1520634039847
602.7697914340629
620.4167838052819
619.7309981105931
614.0015785466294
616.3476202772963
603.9816421957335
522.5310576870294
460.2024234423155
422.5745099056214
426.0607763791672
512.070542378804
421.9798676491732
305.4851831704274
252.9092179160041
468.7339312089915
368.0979460363057
252.1704396654181
231.8568804985704
368.0095624099962
282.5886708298524
227.8297490336188
239.5978134793341
375.7792121461358
403.9938469807179
471.1102240669198
522.940023097453
306.4796041351321
380.3931093729647
441.8296494600201
491.7048455836212
291.6810694968885
350.9158669357332
404.3929893820873
445.1121543217589
298.9436150588477
351.4292679377819
402.1025922573801
431.124897056313
487.0528763932341
510.3389793152474
509.262237608996
509.6654255831317
435.7678267261944
473.92949768661
492.6613813581833
510.5470969194297
407.3425146913718
432.9134126036002
470.5472778296692
514.1595042049488
392.4835025289593
408.2762813027435
445.0626407989956
512.94901786578
491.8092908217001
470.6013429996611
459.3828170619221
459.683841447496
495.1616687707374
486.0073151338053
482.0096520010871
475.8899375809596
504.2238428536902
507.4034992978969
501.6102114705725
488.620915315085
503.5843129914082
508.6064584306703
498.7239067555491
484.095353219894
465.9382055476061
450.6363996073404
442.2468546914394
439.9060550277079
471.5361083729808
455.6964846177271
444.426714398938
441.0638719177962
469.7972669296801
461.3061848712157
452.6282607634076
449.0122056622546
462.7898141572608
460.2283315134968
455.5002316511801
452.3646284335465
439.9060550276723
441.0638719177655
449.0122056622754
452.3646284336392
442.2468546912717
444.4267143987753
452.6282607634029
455.500231651437
450.6363996070475
455.6964846174678
461.3061848711529
460.2283315136875
465.9382055472304
471.5361083727539
469.7972669296184
462.7898141573977
459.6838414476563
459.3828170619597
470.6013429999803
491.8092908219649
475.8899375809812
482.0096520011812
486.0073151340522
495.1616687709752
488.6209153149726
501.610211470537
507.4034992979084
504.2238428537536
484.095353219678
498.723906755458
508.6064584306244
503.5843129913761
512.9490178658777
445.0626407994273
408.2762813033552
392.4835025295674
514.1595042050559
470.5472778300712
432.9134126041911
407.3425146920335
510.5470969196029
492.6613813584923
473.929497687153
435.7678267270824
509.6654255832697
509.262237609189
510.3389793156334
487.0528763940032
522.9400230973007
471.1102240668343
403.9938469792494
375.7792121548356
491.7048455836176
441.8296494602433
380.3931093722751
306.4796041353124
445.1121543220547
404.3929893826174
350.915866935555
291.6810694966322
431.1248970567013
402.1025922579772
351.4292679381115
298.9436150586542
426.0607764004583
422.5745099075023
460.2024234424261
522.5310576876271
252.9092179190035
305.4851831705193
421.9798676492131
512.0705423788893
231.8568804986245
252.170439665086
368.0979460367454
468.7339312093747
239.5978134794942
227.8297490331399
282.5886708304507
368.009562410361
565.0096074425137
590.9825556145756
607.6477723150058
615.0671165314764
592.6525093799332
593.780726347206
609.2346138983193
616.8431821806079
620.4167838054971
602.7697914340777
610.1520634039761
617.8364914550393
603.9816421961351
616.3476202772389
614.001578546515
619.730998110817
618.968940235972
623.2253296913535
633.041901217833
643.6345464663862
621.0679509881058
625.9591251940251
637.1333765180198
648.7360008922412
623.1792059163242
629.5191444242045
640.6447822874671
653.8974895538167
625.6013954467973
633.0077356608606
643.7096969918583
658.314151512142
656.8885198829777
670.1522854008282
681.450179135345
694.2989805841266
662.5624923511999
676.9074865198817
690.0119778204785
702.7489634406161
668.0508837398448
683.0218434139301
697.4774700892946
708.7274839810628
671.8428506190768
687.1988462053496
701.2992906206873
706.6509399044966
664.5327151508268
639.3318786729133
567.6430121253217
505.0110909018805
660.2389526488907
641.9848006659464
581.13164836577
510.9247535795278
660.9388843872865
641.954948549134
589.464731814595
516.4004316997537
661.3499642501255
642.1640280729482
597.7350651149654
520.2064236435522
494.8487212445683
493.3347982517639
491.8128317805846
490.7951947584805
494.8635341524486
492.8650190422679
491.4835279242083
491.0063560011575
494.7382468802519
493.2698213467477
492.3415199400978
492.3191689199835
494.8428619396072
492.7281985105431
491.4224228374352
491.2510590496396
490.4519728782631
489.9517085162315
492.811061390311
512.3822705371263
491.0987156490037
489.9724882207227
488.7094969212723
501.8275474785304
492.8394446836388
491.5614712492255
488.8788433631265
491.580923571789
491.6008130312347
489.9035469097549
484.1246587171151
469.9273113933562
553.2869266468426
560.4607404181343
565.5527039618778
567.8971515746822
553.9648424800059
560.2391030191587
565.1524219066197
567.5566690737282
554.5587906129773
559.9821973979978
564.9918369542543
567.5731034110403
550.9726095333646
560.1856451338928
564.7351406718428
567.6355032158139
570.9777623265509
572.0548089880863
564.6257975689952
544.9464084343635
571.6822468340417
573.7592599752048
570.3287231196517
557.3513132615053
571.5434316476943
574.3199118662108
571.543061693518
564.2332178931986
571.9784712048746
575.3905104629603
575.4536913594263
577.2394409144888
505.1191354993614
497.2492017541389
496.8143372015114
499.4848553134724
485.4185906688825
492.0328940369371
495.3938518806074
499.3460417455349
470.3761266440575
486.3976790208021
493.9808934874023
499.1487520912673
460.1345844238656
480.4301671488354
492.4983092634419
498.9419618474765
498.6820489924581
488.9423142239847
469.4049135464215
479.7546523381533
498.6818283196706
489.431005530868
471.2960350126361
474.2348030064752
498.695849479011
490.3318505665181
473.42114891859
465.2077298186338
498.7849717419352
491.3828951031125
476.2533564198635
459.4835567800435
498.9419618473815
499.1487520910911
499.3460417458875
499.4848553136167
492.4983092632086
493.9808934872052
495.3938518803162
496.8143372016927
480.4301671489289
486.3976790211127
492.0328940374779
497.2492017545198
460.1345844236873
470.3761266438074
485.418590668892
505.1191354994907
)
;

boundaryField
{
    back
    {
        type            empty;
    }
    inlet
    {
        type            zeroGradient;
    }
    front
    {
        type            empty;
    }
    top
    {
        type            zeroGradient;
    }
    outlet
    {
        type            fixedValue;
        value           uniform 500;
    }
    bottom
    {
        type            zeroGradient;
    }
    wall
    {
        type            zeroGradient;
    }
}


// ************************************************************************* //
