/*--------------------------------*- C++ -*----------------------------------*\
  =========                 |
  \\      /  F ield         | OpenFOAM: The Open Source CFD Toolbox
   \\    /   O peration     | Website:  https://openfoam.org
    \\  /    A nd           | Version:  11
     \\/     M anipulation  |
\*---------------------------------------------------------------------------*/
FoamFile
{
    format      ascii;
    class       volScalarField;
    location    "0.085";
    object      Ma;
}
// * * * * * * * * * * * * * * * * * * * * * * * * * * * * * * * * * * * * * //

dimensions      [0 0 0 0 0 0 0];

internalField   nonuniform List<scalar> 
880
(
1.11801663592382
1.11801663592382
1.118016625155476
1.118015960983896
1.11801663592382
1.118016635923814
1.118016590322827
1.118003737693639
1.11801663592382
1.11801663592443
1.1180164885274
1.117828538292982
1.118016635923821
1.11801663589686
1.118012637384679
1.115225704765794
1.11801663592382
1.118016635923957
1.118016635924151
1.118016634438917
1.118016636086263
1.118016635067614
1.118016639299839
1.118016575890037
1.117985961524772
1.117945220422518
1.117930068485632
1.117949336962272
1.101430041577565
1.085060145933415
1.078404524797822
1.077318630144381
1.11801660951461
1.118016492078483
1.118016383009164
1.118016493182523
1.118015271177723
1.118014178337665
1.118014437982006
1.118014180593796
1.117324754807528
1.117181065795318
1.117216086094385
1.117108931913499
1.076499194111145
1.075449921703708
1.078314372846558
1.078156790348359
1.105721673664594
1.122420417175448
1.131013201287789
1.132700437174771
1.116566237079975
1.115929568141782
1.117360615979961
1.118175108680749
1.118009365956864
1.118000502754017
1.118007589396024
1.118015287326521
1.118016140854603
1.118015558362233
1.118015347880666
1.11801554766528
1.11801603395374
1.118016454538361
1.11801661185609
1.118016634858387
1.118019560987876
1.118018450850744
1.118017001774991
1.118016658501383
1.118530661833728
1.118367249128117
1.118125882098453
1.118029763724616
1.130409891496483
1.12632574304983
1.121888068233758
1.118980444973353
1.118105782563644
1.1180170787762
1.118016636318688
1.118016635907364
1.118018346143145
1.118016643043757
1.118016636365867
1.118016635925613
1.117734294503639
1.118015905473773
1.118016634313757
1.118016635709429
1.087144610822925
1.117809198477002
1.118017354814723
1.118016761860568
1.118016607494932
1.11801270621617
1.115865066903929
0.9400878649658736
1.118016405187835
1.118002710339511
1.11349816555973
0.9143713988650336
1.11801572737338
1.117989302921859
1.110790779297334
0.8942387726464252
1.118014552844151
1.117980951715162
1.108885350755026
0.8954322646670697
0.897273149210142
1.106701136341424
1.117963767780124
1.118014085551592
0.901193763805185
1.105100987715421
1.117956006136985
1.118012199886061
0.8946411110608982
1.101921631417909
1.117920303185441
1.118011924712539
0.8888491324326578
1.098854389566863
1.117900193895362
1.118007875949823
1.118007094005957
1.117843046411477
1.092823950183878
0.8779020773556843
1.118001009052625
1.117784451054291
1.0904629275456
0.8978474928944401
1.118000085802419
1.117804674231948
1.09688679384638
0.9575622724773449
1.118001008279105
1.117873851367006
1.110443258491173
1.04912160695965
1.117990682000353
1.11782161863309
1.124334868323461
1.197612297781947
1.118010564486549
1.118480713830163
1.12562090228038
1.183458124427877
1.118018256646482
1.118040876515284
1.117359688279047
1.072765648359411
1.118016242317982
1.117844643965666
1.104261570004899
0.9293784519130132
0.8649103667553346
1.100104043307096
1.117825506079034
1.118016347262454
0.8350941871344268
1.096912077906554
1.11774705802776
1.118015931822355
0.8351187322368223
1.100065821298076
1.117873827599028
1.118016478740097
0.8084586582596026
1.098099054674867
1.117852364958871
1.118016347414956
0.9100749833950157
1.107080297387797
1.117945725539169
1.118016531036784
1.011881572667922
1.113518173807562
1.117997140909991
1.118016607031189
1.07716055992449
1.116767130361967
1.118013519304081
1.118016634324154
1.107816898518065
1.117993693661334
1.118017782669553
1.118016638627682
1.065856076747798
1.11571088588749
1.117986483084574
1.118016475791568
1.066670271246768
1.115787145540774
1.117987222179447
1.118016478077772
1.065323720887585
1.115833753171353
1.117987898855399
1.11801648057247
1.064193040288064
1.115956742152955
1.117989882572473
1.118016490237852
1.107816898517913
1.117993693662761
1.118017782671382
1.118016638629513
1.077160559924792
1.11676713036396
1.118013519305897
1.118016634324787
1.011881572668421
1.113518173809092
1.11799714091023
1.118016607031696
0.9100749833938095
1.107080297389093
1.11794572553852
1.118016531036636
1.118016347260391
1.117825506078884
1.100104043306298
0.8649103667539624
1.118015931822671
1.117747058027517
1.096912077905341
0.8350941871329861
1.118016478739643
1.117873827599342
1.100065821298901
0.8351187322361281
1.118016347414685
1.117852364957514
1.098099054674577
0.8084586582581745
0.9293784519107104
1.10426157000423
1.117844643966205
1.118016242318592
1.072765648357987
1.117359688279024
1.118040876514748
1.118018256646696
1.18345812442746
1.125620902280095
1.11848071383048
1.118010564485362
1.197612297781936
1.124334868324521
1.117821618634415
1.117990681999261
1.118007094006637
1.117843046407428
1.092823950181694
0.8779020773560473
1.118001009052008
1.117784451056028
1.090462927544395
0.8978474928935587
1.118000085802969
1.117804674231485
1.09688679384646
0.9575622724778242
1.118001008279486
1.117873851367505
1.110443258491443
1.04912160695978
0.8888491324325218
1.09885438956781
1.117900193896878
1.118007875947013
0.8946411110601838
1.101921631417184
1.117920303184565
1.118011924712599
0.9011937638047867
1.105100987715263
1.117956006137134
1.118012199885882
0.8972731492106308
1.106701136337471
1.117963767778961
1.118014085551193
1.118016607494556
1.118012706215577
1.115865066903448
0.9400878649654661
1.118016405186156
1.118002710339009
1.113498165563247
0.9143713988664888
1.118015727371534
1.117989302919588
1.110790779293916
0.8942387726462914
1.118014552844203
1.11798095171658
1.10888535075987
0.8954322646680878
1.118016761860492
1.118016635709669
1.118016635925251
1.118016635907374
1.118017354816634
1.118016634314558
1.118016636366533
1.118016636319103
1.11780919847803
1.11801590547338
1.118016643044417
1.118017078776712
1.087144610823622
1.11773429450337
1.118018346142729
1.118105782563597
1.118016634858074
1.118016658500896
1.118029763724039
1.118980444973104
1.118016611856276
1.118017001774039
1.118125882098322
1.121888068233446
1.118016454538388
1.118018450850337
1.118367249129253
1.126325743051163
1.118016033954376
1.118019560988226
1.118530661832985
1.130409891496706
1.118016140854315
1.118009365958246
1.11656623707987
1.105721673663805
1.118015558363505
1.118000502753432
1.115929568141226
1.122420417175278
1.118015347879924
1.11800758939697
1.117360615980573
1.131013201288411
1.118015547665566
1.118015287327002
1.118175108680547
1.132700437175915
1.078156790348935
1.117108931913459
1.118014180594807
1.11801649318184
1.078314372847102
1.117216086093056
1.118014437983761
1.118016383009412
1.075449921703422
1.117181065794278
1.118014178339914
1.118016492079085
1.076499194111988
1.117324754809689
1.118015271178364
1.118016609512809
1.077318630144869
1.117949336960074
1.118016575890085
1.118016634438222
1.078404524798301
1.117930068486872
1.118016639300689
1.118016635924137
1.085060145934039
1.117945220423031
1.118016635068438
1.118016635923944
1.101430041578429
1.117985961525484
1.118016636086321
1.11801663592382
1.118016635923821
1.11801663592382
1.118016625154926
1.118015960983621
1.11801663592382
1.11801663592382
1.118016590322758
1.118003737693857
1.11801663592382
1.118016635924992
1.118016488527267
1.11782853829276
1.11801663592382
1.118016635897704
1.118012637385264
1.115225704766534
1.118015523949407
1.117958649120032
1.116911432641271
1.105094796486136
1.117958649126846
1.117391212512987
1.110993075598055
1.071280667122574
1.116911432644182
1.110993075601603
1.078270832597808
0.9833695456827375
1.105094796483796
1.071280667120994
0.9833695456855807
0.8576645416014023
0.8130605320997281
0.8603973210515502
0.9477491641094465
1.022329769232435
0.8750910680383586
0.8867741587309533
0.9231813784360781
0.9758395619716
0.9171361017020254
0.925855597353513
0.9552576538701827
0.9908187358041146
0.941769504190992
0.9589773868248829
0.9842158850728874
1.003574332936009
1.009736627914234
1.01478818913936
1.020340150241875
1.02395731121594
1.005717963065943
1.016092208753248
1.021635110159776
1.045993961488857
0.9952573769598188
1.015103603921731
1.021133399177073
1.106638859976811
0.9434232943936611
0.9566488602148616
0.967679522731499
1.186182766428799
1.172399202420314
1.21365734324483
1.173576396858387
1.157197867948956
1.269007542706937
1.270158026944088
1.213387400917866
1.183016529072714
1.41525241926624
1.308435857495895
1.232132665563534
1.197729020125658
1.149123661919894
1.03923633058095
1.02652454790499
1.055980682214564
1.147131710192004
1.13760693541244
1.128070960592197
1.121257042052437
1.163616529472313
1.148359183505899
1.13392056359842
1.123326331883971
1.175307646226505
1.156710339682186
1.139006770054123
1.125298646978788
1.08597762171787
1.102163645244309
1.111852780127859
1.116697021022165
1.118528998884707
1.118037916352757
1.110636035326664
0.8983394254528377
1.118906323565626
1.118052816212994
1.100422755843065
0.7601990404198783
1.119288067406437
1.118077798361423
1.07674139476293
0.6425184473188948
1.117876316405578
1.118099782287097
1.016114288069352
0.4232508662363486
0.6671129202804108
0.7183131867503192
0.7478711634532625
0.7712957486119715
0.6005210421447142
0.6919792490093712
0.7422076874973721
0.7675053798022184
0.4985611716689162
0.6302643168291592
0.7169131690099884
0.759844367134078
0.3037134460274777
0.454221119616338
0.5746746647175457
0.6679477439906657
0.7848005743928219
0.7931954622713231
0.7971966937732878
0.7979511153466765
0.7836341216242919
0.7953469452590942
0.8030998415632871
0.8043783856066248
0.7817878760028314
0.7956616208355072
0.8054715215460294
0.8079193128865999
0.7211606074537481
0.7455913181298175
0.7579226173385548
0.7575817785799149
0.8021930667697963
0.8287929790234615
0.8871976437613517
0.9896273162427112
0.8079597562331552
0.8338423893182836
0.8988234398056464
1.03173347719697
0.8121141928654214
0.8326758555482291
0.9255577266622991
1.308028017784389
0.7705118583920407
0.7974697404052712
0.9427881374868712
1.798217387342492
1.17204288554695
1.123564345146557
0.4377905351707291
0.1965318207415691
1.231119517245366
0.9909892186395868
0.3323861686248967
0.0988269449049035
1.363482456541784
0.7074226157486957
0.1692578602809601
0.06874397710879354
1.078110244354955
0.2935098488496546
0.08021862211720526
0.07107520866533938
0.08989785779595583
0.04332278764536662
0.02547193644201349
0.0445553590924247
0.007238500176402433
0.05133701116110227
0.05935924748934656
0.1311918089758044
0.007140936648473853
0.06536922288431897
0.1259311383014327
0.2270087513229866
0.004375234862123806
0.06503877852582082
0.17538210393552
0.2459800262893644
0.5733920183181211
0.9362848898323085
1.1032658118166
1.173226472500753
0.2812405764298204
0.7046825795318127
0.9759874872133293
1.125674661070672
0.0534480361916335
0.3335909240584244
0.7132981058294271
1.080072143676203
0.1331015229514484
0.1202572044625495
0.5122728115134297
1.178479811266166
1.363195844465447
1.737657783445066
1.865902252115404
1.152093173517322
1.370414322781088
1.892726884737597
2.014893688429868
1.126338961007183
1.405798563084372
2.004470771999115
1.222204631675102
0.5330555682858077
1.246626704341
1.25107429569411
0.2575191864778972
0.3407838050962383
0.4527182492322697
0.3954971948662854
0.270070376743635
0.1641489613427368
0.2662527531052338
0.2677403473777591
0.2220954479412348
0.1611917459285059
0.3201116711724472
0.1077383950415868
0.0866696849517531
0.03890949474444153
0.6938050977061286
0.4553903811330288
0.3514024658685218
0.3606983793934966
0.1641489613425744
0.1611917459284091
0.03890949474457248
0.3606983793932426
0.2700703767433305
0.2220954479409359
0.08666968495179853
0.3514024658683904
0.3954971948659106
0.2677403473775359
0.1077383950415447
0.4553903811330131
0.4527182492319207
0.266252753105194
0.320111671172481
0.6938050977058371
1.152093173516131
1.865902252112855
1.737657783444736
1.363195844465418
1.126338961006436
2.014893688429156
1.892726884737953
1.370414322781158
0.5330555682857882
1.222204631675031
2.004470771998489
1.405798563084335
0.340783805095986
0.2575191864779198
1.251074295693887
1.246626704340984
1.178479811266165
0.5122728115135653
0.1202572044625852
0.1331015229512279
1.080072143676205
0.713298105829633
0.3335909240590582
0.05344803619199893
1.125674661070602
0.9759874872131508
0.7046825795319961
0.2812405764293642
1.173226472500626
1.103265811815995
0.9362848898321829
0.5733920183169596
0.04455535909322782
0.02547193644073557
0.04332278764490645
0.08989785779537682
0.1311918089756023
0.05935924749048504
0.05133701116032766
0.00723850017524491
0.2270087513229572
0.1259311383024529
0.06536922288398081
0.007140936647561394
0.2459800262895365
0.1753821039366398
0.06503877852574538
0.004375234863129206
0.196531820740051
0.4377905351682211
1.123564345140083
1.172042885546224
0.09882694490542432
0.3323861686226294
0.9909892186342377
1.231119517245848
0.06874397710950737
0.1692578602796113
0.7074226157445042
1.363482456541666
0.07107520866615609
0.08021862211587809
0.2935098488485158
1.078110244355515
0.989627316243151
0.8871976437617477
0.828792979023493
0.8021930667705724
1.031733477197083
0.8988234398059064
0.8338423893183721
0.807959756233512
1.30802801778415
0.9255577266623434
0.8326758555483316
0.8121141928655615
1.798217387341779
0.9427881374867684
0.7974697404052117
0.7705118583917731
0.7979511153466127
0.7971966937731014
0.7931954622715819
0.7848005743928976
0.8043783856064382
0.8030998415629202
0.7953469452595041
0.7836341216247071
0.8079193128864209
0.8054715215457602
0.7956616208360792
0.7817878760031995
0.7575817785800862
0.7579226173382136
0.7455913181304433
0.721160607453752
0.7712957486132969
0.7478711634529691
0.7183131867520758
0.6671129202795637
0.7675053798023489
0.7422076874973347
0.6919792490103205
0.6005210421441096
0.759844367133835
0.7169131690104352
0.6302643168294163
0.4985611716681912
0.6679477439898281
0.5746746647188151
0.4542211196149668
0.3037134460255327
0.8983394254541348
1.110636035327101
1.118037916351339
1.118528998883919
0.7601990404213333
1.100422755843601
1.11805281621264
1.118906323565562
0.6425184473194381
1.076741394763931
1.118077798363309
1.119288067407225
0.4232508662359206
1.016114288072531
1.118099782289462
1.117876316409165
1.121257042052544
1.128070960591746
1.137606935413868
1.147131710192156
1.123326331883485
1.133920563598162
1.148359183507142
1.163616529472461
1.125298646977257
1.139006770054025
1.1567103396831
1.175307646226891
1.11669702100194
1.111852780145693
1.102163645231825
1.085977621723273
1.157197867949712
1.173576396858998
1.213657343244052
1.172399202419253
1.183016529073513
1.213387400918646
1.27015802694334
1.269007542705781
1.197729020126343
1.232132665564576
1.308435857494999
1.415252419265132
1.055980682214114
1.026524547906255
1.039236330580985
1.14912366192052
1.02395731121626
1.020340150243062
1.014788189139396
1.009736627914715
1.045993961489029
1.021635110160217
1.016092208752998
1.005717963066102
1.106638859976678
1.021133399177169
1.015103603921212
0.9952573769594827
1.186182766428406
0.9676795227312632
0.9566488602140484
0.9434232943952122
1.003574332936765
0.9908187358045265
0.9758395619720731
1.022329769232432
0.9842158850722512
0.9552576538706092
0.9231813784368202
0.9477491641101657
0.958977386824594
0.9258555973541814
0.8867741587315475
0.8603973210534431
0.9417695041942556
0.9171361017029426
0.8750910680390414
0.8130605321010792
1.097478549890713
1.117491553361579
1.118012584265139
1.118016621284531
1.098999938289399
1.11733926930186
1.11800999706411
1.118016605000366
1.079220555525092
1.116874408840192
1.118004809146709
1.11801657643669
1.060638716611422
1.116190605446223
1.11799584360702
1.118016526427115
1.118016475790403
1.117986483084377
1.115710885887422
1.0658560767456
1.118016478078073
1.117987222178772
1.115787145540471
1.066670271247149
1.118016480572409
1.117987898856443
1.115833753171109
1.065323720889095
1.118016490237617
1.117989882573321
1.115956742152311
1.06419304028954
1.118016526428171
1.118016576436059
1.118016604999836
1.118016621285734
1.117995843608118
1.118004809146854
1.118009997063574
1.118012584264584
1.116190605446397
1.116874408840239
1.117339269301006
1.117491553362364
1.060638716612057
1.079220555525165
1.098999938288618
1.097478549890189
)
;

boundaryField
{
    back
    {
        type            empty;
    }
    inlet
    {
        type            calculated;
        value           nonuniform List<scalar> 
16
(
1.11801663592382
1.11801663592382
1.11801663592382
1.11801663592382
1.11801663592382
1.118016635923962
1.118016635923197
1.118016635461579
1.118016635461468
1.118016635923205
1.118016635923944
1.11801663592382
1.11801663592382
1.11801663592382
1.11801663592382
1.11801663592382
)
;
    }
    front
    {
        type            empty;
    }
    top
    {
        type            calculated;
        value           uniform 0;
    }
    outlet
    {
        type            calculated;
        value           nonuniform List<scalar> 
16
(
1.118016431536367
1.118016434321403
1.118016437352691
1.118016449101995
1.118016616711756
1.118016596015449
1.118016559602136
1.11801649556904
1.118016431535373
1.118016434321657
1.118016437352676
1.118016449101779
1.118016495569995
1.118016559601518
1.118016596014998
1.118016616712881
)
;
    }
    bottom
    {
        type            calculated;
        value           uniform 0;
    }
    wall
    {
        type            calculated;
        value           uniform 0;
    }
}


// ************************************************************************* //
