/*--------------------------------*- C++ -*----------------------------------*\
  =========                 |
  \\      /  F ield         | OpenFOAM: The Open Source CFD Toolbox
   \\    /   O peration     | Website:  https://openfoam.org
    \\  /    A nd           | Version:  11
     \\/     M anipulation  |
\*---------------------------------------------------------------------------*/
FoamFile
{
    format      ascii;
    class       volScalarField;
    location    "0.085";
    object      T;
}
// * * * * * * * * * * * * * * * * * * * * * * * * * * * * * * * * * * * * * //

dimensions      [0 0 0 1 0 0 0];

internalField   nonuniform List<scalar> 
880
(
500
500
500.0000036265943
500.0002128872407
500.0000000000001
500.0000000000059
500.0000142657555
500.0072939321133
500
500.0000000007936
500.000179988895
500.0974722048857
500.0000000000001
499.9999999962856
500.0002432010868
500.4850567849327
500
499.9999999998735
500.0000000005573
500.0000004134477
500.0000000205335
499.9999999278463
500.0000003575063
500.000007848809
500.0053550425196
500.0133251680236
500.0619645889122
499.9394652587902
502.9070721014889
507.1844288646232
510.3452873337979
511.6621097464491
500.0000080465744
500.0000363942903
500.0000438334009
500.0000273892433
500.0002298219675
500.0007356263419
500.0012822268397
500.0009227176207
500.1409039401762
500.2738587032114
500.3736225190386
500.3677322463454
513.4955869788766
515.8119040752292
517.4363632552238
518.8948458338884
514.8813709388681
511.7978211323531
509.3300128247957
506.8280931535984
500.6056390150008
500.9613724684122
500.9072026010458
500.6654637945609
500.002654298397
500.0059025556461
500.0068643753447
500.005479648631
500.0001076657149
500.0002090698202
500.0002157820344
500.0001518250816
500.0000622024791
500.0000126249162
500.0000009501106
500.0000000243158
500.0031310246794
500.0010900174084
500.000176815165
500.000009990549
500.3883705381614
500.1743510645301
500.0459221747564
500.0049991925141
504.6592560996042
502.7835815097091
501.2238126268667
500.295601852583
500.0269373371877
500.0001607071513
500.000000191096
500.000000001224
500.0004761296931
499.9999994005937
499.9999998737434
499.9999999990931
500.0787452729001
500.0001356289703
500.0000002861721
500.0000000689626
506.9502519374656
500.0506513899955
499.9999233267501
499.9999723487953
499.9999942192277
500.0006573190564
500.3855186525493
536.2710710292658
500.000071304813
500.0024682592961
500.911945106506
549.1613842070434
500.0002404392029
500.0062986546438
501.6934499859168
559.671183177808
500.0004405992046
500.0127645599915
502.7029741964492
570.293548417113
578.3296645486323
503.4720531702482
500.0164408958651
500.000590041479
585.3931400473707
504.4713824746339
500.0258665561511
500.0008756733642
589.627859658348
505.1845701141381
500.0299659941026
500.001085510195
594.4408078160992
506.5049215037264
500.0479657830512
500.0017646457829
500.0020709511316
500.05720334567
508.0578525920762
599.5490240475957
500.0032665622124
500.0887481499198
509.7593148647642
597.5828567707143
500.0044549489284
500.0911877463637
508.3600679660571
581.0554797068841
500.0006650701851
500.0695642419257
504.4117145903995
549.0427046122043
500.0062724147525
500.0628030710183
504.0400995093786
522.2365615486045
499.9997813118214
500.0066605903997
502.5643676917921
517.6379464955219
499.9977487479699
499.9590279152316
500.8301775012034
511.0225257942899
499.9991902369262
499.8533192005684
498.2177207000205
502.8307421799912
491.6902571939203
497.6408360547603
499.9174672535227
499.9996700557488
480.9338687475234
497.4858921125885
499.9409195645409
499.9997339435733
472.77451059474
497.7052125162461
499.9660912663264
499.9998882064482
468.7798532991113
497.6508356428179
499.968597973981
499.9998971872035
470.6125781534674
498.7661170878782
499.9884482160115
499.9999558700451
473.4866983603368
499.4171803173846
499.9965226519711
499.9999894775091
478.2149376452331
499.6562626518135
499.9984010858902
499.9999958748891
487.0182029709864
499.868073186729
499.9993470228931
499.9999972843686
494.5782335617348
499.6413963697337
499.993411223757
499.9999604163265
495.1577244140044
499.6535533056216
499.9935149682438
499.9999608625016
495.7657815016163
499.6555489488856
499.9935469653801
499.9999613424497
497.5615420804218
499.691243246953
499.9937258191779
499.9999632063966
487.018202970999
499.8680731866897
499.9993470229732
499.9999972842587
478.2149376452209
499.6562626517333
499.9984010857738
499.9999958748363
473.486698360255
499.417180317271
499.996522651822
499.9999894774574
470.6125781535461
498.7661170877098
499.988448216013
499.9999558700296
499.9996700557112
499.9174672536947
497.6408360554628
491.6902571935638
499.999733943547
499.9409195644716
497.4858921128543
480.933868747187
499.999888206519
499.966091266156
497.7052125155436
472.7745105943015
499.9998971872118
499.9685979742953
497.6508356427254
468.7798532994017
502.8307421799789
498.2177206997733
499.8533192004524
499.99919023714
511.0225257944078
500.8301775011954
499.9590279154277
499.9977487479197
517.6379464955512
502.564367691916
500.0066605905711
499.9997813118047
522.2365615486508
504.0400995091401
500.0628030706317
500.0062724149475
500.0020709510203
500.0572033449229
508.0578525924279
599.5490240479879
500.0032665622458
500.0887481502395
509.7593148649864
597.5828567709905
500.0044549487262
500.0911877464442
508.3600679659917
581.0554797067557
500.0006650702928
500.0695642417292
504.411714590416
549.0427046121168
594.4408078162596
506.5049215034634
500.0479657838829
500.0017646460458
589.6278596586751
505.1845701140036
500.0299659938518
500.0010855102202
585.3931400475757
504.4713824749276
500.025866556155
500.0008756733447
578.3296645486357
503.4720531695099
500.0164408957938
500.0005900415048
499.9999942192816
500.0006573190955
500.3855186522413
536.2710710291551
500.0000713050139
500.0024682598956
500.9119451071081
549.1613842074269
500.0002404393033
500.0062986541652
501.6934499849752
559.6711831774031
500.0004405991186
500.0127645603133
502.702974197966
570.2935484173421
499.9999723488058
500.0000000689191
499.9999999991156
500.0000000012278
499.9999233265426
500.0000002860881
499.9999998736763
500.0000001910336
500.0506513898515
500.0001356290645
499.9999994005234
500.0001607070584
506.9502519373481
500.0787452729281
500.0004761297313
500.026937337244
500.0000000243125
500.0000099905467
500.0049991925318
500.2956018525566
500.0000009501355
500.0001768152384
500.045922174857
501.2238126271132
500.0000126249175
500.0010900175052
500.1743510644093
502.7835815095578
500.0000622024317
500.0031310246815
500.388370538188
504.6592560995999
500.0001076657126
500.0026542982862
500.6056390150545
514.8813709390015
500.0002090696563
500.0059025557554
500.961372468516
511.7978211323623
500.0002157821431
500.0068643752309
500.9072026009313
509.3300128245606
500.0001518250257
500.0054796486164
500.665463794686
506.8280931534593
518.8948458338389
500.3677322462623
500.0009227176314
500.0000273893479
517.4363632551178
500.3736225191167
500.0012822267888
500.0000438334155
515.8119040753539
500.273858703316
500.0007356261459
500.0000363938841
513.4955869788733
500.1409039402864
500.0002298217588
500.0000080470051
511.6621097463718
499.9394652587771
500.0000078488248
500.0000004135464
510.345287333821
500.061964588853
500.0000003573404
500.0000000005506
507.1844288646051
500.0133251679987
499.999999927827
499.9999999998892
502.9070721014169
500.0053550424456
500.0000000205153
499.9999999999999
500.0000000000001
500
500.0000036266261
500.000212887336
500
500.0000000000002
500.0000142657473
500.0072939319209
500
500.0000000007208
500.0001799888976
500.0974722049467
500
499.9999999962025
500.0002432010311
500.48505678477
500.0024885080775
500.03100709194
500.2866259888733
502.5769882119596
500.0310070910625
500.1272693046829
501.2149465874119
507.8911559718326
500.2866259896533
501.2149465900138
506.2017045775536
519.8759926934522
502.5769882123247
507.8911559719247
519.8759926920131
539.9352916312765
562.1678821939738
545.3454248242849
535.2947761474684
521.2580156470373
558.7690789825325
553.7766992505262
550.7063433728647
542.2436872461316
555.9105844482219
553.9940088325363
553.0447126835888
549.4421666221153
556.4526599915222
555.019090311146
554.6783014029378
553.2516450437398
555.6013556194296
556.9941301020986
558.1588042425792
559.4174162173421
555.2440320729013
556.2939337272978
557.2402344396621
558.8680096290514
555.0016485097447
555.3713340900193
556.1516043860411
557.340529947352
555.3284143484094
554.9300036226726
555.673238668507
552.599079515946
527.2761102224433
510.783394909473
506.8515681146181
506.1319032113649
514.3796383295992
506.0652090771279
507.6269263700494
506.8302539425444
500.6960413317713
505.8664269196318
509.4421474590602
508.1753458371357
477.7063644404577
500.5390694496085
507.8975179382625
507.1785894920667
505.8628520417864
504.182472037478
502.2212071500446
500.7789694809708
505.8142822250891
503.9227909268392
502.1050832440177
500.8158455252714
506.5115182839052
504.2895677135475
502.3865182664535
500.969850735435
505.824136009531
503.5742291117409
501.7286500628728
500.623039756717
500.1331507234183
500.0069877672968
502.8590246970035
554.6397767971645
500.1615236766754
500.0096392293914
505.848823756514
569.8007299427144
500.199685658854
500.0123283371358
509.8594985286464
579.5061017184548
500.1102543527946
500.0206452404404
514.122057033445
584.4775445785829
634.9707654058731
640.3360764823325
644.7883757481868
651.2039650210253
646.5441772645747
644.8220684947546
643.4964259324709
646.3471081190041
646.4857892435997
642.8170628181488
640.7630500568728
641.2654376267527
654.0715002691555
646.1980836500758
639.7975136680228
639.3485385151973
655.7748031826932
661.1413205152634
662.9698886560009
663.763854824412
649.8708778596625
654.4575068094395
656.0203988559934
656.9506476471519
642.9962839568498
647.0149795943896
649.1005860152765
650.2379277638456
640.2183212646659
644.0735791675997
646.2454627656956
647.4883361508571
661.9650960142681
653.1400799355865
634.2248307342442
600.8822809525814
655.4655054971603
647.6874369276878
632.2751423945443
627.0699889847915
649.1588812483623
643.2417054007851
632.9261680238731
647.4523759804804
646.4316317108431
643.3716050261856
640.4866956372794
634.1687374061567
559.8571437613468
515.813727878752
403.9657098845249
378.9968895847852
556.8851424975501
448.2247320935402
372.6016012176798
351.2663458054761
486.8041023446132
375.8822768162651
346.1934325003015
331.1012068117985
396.9368145964057
334.3831869826244
347.8006788219158
325.8316882439551
379.9948700964042
379.3233527515375
380.9298112827362
372.4252469437963
348.2883442420454
346.4501211745926
351.0038001966763
356.9011034245357
325.3546090324598
323.238115059247
332.0692289414544
362.8026291516845
317.1245171104576
313.298366858196
324.9535934300009
370.5505480289789
430.0717778285656
428.4359859043328
432.6478728962276
443.8395867721269
444.1101131579418
442.286001203177
437.2978062600029
449.3602460599142
434.3965559961644
456.419659365323
453.5219316155512
465.5713416243088
406.6988743390456
441.9722615981672
453.7017679571227
482.2386958022162
408.2396406305737
352.0655626713204
353.3013521513619
422.5563853790346
404.9531007732646
358.8027575398072
311.2541334034004
342.8797694806348
406.1093108384676
312.7981151233847
321.7701767218919
359.2627699968654
358.1985208295555
287.9763902324426
351.3239831917487
359.5907273160457
359.978897507056
367.6826799792883
369.1592600076557
373.6108792247735
369.9098335022798
376.0336919416314
381.6170609053706
384.4038188233926
386.7198905717217
409.5083237229001
414.6097609050148
415.6681962514552
460.1123786608425
464.7325508175864
454.1147169593963
445.1175374779132
373.6108792247773
384.4038188234034
415.6681962514672
445.1175374779027
369.1592600076633
381.6170609053729
414.6097609050199
454.1147169593783
367.6826799792853
376.03369194162
409.5083237229106
464.7325508176083
359.9788975070442
369.9098335022668
386.7198905717462
460.1123786607832
422.5563853791103
353.3013521515388
352.0655626713828
408.2396406305268
342.8797694806732
311.2541334033752
358.8027575397459
404.9531007732174
359.2627699968903
321.7701767219152
312.7981151234235
406.1093108384331
359.5907273160582
351.3239831917636
287.9763902324592
358.1985208295309
482.2386958021714
453.7017679572024
441.9722615984022
406.6988743394504
465.5713416242779
453.52193161555
456.419659365427
434.3965559964996
449.3602460598625
437.2978062599355
442.2860012032276
444.1101131581808
443.8395867720705
432.6478728961806
428.435985904352
430.0717778287374
372.4252469442087
380.9298112828467
379.323352751692
379.994870096598
356.9011034248438
351.0038001967594
346.4501211745809
348.2883442421319
362.8026291520003
332.0692289415534
323.2381150590967
325.3546090324402
370.5505480293909
324.9535934302141
313.2983668580173
317.1245171104009
378.9968895851347
403.9657098837474
515.8137278790454
559.8571437614894
351.2663458057771
372.6016012176763
448.2247320937659
556.8851424972765
331.1012068120323
346.1934325005904
375.8822768166085
486.8041023446755
325.8316882441404
347.800678822148
334.383186982909
396.9368145966355
600.8822809524837
634.2248307341696
653.1400799355839
661.9650960142302
627.0699889847656
632.2751423945161
647.6874369276113
655.4655054970292
647.4523759804663
632.9261680238305
643.2417054006601
649.1588812482009
634.1687374062078
640.4866956372118
643.3716050260608
646.4316317106751
663.7638548243854
662.9698886562047
661.1413205153251
655.7748031829856
656.9506476470941
656.0203988560866
654.4575068094634
649.8708778597982
650.2379277637872
649.1005860153078
647.0149795945016
642.9962839569688
647.4883361508057
646.2454627656767
644.0735791677575
640.2183212648511
651.2039650209273
644.7883757479455
640.3360764824232
634.9707654057979
646.3471081188707
643.496425932047
644.8220684948982
646.5441772643853
641.2654376265622
640.7630500563212
642.8170628182693
646.4857892434852
639.3485385150063
639.7975136675126
646.1980836501215
654.0715002689932
554.6397767969285
502.8590246969834
500.0069877676806
500.1331507238129
569.8007299425752
505.8488237568578
500.0096392299848
500.1615236766
579.5061017185371
509.8594985291763
500.0123283377706
500.1996856584115
584.4775445788744
514.1220570341984
500.0206452408415
500.1102543516903
500.778969480261
502.2212071507517
504.1824720370443
505.8628520418414
500.8158455245874
502.1050832447918
503.9227909262297
505.8142822251762
500.9698507349646
502.3865182670825
504.2895677129371
506.5115182839733
500.6230397571414
501.7286500631061
503.5742291112331
505.8241360095395
506.1319032111095
506.851568114491
510.7833949095439
527.2761102226273
506.8302539423284
507.6269263698713
506.0652090772887
514.3796383296957
508.1753458369423
509.4421474588622
505.8664269198466
500.6960413317479
507.1785894918834
507.8975179380111
500.5390694499132
477.7063644405258
559.4174162173998
558.1588042426063
556.994130102274
555.6013556193934
558.868009628961
557.2402344395257
556.2939337274395
555.244032072883
557.3405299471162
556.1516043858377
555.371334090149
555.0016485097548
552.5990795156907
555.6732386683764
554.930003622809
555.3284143484375
553.2516450436561
549.4421666221701
542.2436872462191
521.2580156470513
554.6783014029215
553.0447126836214
550.7063433729073
535.2947761474813
555.0190903111228
553.9940088325162
553.7766992505035
545.3454248243289
556.452659991472
555.9105844482358
558.7690789825203
562.1678821939578
494.4037998722326
499.8710610014666
499.9989289401765
499.9999959099227
493.8685468591005
499.8332348630508
499.9982971422644
499.9999919635208
496.3142782302078
499.7982658919625
499.9971847580311
499.9999849424831
497.7659733377649
499.7445738998428
499.9951637899352
499.9999723992678
499.9999604164784
499.9934112237398
499.6413963697233
494.5782335616559
499.9999608624591
499.9935149682334
499.6535533056431
495.1577244140454
499.9999613424918
499.9935469653306
499.6555489488592
495.7657815016685
499.9999632064129
499.9937258192116
499.6912432469472
497.5615420804244
499.9999723991773
499.9999849424944
499.9999919635914
499.9999959098525
499.99516378987
499.9971847579738
499.9982971422116
499.9989289402121
499.7445738998564
499.7982658918759
499.833234863147
499.8710610014999
497.7659733377222
496.31427823005
493.868546858998
494.4037998722598
)
;

boundaryField
{
    back
    {
        type            empty;
    }
    inlet
    {
        type            zeroGradient;
    }
    front
    {
        type            empty;
    }
    top
    {
        type            zeroGradient;
    }
    outlet
    {
        type            fixedValue;
        value           uniform 500;
    }
    bottom
    {
        type            zeroGradient;
    }
    wall
    {
        type            zeroGradient;
    }
}


// ************************************************************************* //
