/*--------------------------------*- C++ -*----------------------------------*\
  =========                 |
  \\      /  F ield         | OpenFOAM: The Open Source CFD Toolbox
   \\    /   O peration     | Website:  https://openfoam.org
    \\  /    A nd           | Version:  11
     \\/     M anipulation  |
\*---------------------------------------------------------------------------*/
FoamFile
{
    format      ascii;
    class       volScalarField;
    location    "0.3";
    object      T;
}
// * * * * * * * * * * * * * * * * * * * * * * * * * * * * * * * * * * * * * //

dimensions      [0 0 0 1 0 0 0];

internalField   nonuniform List<scalar> 
880
(
300
300.0000000030944
300.0000030046471
300.0037381410056
300.0000000000002
299.9999999913614
300.0000130757047
300.0104305893582
300.0000000000003
299.9999999936891
299.9999892256037
300.0637073672286
299.9999999999878
299.9999996341487
300.0002224699404
300.5437195237238
299.9999999999492
300.0000000010871
299.999999848612
300.0000189265541
300.0000007310607
300.0000007580841
300.0000150254658
300.0007073315023
299.9992478882015
300.0019880014901
300.0888430877239
299.8674266178029
303.8193867346629
309.4655526335262
313.5755806844346
315.7858974331043
299.9995542084055
300.00006713981
300.0028467351714
300.00218415731
299.9934211068587
300.005312366975
300.0153795514661
300.0239218719375
300.4612818163016
300.9005966698149
301.4457803508056
301.9889887301433
318.1691941053152
320.797201828461
322.6831041537054
325.7403815867267
323.5685742580888
319.7037717109411
316.1088915653024
313.4003116655539
303.6369691151793
305.9730655014071
307.1225596021066
307.7897324561297
300.0821353741907
300.2584633137865
300.530569540305
300.862727868223
300.0070845413028
300.0237567966532
300.0629351198211
300.1304628605835
300.2243374643419
300.3153882712875
300.3617036535065
300.3679727950488
301.1592657691498
301.3435724160723
301.4665695345539
301.5796417584405
307.8724374408368
307.7189671962036
307.4502626824346
307.0975142549672
311.5014971503745
310.3733274378402
309.8525164167241
309.1821140118752
308.4573398571264
306.4919679160873
301.6052722442715
300.3360194627843
306.9769127026577
305.7875765632253
301.5028752000057
300.2762173292637
307.6758516490142
304.9423307907612
301.2850658537927
300.2033156450468
318.0360810837479
304.534858290524
300.9905889276665
300.1325385450817
300.0354765769222
300.6860972751041
305.3077865243923
356.5069631024323
300.002337068042
300.4853195778599
309.4826009977523
387.7322651557432
300.0073584997473
300.4668544108631
316.4602270110066
397.6547911291603
300.0433014670687
300.8403232012286
325.6733264903776
403.45945713707
406.5765251417276
336.0813975302397
301.8447857002876
300.1307222614204
407.748351100617
347.951754692052
303.9662532592214
300.3319939061086
408.4719994173382
360.2484177456129
307.9732931631725
300.7340415046236
406.9981164816497
371.8106024548338
314.6434756434246
301.5441367860164
302.8991574796696
323.6540120305274
378.6522266197883
403.323637162443
305.0385227372778
329.6202243679038
373.1365420369626
393.3072830471966
306.2924192035092
327.7862876218619
361.5879421524839
379.0155410918295
306.1135986453117
322.2607686367105
346.5399533925167
357.3673923395362
306.7574186241727
319.6980160691489
332.6020988986639
334.5909503453115
305.8237622357574
313.4963611386919
319.4433365588089
309.7386703918831
304.0567402560544
307.3860091505346
309.4379943674827
288.7777002577298
302.5504388701153
305.1943514323518
306.0185263460397
267.9771529717889
270.5810265914725
307.6932488056742
304.1731310453262
301.4958819801219
291.0146941808964
309.1434763156388
303.3717642497352
300.773130381663
324.5987881143552
311.0398423350179
302.5849605056505
300.3156343136503
347.5011573433503
313.4944599572113
301.2467814525247
300.1264021931887
343.5272019161774
311.8961348917031
300.1910138085763
299.9476792928511
325.6802420662337
305.5611176573304
299.3910485479854
299.8801897786159
307.8596612128841
300.2848662011231
299.3297828397106
299.9280775612982
292.6969174736261
297.1984361946471
299.4768095441549
299.9800028753906
265.4988520656199
293.1010349324991
298.6928157737901
299.8869545157366
270.0074549511361
292.6301798795799
298.5882242042436
299.8930488691096
275.2962661995996
291.7563597775114
298.4529791396512
299.9023877478834
279.1364743159593
290.5999435888387
298.3130321090791
299.9106716498698
292.6969174726131
297.1984361949056
299.4768095446002
299.9800028756349
307.8596612120401
300.2848662017208
299.3297828377029
299.9280775599979
325.6802420653495
305.5611176569258
299.391048545652
299.8801897787434
343.5272019163144
311.8961348928405
300.1910138094235
299.947679291988
301.4958819838949
304.173131046466
307.6932488035732
270.5810265914519
300.7731303820969
303.3717642516108
309.1434763157052
291.0146941803567
300.3156343120946
302.5849605075969
311.0398423346324
324.5987881143254
300.126402194029
301.2467814533301
313.4944599597692
347.5011573442916
267.9771529720629
306.0185263455575
305.1943514305108
302.5504388711282
288.7777002585036
309.4379943674298
307.3860091512395
304.0567402558272
309.7386703919928
319.4433365585242
313.4963611408966
305.823762233967
334.590950344636
332.6020988988291
319.6980160688357
306.7574186149552
302.8991574805071
323.6540120311399
378.6522266202708
403.3236371624178
305.0385227375925
329.6202243685496
373.1365420352571
393.3072830467924
306.2924192119976
327.7862876222115
361.5879421508989
379.0155410911894
306.1135986452699
322.260768635804
346.5399533925134
357.3673923390322
406.9981164824752
371.8106024560569
314.6434756450601
301.5441367874164
408.4719994189566
360.2484177494671
307.9732931657239
300.7340415049754
407.7483510996097
347.951754693458
303.9662532615255
300.3319939055526
406.5765251414749
336.0813975281442
301.8447856990463
300.1307222601701
300.035476576273
300.6860972744394
305.3077865241794
356.5069631027508
300.0023370672836
300.48531957781
309.4826009964357
387.732265155061
300.0073584987935
300.4668544092642
316.4602270123975
397.6547911298202
300.0433014654191
300.8403232058336
325.6733264928953
403.4594571395742
300.1325385480541
300.2033156448273
300.2762173290374
300.3360194614147
300.9905889270872
301.2850658550271
301.5028751995615
301.6052722440267
304.5348582896299
304.9423307910478
305.7875765635051
306.4919679172112
318.03608108319
307.6758516492148
306.9769127030842
308.4573398577924
300.367972794003
301.5796417595395
307.0975142559005
309.1821140122539
300.3617036529733
301.4665695371523
307.4502626832341
309.8525164161782
300.3153882703163
301.3435724189289
307.7189671957258
310.3733274365572
300.2243374616844
301.1592657707108
307.8724374401912
311.5014971483429
300.0070845501022
300.0821353741483
303.6369691154234
323.5685742581275
300.0237567993432
300.2584633095541
305.9730655004307
319.7037717093062
300.0629351171586
300.5305695351472
307.1225596007934
316.1088915629772
300.130462856542
300.8627278670172
307.789732454489
313.4003116628157
325.7403815886381
301.9889887317296
300.0239218743706
300.002184160662
322.6831041557453
301.4457803515886
300.0153795464068
300.002846709076
320.797201830493
300.9005966704099
300.0053123693619
300.0000671584536
318.1691941045963
300.4612818124111
299.9934211049999
299.9995542092455
315.7858974346952
299.8674266171803
300.0007073332351
300.0000189272281
313.575580684448
300.0888430861108
300.0000150252139
299.9999998485245
309.4655526330777
300.0019880010343
300.0000007581432
300.0000000009614
303.8193867352632
299.9992478880956
300.0000007310485
299.9999999998818
300.0000000000001
300.0000000032935
300.0000030049609
300.0037381410276
300.0000000000002
299.9999999911094
300.0000130757622
300.0104305889695
300
299.9999999936896
299.9999892252921
300.0637073693988
299.9999999998902
299.9999996339383
300.000222469179
300.5437195192526
300.0093537130015
300.0386911368459
300.2111188947158
301.3406323288337
300.0386911366215
300.0918704732996
300.3274622483313
303.1007547585996
300.2111188930185
300.3274622475097
301.3193015659755
311.5586234924585
301.3406323344155
303.100754766866
311.5586235001143
333.1002264806418
360.2723950024272
342.6088136098096
329.6665089616185
316.574496246776
358.5288016396911
353.4364893227023
348.8211318010285
340.2732337782124
357.3674392816721
355.2640906323588
352.9135919564788
349.4572907826685
357.0269749376675
356.2546430407918
355.2736621787267
353.6786095800516
352.7057708671113
352.0711042925648
350.9974837436829
351.5226454066234
353.6798598047191
352.397934592238
350.9551316778941
351.3661702220954
354.3401901542903
352.7348148723873
351.1202556860726
351.4618661286384
354.5911765304823
352.8297565781349
351.1882219620738
346.4638551542716
332.2345870109671
310.1772430710682
300.8109139713762
297.7988747036621
324.1714007911605
304.2753932910208
299.6999791250079
298.1803717257383
315.1935010034329
301.2675567224831
300.821074833629
299.6845498438927
293.9711890734295
295.9155889940231
299.9030207592046
299.1020645957423
296.8748355249535
297.0853388776715
297.9306333579041
298.953704824287
297.1904184311317
297.3612470865799
298.2730298872869
299.3804398671809
298.3287746476028
298.2469722895041
298.9352430503527
299.9238908616069
297.6458925684095
297.73378550688
298.568757856446
300.1711231122693
299.7919428996671
300.4615095513624
319.4883314786008
373.575461533256
300.4162864124626
301.521894263418
332.6317493468422
390.1365487773662
301.1963222120394
302.5616218176917
347.1987215695687
398.2482762572288
301.5989672727182
302.9113159764813
356.916626626344
401.5309436156358
438.2715876272816
445.4490745283142
442.9910295430361
439.2799210128687
446.6632744298863
448.1167357941878
446.1006278546878
441.6669151349558
448.6276210769711
450.6073912709704
448.8008096414853
443.8958332828155
446.1080049720478
451.9006168747801
450.4284217783804
445.527754004767
439.0740622363557
439.1910889263294
434.5039636080894
425.5134082271238
440.8752834214996
441.0206290053782
437.5058527014505
428.0765089605393
441.2570321767515
442.1677048173482
439.3386696028099
430.5136394077851
442.3228478931629
443.2525001719943
440.5466470205569
433.0492428121821
417.2175220736376
404.9956129538476
392.3617361606562
375.0036735276902
419.1585798055776
406.4373113046764
392.2081923916513
391.010619692443
420.9508940859176
408.1485228371711
398.317303554976
407.5354595072437
423.2221251077153
411.6508939735912
409.0530591859369
390.93878897127
340.5524875015325
289.3365837097668
208.6159999968243
161.6889268544896
333.2224425356099
256.5644184302049
153.5999750153514
120.0833126926505
304.3923835455954
206.3642036738246
123.3578852647338
113.5213922478308
227.8747503860797
139.4842591531726
116.2934741583442
118.4049561336471
214.0264122071549
248.7921978477723
297.2546161152617
336.9495726567231
169.4210669697586
217.1416452844796
263.6686621906162
299.3097050794553
158.8960786183806
197.1009325103856
237.1050737984661
263.2743041979738
161.9357800751438
199.0960810114499
235.9998125606703
252.4963388865595
288.8544081947898
306.2363593565349
296.5887458440465
285.9239712866257
258.6908805220373
285.4297074893645
289.5641313589254
291.2938417392597
241.0204934445823
264.9705363430201
279.599214543917
302.9014349639773
234.2314051110313
251.3557672634483
269.6048566193447
321.5562430212465
268.1353922148995
252.7668142000093
265.5523134979837
274.9522839206497
265.3373725872672
238.2139477917945
256.5488906660622
264.8061813043735
267.1920976696634
237.045782753617
265.2653061796855
261.1858311299151
258.5393604108932
241.7183441191377
255.7240519149797
240.7566228489115
221.2358969779909
210.024380016304
205.8834516179379
205.2443510129348
241.9096047964787
224.6821698882498
215.8575939095893
215.4141738143374
255.8944867762895
242.8398278852241
235.1045588867292
234.5770395913526
270.8552633892218
262.5458446069968
256.8632851909208
255.8510101134239
205.2443510130891
215.4141738144393
234.5770395913623
255.8510101128488
205.8834516183327
215.8575939099422
235.1045588869497
256.86328519014
210.0243800168943
224.6821698886922
242.839827885375
262.5458446061323
221.2358969785521
241.9096047968135
255.8944867761464
270.8552633883845
274.9522839198026
265.552313498703
252.7668142002723
268.1353922140349
264.8061813039933
256.5488906665865
238.2139477921249
265.3373725864566
261.1858311301547
265.2653061801472
237.0457827544527
267.1920976690094
240.7566228492488
255.7240519145747
241.7183441191998
258.5393604108903
321.5562430210975
269.6048566186882
251.3557672615408
234.2314051090136
302.9014349634728
279.5992145435754
264.9705363415538
241.020493442009
291.2938417382929
289.5641313585343
285.4297074884669
258.6908805187428
285.9239712858497
296.5887458434096
306.2363593559111
288.8544081921045
336.949572659889
297.254616118056
248.7921978525505
214.0264122184172
299.3097050788322
263.6686621916739
217.1416452857365
169.4210669707537
263.2743041957635
237.1050737983402
197.1009325106731
158.8960786181656
252.4963388842746
235.9998125597544
199.0960810113663
161.9357800750317
161.6889268567432
208.6159999956256
289.3365837095797
340.5524875022097
120.0833126924737
153.599975015381
256.5644184302947
333.2224425360264
113.5213922475881
123.3578852646809
206.3642036743471
304.392383545342
118.404956132454
116.2934741574156
139.4842591535725
227.87475038654
375.0036735279413
392.3617361590231
404.9956129530121
417.2175220732514
391.0106196929287
392.2081923900089
406.4373113037844
419.1585798049693
407.535459507053
398.3173035538987
408.1485228363206
420.950894085233
390.9387889712485
409.0530591849193
411.6508939724562
423.2221251072444
425.5134082266848
434.5039636080562
439.1910889262998
439.0740622396227
428.0765089595531
437.5058527014898
441.0206290056231
440.8752834247171
430.5136394071234
439.3386696029429
442.16770481826
441.2570321794257
433.0492428131075
440.5466470205144
443.2525001733117
442.3228478958511
439.2799210136784
442.9910295437811
445.4490745284641
438.2715876280686
441.6669151355222
446.1006278555892
448.1167357942962
446.6632744304021
443.8958332833575
448.8008096424758
450.6073912711169
448.6276210771904
445.5277540052259
450.4284217792772
451.9006168750177
446.1080049725005
373.5754615324803
319.4883314779469
300.461509552093
299.7919429004701
390.1365487767833
332.631749345648
301.521894264264
300.4162864131616
398.2482762567856
347.1987215685285
302.5616218186354
301.1963222129099
401.5309436150296
356.9166266252241
302.9113159774133
301.5989672736319
298.9537048245691
297.9306333573909
297.0853388763678
296.8748355231361
299.380439866942
298.2730298866929
297.3612470852015
297.1904184291611
299.9238908623354
298.9352430495493
298.246972288009
298.3287746453561
300.1711231126332
298.5687578558297
297.7337855054886
297.6458925662732
297.7988747010676
300.8109139695737
310.1772430706341
332.234587013408
298.1803717233691
299.6999791234116
304.2753932912332
324.1714007942136
299.684549841439
300.8210748321073
301.2675567232105
315.193501006626
299.1020645933373
299.9030207574725
295.9155889951703
293.9711890769232
351.5226454092713
350.9974837474674
352.0711042965651
352.705770868887
351.3661702264629
350.9551316841296
352.3979345998012
353.6798598074072
351.4618661344131
351.1202556939865
352.7348148816623
354.3401901585298
346.4638551606635
351.1882219702354
352.8297565878786
354.5911765372792
353.6786095838727
349.4572907848884
340.2732337793071
316.5744962494609
355.2736621805607
352.9135919566849
348.8211318011824
329.6665089659246
356.2546430435084
355.2640906254605
353.4364893219375
342.6088136135424
357.0269749365228
357.3674392705001
358.5288016319016
360.2723950025182
289.6148531723763
295.9350073667617
299.2935197958485
299.9730740525314
281.9689742755956
293.1900173807556
298.8925527264611
299.9524450206096
281.3314720608072
291.2944961308039
298.5240516346068
299.9322381341515
281.0550261320743
290.5819543848066
298.3368469211712
299.9196188762306
299.8869545129975
298.6928157729841
293.1010349347158
265.4988520658202
299.8930488660461
298.588224203861
292.6301798812655
270.0074549511967
299.9023877446232
298.4529791419568
291.7563597777006
275.2962661990119
299.9106716448475
298.3130321122805
290.5999435873306
279.13647431571
299.919618868391
299.932238126238
299.9524450144164
299.9730740488374
298.3368469250922
298.5240516376606
298.8925527268487
299.2935197958739
290.581954383565
291.2944961285815
293.1900173786451
295.9350073661703
281.0550261324823
281.3314720615293
281.9689742757906
289.6148531717731
)
;

boundaryField
{
    back
    {
        type            empty;
    }
    inlet
    {
        type            zeroGradient;
    }
    front
    {
        type            empty;
    }
    top
    {
        type            zeroGradient;
    }
    outlet
    {
        type            fixedValue;
        value           uniform 300;
    }
    bottom
    {
        type            zeroGradient;
    }
    wall
    {
        type            zeroGradient;
    }
}


// ************************************************************************* //
