/*--------------------------------*- C++ -*----------------------------------*\
  =========                 |
  \\      /  F ield         | OpenFOAM: The Open Source CFD Toolbox
   \\    /   O peration     | Website:  https://openfoam.org
    \\  /    A nd           | Version:  11
     \\/     M anipulation  |
\*---------------------------------------------------------------------------*/
FoamFile
{
    format      ascii;
    class       volScalarField;
    location    "3.25";
    object      p;
}
// * * * * * * * * * * * * * * * * * * * * * * * * * * * * * * * * * * * * * //

dimensions      [0 2 -2 0 0 0 0];

internalField   nonuniform List<scalar> 
4455
(
6060.9327
6074.6603
6097.0934
6129.2552
6171.6963
6225.0481
6301.4951
6398.7571
6565.5289
5992.6773
6012.7638
6042.7264
6081.2198
6127.6443
6186.1373
6269.1975
6375.0817
6604.0091
5920.5075
5948.6374
5986.315
6029.845
6080.9838
6142.844
6229.6411
6342.1351
6624.2928
5846.1387
5883.1868
5927.7705
5976.4359
6030.7192
6096.1107
6186.1379
6303.2129
6638.3687
5771.4628
5817.0935
5867.9924
5921.1786
5977.4821
6046.4477
6139.2093
6257.0867
6657.1969
5697.776
5751.2408
5807.758
5863.9816
5922.9893
5995.276
6089.8112
6201.8691
6679.3195
5626.4161
5686.4337
5747.4191
5806.0305
5867.0237
5942.2908
6038.6091
6137.4802
6701.4712
5558.5721
5623.2845
5687.6879
5747.9162
5810.4287
5887.9301
5985.8858
6063.5936
6717.4661
5495.0788
5562.6976
5628.8296
5690.3374
5753.9778
5832.7891
5933.6416
5982.0244
6715.7584
5436.4463
5383.1934
5335.6346
5294.1123
5258.6217
5229.019
5205.5415
5188.2033
5177.6264
5504.7643
5449.7891
5398.8924
5352.0217
5309.5167
5271.8038
5238.8055
5210.8252
5188.0782
5570.9806
5514.3852
5460.5791
5409.8687
5362.4466
5318.3329
5277.3942
5239.4341
5203.5593
5632.2446
5573.7301
5516.8438
5462.1372
5409.8508
5360.0251
5312.7821
5267.9195
5224.8702
5695.6092
5634.8313
5574.9381
5516.2432
5459.1921
5404.2642
5351.5646
5301.5994
5252.9147
5773.852
5709.4687
5644.3014
5579.2816
5514.7952
5450.7927
5387.3997
5324.9404
5260.3726
5877.2798
5812.0247
5744.8793
5678.9098
5615.2278
5554.5528
5496.7597
5442.3169
5388.8321
5886.2745
5776.1268
5666.5824
5562.6445
5467.0275
5377.4826
5293.8259
5211.8542
5133.3002
6695.884
6550.2015
6307.3987
6041.232
5818.8849
5624.0185
5447.7765
5294.3884
5168.146
5175.6486
5173.0655
5166.4123
5157.1728
5145.0008
5131.0752
5113.8101
5094.5812
5071.6801
5175.5019
5163.3609
5147.7798
5129.0989
5106.8312
5081.2333
5053.4619
5023.6616
4991.3615
5179.0993
5158.8532
5137.2345
5114.1303
5089.0922
5061.9308
5032.4087
5000.4335
4965.7759
5194.5346
5169.6521
5143.2029
5114.8067
5084.253
5051.8793
5017.5675
4980.9638
4941.7248
5216.9153
5185.5139
5152.6633
5118.9014
5083.8739
5046.9537
5007.6575
4965.608
4921.0387
5207.9345
5168.8899
5131.648
5093.7983
5054.6811
5014.1159
4972.3494
4928.9592
4884.1493
5337.7347
5284.2865
5227.2543
5171.6881
5117.0291
5061.6319
5005.0679
4946.7492
4888.198
5069.9903
5010.6982
4943.5868
4874.1563
4806.4041
4743.607
4686.1007
4634.5416
4589.433
5054.5985
4950.1228
4855.3498
4781.6578
4707.1646
4630.583
4555.6156
4475.8963
4396.9588
4356.2447
4331.7595
4323.0317
4341.2403
4389.4953
4464.2141
4554.5001
4651.9515
4752.0003
4549.5875
4509.2954
4473.0872
4445.0562
4426.4391
4418.3206
4420.3506
4431.6077
4451.4069
4833.8283
4783.9451
4736.0621
4690.5198
4648.1228
4609.5576
4575.4525
4545.8086
4521.0373
4839.4844
4794.3559
4747.7613
4700.8193
4654.1316
4608.3439
4563.7264
4520.5059
4478.6217
4875.3971
4829.2918
4781.7486
4733.0302
4683.5457
4633.6248
4583.4547
4532.8569
4482.0589
4900.6295
4857.6263
4812.2174
4764.4722
4714.5442
4662.7506
4609.3638
4554.2215
4497.0773
4928.7134
4889.6977
4848.4698
4804.8035
4758.6091
4710.1948
4659.7209
4607.0751
4551.5792
4956.0111
4917.2985
4875.8073
4831.5876
4784.4125
4734.6817
4682.2769
4626.5164
4568.4213
5042.6585
5007.3105
4971.3317
4934.7694
4896.936
4855.6984
4810.7621
4761.4319
4707.7928
4649.8753
4588.1992
4522.6352
4453.0464
4378.7684
4299.8442
4215.8193
4126.6536
4032.3938
4506.8731
4441.6448
4373.0948
4301.3225
4225.6869
4146.096
4062.8335
3975.3694
3883.7434
4492.9236
4431.1571
4366.5991
4299.0701
4228.4017
4154.6631
4077.4838
3995.6476
3911.1485
4437.7643
4376.5576
4313.4657
4248.2276
4180.9841
4111.1608
4039.2171
3963.7155
3885.2174
4430.433
4378.2967
4325.3285
4270.8655
4216.5004
4160.1777
4101.8284
4043.0458
3980.6591
4437.5622
4397.0819
4357.0789
4317.3874
4278.4707
4239.855
4201.3863
4161.9811
4121.0167
4500.3931
4483.5026
4470.9889
4461.5933
4454.6417
4448.7958
4443.9554
4440.2391
4435.8866
4478.4966
4511.6438
4549.3232
4590.699
4635.653
4684.3956
4735.9754
4788.9488
4842.7549
4853.3421
4956.0788
5060.239
5165.6533
5273.3436
5382.8916
5494.8106
5607.7942
5723.6963
5841.7618
4896.596
4429.4184
4077.2969
3914.4438
3803.1774
3821.2603
3786.809
3931.7519
5965.4519
4949.2958
4421.1903
4030.2525
3845.9768
3715.8178
3726.4089
3685.4686
3825.4778
6086.5374
5000.052
4408.4963
3978.3259
3771.864
3624.8218
3627.8171
3578.3492
3712.3931
6209.6758
5046.1778
4390.6766
3921.0263
3691.1843
3526.8823
3521.6403
3465.7574
3592.9573
6330.8882
5085.4097
4365.9882
3856.3775
3605.6935
3423.1601
3410.9912
3347.0652
3466.282
6446.5547
5115.875
4332.3121
3783.5993
3511.731
3312.4366
3294.2341
3221.9763
3332.4957
6546.1215
5133.678
4287.5839
3700.6417
3409.6085
3193.0716
3168.3978
3090.6587
3191.5219
6626.128
5135.4885
4229.4965
3606.0975
3298.3331
3065.2492
3037.8064
2952.2247
3043.2884
6663.0226
5114.1057
4153.3999
3498.2172
3176.3088
2929.713
2897.8605
2807.4632
2888.791
2733.0086
2656.236
2747.112
2781.6153
3037.422
3369.9235
4050.6542
5054.7368
6644.856
2581.3434
2497.7467
2585.7337
2623.3005
2878.1484
3213.5844
3899.7004
4910.8434
6402.6176
2415.3396
2331.9523
2413.7418
2452.7177
2697.6582
3025.9473
3699.3552
4691.2378
6084.1105
2224.3072
2157.2897
2229.8502
2268.5839
2500.6726
2817.1883
3469.5315
4436.9641
5778.8496
2020.3436
1974.0872
2038.2711
2072.2118
2287.4258
2586.147
3215.23
4166.4611
5481.5866
1812.2828
1782.7324
1839.3633
1865.7918
2060.1953
2339.8675
2944.1165
3883.0223
5181.8343
1600.8764
1584.5761
1629.3094
1648.5157
1818.8882
2078.0213
2654.875
3580.7177
4869.1933
1386.7041
1382.343
1415.1259
1422.5342
1565.5569
1800.7018
2346.9769
3257.8314
4548.699
1170.2567
1176.6325
1196.7675
1189.8764
1302.7607
1506.5766
2016.1318
2910.3818
4216.116
3869.034
2538.9251
1664.9523
1197.7631
1030.8209
951.51671
975.24798
968.1023
953.94614
3509.6533
2140.9279
1292.2786
872.81755
749.9067
708.1162
750.76001
761.70943
739.7811
3140.2007
1717.486
901.2652
536.59378
462.07904
464.15473
529.89858
556.97978
530.67872
2754.5209
1265.3164
487.2444
190.11542
172.10229
220.01638
310.52261
357.07514
329.42394
2346.5619
784.62659
58.92423
-162.41784
-118.7219
-20.598478
96.65174
164.0917
139.88071
1913.4957
270.48896
-386.86177
-519.75843
-406.5858
-257.44428
-107.56125
-18.475654
-36.678632
1448.3052
-277.40646
-841.77615
-875.49168
-687.98612
-481.44709
-300.82283
-188.73361
-194.15826
947.11782
-859.44292
-1309.4263
-1224.8413
-956.95568
-695.51995
-479.09942
-344.90593
-333.29252
405.6415
-1475.444
-1774.551
-1562.6056
-1211.3718
-891.7165
-640.17395
-481.6876
-446.09024
-535.99265
-597.33773
-782.11673
-1072.8331
-1452.6943
-1893.9552
-2259.8801
-2170.5791
-244.17281
-596.07925
-687.3956
-900.83018
-1230.155
-1670.4169
-2202.7547
-2738.3927
-2954.2574
-1066.5009
-626.53032
-750.44891
-989.94809
-1358.1679
-1854.8007
-2470.4167
-3174.823
-3765.5657
-2008.8023
-627.17636
-789.99487
-1048.2724
-1452.0465
-1996.4461
-2691.5748
-3546.1463
-4554.2734
-3080.6202
-596.92508
-808.32476
-1072.7483
-1515.0808
-2103.6109
-2856.1208
-3838.5013
-5291.426
-4322.0851
-538.16551
-802.79757
-1068.3598
-1547.6557
-2163.8447
-2962.4364
-4031.851
-5893.6182
-5808.589
-455.17275
-774.65837
-1034.5983
-1552.3866
-2196.4946
-3018.5929
-4103.5837
-6293.508
-7626.58
-350.35899
-725.74094
-975.6733
-1531.3891
-2192.377
-3033.7349
-4053.8438
-6414.5841
-9631.0608
-227.92347
-661.24269
-895.27999
-1489.3759
-2163.8993
-3038.8839
-3943.0134
-6193.6211
-11369.824
-109.00139
-587.06167
-792.54623
-1433.8378
-2129.3601
-3086.4552
-3922.5992
-5927.1176
-12873.839
0.057434395
-513.20161
-696.5814
-1407.5876
-2153.2562
-3245.6867
-4227.1711
-6768.2938
-14508.606
139.54245
-436.16623
-624.20956
-1409.3769
-2238.0938
-3496.9359
-4830.2382
-8100.4684
-15842.963
297.51161
-350.75126
-560.47988
-1416.4608
-2353.2809
-3785.8753
-5446.1365
-9402.2698
-14810.797
459.82521
-250.20358
-485.91982
-1410.5219
-2455.4795
-4076.4686
-5987.3616
-10740.578
-12627.657
623.73992
-135.23047
-398.19457
-1381.8782
-2520.5236
-4341.2745
-6506.2915
-12218.05
-12463.419
785.24713
-6.9452756
-295.2595
-1335.2379
-2574.8676
-4596.7574
-7087.0989
-13715.972
-14375.355
946.1548
128.73838
-187.26334
-1268.1517
-2616.6269
-4843.953
-7695.1803
-14624.529
-14944.336
1125.4845
273.26972
-72.307914
-1188.1605
-2638.9364
-5059.7932
-8271.3193
-14643.405
-14741.834
-14812.804
-14769.171
-8679.9184
-5214.9511
-2639.8158
-1090.6122
40.810402
425.17775
1316.6844
-14797.142
-14903.455
-8928.4728
-5298.3879
-2603.1587
-977.5357
158.2773
579.38817
1491.124
-14802.134
-14991.545
-9097.3333
-5338.3474
-2535.892
-842.43063
281.15372
738.15941
1646.4626
-14764.8
-15015.065
-9221.1979
-5346.7329
-2445.4827
-696.10609
409.56543
897.36872
1789.032
-14750.668
-15030.064
-9325.4226
-5339.7743
-2343.1987
-545.24902
537.65674
1056.6551
1925.9366
-14735.497
-15017.45
-9416.5741
-5329.7302
-2233.1017
-394.33455
664.18366
1214.4046
2059.0014
-14844.429
-15006.591
-9485.4954
-5306.814
-2116.9995
-245.85669
790.69663
1370.1632
2189.6651
-15048.356
-14977.977
-9533.2656
-5264.8404
-1992.4802
-96.156132
915.37897
1523.9365
2312.3307
-15188.812
-14997.667
-9549.1609
-5183.6688
-1854.4491
55.230827
1040.004
1673.2368
2430.5978
-15158.33
-14672.119
-9199.5362
-4909.0382
-1547.0371
331.29742
1257.0713
1925.0347
2637.2294
-14699.658
-14460.717
-8856.7712
-4407.7841
-1044.1395
706.09433
1541.2421
2240.4252
2927.324
-13725.573
-14307.588
-8459.2987
-3791.5031
-445.57972
1056.5972
1816.9144
2586.0856
3189.5073
-12830.281
-14178.594
-7964.9094
-3099.5518
79.311356
1384.0084
2110.0777
2877.6882
3443.7569
-12281.513
-14042.395
-7357.7344
-2343.0571
561.35866
1669.6037
2416.1229
3215.3695
3601.2733
-11956.471
-13877.485
-6638.4021
-1603.4619
951.85814
1841.0605
2687.1964
3394.4327
3656.633
-11799.651
-13714.7
-5846.4689
-970.60515
1224.6414
1990.1895
2965.4946
3596.5541
3494.0917
-11791.472
-13589.495
-4997.2018
-454.63607
1516.3119
2151.4023
3211.6986
3623.7769
3302.1149
-11453.96
-13498.698
-4126.9213
-82.177329
1765.5571
2267.1272
3419.4206
3668.4107
2818.2907
-10231.089
-9680.6117
-6685.3737
-5069.3933
-3739.7848
-3650.8612
-2091.1353
-902.68656
234.60538
-10312.577
-9897.1522
-6733.5444
-4860.5791
-3162.5212
-3239.8979
-1760.8833
-845.50417
364.91363
-10390.959
-10102.525
-6757.6896
-4627.3114
-2622.8938
-2821.5327
-1408.9734
-771.25726
510.05038
-10463.405
-10303.507
-6754.7938
-4371.0533
-2120.3283
-2398.911
-1046.5728
-672.55175
671.29657
-10532.013
-10501.567
-6725.6842
-4086.7192
-1654.1563
-1971.7575
-668.68449
-550.73434
842.99358
-10592.296
-10694.271
-6661.9245
-3772.4171
-1227.953
-1540.8515
-280.9376
-391.73502
1041.8039
-10644.957
-10875.187
-6560.8264
-3427.4553
-835.87456
-1113.3645
101.08001
-209.08162
1286.5771
-10690.37
-11036.596
-6434.9027
-3061.4281
-471.96422
-697.99415
469.43574
-9.7692828
1566.9733
-10738.584
-11186.588
-6287.5931
-2684.5548
-141.91673
-302.57748
819.62912
242.3926
1887.1857
-6969.4487
-2178.9449
-577.97506
-3415.4187
-5909.7154
-1758.2156
-694.52476
79.88884
279.40091
-6967.8511
-2186.4288
-678.17425
-2635.678
-5603.2792
-2209.0133
-901.01514
-50.923204
240.87251
-6906.3452
-2134.4075
-549.88838
-1766.0502
-5103.1436
-2545.5244
-1154.4884
-269.26542
206.04843
-6768.0877
-2046.2278
-259.20631
-1186.9405
-4502.7691
-2727.4972
-1385.1636
-521.13466
80.653895
-6574.4654
-2158.11
45.222851
-669.66538
-3808.4112
-2759.2789
-1586.9576
-779.64739
-78.987371
-6414.2441
-2204.9694
339.42659
-218.00776
-3063.5469
-2655.6204
-1689.315
-1025.1197
-276.99112
-6270.7936
-2313.9802
569.39401
204.46875
-2296.1071
-2408.3184
-1679.5501
-1213.4618
-473.57774
-6309.5031
-2479.4076
818.06206
585.66826
-1537.8988
-2033.3361
-1578.535
-1298.7148
-653.4489
-6283.551
-2827.9444
852.14877
904.7034
-820.13223
-1609.3439
-1398.7988
-1293.2676
-803.05832
-575.73509
-271.41805
-63.319304
335.20211
807.05827
1138.7937
1738.5615
-1827.5399
-7892.2843
-674.29176
-424.06975
-223.91974
162.10284
711.87484
1135.6674
1775.8671
-1871.9282
-7740.186
-749.29271
-572.09775
-380.55262
-24.478152
601.74982
1123.1045
1784.0077
-1964.5829
-7638.0796
-801.75969
-713.14587
-533.80142
-218.98567
479.42883
1105.0553
1785.1156
-2017.5791
-7487.3649
-854.50824
-842.23762
-682.19354
-420.84553
338.094
1087.3288
1741.4865
-2083.8244
-7206.671
-889.5607
-958.44277
-826.94474
-630.62497
175.42193
1054.8001
1653.0019
-2231.0132
-6980.9534
-908.61567
-1060.2193
-965.18033
-843.18919
-3.0334035
1031.2512
1488.9409
-2388.8885
-6716.7849
-908.38577
-1145.3276
-1095.3157
-1055.1568
-196.87769
1032.0705
1298.1318
-2462.6914
-6578.9913
-882.33123
-1212.6695
-1215.3317
-1265.701
-423.77183
1006.4423
1074.3765
-2683.6844
-6399.7896
-7921.4094
-1824.4783
1712.2381
1144.0642
894.96711
503.71205
104.38924
-111.21798
-458.64198
-7955.2553
-1672.4841
1720.2427
1158.1853
980.27479
665.85136
275.70826
55.218698
-327.29804
-7547.6883
-1225.1413
1741.4637
1185.1096
1059.3823
814.48103
442.84813
224.56059
-185.01555
-6696.3964
-510.8608
1735.2433
1225.5001
1132.4931
949.15039
603.97358
393.94946
-35.248515
-6888.7607
205.67823
1703.5873
1278.0063
1212.0847
1073.5637
760.0961
560.88564
121.71843
-8823.4977
947.96029
1686.0926
1325.1262
1302.1595
1191.7692
912.64329
727.21728
280.44561
-8908.6441
1487.0604
1672.9284
1392.2126
1409.8722
1309.6484
1062.2782
892.93434
440.65217
-7017.799
1946.0971
1695.1075
1486.8586
1530.794
1435.0985
1220.1064
1059.0593
614.67573
-5654.699
2132.0923
1739.8192
1591.7716
1653.9958
1561.6353
1380.1962
1226.8607
821.33876
2533.7941
2731.2512
2730.0583
2727.276
2636.761
2423.6765
2149.7089
1815.6052
3056.785
2369.7341
2569.3576
2575.0433
2580.5251
2489.4215
2257.3859
1898.3471
1316.7828
2368.4381
2189.9615
2407.1752
2422.0408
2442.3574
2358.4742
2122.3517
1699.8133
854.88684
1567.8486
2006.5816
2244.3963
2273.4135
2312.2449
2241.705
2017.1774
1570.9096
470.02747
612.50048
1822.1642
2079.6667
2128.5176
2184.6839
2135.0099
1937.3345
1516.155
220.59068
-522.55677
1643.1923
1913.2244
1980.7311
2057.4823
2033.3029
1876.867
1537.3831
141.58603
-1825.2832
1463.6096
1743.4328
1833.1222
1934.5391
1939.3589
1823.0631
1610.5206
279.95612
-3238.7937
1290.7093
1572.184
1687.4568
1813.6017
1849.3627
1766.3626
1712.5292
699.08051
-4401.4467
1057.8643
1399.8179
1539.5727
1688.4681
1758.6131
1695.6651
1777.4598
1426.8949
-5086.6543
3592.9845
2284.8841
2426.5376
2608.2364
2797.0011
2878.0933
2884.4775
2893.8778
2702.5054
4045.4905
2719.4972
2709.2359
2803.5028
2962.9894
3033.1629
3043.3796
3055.447
2880.29
4459.9846
3140.8286
3007.4562
3017.2285
3140.3832
3192.7726
3206.1536
3218.8955
3062.6878
4847.9734
3547.3011
3308.2171
3242.016
3329.2516
3359.1717
3369.361
3380.1356
3243.2437
5206.0904
3935.9579
3609.5234
3470.1716
3521.5455
3527.8436
3538.768
3542.1029
3424.6341
5550.0542
4307.4328
3908.4286
3704.5799
3716.9967
3699.0962
3706.7322
3703.6364
3603.007
5874.9046
4657.7769
4200.849
3938.1172
3913.4156
3870.8323
3872.538
3862.5662
3781.0309
6187.527
4989.4682
4481.3884
4167.5962
4109.0121
4041.8815
4040.6163
4018.875
3954.91
6491.0701
5302.6339
4750.8341
4390.8757
4302.5047
4210.8953
4202.6554
4173.6942
4125.8692
5355.4159
5320.5805
5408.4072
5456.9097
5682.4935
5913.8125
6464.8392
7120.8994
8448.389
5267.8603
5220.8122
5305.8859
5349.5111
5575.9778
5806.1771
6367.506
7048.2935
8435.1555
5162.3984
5114.2671
5193.6193
5235.9289
5455.1532
5677.2977
6235.2567
6916.7599
8270.4187
5036.8535
5000.5421
5073.7329
5113.6082
5321.1284
5529.6405
6074.9415
6750.3189
8066.2847
4896.4344
4878.2741
4945.8616
4979.5985
5174.3475
5366.9681
5893.5258
6562.5158
7834.0421
4751.6881
4749.3005
4808.2478
4837.531
5016.3778
5193.0128
5695.6513
6353.8468
7591.9373
4602.7744
4612.514
4665.6532
4689.878
4848.8532
5007.6416
5482.1507
6125.5211
7339.6122
4450.8169
4471.0101
4517.6482
4536.1533
4673.7306
4812.2814
5253.2234
5870.9208
7062.9326
4291.0214
4324.1156
4361.4155
4376.097
4491.0178
4605.8845
5009.4766
5598.0647
6785.7602
5445.5192
5535.6612
5621.9088
5702.5911
5777.6541
5847.002
5910.6907
5968.663
6021.8165
5414.9618
5502.9268
5585.4325
5662.5012
5735.6834
5802.8759
5864.3042
5921.2862
5975.0713
5502.9563
5588.0054
5665.0977
5738.4709
5805.9618
5867.6166
5924.0799
5976.158
6024.9435
5553.0375
5637.3291
5718.7165
5793.4847
5860.065
5923.5766
5979.3869
6030.3828
6078.1441
5773.2846
5851.7567
5922.2018
5985.3763
6042.3063
6094.0079
6140.1769
6181.353
6218.6105
6002.116
6077.4945
6143.4685
6201.8711
6253.5751
6299.1148
6338.1367
6371.5961
6401.1821
6527.9645
6575.2248
6611.6034
6640.6931
6665.6022
6688.5813
6707.796
6722.6942
6731.0459
7128.9222
7128.4742
7122.3502
7108.1446
7089.0364
7074.6214
7073.1335
7084.0224
7097.9372
8301.0566
8218.0464
8145.4319
8065.6359
7983.2851
7916.3033
7881.8392
7895.2183
7926.0403
6070.0593
6024.0213
6069.645
6121.5569
6252.6277
6426.7037
6734.4878
7096.0904
7897.7816
6113.4111
6068.7586
6109.5079
6159.844
6283.4123
6448.6101
6735.7212
7074.3049
7844.029
6152.6415
6110.0917
6146.8729
6195.3156
6311.6099
6467.7431
6735.1464
7050.324
7764.0873
6188.4346
6147.8176
6181.6244
6228.4215
6337.0578
6484.3811
6732.3539
7021.0328
7677.0905
6220.8996
6180.9337
6212.705
6256.25
6360.2002
6499.356
6728.6753
6988.2275
7592.5729
6250.1662
6212.2365
6241.3955
6282.749
6381.2501
6512.7718
6725.5036
6956.4163
7499.6056
6276.1515
6240.6395
6266.8513
6307.6572
6400.5102
6525.3256
6723.2231
6924.5443
7408.6589
6298.7225
6265.9343
6289.8887
6329.93
6418.5571
6537.3045
6721.9254
6895.3586
7320.1095
6318.5389
6288.761
6310.7108
6350.435
6435.4167
6549.1411
6721.7922
6869.5121
7232.5617
6413.1209
6402.4681
6420.1582
6446.7665
6523.7601
6621.9532
6775.2452
6877.1762
6843.3257
6408.0953
6396.1407
6413.8713
6441.6297
6519.4654
6616.1266
6766.3286
6854.1901
6814.9389
6402.0714
6388.6993
6406.4735
6435.4844
6514.4904
6609.8616
6758.7792
6836.333
6803.1219
6394.8414
6379.8278
6398.115
6427.7307
6508.1944
6603.2169
6751.6511
6824.5602
6817.8896
6386.2761
6369.4726
6388.0866
6418.8458
6500.1674
6596.1408
6744.5192
6819.1328
6858.7267
6376.0384
6357.0584
6375.7519
6409.4479
6490.5925
6588.429
6736.6879
6819.2837
6918.3489
6364.051
6343.0344
6362.0631
6397.5207
6478.9865
6580.0986
6729.1755
6823.6278
6989.922
6350.8576
6327.8611
6346.8464
6383.5187
6465.7364
6570.7745
6724.6985
6832.4288
7067.6817
6335.6104
6309.4489
6330.0172
6368.0028
6451.123
6560.3261
6722.697
6847.6967
7148.5594
6875.1484
6906.9225
6786.9652
6627.4747
6527.5658
6451.0329
6424.9935
6407.9093
6416.8041
6925.5054
6942.6685
6798.2371
6631.6531
6530.1534
6453.8841
6428.6539
6412.2216
6419.7084
6985.5533
6978.9172
6806.4708
6633.8732
6531.3501
6455.5128
6431.9538
6415.4865
6421.9005
7051.6833
7012.5641
6811.9265
6633.6044
6530.5718
6455.8536
6434.2884
6417.987
6423.6291
7120.8509
7042.0637
6813.3245
6630.1575
6527.4091
6454.4107
6435.6245
6419.8781
6425.0737
7193.127
7065.825
6809.4253
6623.1166
6522.2175
6451.6261
6436.1679
6421.191
6426.1976
7265.149
7083.8568
6801.1028
6613.1263
6515.7478
6448.6574
6435.9134
6422.0715
6427.2447
7331.6652
7098.3811
6791.317
6603.1953
6509.1534
6446.5837
6435.4753
6422.8181
6428.1853
7394.885
7114.319
6787.032
6598.3703
6505.4514
6447.122
6434.9252
6424.0312
6428.736
7466.9815
7136.8522
6797.0465
6605.7187
6510.3072
6452.4586
6435.5972
6426.5297
6428.4797
7548.8993
7160.9861
6808.2876
6616.4689
6516.3677
6458.7679
6436.8435
6429.4316
6428.6007
7622.3772
7180.0619
6815.9151
6626.4557
6520.9275
6463.8677
6438.7299
6431.4111
6429.0126
7682.6975
7191.1846
6817.608
6633.4466
6523.7639
6467.4902
6440.459
6432.5535
6429.4137
7724.3822
7190.3791
6811.2686
6636.12
6524.8163
6468.9533
6441.2362
6432.7386
6429.4063
7742.5492
7173.4093
6797.0153
6633.6326
6523.1121
6468.1103
6440.5483
6431.7166
6428.53
7700.0356
7136.2272
6775.412
6625.3433
6518.4445
6464.6625
6437.746
6429.1634
6426.2364
7532.3919
7080.3154
6749.5768
6611.732
6510.3439
6458.1906
6432.247
6424.3039
6422.1041
7308.1171
7003.8725
6721.9875
6593.2308
6498.9297
6447.7186
6423.4641
6416.3012
6415.5101
6124.6205
6132.456
6148.2837
6175.0779
6214.2689
6266.1296
6338.5932
6434.8448
6595.1093
6182.8793
6185.545
6197.7858
6221.9842
6261.653
6317.8764
6397.0054
6504.7444
6671.1839
6234.5894
6233.7199
6242.6082
6265.1218
6305.2315
6363.8273
6444.2604
6557.8144
6713.1724
6279.4227
6276.2316
6282.4307
6304.1218
6345.2139
6406.7943
6492.0425
6615.1814
6781.0703
6317.344
6312.5085
6317.5136
6338.8002
6381.5787
6447.1438
6539.4094
6675.4954
6845.4768
6348.2485
6343.2631
6347.6746
6369.1786
6413.9856
6483.8247
6584.9789
6735.9991
6913.8989
6372.7746
6368.5786
6373.2163
6395.0657
6441.7831
6516.3125
6626.8663
6797.2624
6988.2948
6391.7038
6388.9121
6394.0885
6416.2838
6465.0511
6545.054
6663.3871
6860.3859
7069.3218
6405.6719
6404.5796
6410.7952
6433.3637
6483.8256
6570.1436
6693.3509
6925.5976
7162.1605
6820.8211
6884.2802
6943.2011
7023.4035
7117.7492
7230.1119
7380.4753
7600.7669
7917.4754
6853.7081
6912.7187
6977.2911
7059.5951
7157.566
7275.8762
7433.0837
7659.2551
7978.2499
6884.5965
6939.1641
7006.9913
7091.8072
7192.4627
7318.1234
7486.9423
7727.7479
8058.6682
6915.7774
6969.5243
7036.7723
7121.6091
7224.2472
7356.0078
7535.1585
7795.094
8145.9091
6944.6462
6996.7492
7062.2864
7145.4301
7248.8389
7385.9672
7573.0973
7853.0595
8222.4153
6960.4083
7008.27
7069.673
7148.2298
7247.9943
7387.2924
7576.7908
7891.46
8281.8241
6942.2778
6982.9288
7038.8791
7114.7591
7213.0327
7343.4753
7511.352
7893.3937
8297.0413
6884.755
6912.0722
6949.2541
7002.0644
7083.4672
7219.837
7333.1441
7809.7211
8212.334
6721.0595
6739.5771
6761.9298
6798.6527
6846.8736
6988.3242
7006.9319
7620.9253
7818.4883
2129.0783
4993.3561
4960.7461
5764.962
5961.8953
6155.7516
6257.8136
6318.5286
6324.3698
4133.243
4302.9294
4253.4375
4714.2782
4711.6022
5070.2858
5125.9407
5333.327
5377.7718
4658.801
4662.7501
4518.0674
4660.6674
4526.3936
4702.9987
4608.9091
4769.8876
4701.2726
4748.1136
4796.4766
4718.4797
4817.6006
4700.3554
4817.1356
4697.1633
4802.7911
4699.1179
4841.2517
4865.5056
4835.148
4909.5841
4835.7261
4923.8834
4834.096
4919.3591
4830.4441
4932.97
4940.1981
4931.113
4960.7336
4945.474
4986.7967
4957.8934
5008.4218
4970.0336
5006.0067
5007.6332
5003.6386
5018.7709
5017.6082
5039.319
5044.2669
5068.9374
5075.4411
5038.7568
5044.4899
5037.5831
5054.3995
5054.1791
5074.9232
5082.1592
5110.2729
5114.8329
5008.004
5006.31
5001.8715
5008.3622
5004.7108
5018.5698
5016.3222
5039.8341
5030.2981
4906.6603
4772.329
4615.3111
4362.355
4163.9998
3929.4257
3592.3709
3265.0141
3093.6681
4920.3532
4784.1693
4614.6788
4383.6279
4174.2932
3927.4207
3584.7296
3237.3733
3020.3558
4901.0485
4768.3436
4599.3854
4372.316
4150.5221
3893.3948
3555.3111
3183.9327
2918.6399
4909.0799
4776.9222
4606.0223
4388.0545
4150.248
3883.0891
3533.9529
3127.7624
2795.3771
4898.9858
4767.9798
4598.4242
4382.835
4142.4168
3869.6917
3511.4675
3070.5822
2658.6668
4907.7098
4776.8315
4609.2139
4394.1371
4152.3404
3870.1399
3500.6568
3022.4462
2527.0703
4904.1274
4776.0234
4607.8188
4401.9424
4153.173
3870.8742
3488.2806
2987.7628
2414.1647
4913.7681
4784.4515
4621.6794
4407.7925
4169.7256
3873.0445
3493.8391
2962.9527
2364.3873
4918.8341
4795.5531
4631.7012
4427.3655
4180.7974
3901.2138
3516.8886
2993.5526
2290.8393
3112.5566
3301.1681
3648.608
3947.7033
4144.2046
4290.9723
4432.1351
4579.3443
4725.9655
2997.0291
3196.4054
3599.4046
3923.614
4126.1354
4276.5375
4423.0631
4573.8106
4724.0207
2855.5217
3092.4676
3563.7561
3907.1225
4109.1886
4262.322
4412.499
4566.3487
4718.9902
2692.9399
2989.3483
3531.6364
3891.8393
4097.5619
4257.7446
4414.7655
4570.639
4724.5473
2497.0154
2887.0416
3488.85
3855.1774
4060.0695
4229.4549
4393.8145
4555.3781
4712.7254
2210.5336
2837.0738
3512.0273
3869.9205
4074.3582
4245.0481
4409.6162
4569.2297
4724.5178
1800.508
2643.5584
3441.2262
3805.9016
4023.9075
4209.2116
4385.2904
4550.6244
4710.5281
1433.8787
2729.9641
3506.819
3833.5633
4047.5435
4231.1285
4402.1935
4564.4733
4721.2371
249.45727
2538.9075
3468.9114
3787.9954
4020.3248
4213.4987
4390.8254
4554.7727
4714.0629
4869.5978
5005.2949
5139.1457
5273.717
5414.3321
5560.2794
5714.0578
5871.9344
6036.0824
4869.3753
5007.5531
5142.4904
5279.2282
5421.118
5569.1464
5723.2252
5883.4113
6048.2279
4867.0106
5007.1645
5143.6944
5282.7204
5425.6086
5576.3352
5731.6433
5894.0242
6059.3745
4871.7757
5012.7836
5149.7379
5290.1311
5433.9375
5585.787
5741.1244
5905.3507
6072.5
4863.9468
5007.3008
5146.0569
5287.6668
5436.7954
5591.8609
5747.981
5913.53
6080.408
4873.532
5016.3766
5154.9634
5296.8321
5445.088
5599.0148
5756.3141
5924.4933
6092.4942
4862.3423
5007.6537
5147.0328
5292.4967
5443.4999
5599.0263
5757.6294
5929.3938
6095.5849
4872.0903
5016.317
5156.107
5299.7138
5450.7033
5606.6792
5768.1001
5939.4095
6105.4833
4865.8047
5011.2413
5151.4527
5297.1
5450.1759
5600.7605
5766.8267
5943.0944
6107.4821
6211.95
6416.3604
6634.7708
6877.5068
7126.6381
7395.2541
7658.2321
7920.5748
8117.9536
6226.8727
6432.3582
6656.503
6903.7063
7163.2787
7441.7893
7720.0904
7999.3638
8210.4947
6239.6487
6447.5303
6676.5975
6929.226
7199.0497
7487.4189
7783.0068
8075.91
8300.7713
6254.3836
6463.9614
6697.581
6954.9181
7234.4145
7530.4099
7842.3927
8145.1807
8383.8775
6263.0278
6473.9227
6712.1857
6973.167
7261.1238
7567.5786
7894.5226
8208.2587
8459.4425
6275.9166
6486.7499
6727.7303
6993.1603
7287.383
7602.9736
7943.5176
8267.4673
8523.9394
6281.6778
6491.3574
6737.1723
7002.2204
7305.4266
7624.2697
7980.9098
8310.7697
8576.8852
6289.1002
6500.0475
6745.0233
7014.5206
7318.2736
7645.9405
8009.471
8350.5469
8640.6092
6291.7661
6501.8289
6748.2293
7016.6589
7324.0492
7649.9801
8024.0944
8365.8838
8671.1588
8196.8688
7590.7267
7151.3246
6769.1485
6395.1718
6017.7965
5645.2015
5274.005
4902.603
8322.332
7683.3553
7235.4895
6844.9408
6463.8393
6077.6492
5700.1156
5323.5053
4951.879
8453.5926
7774.8922
7317.1104
6914.7861
6528.6208
6135.48
5755.2705
5374.8297
5002.8445
8583.343
7866.0731
7399.9904
6981.9297
6589.9453
6187.2518
5806.9153
5421.1953
5051.6872
8712.2398
7956.1001
7482.3389
7056.5812
6658.6635
6250.4952
5863.0958
5477.3755
5103.9401
8840.9802
8050.4702
7557.8774
7109.4252
6710.6383
6291.9845
5908.9501
5512.0093
5144.1925
8942.2345
8149.7584
7653.5528
7194.5502
6783.9356
6367.6905
5976.1008
5583.0471
5209.5488
9019.8783
8218.1841
7700.1889
7222.5882
6814.6637
6385.511
5998.9918
5597.1131
5228.2608
9074.0227
8346.4985
7813.7283
7325.234
6908.9164
6478.6094
6087.4031
5684.2366
5312.3871
4534.207
4163.8646
3786.2075
3398.252
2995.3832
2576.0101
2134.0777
1674.0307
1190.8693
4580.2887
4209.2922
3829.6511
3442.3394
3039.3951
2620.6492
2179.6473
1719.4965
1234.3673
4629.2865
4258.1399
3878.2508
3491.6948
3090.7114
2673.6793
2236.3653
1778.6403
1298.3835
4672.984
4305.1892
3921.1101
3538.518
3135.5228
2723.1803
2284.526
1833.1056
1350.8021
4727.9492
4355.8882
3975.3523
3589.7646
3190.6597
2777.2594
2343.1768
1891.6079
1414.5897
4759.4059
4394.2727
4006.3592
3627.7421
3223.79
2817.8111
2379.4197
1937.2977
1453.6194
4828.4609
4459.3435
4075.0163
3694.4938
3293.7622
2888.4932
2453.1139
2015.0804
1532.2627
4841.4074
4477.1329
4087.939
3711.9765
3308.3948
2907.4427
2469.9011
2036.8257
1551.4238
4925.2796
4560.2416
4172.1115
3797.2054
3395.4681
2997.6521
2562.8279
2137.3869
1648.8274
622.3505
-61.738665
-798.43469
-1601.0268
-2452.9871
-3263.6356
-4092.3997
-5123.6288
-7245.9754
670.1919
2.1316566
-713.46119
-1489.6191
-2304.7071
-3081.2288
-3856.0541
-4770.6483
-6680.5393
741.52977
94.85728
-601.16313
-1348.9471
-2152.0119
-2947.5508
-3793.0554
-4693.1531
-6185.8219
808.76222
179.48323
-492.20291
-1217.463
-2003.2773
-2796.8095
-3624.9926
-4460.0999
-5650.1802
878.25383
265.59125
-383.17309
-1089.9696
-1851.6243
-2633.745
-3411.3942
-4177.0959
-4989.4958
940.2952
339.67968
-278.93736
-969.42546
-1708.3608
-2491.0195
-3241.5135
-3921.0076
-4247.5404
1027.6185
443.31233
-141.47913
-813.03666
-1514.6274
-2306.7398
-3010.236
-3854.7126
-2954.6476
1066.8532
489.84381
-77.379992
-728.47332
-1426.8758
-2199.5646
-3032.2835
-3617.4238
-3792.5259
1183.1448
633.03283
109.29677
-504.24562
-1137.0448
-1865.2614
-2613.2005
-4130.6861
418.64452
-10750.985
-13286.768
-14857.497
-14634.581
-14646.963
-15057.085
-15473.364
-13973.868
-12818.592
-10499.488
-13288.608
-14655.867
-14451.194
-14569.935
-14852.675
-15161.751
-13874.958
-12764.47
-10321.66
-13338.215
-14356.296
-14314.095
-14619.784
-15021.885
-15070.058
-13755.472
-12689.988
-10258.527
-13328.108
-13998.219
-14262.801
-14631.684
-14858.497
-14850.184
-13640.107
-12603.002
-10264.185
-13196.92
-13559.79
-14195.268
-14678.445
-14937.366
-14678.106
-13517.365
-12510.399
-9787.0959
-12911.491
-13497.023
-14199.641
-14626.772
-14831.236
-14493.392
-13376.256
-12426.516
-8497.8603
-12598.716
-13476.15
-14229.249
-14669.564
-14790.047
-14313.488
-13218.399
-12358.756
-8787.0605
-12934.025
-13508.696
-14322.712
-14684.573
-14732.415
-14173.127
-13088.658
-12307.385
-19612.126
-11428.31
-14114.259
-14444.177
-14714.536
-14612.682
-13982.162
-12969.446
-12269.411
-12025.188
-11474.448
-11108.269
-10980.511
-11258.377
-11977.746
-13164.449
-15872.225
-16448.188
-11991.935
-11372.984
-10955.781
-10791.702
-11106.627
-11935.069
-13180.933
-16100.522
-16256.08
-11928.206
-11279.812
-10872.642
-10721.326
-11118.045
-12092.552
-13581.731
-16214.878
-16540.41
-11822.979
-11160.633
-10766.677
-10638.526
-11118.749
-12230.055
-13933.034
-16155.752
-16579.819
-11698.719
-11019.623
-10625.301
-10536.234
-11100.369
-12321.53
-14183.179
-16101.166
-16311.434
-11582.687
-10887.425
-10475.324
-10432.493
-11075.964
-12388.834
-14300.853
-15716.873
-15782.852
-11476.157
-10774.747
-10340.3
-10351.843
-11074.742