/*--------------------------------*- C++ -*----------------------------------*\
  =========                 |
  \\      /  F ield         | OpenFOAM: The Open Source CFD Toolbox
   \\    /   O peration     | Website:  https://openfoam.org
    \\  /    A nd           | Version:  11
     \\/     M anipulation  |
\*---------------------------------------------------------------------------*/
FoamFile
{
    format      ascii;
    class       surfaceScalarField;
    location    "3.25";
    object      phi;
}
// * * * * * * * * * * * * * * * * * * * * * * * * * * * * * * * * * * * * * //

dimensions      [0 3 -1 0 0 0 0];

internalField   nonuniform List<scalar> 
8667
(
15.880472
1.996645
-0.09933887
13.97316
2.2198906
-0.31257878
12.042419
2.4441907
-0.51344978
10.114426
2.6667587
-0.73876578
8.1616358
2.903463
-0.95067288
6.2118549
3.1759351
-1.2261543
4.2589173
3.4433153
-1.4903777
2.2775013
3.8649552
-1.8835392
4.1870981
-2.344456
0.43485923
15.882106
3.8923176
13.973553
4.1284432
12.050371
4.3673723
10.119058
4.5980722
8.1712539
4.8512671
6.213204
5.133985
4.2599257
5.3965936
2.2611948
5.8636861
6.0491927
0.39910013
15.883614
5.7864816
13.977209
6.0348481
12.05753
6.287051
10.127594
6.528009
8.1773631
6.8014976
6.2155365
7.0958116
4.2571274
7.3550027
2.2434122
7.8774013
7.9185774
0.37402742
15.885246
7.679014
13.983142
7.9369514
12.065503
8.2046902
10.136335
8.4571772
8.1855615
8.7522711
6.2212652
9.0601079
4.2475179
9.32875
2.2179991
9.9069202
9.7864667
0.35010993
15.886806
9.5699835
13.988948
9.8348095
12.075867
10.117771
10.149029
10.384015
8.1935668
10.707733
6.2301246
11.02355
4.2494863
11.309388
2.1986281
11.957778
11.656927
0.32816749
15.88954
11.458222
13.995743
11.728606
12.086755
12.026759
10.163416
12.307354
8.2077995
12.66335
6.2342239
12.997126
4.2427422
13.30087
2.1748509
14.02567
13.529961
0.30181663
15.890783
13.345217
14.003824
13.615565
12.098801
13.931782
10.174629
14.231526
8.2215608
14.616419
6.24936
14.969327
4.2476515
15.302578
2.1577133
16.115608
15.424496
0.26317913
15.892993
15.230002
14.010105
15.498453
12.113079
15.828808
10.192689
16.151915
8.2343746
16.574733
6.2529231
16.950778
4.2468989
17.308603
2.1370876
18.225419
17.350595
0.21098781
15.896438
17.111342
14.017443
17.377448
12.12132
17.724932
10.206718
18.066517
8.2541893
18.527262
6.2685606
18.936407
4.255301
19.321862
2.1244004
20.35632
19.277209
0.19778678
18.930388
15.958733
20.746162
15.962004
22.558451
15.965495
24.36832
15.967912
26.173983
15.972096
27.976663
15.9751
29.777052
15.977391
31.569261
15.985571
15.981691
33.36535
19.197337
14.138844
21.013299
14.146042
22.823767
14.155027
24.629762
14.161916
26.434043
14.167816
28.231042
14.1781
30.026617
14.181816
31.81044
14.201749
14.199314
33.592817
19.568715
12.29506
21.404722
12.310035
23.237375
12.322373
25.057982
12.34131
26.876732
12.349066
28.683771
12.371061
30.492445
12.373142
32.300922
12.393271
12.390915
34.109321
19.942696
10.418881
21.811211
10.44152
23.678712
10.454873
25.538792
10.481229
27.394793
10.493066
29.243509
10.522345
31.084975
10.531676
32.917098
10.561148
10.567862
34.740152
20.45715
8.4889936
22.383941
8.5147286
24.309975
8.5288383
26.234546
8.5566581
28.15469
8.5729221
30.075695
8.6013393
31.992245
8.6151263
33.90028
8.6531127
8.6668444
35.801298
20.910277
6.5151232
22.894267
6.5307386
24.877123
6.5459826
26.866149
6.5676319
28.848998
6.5900735
30.836853
6.613484
32.81184
6.6401397
34.796335
6.6686169
6.6902368
36.772943
21.358346
4.4786396
23.416566
4.4725185
25.479087
4.4834619
27.550927
4.4957917
29.618319
4.5226814
31.686409
4.5453942
33.747226
4.5793229
35.814591
4.6012519
4.6431411
37.861686
22.559258
2.2757011
24.768869
2.2629075
26.929735
2.3225958
29.049306
2.3762209
31.131136
2.440852
33.201483
2.4750465
35.270403
2.5104033
37.340263
2.531392
2.5547134
39.428691
21.46638
0.086529856
23.671095
0.058192563
25.999467
-0.0057761519
28.383367
-0.0076790715
30.842848
-0.018628216
33.341064
-0.02316959
35.786815
0.06465224
38.193462
0.12474503
40.638045
0.11013021
33.272376
0.092974598
33.190353
0.082022574
33.110841
0.079512198
33.045838
0.065003397
32.982379
0.063458248
32.935359
0.04702082
32.889277
0.046082055
32.860321
0.028955343
0.029472448
32.830849
33.542357
0.14343444
33.505526
0.11885317
33.469508
0.11553009
33.447174
0.087337199
33.425076
0.085556842
33.417029
0.055067994
33.407296
0.055814968
33.412261
0.023990501
0.028574985
33.413158
34.094346
0.15840963
34.087478
0.12572082
34.083286
0.11972196
34.085542
0.085081496
34.089486
0.081613028
34.09879
0.045763512
34.110025
0.04458061
34.127408
0.0066071213
0.0087693337
34.147214
34.753882
0.14467916
34.77154
0.10806316
34.790086
0.10117523
34.810664
0.064503452
34.83191
0.0603675
34.853356
0.024317811
34.874982
0.022954311
34.895741
-0.014151575
-0.011546252
34.916056
35.823617
0.1223597
35.842626
0.0890544
35.859371
0.084430729
35.870794
0.053080199
35.880682
0.050478891
35.885073
0.019927735
35.889363
0.018664068
35.886443
-0.011231496
-0.010863656
35.88576
36.76225
0.13305257
36.746258
0.1050464
36.737586
0.093102999
36.722279
0.068387108
36.712187
0.060571086
36.691553
0.040561752
36.675038
0.035178723
36.64551
0.018296539
0.015213849
36.619433
37.902345
0.092394051
37.928553
0.078838484
37.947951
0.073704303
37.948791
0.067547536
37.940312
0.069049826
37.913654
0.067219674
37.87676
0.072073061
37.823177
0.071879388
0.079593962
37.758797
39.314323
0.20676185
39.193617
0.19954376
39.070415
0.19690709
38.942092
0.19586993
38.823139
0.18800346
38.711148
0.17920985
38.595038
0.18818342
38.464032
0.20288581
0.23152656
38.312099
40.773258
0.071548452
40.936187
0.036614677
41.134166
-0.0010713376
41.334479
-0.0044436253
41.463313
0.059170155
41.419963
0.22255943
41.277979
0.33016723
40.996838
0.48402737
40.619441
0.60892292
40.31927
0.84082265
-0.54065082
39.893115
0.78968827
-0.36353365
39.373834
0.76216443
-0.24288338
38.85867
0.72267618
-0.20751271
38.322513
0.70604259
-0.16988567
37.809288
0.67238084
-0.15915582
37.276979
0.66282062
-0.13051082
36.776607
0.63190455
-0.13153291
0.63092418
36.260436
-0.11475268
38.316857
0.83606467
38.27191
0.83463533
38.200751
0.83332303
38.095894
0.82753314
37.977527
0.82441029
37.832094
0.81781313
37.680461
0.81445398
37.502587
0.80977889
0.80995147
37.323559
37.795334
0.79952795
37.82157
0.80839959
37.831817
0.82307563
37.82995
0.82940011
37.812116
0.84224412
37.782892
0.84703698
37.739254
0.85809196
37.686895
0.86213771
0.87370374
37.623143
36.726184
0.69277681
36.83395
0.70063299
36.926435
0.73059078
37.019436
0.73639933
37.096592
0.76508761
37.174252
0.76937752
37.235319
0.79702459
37.297636
0.79982095
0.82767023
37.34367
36.010279
0.56825783
36.140538
0.5703738
36.260895
0.61023439
36.386412
0.6108819
36.500412
0.65108744
36.620138
0.64965168
36.72778
0.68938289
36.841344
0.68625682
0.72658354
36.942431
35.067345
0.41696922
35.222133
0.41558603
35.373788
0.45857869
35.529683
0.454987
35.68168
0.49909055
35.838275
0.49305707
35.990202
0.53745604
36.146988
0.5294701
0.57488926
36.298683
34.29973
0.26445339
34.455891
0.25942454
34.614365
0.30010471
34.776698
0.29265368
34.940243
0.33554559
35.108911
0.32438963
35.27758
0.36878676
35.453129
0.3539211
0.40062542
35.627393
33.563347
0.11426481
33.709915
0.11285663
33.870175
0.13984451
34.026972
0.13585683
34.20051
0.16200751
34.370057
0.15484219
34.556775
0.18206841
34.738544
0.17215234
0.2016115
34.937558
32.945114
33.05797
33.197815
33.333672
33.495679
33.650521
33.83259
34.004742
34.206354
34.397261
-0.19090782
34.619242
-0.22198044
34.828423
-0.20918158
35.070357
-0.24193346
35.297949
-0.22759215
35.559432
-0.26148336
35.807572
-0.2481396
36.086672
-0.27910018
-0.27339695
36.360069
35.130087
-0.38343643
35.341115
-0.43300844
35.545462
-0.41352931
35.769234
-0.46570456
35.985938
-0.44429692
36.223743
-0.49928807
36.454387
-0.47878357
36.705418
-0.530131
-0.52126593
36.953287
35.809589
-0.56563262
35.989615
-0.61303392
36.179766
-0.60368022
36.365066
-0.65100537
36.565895
-0.64512551
36.757258
-0.69065079
36.966934
-0.68846039
37.171518
-0.734715
-0.73671518
37.386968
36.45635
-0.72330052
36.60772
-0.76440367
36.767365
-0.76332451
36.919974
-0.80361451
37.082294
-0.80744575
37.238913
-0.84727
37.404826
-0.85437374
37.569213
-0.8991015
-0.90794001
37.740438
37.049881
-0.83075138
37.14573
-0.86025262
37.248188
-0.8657821
37.342155
-0.89758137
37.441249
-0.90654032
37.536543
-0.94256327
37.637485
-0.95531606
37.735416
-0.99703242
-1.01427
37.841746
37.392118
-0.87920003
37.425596
-0.8937302
37.463554
-0.90373998
37.488738
-0.92276539
37.520858
-0.93866071
37.541219
-0.96292413
37.570773
-0.98486972
37.592378
-1.0186382
-1.0456302
37.623739
37.554345
-0.81040203
37.476569
-0.81595365
37.396328
-0.82349979
37.309174
-0.83561139
37.220541
-0.85002718
37.128054
-0.87043727
37.035639
-0.89245467
36.941616
-0.92461563
-0.95342248
36.849409
37.124063
-0.6109056
36.926413
-0.61830421
36.70726
-0.60434678
36.491212
-0.6195626
36.255849
-0.61466489
36.027972
-0.6425604
35.781089
-0.64557162
35.539238
-0.68276378
-0.68994507
35.27576
35.777173
-0.12764342
35.274802
-0.11593239
34.806254
-0.13579953
34.317803
-0.13111108
33.87149
-0.16835163
33.401072
-0.17214236
32.968563
-0.21306333
32.488534
-0.20273481
32.036138
-0.23754897
0.73879638
31.511544
-0.21420238
0.99797381
35.016583
1.0912167
36.756166
1.0635122
37.651443
0.95573979
37.949518
0.77931406
37.916863
0.56151687
37.604765
0.29734795
37.217456
36.657417
0.75546412
31.02781
-0.27172976
1.0358477
34.736199
1.1245453
36.667468
1.0859331
37.690055
0.97269052
38.062761
0.79280921
38.096745
0.56422529
37.833349
0.29777798
37.483903
36.955195
0.82444312
30.460288
-0.25692138
1.0961678
34.464474
1.1837813
36.579855
1.1447711
37.729065
1.0226738
38.184858
0.82839263
38.291026
0.59820858
38.063533
0.31983416
37.762277
37.275029
0.85886468
29.962999
-0.36157514
1.1451512
34.178188
1.2244392
36.500567
1.1707989
37.782706
1.0432365
38.312421
0.85048174
38.483781
0.61056372
38.303451
0.32477336
38.048068
37.599803
0.94918882
29.378687
-0.36487661
1.2251266
33.90225
1.3001489
36.425544
1.2418004
37.841054
1.1013317
38.452889
0.8866677
38.698445
0.63711932
38.552999
0.34085952
38.344328
37.940662
1.0060289
28.892407
-0.51974948
1.285066
33.623213
1.3468528
36.363758
1.2712365
37.916671
1.124345
38.599781
0.90822611
38.914564
0.65357826
38.807647
0.35197486
38.645931
38.292637
1.116742
28.328794
-0.55312846
1.3881976
33.351757
1.4407864
36.311169
1.3543439
38.003113
1.1873475
38.766777
0.94967347
39.152238
0.68547344
39.071847
0.36791997
38.963485
38.660557
1.2023019
27.919563
-0.79307142
1.4587322
33.095327
1.4914372
36.278464
1.386177
38.108373
1.217008
38.935946
0.97386123
39.395384
0.69692045
39.348788
0.37577383
39.284631
39.036331
1.3649564
27.389576
-0.83496931
1.5949141
32.865369
1.6144355
36.258942
1.4892509
38.233558
1.2813783
39.143819
1.0077077
39.669055
0.72722096
39.629275
0.39238471
39.619467
39.428715
-0.0043815558
39.433097
0.073250551
39.541835
0.15736966
39.545156
0.28139657
39.545028
0.42619986
38.999016
0.57712694
38.082631
0.73051119
36.105558
0.89609367
32.699787
27.513378
0.77229161
-0.0011107714
39.434208
0.069532315
39.471192
0.15954387
39.455144
0.25939706
39.445175
0.34969865
38.908714
0.4648914
37.967438
0.57628926
35.99416
0.65935641
32.61672
27.580872
0.59186206
0.0024138431
39.431794
0.072745997
39.40086
0.14639928
39.381491
0.25129906
39.340275
0.36679773
38.793215
0.47355935
37.860676
0.56979024
35.897929
0.66017057
32.526339
27.640508
0.60053508
0.01140114
39.420393
0.076528143
39.335733
0.15423109
39.303788
0.23504973
39.259456
0.29559101
38.732674
0.3679795
37.788288
0.43099823
35.834911
0.48012059
32.477217
27.681768
0.43886027
0.019319816
39.401073
0.086551966
39.268501
0.15331784
39.237022
0.24259813
39.170176
0.32846177
38.64681
0.39750834
37.719241
0.45180104
35.780618
0.49996883
32.429049
27.723721
0.45801572
0.029496248
39.371577
0.098779226
39.199218
0.17368524
39.162116
0.23727716
39.106584
0.27395702
38.610131
0.31087611
37.682322
0.32755416
35.76394
0.3340598
32.422544
27.742966
0.31481511
0.043974067
39.327603
0.11583435
39.127358
0.18496676
39.092983
0.26201479
39.029536
0.31899065
38.553155
0.35197529
37.649338
0.36809736
35.747818
0.37779866
32.412842
27.727556
0.39320849
0.059566703
39.268036
0.14283782
39.044086
0.21824249
39.017579
0.27192686
38.975852
0.29135001
38.533732
0.28767353
37.653014
0.25976856
35.775723
0.23707691
32.435534
27.699839
0.26479418
0.081120988
39.186915
0.1716134
38.953594
0.25186444
38.937328
0.31885961
38.908857
0.35210638
38.500485
0.34882477
37.656296
0.32541291
35.799135
0.30539477
32.455552
27.650834
0.35439936
-0.18323563
27.585111
0.2489588
-0.23580562
32.508122
-0.31104751
35.874376
-0.35143864
37.696687
-0.34888591
38.497932
-0.29918173
38.859152
-0.21105387
38.8492
-0.10411197
38.846652
39.082803
-0.27413188
27.518746
0.34049698
-0.33324692
32.567237
-0.39765453
35.938784
-0.43519234
37.734225
-0.4224767
38.485216
-0.3537509
38.790427
-0.25466987
38.750119
-0.13329115
38.725273
38.949512
-0.16554269
27.446387
0.23790188
-0.26285825
32.664553
-0.38787023
36.063796
-0.46571325
37.812068
-0.47583279
38.495336
-0.42206327
38.736657
-0.31398801
38.642044
-0.16619225
38.577478
38.78332
-0.27752763
27.389273
0.3346413
-0.39191149
32.778937
-0.50878134
36.180666
-0.57929803
37.882584
-0.57404151
38.490079
-0.49229717
38.654913
-0.36682809
38.516575
-0.20450959
38.415159
38.57881
-0.18564762
27.325366
0.24955531
-0.34912304
32.942412
-0.53701761
36.36856
-0.64438982
37.989956
-0.65418873
38.499878
-0.58579927
38.586523
-0.44286036
38.373636
-0.24416803
38.216467
38.334642
-0.32668328
27.315366
0.33668273
-0.51663454
33.132363
-0.69561655
36.547542
-0.79432786
38.088668
-0.78253616
38.488087
-0.67425881
38.478246
-0.51023386
38.209611
-0.29449652
38.00073
38.040145
-0.25646616
27.308928
0.26290389
-0.5126163
33.388513
-0.765966
36.800892
-0.8886945
38.211396
-0.88684376
38.486236
-0.79388531
38.385287
-0.59982571
38.015551
-0.33799538
37.738899
37.70215
-0.43264342
27.394826
0.3467457
-0.72145154
33.677322
-0.9632617
37.042702
-1.0732968
38.321431
-1.0433651
38.456304
-0.89665867
38.238581
-0.67768322
37.796576
-0.39690903
37.458125
37.305241
-0.39394063
27.521878
0.26688889
-0.76948625
34.052867
-1.0808571
37.354073
-1.1970315
38.437606
-1.1683038
38.427576
-1.0358245
38.106102
-0.77869867
37.53945
-0.4373946
37.116821
36.867846
0.6304104
36.237436
1.1308085
36.616423
1.5433267
37.126932
1.8703808
37.779048
2.0436335
38.254324
2.0005064
38.480733
1.6799555
37.674624
1.0864882
34.646335
28.031814
0.57655234
0.6837849
35.553651
1.2393954
36.060812
1.7127683
36.653559
2.0431312
37.448685
2.244215
38.05324
2.2460123
38.478936
1.8728009
38.047835
1.1377135
35.381422
28.676205
0.49332212
0.74537869
34.808272
1.3308235
35.475367
1.8417967
36.142586
2.2584907
37.031991
2.5262401
37.78549
2.5866726
38.418503
2.3101691
38.324339
1.5796396
36.111951
29.58065
0.67519503
0.80620687
34.002066
1.4405891
34.840985
2.0153724
35.567802
2.4253932
36.62197
2.7260696
37.484814
2.8632287
38.281344
2.5956248
38.591943
1.7579743
36.949602
30.722956
0.61566824
0.86689839
33.135167
1.5254223
34.182461
2.1381406
34.955084
2.6371479
36.122963
3.0066824
37.11528
3.2013588
38.086668
3.1103451
38.682957
2.3656714
37.694276
32.338979
0.74964788
0.917181
32.217986
1.6240209
33.475621
2.2994484
34.279656
2.7968203
35.625591
3.2023196
36.70978
3.4815014
37.807486
3.4524932
38.711965
2.7945819
38.352187
34.328292
0.80526907
0.96460377
31.253382
1.6957247
32.7445
2.4063905
33.568991
2.9885309
35.04345
3.4613179
36.236993
3.8232676
37.445536
3.9837897
38.551443
3.5679014
38.768075
36.689277
1.2069165
1.0091394
30.244243
1.78094
31.9727
2.5494041
32.800527
3.1398693
34.452985
3.6462818
35.730581
4.0504535
37.041364
4.2764554
38.325441
4.1364171
38.908113
38.638523
2.1871712
1.0446394
29.199604
1.8329042
31.184435
2.6422762
31.991155
3.3142945
33.780967
3.9197158
35.12516
4.402376
36.558704
4.847856
37.879961
5.0971926
38.658777
39.71107
4.0246451
-0.41935007
29.618954
-1.2454147
32.0105
-2.2112945
32.957034
-3.5163587
35.086031
-5.0295391
36.63834
-6.8514866
38.380652
-8.904744
39.933218
-11.188158
40.94219
41.116978
-12.594065
-0.35681551
29.975769
-1.1562227
32.809907
-2.0900105
33.890822
-3.3826772
36.378698
-4.9375995
38.193262
-6.8925101
40.335562
-9.1483773
42.189085
-11.27413
43.067943
40.891558
-11.04871
-0.30455596
30.280325
-1.0638723
33.569223
-1.9762433
34.803193
-3.2933443
37.695799
-4.9149606
39.814878
-6.9336306
42.354232
-9.2511713
44.506626
-10.982584
44.799356
35.531246
-5.622272
-0.24950664
30.529832
-0.9600401
34.279757
-1.8308328
35.673986
-3.1303536
38.995319
-4.7923177
41.476843
-6.9518908
44.513805
-9.1986267
46.753362
-10.638417
46.239146
26.197705
-1.3048768
-0.19518483
30.725017
-0.85821086
34.942783
-1.7105656
36.526341
-3.0184778
40.303232
-4.7426273
43.200992
-6.9372045
46.708383
-9.1376164
48.953774
-10.080433
47.181963
16.440197
-0.32292531
-0.15317464
30.878191
-0.75981882
35.549427
-1.5578056
37.324327
-2.8331828
41.578609
-4.5761281
44.943937
-6.882488
49.014742
-9.110305
51.181591
-9.6282465
47.699905
6.9596195
-0.14766866
-0.10158497
30.979776
-0.65894067
36.106783
-1.4438791
38.109266
-2.696263
42.830993
-4.4877852
46.73546
-6.808831
51.335788
-8.9523813
53.325141
-8.186385
46.933908
-1.361187
0.13442142
-0.081445307
31.061222
-0.57184781
36.597185
-1.2871934
38.824611
-2.526686
44.070485
-4.3334561
48.54223
-6.6720554
53.674388
-8.552712
55.205798
-4.8059534
43.18715
-7.6518285
1.4846882
-0.046235423
31.107457
-0.47554449
37.026494
-1.1819513
39.531018
-2.355076
45.24361
-4.1851597
50.372313
-6.4768204
55.966048
-7.8957746
56.624752
-4.0176799
39.309055
-12.833734
1.1642259
1.8975395
-15.439402
0.70812793
3.8087805
37.397814
2.8120681
57.621464
1.3879396
57.390177
0.28235257
51.4779
-0.24491437
45.770877
-0.39581153
39.681915
-0.34272238
36.973405
30.764735
1.6139423
-17.999586
0.94624163
3.5790584
35.432698
2.6356281
58.564894
1.2235591
58.802246
0.13557194
52.565887
-0.317054
46.223503
-0.46721084
39.832072
-0.36208828
36.868282
30.402646
1.3930383
-20.481837
1.0892127
3.3961123
33.429624
2.5135166
59.44749
1.1008059
60.214956
0.009545843
53.657148
-0.41504942
46.648098
-0.4895603
39.906583
-0.33957428
36.718296
30.063072
1.1776669
-22.865492
1.205988
3.165093
31.442198
2.3380791
60.274504
0.92844593
61.62459
-0.12238521
54.707979
-0.45997559
46.985688
-0.54694606
39.993554
-0.34488269
36.516233
29.718189
1.0017944
-25.176831
1.3095448
2.9923072
29.451685
2.2034176
61.063394
0.79765242
63.030355
-0.22937759
55.735009
-0.54032787
47.296639
-0.55493943
40.008165
-0.29724704
36.258541
29.420942
0.81662457
-27.375434
1.3819792
2.7637938
27.504516
2.0321678
61.79502
0.64161014
64.420912
-0.35025393
56.726873
-0.57806835
47.524453
-0.59520742
40.025304
-0.27141939
35.934753
29.149523
0.70088998
-29.414433
1.3381086
2.6003774
25.605028
1.9006843
62.494713
0.50963913
65.811958
-0.45217822
57.68869
-0.63961142
47.711886
-0.58090523
39.966598
-0.19462153
35.548469
28.954901
0.55594319
-31.412399
1.4420225
2.3574286
23.803543
1.71494
63.137201
0.37248981
67.154408
-0.55512686
58.616307
-0.67095098
47.827711
-0.60170353
39.897351
-0.15272556
35.099491
28.802176
0.43399258
-32.762179
0.91578788
2.1576824
22.079853
1.590532
63.704352
0.22548371
68.519456
-0.66317427
59.504965
-0.70620662
47.870743
-0.56477284
39.755917
-0.064890219
34.599608
28.737286
1.667155
-34.957583
0.52824902
-3.0323397
26.779348
-6.4046563
67.076668
-7.6546528
69.769453
-7.0294602
58.879772
-4.9699258
45.811208
-3.2255102
38.011501
-0.82916324
32.203261
27.908122
1.7782209
-36.818319
0.082515433
-3.8316755
32.389244
-7.3184825
70.563475
-8.4938693
70.944839
-7.1300884
57.515991
-4.5370134
43.218134
-2.4721142
35.946602
0.22611901
29.505028
28.134241
1.2725536
-35.771734
-2.3191389
-4.9411287
38.602926
-7.9642526
73.586599
-8.595971
71.576558
-6.9878155
55.907836
-4.1262878
40.356606
-1.8126817
33.632996
0.61724708
27.075099
28.751488
1.0862823
-32.750595
-4.1074212
-5.5215066
45.210715
-8.6748574
76.73995
-8.7375444
71.639245
-6.2166807
53.386972
-3.1598449
37.29977
-0.27044334
30.743594
2.204716
24.59994
30.956204
0.1547449
-28.628506
-4.276834
-6.4990698
51.86453
-8.9330056
79.173886
-8.5317915
71.238031
-6.0345563
50.889737
-2.5069613
33.772175
0.62222007
27.614413
2.3171644
22.904996
33.273369
-0.17375257
-23.894126
-4.5606269
-6.9071368
58.597914
-9.335129
81.601878
-8.5169959
70.419898
-5.1517018
47.524443
-1.3817989
30.002272
2.6144572
23.618157
4.2094746
21.309978
37.482844
-0.94447935
-17.960772
-4.9888749
-7.7760772
65.429512
-9.3516269
83.177428
-7.8916935
68.959964
-4.2688209
43.90157
-0.057751017
25.791202
3.6302859
19.93012
3.714546
21.225718
41.19739
-1.2507499
-11.794011
-4.9160112
-8.0608928
72.239655
-9.4269893
84.543524
-7.8906867
67.423662
-2.8048322
38.815716
2.3637133
20.622657
5.7548502
16.538983
5.1949347
21.785634
46.392324
-2.3575004
-3.6531375
-5.7833728
-8.9851414
78.867296
-9.4396627
84.998045
-6.645866
64.629865
-1.3356883
33.505538
3.5602885
15.72668
6.6598323
13.439439
4.3947901
24.050676
50.787114
-0.24901791
18.536266
0.084135636
-18.371383
1.041471
-29.245669
27.95518
0.98985626
-65.463464
65.515079
1.3992641
-66.407201
65.997793
4.6436594
-25.301333
22.056937
7.6747411
17.401517
-20.432598
9.893724
36.640185
-38.859168
10.610951
45.3209
-46.038128
29.52855
-30.192991
-0.20366468
18.649269
0.090660663
1.2327446
-30.682078
1.26889
-65.49961
1.5030244
-66.641335
4.3894613
-28.18777
7.2365634
14.554414
9.4354906
34.441258
9.9676574
44.788734
28.914471
-0.16417251
18.710613
0.10282929
1.4089176
-32.255168
1.5810801
-65.671772
1.6975143
-66.757769
4.2349353
-30.725191
6.9189774
11.870372
9.0061465
32.354089
9.3876984
44.407182
28.291779
-0.1291843
18.729746
0.11005118
1.5549428
-33.939295
1.848488
-65.965317
1.9147213
-66.824003
4.1202115
-32.930681
6.5938007
9.3967831
8.532693
30.415197
8.9176352
44.022239
27.49035
-0.084578179
18.692103
0.12222119
1.7377111
-35.761584
2.1620266
-66.389633
2.2196331
-66.881609
4.0658381
-34.776886
6.2632202
7.199401
8.0722927
28.606124
8.6048652
43.489667
26.377716
-0.027878642
18.587317
0.13266473
1.9365675
-37.72603
2.5100715
-66.963137
2.5808587
-66.952396
4.0408913
-36.236918
6.0035822
5.23671
7.7921257
26.817581
8.5650465
42.716746
24.94469
0.022490149
18.41836
0.14646666
2.1498417
-39.853382
2.8977625
-67.711058
2.9556266
-67.01026
4.0432287
-37.32452
5.9105367
3.369402
7.7613557
24.966762
8.9380735
41.540028
22.970582
0.06914415
18.191149
0.15806698
2.321651
-42.105889
3.2877556
-68.677162
3.3466204
-67.069125
4.105248
-38.083148
5.9397805
1.5348695
7.8555876
23.050955
9.5603685
39.835247
20.204944
0.11518524
0.17394403
17.902019
2.5232277
-44.513931
3.7026219
-69.856557
3.7901242
-67.156628
4.1852485
-38.478272
6.0366641
-0.31654614
8.1147709
20.972848
10.440244
37.509774
16.471729
-1.1876622
-10.99556
2.7945415
9.3886809
4.3371361
14.111865
-19.636662
5.8019978
31.373586
-32.838449
-0.05598118
-29.132298
34.990277
-4.7550691
-69.396425
74.095514
-5.3570254
-72.343307
72.945263
-3.9962942
-64.047399
62.686668
-1.8678407
-52.25822
50.129766
-41.775241
39.9074
-1.5524877
-11.932792
2.4897197
3.6632317
8.8961453
6.4102742
28.626543
1.7405686
-24.462593
-2.9928359
-64.663021
-4.7363268
-70.599816
-4.2952148
-64.488511
-1.9978227
-54.555612
-43.773063
-2.138426
-11.91412
2.1197537
2.6049338
4.1527857
6.2823698
24.949107
2.4573792
-20.637602
-2.0861199
-60.119521
-3.9530084
-68.732928
-3.8677075
-64.573812
-1.8126202
-56.610699
-45.585684
-2.3648577
-11.111707
1.5624449
1.3720201
0.41590785
5.7461104
20.575017
3.5241586
-18.41565
-0.68897408
-55.906389
-3.2878934
-66.134008
-3.7676643
-64.094041
-2.3987821
-57.979581
-47.984466
-2.4214187
-10.030588
1.3402991
0.63880939
-2.6443202
5.29711
15.916716
4.0857431
-17.204283
0.31237038
-52.133016
-2.1856879
-63.63595
-2.8311773
-63.448551
-1.8974889
-58.91327
-49.881955
-2.1502155
-8.2799387
0.39956631
0.47944953
-5.2739853
5.0481431
11.348023
4.8308703
-16.987011
1.4864012
-48.788547
-1.4815429
-60.668006
-2.7270438
-62.20305
-2.0738158
-59.566497
-51.95577
-1.9784311
-5.8350913
-0.46641635
0.16480092
-7.4172172
4.7846461
6.7281773
5.2175613
-17.419926
2.4223123
-45.993298
-0.095060077
-58.150633
-1.6552809
-60.64283
-1.6104941
-59.611284
-53.566265
-1.8297631
-3.8692283
-0.13609997
-0.033521431
-9.2134588
4.4837276
2.2109281
5.7122723
-18.64847
3.4046285
-43.685654
0.59731349
-55.343318
-1.127259
-58.918257
-1.5501137
-59.18843
-55.116378
-1.7685118
-1.5679016
-0.53281494
-0.96055222
-10.021418
3.8883226
-2.6379468
5.9369729
-20.697121
4.1013103
-41.849992
1.7276548
-52.969663
-0.056823154
-57.133779
-0.90199024
-58.343262
-56.018368
-0.9238135
51.083135
-50.159322
-2.028109
49.066657
-47.962362
-3.1351468
47.358872
-46.251834
-4.0804325
43.360954
-42.415668
-4.4422048
38.538262
-38.176489
-3.8896114
31.795985
-32.348579
-2.2209028
25.355812
-27.024521
-0.16109094
19.164892
-21.224703
-2.4316786
1.4086648
0.86192289
-0.88772014
51.970855
-2.018269
50.197206
-3.1239858
48.464589
-4.1045973
44.341565
-4.4858406
38.919505
-3.842731
31.152875
-1.9671212
23.480202
-0.024102199
17.221873
-3.1662383
0.71045751
-0.78862175
52.759477
-1.9470929
51.355678
-3.1044948
49.621991
-4.1672073
45.404278
-4.543811
39.296109
-3.7793527
30.388417
-1.5821435
21.282993
0.24536835
15.394361
-3.610423
0.68955299
-0.73782319
53.4973
-1.9241173
52.541972
-3.080653
50.778527
-4.1840479
46.507673
-4.584411
39.696472
-3.6446792
29.448685
-0.8340586
18.472372
0.78104677
13.779255
-3.5262702
0.69689395
-0.64145214
54.138752
-1.8289109
53.72943
-3.0460871
51.995703
-4.2300413
47.691627
-4.6443345
40.110765
-3.5533276
28.357678
-0.17898001
15.098025
1.241437
12.358838
-2.9018985
0.61706535
-0.58893265
54.727685
-1.7784271
54.918925
-3.0035828
53.220858
-4.2324135
48.920458
-4.6656297
40.543981
-3.2598388
26.951887
0.21243992
11.625746
1.3161316
11.255147
-2.0409267
0.45515978
-0.49315614
55.220841
-1.6605955
56.086364
-2.9413218
54.501585
-4.2455519
50.224688
-4.6716922
40.970121
-2.7619195
25.042115
0.55603554
8.3077907
1.1736715
10.637511
-0.62603643
-0.24121877
-0.4418923
55.662734
-1.5926331
57.237105
-2.8800827
55.789034
-4.222237
51.566842
-4.7039459
41.45183
-2.5276135
22.865782
0.48048816
5.299689
0.82222927
10.29577
0.55909396
-0.36290116
-0.35563491
-1.4617923
-2.8065371
-4.209358
-4.6075195
-2.4388578
0.22288433
0.49723591
-0.51157175
0.9345878
-1.4942302
1.9683072
4.9616257
-25.251741
6.7186209
-28.781516
6.9372238
-32.567181
6.1915433
-37.430809
4.8403461
-41.064471
3.2330696
-44.644558
1.5487672
-46.27806
-48.610555
2.5496066
-5.6120397
1.5682029
5.9910325
-28.693167
6.9490869
-29.73957
6.9090451
-32.52714
6.1173004
-36.639064
4.7883256
-39.735496
3.2060452
-43.062277
1.5787555
-44.65077
-47.031799
5.1891214
-10.883023
0.081862274
6.6314819
-30.135528
7.0292432
-30.137332
6.8054646
-32.303361
5.9862649
-35.819865
4.7428613
-38.492093
3.2221123
-41.541528
1.6137065
-43.042364
-45.418093
6.3577721
-17.225382
-0.015413704
7.014408
-30.792164
7.1098074
-30.232731
6.770662
-31.964216
5.9166573
-34.96586
4.6727269
-37.248162
3.1751402
-40.043942
1.609878
-41.477102
-43.808215
7.1216084
-24.10781
-0.23918026
7.3510746
-31.02163
7.1996027
-30.081259
6.6691096
-31.433722
5.7857907
-34.082541
4.6212463
-36.083618
3.184132
-38.606827
1.6146152
-39.907585
-42.193599
7.9402053
-31.536895
-0.51112003
7.5828577
-30.664282
7.218345
-29.716746
6.618471
-30.833848
5.72987
-33.19394
4.5399999
-34.893748
3.1095916
-37.176419
1.6206107
-38.418604
-40.572989
8.5278074
-35.25553
-4.8091729
7.7574241
-29.893899
7.1830996
-29.142422
6.5027268
-30.153476
5.6078483
-32.299061
4.480815
-33.766714
3.1095961
-35.8052
1.6139432
-36.922951
-38.959045
8.95263
-34.35653
-9.8516298
7.774577
-28.715846
7.1469271
-28.514772
6.4498262
-29.456375
5.5583161
-31.407551
4.4026873
-32.611085
3.0293124
-34.431825
1.5777906
-35.471429
-37.381255
8.930151
-32.12806
-11.158621
7.6707398
-27.456435
7.0660263
-27.910058
6.3409729
-28.731321
5.4359415
-30.50252
4.332804
-31.507948
3.0176819
-33.116703
1.5663547
-34.020102
-35.8149
0.038568875
36.738581
-36.77715
0.19886264
35.336668
-35.496962
0.37357177
34.702008
-34.876717
0.59122001
33.661179
-33.878827
0.82315159
32.996104
-33.228036
1.0670422
32.022617
-32.266507
1.1363514
31.576141
-31.64545
0.87185175
29.771316
-29.506817
25.625576
-25.122445
0.36872079
0.041532046
36.697049
0.15863323
35.219567
0.31186685
34.548775
0.5618697
33.411176
0.83251464
32.725459
1.1401701
31.714961
1.2634793
31.452832
1.0153609
30.019435
26.123387
0.51755029
0.065808233
36.631241
0.24435503
35.04102
0.43851617
34.354613
0.68109329
33.168599
0.96001901
32.446533
1.299511
31.375469
1.5161753
31.236167
1.2891985
30.246412
27.048644
0.36394125
0.07422898
36.557012
0.20416306
34.911086
0.37951816
34.179258
0.65544574
32.892671
0.96553694
32.136442
1.3756422
30.965364
1.6773994
30.93441
1.5904328
30.333378
28.080979
0.55809739
0.10248996
36.454522
0.2928576
34.720718
0.5046058
33.96751
0.7672133
32.630064
1.0770853
31.82657
1.5048957
30.537553
1.9378053
30.5015
1.9603134
30.31087
29.424145
0.61714751
0.11300281
36.341519
0.25656656
34.577154
0.44929266
33.774784
0.73693718
32.342419
1.0785999
31.484907
1.5519591
30.064194
2.0793304
29.974129
2.3597335
30.030467
30.785733
0.99814536
0.14830283
36.193216
0.34525535
34.380202
0.56844105
33.551598
0.84077423
32.070086
1.1659307
31.159751
1.6219154
29.60821
2.2437371
29.352307
2.7644113
29.509793
31.728584
1.8215602
0.17022472
36.022991
0.31857822
34.231848
0.52630645
33.34387
0.81575074
31.780642
1.160908
30.814594
1.6311218
29.137996
2.2960467
28.687383
3.1422972
28.663542
32.219956
2.6509249
0.20809146
0.41983753
0.64700443
0.91969826
1.2317719
1.6384464
2.4157706
3.6228778
3.7147744
-0.3709542
-25.083115
0.33162437
-0.45704014
-29.420731
-0.42582689
-31.676663
-0.23439658
-32.457937
-0.077436612
-33.384996
0.06647623
-34.02274
0.10777256
-34.918014
0.10378971
-35.492979
-36.67336
-0.33940721
-24.981685
0.23797722
-0.42086509
-29.339273
-0.40078681
-31.696742
-0.25000438
-32.60872
-0.1229421
-33.512058