/*--------------------------------*- C++ -*----------------------------------*\
  =========                 |
  \\      /  F ield         | OpenFOAM: The Open Source CFD Toolbox
   \\    /   O peration     | Website:  https://openfoam.org
    \\  /    A nd           | Version:  11
     \\/     M anipulation  |
\*---------------------------------------------------------------------------*/
FoamFile
{
    format      ascii;
    class       volScalarField;
    location    "0.027";
    object      rho;
}
// * * * * * * * * * * * * * * * * * * * * * * * * * * * * * * * * * * * * * //

dimensions      [0 0 0 0 0 0 0];

internalField   nonuniform List<scalar> 
880
(
0.3733250556165154
0.3733250556165154
0.3733250556165154
0.3733250555292521
0.3733250556165154
0.3733250556165154
0.3733250556165152
0.3733250557327976
0.3733250556165154
0.3733250556165153
0.3733250556165154
0.3733250565775717
0.3733250556165154
0.3733250556165154
0.3733250556165154
0.3733250410288037
0.3733250556165154
0.3733250556165155
0.3733250556165152
0.3733250556165154
0.3733250556165154
0.3733250556165154
0.3733250556165151
0.3733250556165154
0.3733250556165154
0.3733250556165154
0.3733250576760309
0.3733250343616955
0.373399489255246
0.3736515146907034
0.3737818009421944
0.3737562197946118
0.3733250556165613
0.3733250556166214
0.3733250556166264
0.3733250556165154
0.3733250556639737
0.3733250556758614
0.3733250556819413
0.3733250556313515
0.3733252413022327
0.3733252630690461
0.3733252763682776
0.3733251728533659
0.3737936134315468
0.3738404256495508
0.3738560993260046
0.3737979899946574
0.3741140905969288
0.3736959238777651
0.3733908635592446
0.3733280319627051
0.373325780664139
0.3733254683293053
0.3733251448752101
0.3733250606668806
0.3733250559693315
0.3733250558340257
0.3733250556659825
0.3733250556190407
0.373325055618783
0.3733250556179674
0.3733250556165327
0.3733250556165154
0.3733250556165152
0.3733250556165152
0.3733250556165154
0.3733250556165155
0.3733250556165187
0.3733250556165155
0.3733250556165154
0.3733250556165155
0.3733250556327224
0.3733250556121092
0.3733250556155679
0.3733250556165154
0.3733250472940329
0.3733250496767843
0.3733250548342411
0.3733250556059445
0.3733250556165163
0.3733250556165154
0.3733250556165154
0.3733250556165154
0.3733250549604363
0.3733250556073128
0.3733250556165154
0.3733250556165153
0.3733255638531574
0.3733250628053981
0.3733250556204334
0.3733250556165154
0.3728526796250782
0.373324564405622
0.3733250553660442
0.3733250556165153
0.3733250556165152
0.3733250556188736
0.3733250815087704
0.373512851505159
0.373325055616592
0.3733250556706739
0.3733253223175317
0.3744160528600851
0.373325055616665
0.373325055688569
0.373325390706008
0.3745808038473166
0.3733250556167078
0.3733250557039526
0.3733254372822578
0.3746365002486297
0.374701263544569
0.3733254946207756
0.3733250557245908
0.3733250556168334
0.3747761183385492
0.3733255654753658
0.3733250557514809
0.3733250556169118
0.3748563975813086
0.3733256498035659
0.3733250557857221
0.3733250556170757
0.3749839283162869
0.3733257824550359
0.3733250558435289
0.3733250556174674
0.3733250556169052
0.3733250557390602
0.3733255087508871
0.3746153890775425
0.3733250556169975
0.3733250557279811
0.3733254418490272
0.3743500792582675
0.3733250556440784
0.3733250557251417
0.373325401635356
0.3741511043674752
0.3733250555101391
0.3733250557133315
0.3733252111722561
0.3736343868650592
0.3733250560147875
0.3733249715629945
0.3732787078389725
0.3697936721642545
0.3733250559905812
0.3733248893139572
0.3731776559356362
0.3523945988072888
0.3733250559016573
0.3733248962866191
0.3731505208468067
0.3418206966286994
0.3733250558429895
0.3733249355815607
0.3731488909259391
0.3392871300071806
0.3479814108381412
0.3732277899067179
0.3733249608239944
0.3733250557598037
0.3491274164681979
0.3732406706198713
0.3733249827448832
0.3733250557540663
0.3514673167187928
0.3732603296563867
0.3733250044761811
0.3733250557419297
0.3460594250693216
0.3732402770547923
0.3733249920763182
0.3733250556772467
0.3679740438091448
0.3733168637118954
0.3733250502822809
0.3733250556277486
0.373080732134063
0.3733248887289705
0.3733250556010525
0.3733250556183302
0.3733059292220927
0.3733250319473832
0.3733250556033169
0.3733250556165154
0.3731955974111338
0.3733248665269345
0.3733250554593539
0.3733250556157996
0.3723119083284336
0.3733226634962573
0.3733250603279855
0.3733250558092608
0.3723136006770036
0.3733226604470727
0.3733250602552949
0.3733250558085215
0.3723153011805453
0.3733226153907289
0.373325059480607
0.3733250557932249
0.3723261712413498
0.3733225328470353
0.3733250577831246
0.3733250557545488
0.3731955974108356
0.3733248665266531
0.3733250554589954
0.3733250556158831
0.3733059292215677
0.373325031947059
0.3733250556026435
0.3733250556165154
0.3730807321338367
0.3733248887289889
0.3733250556010379
0.3733250556183844
0.3679740438097125
0.3733168637126053
0.3733250502823282
0.373325055627619
0.3733250557603963
0.3733249608248339
0.3732277899070782
0.34798141083843
0.3733250557543344
0.3733249827450287
0.3732406706201622
0.349127416468216
0.3733250557414547
0.3733250044766415
0.3732603296563838
0.3514673167196102
0.3733250556773772
0.3733249920764057
0.3732402770556367
0.3460594250686654
0.3392871300063692
0.3731488909255909
0.3733249355813306
0.3733250558429052
0.3418206966277282
0.3731505208463406
0.3733248962857896
0.3733250559009013
0.3523945988069161
0.3731776559349312
0.3733248893139212
0.3733250559898318
0.3697936721644768
0.3732787078387093
0.3733249715627054
0.3733250560156908
0.3733250556168751
0.3733250557393858
0.3733255087512973
0.374615389078135
0.3733250556170219
0.3733250557280814
0.373325441849014
0.3743500792580255
0.3733250556444874
0.3733250557251563
0.3733254016349116
0.3741511043673865
0.3733250555108459
0.3733250557133209
0.3733252111719103
0.3736343868650762
0.3749839283174944
0.3733257824545508
0.3733250558439938
0.3733250556174102
0.3748563975823283
0.3733256498041843
0.3733250557858917
0.3733250556171004
0.3747761183386739
0.3733255654762164
0.3733250557518598
0.373325055616894
0.3747012635449942
0.3733254946204095
0.3733250557246308
0.3733250556168017
0.3733250556165154
0.3733250556191354
0.3733250815087285
0.373512851504264
0.3733250556165587
0.3733250556704066
0.3733253223178115
0.3744160528601802
0.3733250556166345
0.3733250556885818
0.3733253907061099
0.3745808038477483
0.3733250556166831
0.3733250557040657
0.373325437281762
0.3746365002488085
0.3733250556165154
0.3733250556165154
0.3733250556165154
0.3733250556165154
0.3733250553653819
0.3733250556203624
0.3733250556165154
0.3733250556165153
0.3733245644057007
0.3733250628058727
0.3733250556070514
0.3733250556165154
0.3728526796250027
0.3733255638531761
0.3733250549604679
0.3733250556165163
0.3733250556165152
0.3733250556165154
0.3733250556165151
0.3733250556060305
0.3733250556165154
0.3733250556165153
0.3733250556159228
0.3733250548342463
0.3733250556165154
0.3733250556165154
0.3733250556119433
0.3733250496768286
0.3733250556165154
0.3733250556165154
0.3733250556330406
0.3733250472939237
0.3733250556185548
0.37332505596875
0.3733257806636977
0.37411409059677
0.3733250556176484
0.3733250558342617
0.3733254683293913
0.3736959238771451
0.3733250556165317
0.3733250556666655
0.3733251448749909
0.3733908635591943
0.3733250556165154
0.3733250556191293
0.3733250606669514
0.3733280319622832
0.3737979899949251
0.3733251728539947
0.3733250556311047
0.3733250556165154
0.3738560993257591
0.3733252763694623
0.3733250556817913
0.3733250556166386
0.3738404256501731
0.3733252630696278
0.3733250556759334
0.3733250556166113
0.3737936134314083
0.373325241300845
0.3733250556638943
0.3733250556165632
0.3737562197949861
0.3733250343617124
0.3733250556165154
0.3733250556165154
0.3737818009419921
0.373325057675357
0.3733250556165154
0.3733250556165154
0.3736515146911206
0.3733250556165155
0.3733250556165154
0.3733250556165153
0.3733994892551693
0.3733250556165154
0.3733250556165154
0.3733250556165151
0.3733250556165154
0.3733250556165154
0.3733250556165154
0.3733250555390361
0.3733250556165152
0.3733250556165155
0.3733250556165153
0.3733250557329836
0.3733250556165154
0.3733250556165154
0.3733250556165154
0.3733250565775771
0.3733250556165154
0.3733250556165154
0.3733250556165151
0.3733250410285366
0.3733250479963365
0.3733249377097267
0.3733235281092053
0.3733468622120118
0.373324937709734
0.3733239686857165
0.3733042780713339
0.3732187732600952
0.3733235281092708
0.373304278071507
0.3733329201003512
0.3768738204559749
0.3733468622122521
0.3732187732602716
0.3768738204563971
0.4135548638689492
0.5036774401571806
0.4290162234458078
0.4022487196065484
0.3789408221520954
0.530867405155469
0.4836440099816882
0.4594940257920423
0.4015526352034613
0.5421563177855497
0.5054069582889554
0.4860007147033873
0.4160874411191518
0.545095695371995
0.5090610723410641
0.489852969145017
0.4174424242180266
0.4204899269598066
0.4223991533074996
0.4228878730418412
0.4255829375215899
0.4922207690378395
0.4934688330818248
0.4939025358824459
0.5127998467499344
0.5105685599464939
0.5110858381373702
0.511412146104504
0.5317465049010596
0.5469310019005175
0.5467567619421891
0.5468476548366167
0.5757461305894523
0.4126393076817227
0.3854722828432304
0.374725756245987
0.3733602741281303
0.4418904473274592
0.3891786659912677
0.3748693536573068
0.3733235999400648
0.4196471896059044
0.3821448597217994
0.3740463548747193
0.3732902542857724
0.3635001866643826
0.3672286836534844
0.3725522236676641
0.3731923595899395
0.3733233824980186
0.3733247713249295
0.373325043854507
0.3733250555579335
0.3733212386769583
0.373324937267079
0.3733250544391038
0.37332505567262
0.3733205548757246
0.3733250414470731
0.3733250561710357
0.3733250556792206
0.3733063119160734
0.3733241476449494
0.3733250474453428
0.3733250556279576
0.3733250556203432
0.373325055636932
0.3733250688578529
0.3536421356856462
0.3733250556417514
0.3733250556226148
0.3733250611844268
0.3414194864808114
0.373325055645197
0.3733250556210354
0.3733250563064617
0.354102720368642
0.3733250556446405
0.3733250556229409
0.3733250557265241
0.4304101189050591
0.4328735472202334
0.5171799853253197
0.5261878962300987
0.5260396936505658
0.6021007350868323
0.7101507627483226
0.7197435580482521
0.7195504652590594
0.676173520844039
0.7476027321057167
0.7583425371533357
0.7585430072245861
0.7317172255032803
0.7808352861879875
0.7928651024044016
0.7935282629227275
0.526025938613944
0.5261904993197959
0.5263988631406464
0.527771243541348
0.719368960308981
0.7193688731568026
0.7194226691667093
0.7193354565252689
0.7584426840197135
0.7583881356216764
0.7583868870340951
0.75807411462242
0.7934865793044165
0.7933787704450964
0.7933624797515689
0.7929933825017056
0.5024903024878771
0.4839393258302357
0.4678319294612688
0.4205759969597233
0.7053322120754018
0.6925573423721386
0.6763701963428823
0.613494024338414
0.7530155372352844
0.7474751634990572
0.7330106194213095
0.6978393169820136
0.7933721298840359
0.7961931957856561
0.7838215680133451
0.8048993399853688
0.3476510396081091
0.2081438433747506
0.1103554839903447
0.1018667509821657
0.3309018047679212
0.150473638021715
0.08402522594332296
0.07657467398530375
0.2863216219446458
0.09448624823888113
0.06588402342704409
0.06209492310888466
0.2152894297834819
0.04456203812368237
0.04600482220250134
0.04545914595513401
0.1004442309155999
0.1011056079065611
0.1019930743823923
0.08597854339878938
0.07684028534966807
0.07744052376805254
0.08172895193125784
0.07357997105777685
0.06028625114164276
0.06102067404998126
0.06763029290853433
0.06658460336588086
0.04245160822652603
0.04257395792152022
0.05026977071634609
0.05230064293142486
0.2545718732843562
0.3583487638970219
0.3716634222379139
0.3644056170616203
0.1954422994022509
0.3270085612300268
0.3636681441731979
0.3567571674881582
0.1681525886392455
0.292333990513483
0.3453640340265008
0.3543445442690947
0.1287532390923709
0.2599338041839701
0.3253414952211716
0.3541530268214839
0.3577870127560153
0.3333918171653727
0.2993472383350118
0.2800410028668153
0.3105464253683112
0.2712297769502602
0.2152497335278686
0.1716474840971343
0.2339037709913924
0.2038110057300859
0.1638918993561499
0.1057323668422631
0.1708688208661422
0.119135105714521
0.1103925239259691
0.0749394701896144
0.05353584159342963
0.05224515512740806
0.05169489010297384
0.05112387398802429
0.08870575115829732
0.08675844261644819
0.08509152056516646
0.08376021217017823
0.1608510509035027
0.1593221370770796
0.1579655947473161
0.1570297612516267
0.2715538324157851
0.2703840675138445
0.2695911682551809
0.2692077977433977
0.05112387398801717
0.08376021217030885
0.1570297612515628
0.269207797745981
0.05169489010288847
0.08509152056544377
0.1579655947471956
0.2695911682550856
0.05224515512731537
0.08675844261647989
0.1593221370769698
0.2703840675138987
0.05353584159359807
0.08870575115813856
0.160851050903203
0.2715538324154302
0.2800410028666221
0.2993472383346438
0.3333918171649419
0.3577870127553404
0.1716474840969052
0.2152497335279599
0.2712297769505205
0.3105464253680038
0.1057323668422726
0.1638918993562635
0.2038110057300573
0.2339037709912069
0.07493947018972109
0.110392523925965
0.1191351057144981
0.17086882086607
0.3541530268212286
0.3253414952207551
0.2599338041840378
0.1287532390923241
0.3543445442689743
0.3453640340264238
0.2923339905134579
0.1681525886392662
0.356757167488185
0.3636681441728248
0.3270085612298524
0.1954422994023647
0.3644056170614654
0.371663422237594
0.3583487638969079
0.2545718732845317
0.08597854339868058
0.1019930743823413
0.1011056079064157
0.1004442309153311
0.07357997105769407
0.08172895193120142
0.07744052376805954
0.07684028534961816
0.06658460336593565
0.06763029290861929
0.06102067405012
0.0602862511417417
0.05230064293142941
0.05026977071649631
0.04257395792163223
0.0424516082266126
0.1018667509816146
0.1103554839901124
0.2081438433745021
0.3476510396080222
0.07657467398529287
0.08402522594327008
0.1504736380214776
0.330901804767274
0.06209492310904285
0.06588402342700185
0.09448624823885828
0.2863216219441131
0.04545914595529254
0.04600482220243373
0.04456203812356636
0.2152894297832504
0.4205759969591956
0.4678319294613332
0.483939325829779
0.5024903024874622
0.6134940243372783
0.6763701963427841
0.6925573423720183
0.7053322120753143
0.6978393169814402
0.7330106194211041
0.7474751634990892
0.7530155372349616
0.8048993399852631
0.7838215680132248
0.7961931957856787
0.7933721298840235
0.5277712435405444
0.5263988631411683
0.5261904993200412
0.5260259386137409
0.7193354565245214
0.7194226691671215
0.7193688731571564
0.7193689603088833
0.7580741146214801
0.7583868870341745
0.758388135621697
0.7584426840194941
0.7929933825009997
0.7933624797516284
0.7933787704449392
0.7934865793042788
0.5260396936500656
0.5261878962306565
0.5171799853249521
0.4328735472212188
0.7195504652587206
0.7197435580487249
0.7101507627478414
0.6021007350876278
0.7585430072243451
0.7583425371536275
0.7476027321053996
0.6761735208443026
0.7935282629226309
0.7928651024046234
0.7808352861875278
0.7317172255033034
0.353642135685612
0.373325068857823
0.3733250556368927
0.3733250556203405
0.3414194864808855
0.3733250611844137
0.3733250556225987
0.3733250556417472
0.3541027203687812
0.373325056306456
0.3733250556210339
0.3733250556451895
0.4304101189051714
0.373325055726524
0.3733250556229384
0.3733250556446253
0.3733250555579382
0.3733250438545816
0.3733247713249354
0.3733233824980142
0.3733250556726025
0.3733250544390798
0.373324937267164
0.3733212386768656
0.373325055679172
0.3733250561710252
0.3733250414472157
0.3733205548756812
0.3733250556279334
0.373325047445355
0.3733241476450801
0.3733063119162118
0.3733602741279824
0.3747257562459415
0.3854722828429522
0.4126393076814636
0.3733235999399587
0.3748693536572993
0.3891786659911211
0.4418904473275178
0.3732902542856829
0.3740463548747224
0.382144859721708
0.4196471896059826
0.3731923595896642
0.3725522236677235
0.3672286836533704
0.3635001866644809
0.4255829375212961
0.4228878730415441
0.422399153307126
0.4204899269601967
0.5127998467493892
0.4939025358821505
0.493468833081433
0.4922207690382266
0.5317465049006661
0.5114121461041513
0.5110858381365428
0.5105685599467397
0.5757461305893289
0.5468476548362901
0.5467567619414898
0.5469310019007942
0.417442424217965
0.4160874411186091
0.4015526352038267
0.3789408221524646
0.4898529691448901
0.486000714702773
0.4594940257920713
0.4022487196066311
0.5090610723413418
0.5054069582881408
0.4836440099815543
0.4290162234455741
0.545095695372541
0.5421563177855218
0.5308674051553849
0.5036774401572948
0.373112317649908
0.3733245939775682
0.3733250559186938
0.3733250556415528
0.3726983846546954
0.3733236451549888
0.3733250565780606
0.3733250556949473
0.3721572203365225
0.3733224167104894
0.3733250557143797
0.3733250557007909
0.3718540440936957
0.3733218508739124
0.3733250559328732
0.3733250557200213
0.3733250558094816
0.3733250603277995
0.3733226634963834
0.3723119083285124
0.3733250558086729
0.3733250602557089
0.3733226604464346
0.3723136006772105
0.3733250557930616
0.3733250594809882
0.3733226153908441
0.3723153011799577
0.3733250557539383
0.3733250577835666
0.3733225328453673
0.3723261712413554
0.3733250557199359
0.3733250557007328
0.3733250556943146
0.3733250556408463
0.3733250559329975
0.3733250557143724
0.3733250565778921
0.3733250559181733
0.3733218508744585
0.3733224167097063
0.3733236451557538
0.3733245939770911
0.3718540440931062
0.3721572203357831
0.3726983846548725
0.3731123176500793
)
;

boundaryField
{
    back
    {
        type            empty;
    }
    inlet
    {
        type            calculated;
        value           nonuniform List<scalar> 
16
(
0.3733250556165154
0.3733250556165154
0.3733250556165154
0.3733250556165154
0.3733250556165154
0.3733250556165155
0.3733250556165152
0.3733250556165154
0.3733250556165154
0.3733250556165154
0.3733250556165154
0.3733250556165151
0.3733250556165154
0.3733250556165152
0.3733250556165154
0.3733250556165154
)
;
    }
    front
    {
        type            empty;
    }
    top
    {
        type            calculated;
        value           nonuniform List<scalar> 
40
(
0.3733250556165613
0.3733250556166214
0.3733250556166264
0.3733250556165154
0.373325055618783
0.3733250556179674
0.3733250556165327
0.3733250556165154
0.3733250556165152
0.3733250556165152
0.3733250556165154
0.3733250556165155
0.3733250556165154
0.3733250556165154
0.3733250556165154
0.3733250556165153
0.3733250556165152
0.3733250556165919
0.373325055616665
0.3733250556167078
0.3733250556168334
0.3733250556169117
0.3733250556170757
0.3733250556174674
0.3733250556169052
0.3733250556169975
0.3733250556440784
0.3733250555101391
0.3733250560147875
0.3733250559905812
0.3733250559016573
0.3733250558429895
0.3733250557598037
0.3733250557540663
0.3733250557419297
0.3733250556772467
0.3733250556277486
0.3733250556183302
0.3733250556165154
0.3733250556157996
)
;
    }
    outlet
    {
        type            calculated;
        value           uniform 0.3733250556165154;
    }
    bottom
    {
        type            calculated;
        value           nonuniform List<scalar> 
40
(
0.3733250556158831
0.3733250556165154
0.3733250556183844
0.373325055627619
0.3733250557603963
0.3733250557543344
0.3733250557414547
0.3733250556773772
0.3733250558429052
0.3733250559009013
0.3733250559898318
0.3733250560156908
0.3733250556168751
0.3733250556170219
0.3733250556444874
0.3733250555108459
0.3733250556174102
0.3733250556171004
0.373325055616894
0.3733250556168017
0.3733250556165154
0.3733250556165587
0.3733250556166345
0.373325055616683
0.3733250556165154
0.3733250556165154
0.3733250556165154
0.3733250556165154
0.3733250556165152
0.3733250556165154
0.3733250556165154
0.3733250556165154
0.3733250556185548
0.3733250556176484
0.3733250556165317
0.3733250556165154
0.3733250556165154
0.3733250556166386
0.3733250556166113
0.3733250556165632
)
;
    }
    wall
    {
        type            calculated;
        value           nonuniform List<scalar> 
104
(
0.5036774401571806
0.530867405155469
0.5421563177855497
0.545095695371995
0.5469310019005175
0.5467567619421891
0.5468476548366167
0.5757461305894523
0.3635001866643826
0.3672286836534844
0.3725522236676641
0.3731923595899395
0.3733063119160734
0.3733241476449494
0.3733250474453428
0.3733250556279576
0.3733250556446405
0.3733250556229409
0.3733250557265241
0.4304101189050591
0.7317172255032803
0.7808352861879875
0.7928651024044016
0.7935282629227275
0.7934865793044165
0.7933787704450964
0.7933624797515689
0.7929933825017056
0.7933721298840359
0.7961931957856561
0.7838215680133451
0.8048993399853688
0.2152894297834819
0.04456203812368237
0.04600482220250134
0.04545914595513401
0.04245160822652604
0.04257395792152022
0.05026977071634609
0.05230064293142486
0.1287532390923709
0.2599338041839701
0.3253414952211716
0.3541530268214839
0.1708688208661422
0.119135105714521
0.1103925239259691
0.0749394701896144
0.05353584159342963
0.05224515512740806
0.05169489010297384
0.05112387398802429
0.05112387398801717
0.05169489010288847
0.05224515512731537
0.05353584159359807
0.07493947018972109
0.110392523925965
0.1191351057144981
0.17086882086607
0.3541530268212286
0.3253414952207551
0.2599338041840378
0.1287532390923241
0.05230064293142941
0.05026977071649631
0.04257395792163223
0.0424516082266126
0.04545914595529254
0.04600482220243373
0.04456203812356636
0.2152894297832504
0.8048993399852631
0.7838215680132248
0.7961931957856787
0.7933721298840235
0.7929933825009997
0.7933624797516284
0.7933787704449392
0.7934865793042788
0.7935282629226309
0.7928651024046234
0.7808352861875278
0.7317172255033034
0.4304101189051714
0.373325055726524
0.3733250556229384
0.3733250556446253
0.3733250556279334
0.373325047445355
0.3733241476450801
0.3733063119162118
0.3731923595896642
0.3725522236677234
0.3672286836533704
0.3635001866644809
0.5757461305893289
0.5468476548362901
0.5467567619414898
0.5469310019007942
0.545095695372541
0.5421563177855218
0.5308674051553849
0.5036774401572948
)
;
    }
}


// ************************************************************************* //
