/*--------------------------------*- C++ -*----------------------------------*\
  =========                 |
  \\      /  F ield         | OpenFOAM: The Open Source CFD Toolbox
   \\    /   O peration     | Website:  https://openfoam.org
    \\  /    A nd           | Version:  11
     \\/     M anipulation  |
\*---------------------------------------------------------------------------*/
FoamFile
{
    format      ascii;
    class       volVectorField;
    location    "16.1";
    object      U;
}
// * * * * * * * * * * * * * * * * * * * * * * * * * * * * * * * * * * * * * //

dimensions      [0 1 -1 0 0 0 0];

internalField   nonuniform List<vector> 
4455
(
(9.9989467 0.0046455474 0)
(9.9892452 0.0067914287 -1.4909898e-19)
(9.9691648 0.014992961 5.117189e-19)
(9.9422741 0.013141126 1.0110409e-21)
(9.8942498 0.026276474 4.7994887e-19)
(9.845256 0.021953706 -1.8039776e-18)
(9.7534714 0.048148461 8.01364e-19)
(9.6607634 0.026096513 0)
(9.5116654 0.084057448 -4.8132743e-18)
(10.000768 0.0080927883 -9.7432412e-19)
(9.9910241 0.016670432 9.4924432e-19)
(9.9684339 0.029010883 -1.1667882e-18)
(9.9407859 0.029575489 1.9418227e-18)
(9.8905784 0.042360484 -3.7178658e-18)
(9.8375002 0.034556455 4.0470489e-18)
(9.7350606 0.048705571 -3.8376663e-19)
(9.6460582 0.023462687 5.6005756e-19)
(9.468511 0.0089713197 2.0880859e-17)
(10.001447 0.011975751 -1.0197147e-18)
(9.9926809 0.025806883 1.2879628e-18)
(9.9686771 0.043895684 1.1418928e-18)
(9.940564 0.04755586 -1.1351588e-18)
(9.8889867 0.065517545 4.9600256e-18)
(9.8346868 0.060843524 -2.7884864e-18)
(9.7337859 0.082596165 3.6031968e-19)
(9.6255777 0.029263657 -7.8811267e-18)
(9.4517043 0.072613252 -1.4759659e-17)
(10.002126 0.015476839 2.6618757e-21)
(9.9941564 0.033314336 -1.4302967e-19)
(9.9698456 0.058955424 2.7104058e-18)
(9.9406325 0.064419455 3.6975325e-19)
(9.8922341 0.091056461 -2.625157e-22)
(9.830788 0.084051235 -5.3648343e-19)
(9.7261093 0.12753247 5.9164442e-18)
(9.6069986 0.056710687 1.5755686e-17)
(9.4128488 0.12267345 1.2242195e-17)
(10.004653 0.019732843 1.9723997e-18)
(9.9947743 0.039021151 -2.2053536e-18)
(9.9725875 0.07305066 2.8057258e-18)
(9.9416487 0.08068472 1.1328032e-21)
(9.8960353 0.11610664 -3.4016471e-18)
(9.83075 0.10693728 -1.039142e-18)
(9.7199463 0.15158758 -4.6629398e-18)
(9.5903611 0.076498785 -7.412263e-18)
(9.3667615 0.15848915 -3.6109583e-17)
(10.005776 0.021745848 0)
(9.99694 0.045722595 0)
(9.9755054 0.084296135 -4.8910587e-18)
(9.9448572 0.096919546 -5.6186683e-18)
(9.9017953 0.13918465 0)
(9.8340432 0.13836436 -7.5247157e-18)
(9.7136633 0.19429945 -6.3606771e-19)
(9.5656992 0.11185994 -4.407418e-19)
(9.3198053 0.20962642 4.456748e-17)
(10.008974 0.024097323 0)
(9.9967971 0.049658773 -1.3269201e-19)
(9.9803844 0.095635852 1.4935053e-19)
(9.9488125 0.11028679 5.4916924e-18)
(9.9070807 0.15784322 -4.0320877e-19)
(9.8378538 0.15788933 1.6025493e-17)
(9.7180717 0.22143379 0)
(9.5524683 0.13963276 0)
(9.265932 0.26941731 2.041486e-17)
(10.010705 0.024932456 3.7344991e-18)
(9.9991922 0.053400283 0)
(9.9829961 0.10371667 0)
(9.9568829 0.12695527 0)
(9.9162327 0.18144166 0)
(9.8433559 0.19033868 -8.0005667e-18)
(9.7133894 0.26413668 -8.5357269e-18)
(9.5344116 0.18126796 1.222695e-17)
(9.2166967 0.33037783 1.1283287e-19)
(10.012812 0.025322328 -3.6773608e-18)
(10.000933 0.055205267 -1.277712e-19)
(9.9872154 0.10865514 -1.4406039e-19)
(9.9607404 0.13405802 3.267061e-19)
(9.9268575 0.19457007 1.2560086e-17)
(9.8542156 0.2072436 1.4118444e-17)
(9.7255387 0.29377258 2.7198333e-17)
(9.5194007 0.2188927 -1.2009421e-17)
(9.1593025 0.40283239 -3.5174147e-17)
(10.013564 0.024704907 0)
(10.014575 0.023642193 6.8401796e-18)
(10.014471 0.022058828 -6.7846586e-18)
(10.013808 0.019676132 6.5045642e-18)
(10.013486 0.017034993 -6.3578477e-18)
(10.011558 0.013546505 1.2702867e-17)
(10.010218 0.010567101 -1.2331975e-17)
(10.007917 0.0061397036 0)
(10.003678 0.0023875477 0)
(10.00403 0.057402848 0)
(10.005655 0.056922385 1.183221e-19)
(10.008908 0.055456778 0)
(10.010377 0.053168254 3.3662574e-19)
(10.01254 0.050261165 6.8770539e-18)
(10.015244 0.045976126 -2.0546434e-17)
(10.015225 0.041050241 1.3303373e-17)
(10.019432 0.035860152 -2.0283876e-19)
(10.015981 0.02399163 1.2857307e-17)
(9.992503 0.11586902 8.5791934e-18)
(9.997953 0.1201448 -1.6909356e-17)
(10.003433 0.12223075 1.6152468e-17)
(10.010544 0.12126895 -5.043161e-19)
(10.014335 0.11859297 -7.6264145e-18)
(10.023071 0.11511511 -2.3186142e-19)
(10.024897 0.10732059 0)
(10.034916 0.10198764 4.3869719e-19)
(10.034236 0.083681151 -2.1354572e-19)
(9.9699409 0.14747004 8.9395889e-18)
(9.9787854 0.1575889 -1.8163125e-17)
(9.9871446 0.1647121 1.7288869e-17)
(9.9995829 0.16999298 -8.3789111e-18)
(10.006826 0.17035183 -5.2435364e-19)
(10.02117 0.17285074 2.5341921e-19)
(10.027738 0.16768269 0)
(10.044587 0.16637939 -2.3879582e-19)
(10.046763 0.14982122 1.4391943e-17)
(9.9344023 0.21578455 -1.0086694e-17)
(9.9519957 0.23546696 0)
(9.9594937 0.24970141 -9.3415167e-18)
(9.9796896 0.26417301 9.6327566e-18)
(9.9883269 0.27137611 -8.7052246e-18)
(10.01009 0.28107652 8.9958695e-18)
(10.020038 0.28148288 0)
(10.043804 0.28783713 0)
(10.051155 0.27300942 5.090649e-19)
(9.860605 0.23606072 -1.2316893e-17)
(9.8785416 0.26872328 -1.1783511e-17)
(9.8880281 0.29158647 1.1327337e-17)
(9.9093971 0.32177396 1.0862596e-17)
(9.923918 0.33671303 -1.0472288e-17)
(9.9483202 0.36432055 0)
(9.9676782 0.36933699 1.9401781e-17)
(9.9944148 0.39543943 -4.5881003e-20)
(10.012599 0.38475778 -3.6226008e-17)
(9.7236218 0.33078059 -1.440963e-17)
(9.7439177 0.38941533 0)
(9.7536162 0.415413 0)
(9.780594 0.46874508 3.9473812e-19)
(9.8026674 0.48752673 0)
(9.835022 0.54067254 0)
(9.8649885 0.55147415 0)
(9.9004399 0.60103416 0)
(9.9285876 0.59854586 0)
(9.5084676 0.26635077 5.5128438e-19)
(9.4906073 0.36330204 0)
(9.5002665 0.42358135 4.9427631e-19)
(9.5011847 0.52713257 -9.2729535e-19)
(9.5394443 0.57560605 -1.4052924e-17)
(9.5632808 0.66803715 -1.3336139e-17)
(9.6162299 0.69956123 2.5602411e-17)
(9.6552801 0.78187106 2.475467e-17)
(9.711686 0.79009868 -2.3418397e-17)
(9.092621 0.48163644 6.5880719e-17)
(9.0193837 0.69745518 -4.0844173e-17)
(9.0240572 0.82667151 3.7914068e-17)
(9.0625164 1.0461429 -3.5809681e-17)
(9.141941 1.1383129 -5.0945246e-17)
(9.2269826 1.3137751 9.5893947e-17)
(9.3229839 1.3657793 -6.05839e-17)
(9.4207453 1.5054106 -2.8891863e-17)
(9.5094268 1.5151874 2.7161556e-17)
(10.005233 0.0029408077 -1.6950354e-20)
(10.008393 0.0041929514 1.7406744e-17)
(10.013362 0.0061858807 -6.2540627e-21)
(10.019781 0.0084266587 -1.7534824e-17)
(10.027521 0.010747221 1.7161446e-20)
(10.036797 0.01312694 1.7641319e-17)
(10.047676 0.015628235 -1.7727415e-17)
(10.060334 0.018187394 -1.7313181e-20)
(10.075966 0.021734369 -8.9167202e-18)
(10.023628 0.027186578 -1.8448781e-17)
(10.028397 0.037628497 1.856489e-17)
(10.040621 0.038773838 -1.8570044e-17)
(10.048409 0.052204809 0)
(10.064561 0.052144352 1.8730623e-17)
(10.075528 0.068112142 1.5535512e-20)
(10.095336 0.066496816 3.1501284e-20)
(10.109746 0.084755784 -1.8845766e-17)
(10.133845 0.08118823 9.4808436e-18)
(10.046955 0.090648251 1.9675461e-17)
(10.050851 0.10722349 -1.9735437e-17)
(10.067078 0.11195066 -1.9869299e-17)
(10.072427 0.13013649 1.9916399e-17)
(10.091338 0.13462882 -2.0082567e-17)
(10.098805 0.15563852 2.0014454e-17)
(10.121538 0.15984903 -2.0212672e-17)
(10.131645 0.18441924 -1.167e-20)
(10.158827 0.18774549 2.0246417e-17)
(10.066212 0.16200931 -2.1025399e-17)
(10.069268 0.18657758 -8.2716239e-20)
(10.090293 0.19616383 8.3195928e-20)
(10.093515 0.22132516 0)
(10.11706 0.23080208 -1.5999565e-22)
(10.122656 0.25944467 -2.1396604e-17)
(10.150573 0.26874547 2.1751186e-17)
(10.159155 0.30164812 8.4658436e-20)
(10.192086 0.30980195 8.4927092e-20)
(10.074063 0.29046006 -8.8775341e-20)
(10.075462 0.32067146 -2.285558e-17)
(10.097391 0.33488525 -6.9281638e-20)
(10.097072 0.36370741 2.306295e-17)
(10.121687 0.3776101 2.3221222e-17)
(10.124167 0.41051743 -2.3339513e-17)
(10.153882 0.42426922 -9.0960235e-20)
(10.159508 0.46182051 -9.1285973e-20)
(10.194606 0.47415954 -9.1611538e-20)
(10.044352 0.41142549 2.4768604e-17)
(10.043495 0.45249203 0)
(10.07122 0.47352811 0)
(10.067831 0.512152 2.4965224e-17)
(10.098731 0.53214537 -2.5299461e-17)
(10.099213 0.57502958 -2.5366976e-17)
(10.135807 0.59427883 5.0773254e-17)
(10.140071 0.64136131 -4.6643522e-20)
(10.181952 0.65830987 -5.1160281e-17)
(9.9628465 0.64087061 -1.0694527e-19)
(9.9671541 0.68684466 0)
(9.9917031 0.71533201 1.0773817e-19)
(9.9950904 0.75381349 2.7679187e-17)
(10.024633 0.78047044 -2.7846428e-17)
(10.034731 0.81763463 2.791603e-17)
(10.069935 0.84269108 -2.7976566e-17)
(10.084865 0.87696479 -1.0954055e-19)
(10.122654 0.89832713 2.8147381e-17)
(9.7567978 0.85617412 -3.0085405e-17)
(9.7996338 0.91045365 3.0503588e-17)
(9.8404398 0.95713271 -3.0622026e-17)
(9.8860285 1.0010145 3.0464925e-17)
(9.931705 1.0396673 -3.0329266e-17)
(9.9818158 1.0761136 -4.1557408e-21)
(10.030848 1.107011 3.0740961e-17)
(10.081717 1.1346411 2.4090528e-19)
(10.127833 1.1546678 1.5352906e-17)
(9.6065838 1.6214413 0)
(9.6601143 1.650181 -3.3754515e-17)
(9.7545235 1.7298669 1.9208866e-19)
(9.8090505 1.7338698 3.1951043e-19)
(9.9076842 1.7836575 6.7768639e-17)
(9.9585462 1.7481954 -3.3913223e-17)
(10.067057 1.7492137 -3.3933251e-17)
(10.12992 1.6420705 3.406113e-17)
(10.238928 1.5757605 1.7104724e-17)
(10.295008 1.4027963 -1.9994074e-17)
(10.326675 1.3137466 0)
(10.346953 1.1989009 1.989937e-17)
(10.319653 1.1511195 -1.9893334e-17)
(10.276437 1.0417573 0)
(10.206547 1.0129301 0)
(10.13129 0.90640112 0)
(10.048357 0.90134076 -2.0391056e-17)
(9.9603035 0.81168782 2.0391109e-17)
(10.168344 1.1689077 -1.748912e-17)
(10.201221 1.1882258 0)
(10.231078 1.1899209 0)
(10.249291 1.194162 0)
(10.264806 1.1903588 0)
(10.268132 1.1941104 0)
(10.263412 1.1946528 0)
(10.253765 1.2038704 1.7303444e-17)
(10.230242 1.2026057 -3.4688537e-17)
(10.137813 0.92644275 -5.9299801e-20)
(10.171567 0.95324955 -3.0900051e-17)
(10.183812 0.9759326 0)
(10.215679 1.0010368 -1.5368907e-17)
(10.223935 1.0219578 1.5368903e-17)
(10.251756 1.0442688 0)
(10.254028 1.0642872 0)
(10.276794 1.0870129 0)
(10.271278 1.1088718 0)
(10.185352 0.70478444 2.7506728e-17)
(10.228699 0.72913417 0)
(10.232532 0.77399512 1.3674602e-17)
(10.276061 0.7974286 -2.7322769e-17)
(10.279833 0.84200964 1.3647887e-17)
(10.323392 0.86554444 0)
(10.326006 0.91060695 0)
(10.36966 0.93573539 0)
(10.369783 0.98216404 1.3517267e-17)
(10.200728 0.51490232 0)
(10.239074 0.53014033 2.4720247e-17)
(10.246166 0.57296953 -3.7057598e-17)
(10.287262 0.5882077 1.2337076e-17)
(10.295391 0.63295884 1.2287518e-17)
(10.339293 0.64880836 -2.6215183e-20)
(10.348026 0.69598931 -2.4495145e-17)
(10.395092 0.71324202 2.4439787e-17)
(10.403809 0.76342819 -1.2205672e-17)
(10.202235 0.34652442 0)
(10.239529 0.35624189 1.1246819e-17)
(10.251833 0.39619863 -1.1246969e-17)
(10.293264 0.40547337 0)
(10.307761 0.44842865 -2.2347267e-17)
(10.353261 0.45751777 2.2347308e-17)
(10.369824 0.50376268 1.1117326e-17)
(10.419744 0.51301437 -2.2204228e-17)
(10.438186 0.563017 1.1086819e-17)
(10.170872 0.21596594 0)
(10.202423 0.21998634 0)
(10.217051 0.2518558 0)
(10.253275 0.25532575 -1.0311561e-17)
(10.270761 0.29093642 2.0600305e-17)
(10.311917 0.29384686 -2.0553071e-17)
(10.332422 0.33348273 1.0264261e-17)
(10.379024 0.33592076 -1.0209885e-17)
(10.402681 0.3800818 2.0389638e-17)
(10.150989 0.10210208 -1.9215028e-17)
(10.179808 0.09801252 1.7714898e-20)
(10.200437 0.1227182 9.5818636e-18)
(10.233559 0.11714521 -9.5421297e-18)
(10.257996 0.14483956 9.5420868e-18)
(10.295714 0.1373344 0)
(10.324213 0.16808671 9.469967e-18)
(10.367427 0.15865323 -1.8912107e-17)
(10.400408 0.19329682 9.4421385e-18)
(10.085583 0.026926383 1.2557299e-20)
(10.109208 0.027090281 8.973615e-18)
(10.124488 0.038992885 8.9474313e-18)
(10.155081 0.038694898 -8.9474322e-18)
(10.172551 0.049809916 0)
(10.208011 0.049317168 0)
(10.228914 0.060710841 -8.8744225e-18)
(10.271304 0.061058391 1.7725803e-17)
(10.297703 0.073167033 -8.8515181e-18)
(10.346835 0.074497977 0)
(10.379899 0.087236092 -8.7686534e-18)
(10.43587 0.089600282 3.2566492e-20)
(10.476144 0.10294842 3.5306296e-20)
(10.539715 0.10638863 3.8231581e-20)
(10.588141 0.12034026 8.6625487e-18)
(10.660303 0.12511304 8.576321e-18)
(10.718037 0.1398964 -8.5763216e-18)
(10.800064 0.14629473 0)
(10.449856 0.18196249 0)
(10.487639 0.22114072 0)
(10.543917 0.2079222 -9.3089132e-18)
(10.586788 0.25217967 3.938745e-20)
(10.650618 0.23710817 4.2101048e-20)
(10.698982 0.28717663 9.2273644e-18)
(10.771389 0.27028284 9.1341562e-18)
(10.825866 0.32716686 -9.1341226e-18)
(10.90809 0.30842272 0)
(10.455318 0.38222536 -1.017979e-17)
(10.482242 0.4315304 0)
(10.541543 0.43360402 0)
(10.571894 0.48878132 -1.0037745e-17)
(10.638614 0.49101987 2.0033868e-17)
(10.672688 0.55297979 -4.4352754e-20)
(10.747807 0.55558137 -4.736869e-20)
(10.786121 0.62546825 -9.9043185e-18)
(10.870843 0.628501 0)
(10.492946 0.57290436 -1.1021008e-17)
(10.513011 0.62726209 1.1020947e-17)
(10.573091 0.63838633 0)
(10.594554 0.69793823 0)
(10.660619 0.71096385 1.086768e-17)
(10.683436 0.77689786 -1.0867608e-17)
(10.756464 0.79243129 1.0778096e-17)
(10.780903 0.86629329 -5.4133731e-18)
(10.862252 0.88474849 -5.3645985e-18)
(10.454291 0.78306043 -1.2146405e-17)
(10.462285 0.83701539 1.2146282e-17)
(10.516488 0.860146 0)
(10.523146 0.91908065 0)
(10.581698 0.94682115 0)
(10.586687 1.0125099 0)
(10.650761 1.045794 0)
(10.654151 1.1204365 0)
(10.72548 1.1599027 0)
(10.413527 1.0106549 -1.3517262e-17)
(10.409764 1.0594184 1.3468395e-17)
(10.453683 1.0933991 -1.346804e-17)
(10.444996 1.1460361 1.3421891e-17)
(10.489765 1.1872 -1.3421244e-17)
(10.475572 1.2462561 0)
(10.523016 1.2956371 0)
(10.503265 1.3642134 0)
(10.556113 1.4227087 0)
(10.288775 1.1362367 0)
(10.274044 1.1612422 -1.5275351e-17)
(10.288253 1.1968391 1.5272051e-17)
(10.263163 1.2272242 0)
(10.276343 1.2738951 1.5278947e-17)
(10.239395 1.3133697 -1.5279496e-17)
(10.254851 1.3735404 0)
(10.205874 1.425615 7.6511262e-18)
(10.226771 1.50062 -1.53062e-17)
(10.212583 1.2247192 1.7366626e-17)
(10.1669 1.2320648 1.7447768e-17)
(10.143152 1.2650205 -1.7450799e-17)
(10.07765 1.2858982 1.7555143e-17)
(10.04935 1.3290389 -3.5172109e-17)
(9.9667258 1.3664517 3.529691e-17)
(9.9351995 1.4214906 -3.5430502e-17)
(9.8370264 1.4787993 1.7749298e-17)
(9.8039886 1.5477717 0)
(9.8707954 0.82997524 -2.0650107e-17)
(9.7718528 0.75528045 2.0650156e-17)
(9.6789938 0.79564551 0)
(9.5664508 0.7339021 0)
(9.4717021 0.79687016 0)
(9.3411682 0.74849432 0)
(9.2445839 0.83590407 0)
(9.0983796 0.80362837 -1.0839067e-17)
(8.9911274 0.91662956 1.0838997e-17)
(8.8328681 0.90848634 1.1003057e-17)
(9.6918351 1.628745 0)
(10.166713 1.5697736 7.656067e-18)
(10.531371 1.5039754 0)
(10.727809 1.2458796 0)
(10.888973 0.9683473 0)
(10.914201 0.70761364 4.8706465e-18)
(10.969452 0.37328571 4.4840615e-18)
(10.868552 0.1619495 4.2091349e-18)
(8.7147969 1.0552143 -1.100296e-17)
(9.6597586 1.7137965 0)
(10.195029 1.6572871 0)
(10.592669 1.5720676 6.6224564e-18)
(10.808545 1.2917932 0)
(10.980361 0.98983424 -5.2812328e-18)
(11.009935 0.71091358 -9.7100455e-18)
(11.062932 0.35257997 -8.9363541e-18)
(10.961925 0.17023346 -8.387423e-18)
(8.544785 1.0786504 0)
(9.5360254 1.8230587 0)
(10.12825 1.7535137 7.6603862e-18)
(10.564235 1.669261 -6.6225358e-18)
(10.810877 1.3915066 0)
(11.010469 1.0850993 5.2812181e-18)
(11.059469 0.80060268 4.8394195e-18)
(11.132181 0.42673858 4.4522861e-18)
(11.042773 0.18691666 4.1782871e-18)
(8.4139717 1.2722545 1.12554e-17)
(9.5086901 1.9264239 0)
(10.164057 1.8518774 -1.5318154e-17)
(10.637351 1.7468304 0)
(10.903423 1.4436395 0)
(11.113895 1.1093346 -5.2147932e-18)
(11.167749 0.80370169 -4.7697769e-18)
(11.238694 0.40382657 0)
(11.149177 0.19739401 -4.1086052e-18)
(8.2347615 1.3379129 -1.1255344e-17)
(9.3775174 2.0697085 -9.1119405e-18)
(10.094574 1.9783364 7.6576617e-18)
(10.607577 1.8634045 0)
(10.907484 1.5594302 0)
(11.148963 1.2181373 5.214788e-18)
(11.224934 0.90524895 4.7697727e-18)
(11.316505 0.48834875 0)
(11.244234 0.21506033 4.1086047e-18)
(8.0919634 1.5957533 0)
(9.3608639 2.1936013 9.1119192e-18)
(10.141514 2.0878309 -7.6408751e-18)
(10.694199 1.9473298 0)
(11.014292 1.6167761 0)
(11.266575 1.2443731 -5.1370207e-18)
(11.347367 0.9073143 -4.6889122e-18)
(11.439237 0.46383106 0)
(11.365248 0.22788087 -4.026853e-18)
(7.9149386 1.721824 0)
(9.2288779 2.3779627 0)
(10.074871 2.2483471 7.6408708e-18)
(10.67101 2.0897923 -3.251746e-18)
(11.022802 1.7509645 -2.8606016e-18)
(11.30858 1.3682843 7.6835863e-18)
(11.414079 1.0218653 7.0105432e-18)
(11.52262 0.55542904 0)
(11.476162 0.24625822 6.0173845e-18)
(7.7724847 2.0829872 0)
(9.2328635 2.5225907 -4.5751238e-18)
(10.138035 2.3673474 0)
(10.770529 2.1770245 3.2512307e-18)
(11.145283 1.8107907 2.8600688e-18)
(11.442317 1.3952556 -2.3866277e-20)
(11.553841 1.0217266 -4.6190023e-18)
(11.668662 0.53671409 0)
(11.612292 0.26104845 -1.9905318e-18)
(7.6404562 2.2727662 -5.7683423e-18)
(9.1102372 2.7634214 4.5746828e-18)
(10.08073 2.5762914 0)
(10.760496 2.3569926 0)
(11.16635 1.9775369 0)
(11.496709 1.5438699 -5.0186701e-18)
(11.629549 1.1489088 2.6757518e-20)
(11.756916 0.63054877 0)
(11.738087 0.27907117 0)
(11.907081 0.29635509 0)
(11.923321 0.61772 0)
(11.791232 1.1480063 -1.1163101e-19)
(11.64134 1.5529097 2.6194816e-18)
(11.304629 2.0147322 0)
(10.880827 2.4267875 -4.0016566e-19)
(10.180069 2.6810875 -2.7220454e-20)
(9.1709449 2.9114641 -3.7955104e-18)
(7.5478362 2.7471016 1.0750744e-17)
(12.067922 0.30893605 -9.5314908e-19)
(12.023558 0.69639103 -1.2930188e-19)
(11.883601 1.2584169 1.1419218e-18)
(11.72262 1.6978512 -3.4511483e-21)
(11.36543 2.1807365 -1.199681e-18)
(10.911285 2.613252 1.5566641e-18)
(10.183461 2.9128061 -4.7391123e-19)
(9.1507044 3.2092732 4.9387429e-18)
(7.6684831 3.0656896 -5.4720834e-18)
(12.23341 0.31952801 1.9093617e-18)
(12.213314 0.68203425 0)
(12.074928 1.2613643 2.2323352e-18)
(11.888383 1.698543 -1.2179376e-18)
(11.536833 2.2060538 1.2139634e-18)
(11.079656 2.6693188 -2.9504617e-18)
(10.370517 3.0002521 -2.3078796e-18)
(9.3673539 3.3301172 1.1113734e-18)
(7.9501969 3.3907368 6.5136981e-20)
(12.411175 0.33012677 -9.5674375e-19)
(12.32559 0.75801937 -1.2812685e-19)
(12.181144 1.3701862 -9.8317947e-19)
(11.991631 1.8574418 1.3902844e-18)
(11.625095 2.3882061 5.1461334e-19)
(11.141977 2.8713655 1.5874834e-18)
(10.414843 3.2420039 1.8651056e-18)
(9.4007147 3.6167048 5.7921772e-19)
(8.0035234 3.6599503 -6.6313747e-19)
(12.602081 0.34124732 2.3175118e-19)
(12.544161 0.74564449 -2.5014581e-19)
(12.40002 1.3741447 -1.3947084e-19)
(12.178875 1.8453659 4.538873e-19)
(11.822192 2.3987488 -5.1925047e-19)
(11.339689 2.9124201 -5.8515576e-19)
(10.632294 3.312917 -4.8059921e-19)
(9.6356339 3.7180562 5.426627e-19)
(8.2509276 3.9270546 -7.2812989e-19)
(12.804667 0.35281536 -2.3440187e-19)
(12.668953 0.82337709 2.5315575e-19)
(12.520194 1.4788979 -1.3858414e-19)
(12.303215 2.0144831 -1.7560232e-21)
(11.932176 2.5899902 -1.691558e-19)
(11.423944 3.1231246 3.9810309e-19)
(10.699126 3.5593855 -4.8207025e-19)
(9.6892188 4.0003815 5.4566038e-19)
(8.3408475 4.1485252 0)
(13.017466 0.36365199 -2.2521657e-19)
(12.91549 0.81373462 -1.2491743e-19)
(12.765485 1.4825214 -1.3370609e-19)
(12.50847 1.9888959 -1.536836e-19)
(12.145226 2.5859386 -1.7032313e-19)
(11.637353 3.1485996 4.0604273e-19)
(10.92759 3.6116508 -9.3739477e-19)
(9.9364222 4.0765623 1.1366902e-18)
(8.6062961 4.3722842 -6.8023207e-19)
(13.240693 0.37369577 6.7032145e-19)
(13.05224 0.89099298 4.8346268e-19)
(12.899801 1.5806106 6.6711497e-19)
(12.654107 2.1660444 7.4111962e-19)
(12.278474 2.7831685 5.1816113e-19)
(11.747231 3.3655561 -1.9281338e-19)
(11.022723 3.8601463 -4.8359127e-19)
(10.021188 4.3541524 -4.0711561e-20)
(8.7209141 4.5624656 -7.2260101e-19)
(13.47445 0.38190643 -1.3146847e-18)
(13.323861 0.88190648 -4.894908e-19)
(13.169855 1.5827003 -1.7199113e-18)
(12.872767 2.1259569 -4.5491332e-19)
(12.505955 2.7616149 1.1628637e-18)
(11.975345 3.3716707 5.9600876e-19)
(11.266333 3.8904208 -2.7836821e-18)
(10.284089 4.4071511 5.5176437e-19)
(8.9791809 4.7557129 1.4459066e-18)
(9.1086233 4.9257676 -1.4473227e-18)
(10.395389 4.6809539 5.9527725e-19)
(11.391207 4.1386308 4.1778662e-18)
(12.115778 3.5898314 -5.9296881e-19)
(12.66566 2.9620774 3.0125855e-19)
(13.04478 2.3077684 8.6520881e-19)
(13.321551 1.6710475 1.1942819e-18)
(13.471726 0.95639766 -5.8797781e-20)
(13.719232 0.38899811 1.7785132e-18)
(9.3637602 5.0970536 5.7666375e-18)
(10.670794 4.7131904 5.5298415e-19)
(11.648852 4.1452684 -6.0272494e-18)
(12.356397 3.5799623 -1.893497e-19)
(12.907117 2.9194444 -1.1748851e-18)
(13.270651 2.2540125 -1.03461e-18)
(13.613141 1.6693016 -2.1520172e-18)
(13.7669 0.9475353 0)
(13.974503 0.39387412 -8.5688429e-19)
(9.5094772 5.2518234 -7.4033503e-18)
(10.807393 4.9845927 5.6708335e-18)
(11.803134 4.3906631 3.2647338e-18)
(12.523683 3.7875265 -1.8753081e-19)
(13.09436 3.119436 2.5849727e-18)
(13.471855 2.4347034 5.2487322e-21)
(13.784782 1.7454591 3.2530001e-19)
(13.925404 1.0176296 1.6777873e-18)
(14.240068 0.39755498 1.5985586e-18)
(9.7644081 5.4039358 -1.4792647e-18)
(11.092145 4.9957676 1.0276199e-18)
(12.071084 4.3721215 -4.7744025e-19)
(12.779521 3.7706436 0)
(13.347314 3.0535923 -2.6224469e-18)
(13.704282 2.3702576 0)
(14.093717 1.7372907 1.8838963e-18)
(14.242712 1.008117 -3.4512862e-18)
(14.514872 0.39863029 -7.418082e-20)
(9.9288701 5.5469427 -7.1349563e-19)
(11.260002 5.2649112 -4.5786398e-18)
(12.255118 4.6111979 4.7421225e-19)
(12.968622 3.9601473 0)
(13.561104 3.2492732 -2.6447887e-18)
(13.928567 2.5401235 2.1679367e-18)
(14.282501 1.7993261 1.2274396e-19)
(14.412008 1.0728375 3.467646e-18)
(14.798545 0.39806046 -1.5627859e-18)
(10.187866 5.6826719 -6.7230907e-18)
(11.5503 5.2543841 -3.9265101e-18)
(12.530307 4.5653068 -3.3256808e-20)
(13.238058 3.9338209 -3.8315637e-19)
(13.821485 3.159642 -5.5465439e-20)
(14.176444 2.471885 -4.3014181e-18)
(14.605484 1.7824238 1.1950219e-19)
(14.747207 1.0611259 -1.720006e-18)
(15.08977 0.39425965 0)
(10.377104 5.8154763 4.627902e-18)
(11.754397 5.5180372 5.7387402e-18)
(12.741842 4.7921131 -3.3860531e-20)
(13.447508 4.1027908 -3.7728612e-19)
(14.059498 3.3470597 2.3322742e-18)
(14.416411 2.6245509 2.2790974e-18)
(14.808251 1.828761 1.1171342e-19)
(14.931191 1.1198841 -1.0236411e-19)
(15.387848 0.3885366 0)
(10.646774 5.934834 0)
(12.04946 5.4830668 -5.3918103e-19)
(13.028582 4.7191967 4.5972193e-19)
(13.72898 4.0645315 -5.4220875e-18)
(14.324314 3.2334525 -1.533046e-19)
(14.677834 2.5508662 3.858525e-18)
(15.141796 1.80144 -3.2621566e-18)
(15.277684 1.1052716 3.0387159e-18)
(15.690351 0.37926832 2.552802e-18)
(10.867086 6.0559869 1.1342184e-17)
(12.291859 5.7354347 9.8378369e-18)
(13.252827 4.9241847 -4.5302004e-19)
(13.957141 4.2105041 5.7141175e-18)
(14.584107 3.4122811 -1.4091723e-19)
(14.932054 2.6839533 -3.9231101e-18)
(15.354275 1.8308063 3.5292108e-18)
(15.47371 1.157231 -3.1756624e-18)
(15.995627 0.36915954 -1.8503199e-19)
(16.32402 0.35557319 -2.384206e-18)
(15.831594 1.1372237 2.6765927e-18)
(15.697364 1.7915746 0)
(15.211508 2.6009151 -2.3472291e-19)
(14.853001 3.2656051 4.3654926e-18)
(14.259513 4.1557397 4.9235996e-18)
(13.571058 4.8258258 0)
(12.611967 5.6683951 -3.8278567e-19)
(11.180868 6.1670985 -1.10838e-17)
(16.636933 0.33547872 0)
(16.042289 1.170284 -2.7682623e-18)
(15.920618 1.7940111 0)
(15.49411 2.7012706 -2.2588397e-19)
(15.144182 3.4233357 -7.9163469e-18)
(14.530033 4.2664959 -5.3766091e-18)
(13.846444 4.9981198 6.2188668e-18)
(12.943295 5.9135928 -7.7176333e-18)
(11.513579 6.2838872 9.2501779e-18)
(16.942525 0.30660125 0)
(16.410664 1.1346974 0)
(16.268113 1.7402881 -2.6869928e-18)
(15.792006 2.6008284 0)
(15.433991 3.2532297 4.0562454e-18)
(14.856846 4.1875878 -4.6143239e-18)
(14.196327 4.8594099 -5.6561303e-18)
(13.312965 5.8039021 -4.4182285e-19)
(11.91879 6.3649794 -1.219385e-18)
(17.245457 0.26966716 0)
(16.627599 1.1529141 0)
(16.492101 1.7245634 2.7427662e-18)
(16.086393 2.6744 2.8546302e-18)
(15.729153 3.3851671 3.6060013e-18)
(15.140631 4.2650122 5.0201142e-18)
(14.479241 4.9881248 0)
(13.662524 5.9899938 6.9517996e-18)
(12.325384 6.4457856 -1.0899852e-17)
(17.534375 0.22858632 2.863756e-20)
(16.99854 1.1059413 -3.1213481e-20)
(16.835161 1.6560271 0)
(16.387897 2.5567962 -2.6057268e-19)
(16.0238 3.198078 -7.3902598e-18)
(15.467874 4.1675106 2.6379954e-19)
(14.827161 4.8194096 5.3836328e-18)
(14.021596 5.8403024 -7.693617e-18)
(12.785889 6.4791374 1.0558813e-17)
(17.813801 0.18372318 -2.5840982e-20)
(17.217277 1.1130743 2.8211266e-20)
(17.056709 1.6226749 0)
(16.684792 2.6041047 -3.1225505e-18)
(16.319365 3.3047367 3.9557128e-18)
(15.753593 4.2172761 -2.5131798e-19)
(15.104255 4.9137847 -5.5683361e-18)
(14.36083 5.9590489 0)
(13.292562 6.4913966 -1.0444078e-17)
(18.078811 0.13679619 2.2957713e-20)
(17.584594 1.0551991 1.650002e-18)
(17.392829 1.5400751 -6.9337088e-20)
(16.981242 2.4690397 2.3677129e-18)
(16.61332 3.1023513 3.2199257e-18)
(16.075481 4.1058324 0)
(15.439079 4.7270839 0)
(14.675234 5.7640654 -6.5069098e-18)
(13.842301 6.4546068 0)
(18.346817 0.075183839 0)
(17.795234 1.0496165 -1.7096782e-18)
(17.60812 1.4912144 0)
(17.272713 2.4921825 -2.6804939e-18)
(16.905185 3.1840456 -2.9383768e-18)
(16.359862 4.1323913 3.6103885e-18)
(15.695767 4.8112596 0)
(14.954976 5.809945 7.1999363e-18)
(14.468866 6.3702387 -8.0309092e-18)
(18.486834 0.0070312028 0)
(18.146023 0.97838812 0)
(17.930623 1.3979036 -5.6593647e-20)
(17.556105 2.3401888 -8.0963189e-20)
(17.194689 2.9647914 1.6141742e-19)
(16.673009 4.0113095 -3.7283027e-18)
(16.066105 4.6049164 0)
(15.202041 5.5300313 0)
(15.062583 6.2171039 7.9391912e-18)
(18.76118 0.0039228455 -2.6806976e-20)
(18.33175 0.97904276 -8.5627489e-21)
(18.134986 1.336283 1.2952291e-18)
(17.835438 2.3483174 0)
(17.467249 3.0390486 0)
(16.948647 4.0291531 -1.9802304e-19)
(16.219223 4.8204221 -3.6237499e-18)
(15.293391 5.6284456 1.5416426e-19)
(15.46326 6.1343837 0)
(18.987674 -0.074349089 -2.0109634e-20)
(18.646392 0.97836938 -8.1799201e-21)
(18.436177 1.375361 -1.17715e-18)
(18.080235 2.4106551 0)
(17.683154 3.097801 0)
(17.131674 4.2421464 1.7190095e-19)
(16.366564 4.9444928 9.9562116e-18)
(15.20796 5.7901012 -1.3870501e-19)
(14.709237 5.9809364 8.6759091e-18)
(19.169531 -0.035100228 0)
(18.803902 0.97732856 1.1671185e-18)
(18.606757 1.3128582 0)
(18.319786 2.4178068 8.2580223e-20)
(17.901158 3.2231461 -9.0161069e-20)
(17.300616 4.3194357 -1.5144491e-19)
(16.465398 5.1971379 -1.1912248e-17)
(14.873006 5.833879 1.2509568e-19)
(12.958611 5.9344141 -8.1492404e-18)
(19.327996 -0.100884 1.940263e-19)
(19.090063 0.93992781 -1.1203357e-18)
(18.883971 1.3447307 1.0954382e-18)
(18.561739 2.4899437 1.6031726e-18)
(18.095087 3.28969 -2.4766146e-18)
(17.438116 4.5740948 3.4338002e-18)
(16.448304 5.326239 5.7583231e-18)
(14.487777 5.8515137 7.9137538e-18)
(10.525401 7.0554593 0)
(19.476669 -0.076398258 -1.8548041e-19)
(19.231712 0.92212512 4.4196871e-19)
(19.026388 1.284637 -1.0596936e-18)
(18.802161 2.4645848 -4.586045e-19)
(18.315985 3.4279204 2.3686915e-18)
(17.608184 4.6318153 -5.4879971e-19)
(16.374856 5.5336188 0)
(13.754561 6.1316291 -7.6080346e-18)
(7.184975 6.882677 0)
(19.598251 -0.14707376 -1.9886407e-19)
(19.492656 0.85020779 -4.2763788e-19)
(19.287692 1.296077 3.9986933e-19)
(19.073188 2.5133993 -1.0730182e-18)
(18.527625 3.4702467 -6.021187e-20)
(17.743413 4.8640573 -2.6751543e-18)
(16.09517 5.7079098 3.98329e-18)
(12.394994 5.5418794 6.574943e-18)
(1.3872932 1.5385325 -7.5066744e-18)
(19.70755 -0.13486201 1.8284361e-19)
(19.618869 0.81602682 -7.6488165e-22)
(19.405474 1.2320095 -3.6951795e-19)
(19.321302 2.4387935 2.0428253e-20)
(18.749906 3.6110816 -2.2037601e-20)
(17.853459 4.9133964 -1.706426e-18)
(15.589594 5.6155334 -7.5298362e-18)
(9.6417395 4.785373 -6.1917563e-18)
(-0.38380145 1.703307 7.117258e-18)
(19.777473 -0.20069151 4.8908568e-21)
(19.859693 0.70858991 -5.1934365e-21)
(19.645687 1.218017 -1.8670697e-19)
(19.606975 2.4641226 -3.3915329e-19)
(18.960775 3.6355473 -3.1089393e-19)
(17.871422 5.0798615 2.8014247e-18)
(14.816112 5.7482725 6.8086207e-18)
(7.331983 3.987614 5.3933899e-18)
(-0.44221747 2.4468125 -6.4334746e-18)
(19.834476 -0.19072519 -4.3620329e-19)
(19.961717 0.6531466 6.2964631e-21)
(19.740642 1.1482507 -2.4889989e-19)
(19.842245 2.3488366 3.2877541e-19)
(19.162049 3.7646227 2.8668221e-19)
(17.708696 5.1496011 -1.1613185e-18)
(13.526986 5.5117681 -3.184339e-18)
(4.1698069 2.0964929 -5.0993836e-18)
(-1.0937431 2.7414206 6.1302684e-18)
(-1.2703673 2.6702203 1.006438e-17)
(2.2747805 1.1756288 5.9477324e-20)
(12.300895 5.3807656 -3.7804375e-20)
(17.623174 5.1862909 3.2062873e-20)
(19.31781 3.7657632 0)
(20.105776 2.3541045 1.3209777e-20)
(19.953595 1.1060997 1.100118e-18)
(20.172171 0.51564727 8.7167008e-19)
(19.847987 -0.25291428 8.7046001e-19)
(-1.4256325 2.6903135 -9.7455571e-18)
(1.3921233 0.94290809 0)
(10.997557 5.0416485 0)
(17.465681 5.233802 1.8452589e-19)
(19.522944 3.7696389 0)
(20.30392 2.1437667 -3.2690567e-18)
(20.026406 0.98607756 -2.4290672e-18)
(20.237872 0.4251668 -8.3177382e-19)
(19.830654 -0.28530607 3.9106317e-19)
(-1.502797 2.6392917 -6.8417486e-20)
(1.5018594 1.8054685 5.5108713e-20)
(9.898036 4.6180014 0)
(17.26646 5.1654509 -1.8074422e-19)
(19.654014 3.7508312 0)
(20.539666 2.1207656 3.2306423e-18)
(20.210644 0.91812648 1.6923052e-18)
(20.400298 0.27096819 2.1166664e-20)
(19.791964 -0.31822418 -8.2105775e-19)
(-1.6552137 2.7117267 -1.7750721e-17)
(2.0785736 2.956775 1.2136257e-17)
(8.7608687 4.3971519 -6.2839533e-20)
(16.991092 5.2310723 0)
(19.835698 3.706017 -4.2413085e-18)
(20.709049 1.8827543 0)
(20.259228 0.79085581 -1.8867251e-20)
(20.421711 0.16938797 2.3270582e-20)
(19.72908 -0.34823775 -5.537807e-21)
(-1.7387422 2.7468552 1.7064384e-17)
(2.1671016 3.5668667 -3.1849628e-19)
(7.9772202 4.0538808 -4.435144e-18)
(16.622807 5.1295909 7.821502e-21)
(19.936605 3.6771426 -1.0134523e-18)
(20.923262 1.8305035 0)
(20.415341 0.69795641 -2.6017965e-18)
(20.533813 0.0041527287 0)
(19.642537 -0.37426345 0)
(-1.853229 2.8776551 -5.740858e-20)
(2.0084054 3.8145884 -1.0918035e-17)