/*--------------------------------*- C++ -*----------------------------------*\
  =========                 |
  \\      /  F ield         | OpenFOAM: The Open Source CFD Toolbox
   \\    /   O peration     | Website:  https://openfoam.org
    \\  /    A nd           | Version:  11
     \\/     M anipulation  |
\*---------------------------------------------------------------------------*/
FoamFile
{
    format      ascii;
    class       surfaceScalarField;
    location    "0.5";
    object      phi;
}
// * * * * * * * * * * * * * * * * * * * * * * * * * * * * * * * * * * * * * //

dimensions      [0 3 -1 0 0 0 0];

internalField   nonuniform List<scalar> 
8667
(
1.5886738
0.18910442
-4.8249345e-07
1.3990352
0.1896399
-1.3111578e-06
1.2085477
0.19049041
-2.8919639e-06
1.018318
0.19023156
-1.8553862e-06
0.82569985
0.19262211
-3.9338215e-06
0.63482774
0.19086831
3.7996938e-06
0.44321879
0.19160851
4.4189971e-07
0.25994291
0.18327189
3.9961862e-06
0.18085044
4.1587493e-07
0.07909205
1.5887547
0.37812759
1.3991618
0.37923277
1.208824
0.38082821
1.0185404
0.38051519
0.82664552
0.38451695
0.6353873
0.38212652
0.44329633
0.38369948
0.25912379
0.36744443
0.36297005
0.077004184
1.5886355
0.56726994
1.3987462
0.56912205
1.2078501
0.57172425
1.0171977
0.57116759
0.82511826
0.57659642
0.63404654
0.57319825
0.44254198
0.57520404
0.25825092
0.55173548
0.54565084
0.075570138
1.5886783
0.75636942
1.3987707
0.75902963
1.2077278
0.76276723
1.0168265
0.76206884
0.82439063
0.76903229
0.6326028
0.76498608
0.44134765
0.76645918
0.25680363
0.73627951
0.72889187
0.073562592
1.588802
0.94534501
1.3989225
0.94890913
1.2079479
0.95374181
1.0167947
0.95322211
0.82401859
0.96180836
0.63185082
0.95715386
0.44047337
0.95783664
0.25516411
0.92158876
0.91164289
0.072413092
1.5889882
1.1341346
1.3990984
1.138799
1.2079985
1.1448417
1.0165349
1.1446856
0.82315611
1.1551872
0.63011259
1.1501974
0.43852948
1.1494198
0.2531466
1.1069716
1.0945683
0.070221236
1.5891245
1.3227879
1.3994138
1.3285096
1.2085857
1.3356699
1.0168149
1.3364565
0.822887
1.349115
0.62960152
1.3434829
0.43701049
1.3420108
0.25094675
1.2930354
1.2772267
0.068288324
1.5892421
1.5113237
1.3997852
1.5179664
1.2088935
1.5265616
1.0171291
1.5282208
0.82270308
1.5435411
0.62901898
1.537167
0.43564334
1.5353864
0.24825841
1.4804203
1.4601604
0.065324646
1.5893399
1.6997616
1.4002981
1.7070082
1.2097439
1.7171158
1.0177073
1.7202575
0.82271978
1.7385286
0.62847028
1.7314165
0.43420314
1.7296536
0.2458192
1.6688043
1.6445744
0.061405222
1.8817841
1.5957552
2.0635402
1.5960218
2.2445751
1.5967435
2.425093
1.5972601
2.6037304
1.5991386
2.7809099
1.6005985
2.9561924
1.6024955
3.1294113
1.6045591
1.6086539
3.2985354
1.889829
1.4129345
2.0724956
1.4133551
2.2547854
1.4144537
2.4372391
1.4148065
2.620847
1.4155307
2.806247
1.4151984
2.9936051
1.4151374
3.1835123
1.4146518
1.4146863
3.3774799
1.9015454
1.2285049
2.08559
1.2293105
2.2692323
1.2308114
2.4516541
1.2323846
2.6329338
1.2342511
2.8121611
1.2359711
2.9887917
1.2385068
3.1625887
1.2408548
1.2422175
3.3350575
1.9072494
1.041513
2.0947465
1.0418134
2.2828958
1.0426621
2.4721797
1.0431007
2.6623744
1.0440564
2.853212
1.0451335
3.0454303
1.0462886
3.2374478
1.0488373
1.049053
3.4306123
1.9292259
0.85081562
2.1204885
0.85055085
2.3116231
0.85152757
2.5025858
0.85213795
2.6928667
0.85377543
2.882333
0.85566718
3.0715103
0.85711127
3.2618298
0.85851788
0.8606002
3.4502825
1.9220839
0.66014816
2.1133999
0.65923488
2.305758
0.65916942
2.4992653
0.65863072
2.6938754
0.65916533
2.8900877
0.65945487
3.086399
0.66080001
3.2844116
0.66050519
0.66260746
3.4824044
1.920877
0.46892474
2.1143385
0.46577331
2.3094776
0.46403041
2.5070069
0.46110142
2.7054469
0.46072533
2.9060476
0.4588541
3.1067144
0.46013324
3.3079997
0.45921992
0.46099073
3.5096164
1.8559402
0.28178877
2.0487785
0.27293507
2.2454433
0.26736559
2.4463273
0.26021744
2.6487905
0.25826213
2.8537011
0.25394343
3.0601858
0.25364857
3.2685542
0.25085149
0.25153232
3.4780126
1.8352279
0.09113532
2.0454516
0.062711366
2.2695939
0.043223233
2.500637
0.029174409
2.7331114
0.02578772
2.9658521
0.021202668
3.1984687
0.021032019
3.4326917
0.016628436
3.6688786
0.015345456
3.2808403
0.017695158
3.2612479
0.019592337
3.240726
0.020521882
3.2200687
0.020657301
3.2014694
0.018599367
3.1872687
0.014200639
3.1858076
0.0014611388
3.2023725
-0.016564882
-0.02727591
3.2296484
3.3730293
0.02214584
3.3719142
0.020707425
3.3739592
0.018476879
3.3802077
0.014408807
3.3904532
0.0083537978
3.4015776
0.0030762356
3.4039003
-0.0008615326
3.3908426
-0.0035071719
-0.002416521
3.3659832
3.3279157
0.029287684
3.3217656
0.026857549
3.3167956
0.023446876
3.3116053
0.019599122
3.3050061
0.014952952
3.2976199
0.010462405
3.289421
0.0073374355
3.2814621
0.0044516951
0.0031178462
3.2759277
3.4323478
0.027552175
3.4350349
0.024170417
3.4375209
0.020960886
3.4387654
0.018354634
3.4375978
0.016120564
3.4349502
0.013109986
3.4310688
0.011218885
3.4252934
0.010227058
0.010948993
3.4174622
3.4454973
0.032337418
3.4403021
0.029365606
3.4339146
0.027348327
3.4269556
0.025313718
3.4187644
0.024311673
3.4098997
0.021974777
3.4014469
0.019671612
3.3938862
0.017787794
0.016905375
3.3879298
3.4787554
0.035986347
3.4742891
0.033831906
3.4692223
0.032415184
3.4644064
0.030129621
3.4600281
0.028689945
3.4547208
0.027282091
3.4484206
0.025971846
3.4420059
0.024202495
0.023543948
3.4353673
3.5050672
0.040535502
3.5007794
0.038119751
3.4966903
0.036504309
3.4928726
0.033947324
3.4890625
0.032500034
3.4844032
0.031941396
3.478937
0.031438012
3.4731915
0.02994797
0.028865791
3.4678697
3.4857288
0.032819356
3.4937811
0.030067386
3.5013718
0.028913641
3.5071735
0.028145653
3.5112281
0.02844538
3.5128868
0.030282682
3.5115829
0.032741986
3.5068609
0.034669971
0.038282954
3.4974437
3.6906415
0.011056514
3.7077862
0.012922599
3.7218047
0.014895213
3.7262656
0.023684754
3.722346
0.032364972
3.7117581
0.040870559
3.7051152
0.039384891
3.6909765
0.048808619
3.6772017
0.052057778
3.6803297
0.059461441
-0.062589374
3.6749767
0.056986466
-0.051633509
3.6699865
0.055476304
-0.05048613
3.6567991
0.054631653
-0.041444222
3.6317814
0.053945707
-0.028927998
3.5977528
0.053163756
-0.01913521
3.5600126
0.051753073
-0.014012808
3.5217276
0.051042966
-0.012758015
0.050623697
3.4833627
-0.012258751
3.4981791
0.058726019
3.4958257
0.059339941
3.4918055
0.059496432
3.4870898
0.059347348
3.4816401
0.059395398
3.4752852
0.059518649
3.4669369
0.060101463
3.457141
0.060838814
0.062148828
3.4456159
3.4736902
0.052905474
3.4795795
0.053450633
3.4850983
0.053977695
3.4895575
0.054888136
3.4927108
0.056242108
3.4946926
0.057536877
3.4953756
0.05941843
3.4950468
0.061167642
0.063273446
3.4939221
3.4425281
0.045744643
3.4498987
0.046080092
3.4567785
0.047097874
3.4631308
0.048535865
3.4692359
0.050136924
3.474794
0.051978799
3.4799396
0.054272837
3.4846065
0.05650076
0.058993041
3.4888869
3.3948386
0.038835826
3.4027064
0.038212302
3.410733
0.039071259
3.4190171
0.040251772
3.4278792
0.041274806
3.4373692
0.042488867
3.4477935
0.043848524
3.4590804
0.045213899
0.046824305
3.4712491
3.4225629
0.033735144
3.4267614
0.03401384
3.4306954
0.035137235
3.4343831
0.036564092
3.4376511
0.038006824
3.4406916
0.039448366
3.4437632
0.040776895
3.4469515
0.042025632
0.043353245
3.4504225
3.2847367
0.024926135
3.2972882
0.021462413
3.3142597
0.018165751
3.3349795
0.015844293
3.358141
0.014845291
3.3827426
0.014846747
3.4080371
0.015482392
3.4333751
0.016687689
0.018474608
3.4582537
3.3479083
0.04300102
3.3272567
0.042114051
3.3069813
0.03844111
3.2890166
0.033809044
3.2746322
0.029229709
3.2644065
0.025072448
3.2584158
0.021473034
3.2565108
0.018592711
0.016541906
3.2584435
3.2726494
3.3147635
3.3532046
3.3870136
3.4162433
3.4413158
3.4627888
3.4813815
3.4979234
3.5129425
-0.015019076
3.5270335
-0.014090982
3.5408166
-0.013783111
3.5545388
-0.013722189
3.5685765
-0.014037735
3.5830609
-0.014484375
3.5983125
-0.015251566
3.6144659
-0.016153478
-0.017109599
3.6315755
3.2640045
-0.020580062
3.2729393
-0.023025798
3.2849507
-0.025794487
3.2996673
-0.028438795
3.316743
-0.031113408
3.3359158
-0.033657252
3.356742
-0.036077701
3.3792744
-0.038685866
-0.040714102
3.4028789
3.4825012
-0.044827588
3.5058991
-0.046423636
3.5280721
-0.047967529
3.5492436
-0.049610277
3.5691643
-0.051034133
3.5886058
-0.053098744
3.6069879
-0.054459778
3.6255816
-0.057279575
-0.058617544
3.643485
3.4541359
-0.048540954
3.4583039
-0.050591644
3.4628867
-0.052550311
3.4684582
-0.05518178
3.4747579
-0.057333817
3.4826044
-0.060945226
3.4913263
-0.063181678
3.50189
-0.067843309
-0.070107722
3.5133802
3.4839852
-0.06127703
3.4972412
-0.063847669
3.5107003
-0.066009429
3.5244102
-0.068891662
3.5382635
-0.071187142
3.5520905
-0.074772257
3.5660239
-0.077114994
3.5797558
-0.081575203
-0.084128709
3.5937767
3.492931
-0.065321184
3.4966229
-0.06753957
3.5002019
-0.069588405
3.503242
-0.071931726
3.5062283
-0.07417346
3.5086672
-0.077211192
3.5110491
-0.079496826
3.5135878
-0.084113903
-0.086963399
3.5164225
3.4918316
-0.063230661
3.4892878
-0.064995785
3.4861455
-0.06644604
3.4829184
-0.068704604
3.4797908
-0.071045892
3.4762397
-0.073660076
3.4732193
-0.076476504
3.4692698
-0.080164367
-0.083534927
3.4658413
3.4329242
-0.050539006
3.4185362
-0.050607789
3.403653
-0.051562829
3.3879356
-0.052987189
3.3729745
-0.0560848
3.3567708
-0.057456329
3.3412864
-0.060992177
3.3231972
-0.062075149
-0.06611233
3.3057746
3.4453414
-0.012517766
3.4061072
-0.011373572
3.3663014
-0.011756985
3.3237857
-0.010471515
3.2802558
-0.01255485
3.2353107
-0.012511322
3.190766
-0.016447456
3.1447647
-0.016073792
3.0977706
-0.019118281
0.069347007
3.0447169
-0.016293258
0.088909036
3.2862126
0.092658581
3.4620918
0.089280764
3.5198003
0.075525694
3.6075318
0.062120919
3.5267849
0.043632132
3.6619738
0.018604863
3.4279061
3.6501804
0.075375696
2.9893361
-0.019994951
0.094292067
3.2672962
0.096770832
3.459613
0.092246057
3.5243251
0.078066444
3.6217114
0.063741283
3.5411101
0.045324338
3.6803908
0.019443843
3.4537866
3.6696242
0.080128181
2.9278142
-0.018606284
0.10010478
3.2473196
0.10332053
3.4563973
0.098330094
3.5293155
0.083938606
3.6361029
0.067622584
3.5574261
0.048415231
3.6995981
0.021584188
3.4806177
3.6912084
0.087686263
2.8665704
-0.026442386
0.10705981
3.2279461
0.10820129
3.4552558
0.10168551
3.5358313
0.086907645
3.6508808
0.069704699
3.5746291
0.050175068
3.7191277
0.022410296
3.5083824
3.7136187
0.093852822
2.7997403
-0.027022776
0.1145786
3.2072203
0.11610905
3.4537254
0.10859594
3.5433444
0.093122021
3.6663547
0.074110355
3.5936407
0.053216333
3.7400218
0.024761254
3.5368375
3.73838
0.10248422
2.7378385
-0.040582406
0.12162084
3.1880837
0.12101935
3.4543268
0.11262043
3.5517433
0.096308692
3.6826664
0.076085062
3.6138644
0.054926593
3.7611802
0.025857429
3.5659067
3.7642374
0.10894668
2.6728724
-0.043980586
0.13005665
3.1669737
0.12998902
3.4543945
0.12029199
3.5614403
0.1029287
3.7000297
0.081137497
3.6356556
0.058246537
3.7840712
0.028457147
3.5956961
3.7926946
0.12171461
2.6187389
-0.067581138
0.14028485
3.1484035
0.13702112
3.4576582
0.12513427
3.5733272
0.10638601
3.718778
0.083446095
3.6585955
0.059757525
3.8077598
0.029359223
3.6260944
3.8220538
0.1310494
2.5609207
-0.073231199
0.14858678
3.1308661
0.14589712
3.4603479
0.13282115
3.5864032
0.11288328
3.7387158
0.088145394
3.6833334
0.062679713
3.8332254
0.032098701
3.6566754
3.8541525
0.0051740102
3.8489785
0.012246768
3.6496026
0.023165108
3.8223071
0.033255835
3.6732426
0.044552657
3.727419
0.055405695
3.5755501
0.06601361
3.4497399
0.069307336
3.1275723
2.5747656
0.055462483
0.0052593622
3.8437191
0.011800406
3.6430616
0.022065378
3.8120421
0.031677972
3.6636301
0.042288853
3.7168081
0.05272977
3.5651092
0.063933716
3.438536
0.067077893
3.1244282
2.5834956
0.058347919
0.0055242738
3.8381948
0.011731282
3.6368546
0.021183798
3.8025896
0.029050369
3.6557635
0.037279958
3.7085786
0.044196188
3.558193
0.050974313
3.4317579
0.050325604
3.1250769
2.586637
0.047184174
0.0058022381
3.8323926
0.012081943
3.6305749
0.021459964
3.7932116
0.029394844
3.6478286
0.037332731
3.7006407
0.043579467
3.5519462
0.051985172
3.4233522
0.052028116
3.1250339
2.5935882
0.045076924
0.0062595667
3.826133
0.012245125
3.6245893
0.020979019
3.7844777
0.02716423
3.6416434
0.033186587
3.6946183
0.036883838
3.548249
0.04098545
3.4192506
0.038070568
3.1279488
2.5997141
0.03194462
0.0069851301
3.8191479
0.01367983
3.6178946
0.022852918
3.7753046
0.029159618
3.6353367
0.034630701
3.6891472
0.038229203
3.5446505
0.043603072
3.4138767
0.037948019
3.1336039
2.6040248
0.03363738
0.0080280275
3.8111199
0.014475777
3.6114469
0.023206902
3.7665735
0.028534836
3.6300088
0.032734585
3.6849475
0.032033656
3.5453514
0.033015909
3.4128944
0.03088502
3.1357348
2.6040609
0.030848932
0.0092424489
3.8018774
0.017337484
3.6033518
0.026743216
3.7571678
0.031939753
3.6248122
0.036247824
3.6806394
0.037357638
3.5442416
0.036277372
3.4139747
0.026245127
3.145767
2.602967
0.027338964
0.010957089
3.7909203
0.019282551
3.5950264
0.028983449
3.7474669
0.033796476
3.6199992
0.036315514
3.6781204
0.032540831
3.5480163
0.032346411
3.4141691
0.027431906
3.1506815
2.6034116
0.026987309
-0.024676585
2.5970704
0.031017817
-0.03239673
3.1584016
-0.039341108
3.4211135
-0.043355564
3.5520307
-0.039431362
3.6741962
-0.033611887
3.6141797
-0.023049677
3.7369046
-0.012843932
3.5848206
3.7780764
-0.02378694
2.5979199
0.022937401
-0.034445703
3.1690604
-0.039680359
3.4263481
-0.044497976
3.5568484
-0.042157848
3.671856
-0.038053565
3.6100754
-0.026613407
3.7254645
-0.015084574
3.5732918
3.7629918
-0.024990963
2.5948029
0.028107961
-0.035244675
3.1793141
-0.0466255
3.437729
-0.054614429
3.5648373
-0.051564924
3.6688065
-0.044681269
3.6031918
-0.031301355
3.7120846
-0.017606767
3.5595972
3.7453851
-0.025473522
2.5970349
0.023241505
-0.04112361
3.1949642
-0.052349849
3.4489552
-0.059868946
3.5723564
-0.055804528
3.6647421
-0.0498873
3.5972746
-0.03574929
3.6979466
-0.02037757
3.5442255
3.7250075
-0.02678386
2.5926657
0.031153051
-0.044250683
3.212431
-0.06083435
3.4655389
-0.070499067
3.5820211
-0.067705936
3.661949
-0.05957706
3.5891457
-0.042544494
3.680914
-0.02369311
3.5253741
3.7013144
-0.032288646
2.6002887
0.02466566
-0.054194832
3.2343372
-0.072512126
3.4838562
-0.081103505
3.5906125
-0.07477388
3.6556194
-0.065535913
3.5799077
-0.047191952
3.66257
-0.026882943
3.5050651
3.6744314
-0.032797137
2.6058779
0.027207995
-0.060600274
3.2621404
-0.082919728
3.5061756
-0.093675292
3.601368
-0.08899191
3.650936
-0.077114577
3.5680304
-0.055561414
3.6410169
-0.030944077
3.4804478
3.6434874
-0.046209364
2.6219987
0.030088524
-0.077072098
3.2930031
-0.10041126
3.5295148
-0.10810975
3.6090665
-0.09827082
3.6410971
-0.084533055
3.5542926
-0.061019423
3.6175032
-0.034333857
3.4537622
3.6091535
-0.047322249
2.6405332
0.028787781
-0.087563335
3.3332442
-0.1151183
3.5570698
-0.12323406
3.6171823
-0.1140939
3.6319569
-0.097218399
3.5374171
-0.069959914
3.5902448
-0.037511383
3.4213137
3.5716421
0.05409305
3.5175491
0.10059652
3.3748102
0.14235342
3.5484879
0.17381304
3.5059575
0.19876472
3.6070052
0.20051729
3.6154297
0.17181041
3.5857766
0.11484348
3.3902111
2.7017946
0.053582043
0.057518869
3.4600302
0.11018001
3.322149
0.1568412
3.5018267
0.19386207
3.4689366
0.22105364
3.5798136
0.22898557
3.6074978
0.19857577
3.6161864
0.12532433
3.4634625
2.7772115
0.049907471
0.060414563
3.3996156
0.11605033
3.2665133
0.16534909
3.4525279
0.20655447
3.4277312
0.24194289
3.5444252
0.25747211
3.5919686
0.23644607
3.6372125
0.16876614
3.5311425
2.8857137
0.060263888
0.06387681
3.3357388
0.12530507
3.205085
0.17946862
3.3983644
0.2255482
3.3816517
0.26291486
3.5070586
0.28778347
3.5671
0.26995851
3.6550374
0.19218656
3.6089144
3.0205583
0.057341959
0.066382058
3.2693568
0.12881702
3.1426501
0.18571113
3.3414703
0.23848108
3.3288817
0.2841012
3.4614384
0.31708755
3.5341136
0.31555225
3.6565727
0.25391081
3.6705559
3.2248663
0.049602866
0.070566597
3.1987902
0.13756663
3.07565
0.19778083
3.2812561
0.25270323
3.2739593
0.30092358
3.4132181
0.34468462
3.4903526
0.35211997
3.6491374
0.30088223
3.7217936
3.4391016
0.086646899
0.072953553
3.1258366
0.13962805
3.0089755
0.20313283
3.2177513
0.26585806
3.2112341
0.3187609
3.3603153
0.36963115
3.4394823
0.39862691
3.6201416
0.37199573
3.7484248
3.6942096
0.11688775
0.077928876
3.0479077
0.1477101
2.9391943
0.21057436
3.154887
0.27565561
3.1461528
0.33108427
3.3048866
0.38999712
3.3805695
0.42395786
3.5861809
0.43386174
3.7385209
3.8665514
0.26151996
0.079799638
2.9681081
0.15032652
2.8686674
0.21672272
3.0884908
0.28831906
3.0745565
0.34528843
3.2479172
0.41155955
3.3142984
0.4777536
3.5199868
0.51731643
3.6989581
3.9478071
0.4360607
-0.061309559
3.0294177
-0.1425691
2.949927
-0.24184689
3.1877686
-0.34052042
3.17323
-0.47397725
3.3813741
-0.619653
3.4599741
-0.81384008
3.7141739
-1.0683274
3.9534454
4.1598281
-1.2803484
-0.060442038
3.0898597
-0.13685274
3.0263377
-0.23465115
3.285567
-0.33084143
3.2694203
-0.46675778
3.5172904
-0.61904902
3.6122654
-0.82910938
3.9242343
-1.0772528
4.2015888
4.2001023
-1.117527
-0.055905612
3.1457653
-0.1293691
3.0998011
-0.22731916
3.3835171
-0.3218336
3.3639347
-0.46348949
3.6589463
-0.6280052
3.7767811
-0.85069279
4.1469219
-1.0505174
4.4014134
3.6858466
-0.53626167
-0.055374975
3.2011403
-0.12223186
3.166658
-0.21901427
3.4802995
-0.31129949
3.4562199
-0.45330793
3.8009547
-0.62054149
3.9440146
-0.84337249
4.3697529
-1.0097099
4.5677508
2.7433504
-0.067213618
-0.054293313
3.2554336
-0.11744596
3.2298107
-0.21212709
3.5749806
-0.30342706
3.5475199
-0.44887013
3.9463978
-0.62297701
4.1181215
-0.82770426
4.5744801
-0.93626023
4.6763067
1.8218257
-0.014735539
-0.053658283
3.3090919
-0.11024049
3.2863929
-0.20443183
3.669172
-0.29196896
3.6350571
-0.43727664
4.0917055
-0.61530078
4.2961456
-0.81565262
4.7748319
-0.88601158
4.7466657
0.94380142
-0.0079873183
-0.053787848
3.3628797
-0.10646598
3.339071
-0.19936099
3.762067
-0.283352
3.7190481
-0.42777313
4.2361266
-0.59816204
4.4665346
-0.79398187
4.9706518
-0.76798195
4.7206658
0.16220543
0.01361404
-0.054587146
3.4174669
-0.10011756
3.3846014
-0.19201481
3.8539642
-0.27134858
3.7983818
-0.4135748
4.3783528
-0.58315857
4.6361183
-0.75099026
5.1384835
-0.37441349
4.344089
-0.53442251
0.32221445
-0.056652171
3.474119
-0.097886094
3.4258353
-0.18781261
3.9438907
-0.26527103
3.8758403
-0.40408143
4.5171632
-0.56253709
4.794574
-0.68886593
5.2648123
-0.2188594
3.8740825
-1.1018611
0.34857915
0.11382108
-1.3300156
0.11433343
0.30998705
3.6779165
0.23110301
5.3436963
0.1476645
4.8780125
0.079258018
4.5855697
0.051884184
3.9032141
0.012205626
3.9835693
0.01712179
3.4209192
3.4912408
0.097715882
-1.5424757
0.11474425
0.28664938
3.488983
0.21754962
5.4127961
0.14044616
4.955116
0.076134339
4.6498815
0.050948229
3.9284002
0.014355606
4.0201619
0.022095516
3.4131793
3.5133364
0.085924008
-1.7366332
0.10823349
0.26860843
3.3062986
0.2054101
5.4759944
0.12776417
5.0327619
0.066521132
4.7111246
0.045393764
3.9495276
0.012016011
4.0535397
0.023546799
3.4016485
3.5368832
0.066260878
-1.9179365
0.11504245
0.24188727
3.1306722
0.1921246
5.5257571
0.11993374
5.1049528
0.065164058
4.7658942
0.047282698
3.9674089
0.016600425
4.0842219
0.027938741
3.3903102
3.5648219
0.05304373
-1.9595883
-0.011391937
0.22041934
2.9632966
0.17795938
5.568217
0.10526591
5.1776462
0.057517971
4.8136422
0.04502001
3.9799069
0.014470872
4.1147711
0.027040349
3.3777407
3.5918622
0.042293158
-1.9537424
-0.048139066
0.19491352
2.8106762
0.16116859
5.601962
0.097484427
5.2413304
0.057988275
4.8531383
0.046192008
3.9917032
0.018323414
4.1426397
0.030415422
3.3656487
3.6222777
0.025698799
-1.9047057
-0.074735541
0.17496073
2.6614143
0.14713537
5.6297873
0.083776664
5.3046891
0.052538474
4.8843765
0.044519805
3.9997218
0.017792424
4.1693671
0.030762873
3.3526782
3.6530405
0.0059346423
-1.8408754
-0.069764908
0.14494897
2.5224
0.13234974
5.6423866
0.078362528
5.3586763
0.054570634
4.9081684
0.045124865
4.0091676
0.022710778
4.1917811
0.034904991
3.340484
3.6879455
-0.019017787
-1.7667437
-0.055113968
0.11460746
2.3887747
0.12122895
5.6357651
0.069942478
5.4099628
0.051242116
4.9268688
0.044871507
4.0155382
0.024446786
4.2122059
0.036608806
3.328322
3.7245543
-0.091171051
-1.6524471
-0.023125542
-0.43407301
2.7316767
-0.55111786
5.7528099
-0.48234794
5.3411928
-0.31680469
4.7613255
-0.1978409
3.8965744
-0.11990711
4.1342721
0.0093288525
3.199086
3.7338832
-0.157562
-1.425433
-0.069452113
-0.51991829
3.094033
-0.58746563
5.8203573
-0.47458862
5.2283158
-0.28678908
4.573526
-0.18559692
3.7953823
-0.10267253
4.0513477
0.0080450812
3.0883684
3.7419283
-0.20971281
-1.1179926
-0.097727538
-0.57642368
3.4607439
-0.58282305
5.8267566
-0.43111534
5.0766081
-0.24269718
4.3851078
-0.15539032
3.7080754
-0.06380608
3.9597635
0.029807973
2.9947544
3.7717362
-0.26001084
-0.76835935
-0.089622418
-0.61077668
3.8115097
-0.56713468
5.7831146
-0.38841577
4.8978892
-0.21248853
4.2091806
-0.14945787
3.6450447
-0.043717606
3.8540232
0.015572334
2.9354644
3.7873086
-0.29346574
-0.40114792
-0.073745691
-0.61169571
4.1297397
-0.51940209
5.690821
-0.33143745
4.7099246
-0.17488971
4.0526329
-0.12720475
3.5973598
-0.010290628
3.7371091
0.032215492
2.8929583
3.8195241
-0.30730296
-0.012181409
-0.081663543
-0.59998617
4.4224229
-0.48243387
5.5732687
-0.295222
4.5227127
-0.15596402
3.9133749
-0.12519452
3.5665903
-0.002990109
3.6149046
0.00095609931
2.8890121
3.8204802
-0.33078069
0.3817015
-0.063102212
-0.56908813
4.6607303
-0.4191014
5.423282
-0.24006921
4.3436805
-0.125874
3.7991797
-0.1015581
3.5422744
0.013710705
3.4996358
-0.010415915
2.9131387
3.8100643
-0.31846182
0.74761125
-0.047447928
-0.53506211
4.8773306
-0.38032307
5.2685429
-0.21562075
4.1789782
-0.11406061
3.6976195
-0.093867736
3.5220815
0.015946325
3.3898218
-0.040014481
2.9690995
3.7700498
-0.33313532
0.025063258
1.0556833
-0.48726697
5.0314623
-0.31273553
5.0940115
-0.1605956
4.0268383
-0.088435383
3.6254593
-0.068248958
3.5018951
-0.0031365182
3.3247093
-0.15484773
3.1208107
3.615202
0.024088099
-0.042576907
0.018545366
-5.6560689e-05
0.25965015
-0.23554943
-1.2623616e-05
0.51784228
-0.25818481
-7.3120487e-06
0.75248982
-0.23466997
2.2427167e-05
0.96935769
-0.21685045
-1.742604e-05
1.1764613
-0.20713094
2.7289228e-05
1.3776142
-0.20114614
-6.7316515e-06
1.5712228
-0.19362735
1.8734732e-05
-0.20226698
2.3299425e-05
0.024257179
-0.085646782
0.018812694
0.26060553
-0.47189778
0.51884407
-0.51642336
0.75345095
-0.46927684
0.97009013
-0.43348963
1.1771045
-0.41414534
1.3781855
-0.4022271
1.5715282
-0.38697009
-0.40480734
0.024586631
-0.12958281
0.019349392
0.26241426
-0.70972541
0.52081915
-0.77482824
0.75535714
-0.70381483
0.9715503
-0.64968279
1.1783421
-0.62093713
1.3793251
-0.60321012
1.5722343
-0.57987932
-0.60790562
0.024901896
-0.17445495
0.019970248
0.26468578
-0.9495093
0.52363827
-1.0337807
0.75815627
-0.93833283
0.97371647
-0.86524299
1.1801282
-0.82734888
1.3809744
-0.80405628
1.5733858
-0.77229076
-0.81188394
0.024837156
-0.21970364
0.020411527
0.26689366
-1.1915658
0.52702796
-1.293915
0.76172662
-1.1730315
0.97653037
-1.0800467
1.1824408
-1.0332593
1.3830879
-1.0047034
1.5749208
-0.96412368
-1.0171395
0.024357761
-0.26441127
0.020349874
0.26919225
-1.4364003
0.53084685
-1.5555696
0.76591247
-1.4080971
0.97988685
-1.2940211
1.1852523
-1.2386247
1.3856808
-1.2051319
1.5767238
-1.1551666
-1.2241294
0.024060677
-0.30787841
0.019406454
0.2723186
-1.6846582
0.53555829
-1.8188093
0.77062293
-1.6431617
0.98360322
-1.5070014
1.1885283
-1.4435498
1.388456
-1.4050596
1.5785341
-1.3452447
-1.4340507
0.02449389
-0.34987869
0.017506389
0.2756942
-1.9358585
0.5418804
-2.0849955
0.77619089
-1.8774722
0.98764259
-1.7184531
1.1920706
-1.6479779
1.3908895
-1.6038784
1.580047
-1.5344022
-1.648202
0.024742714
0.0154021
-0.3900235
0.27772205
-2.1888379
0.54908044
-2.3563539
0.7828964
-2.1112882
0.99281047
-1.9283672
1.1958271
-1.8509945
1.3924824
-1.8005338
1.5816698
-1.7235896
-1.8674898
-0.33315078
-0.74781953
0.024983475
1.0559868
-0.48726554
-4.877382
5.0314968
-0.3127312
-5.2684725
5.0939381
-0.16060533
-4.1789849
4.0268591
-0.088430958
-3.6976582
3.6254838
-0.068240837
-3.5220299
3.5018398
-0.0031381469
-3.389826
3.3247233
-0.15485234
-2.9690994
3.1208136
-3.7700651
3.6152128
-0.31846552
-0.38179311
-0.047560902
-0.53506003
-4.6607875
-0.38031567
-5.4232168
-0.21563561
-4.343665
-0.11406261
-3.7992312
-0.093856019
-3.5422365
0.01594758
-3.4996296
-0.040015881
-2.9131359
-3.810081
-0.33075183
0.012230144
-0.063271426
-0.56908302
-4.4224563
-0.41909075
-5.5732091
-0.24008125
-4.5226745
-0.12588076
-3.9134317
-0.10155073
-3.5665665
0.01371269
-3.614893
-0.010418238
-2.889005
-3.8204992
-0.30725774
0.40126469
-0.081776804
-0.59997758
-4.1297365
-0.48241647
-5.6907702
-0.29522526
-4.7098657
-0.15597143
-4.0526855
-0.12518908
-3.5973489
-0.0029863506
-3.7370957
0.00095613
-2.8929475
-3.8195431
-0.2934077
0.76852951
-0.073857121
-0.61167402
-3.8114701
-0.51938599
-5.7830583
-0.33143549
-4.8978162
-0.17489639
-4.2092246
-0.12720548
-3.6450398
-0.010287986
-3.8540132
0.032213616
-2.9354491
-3.7873295
-0.25993431
1.1182643
-0.089800514
-0.61075684
-3.4606476
-0.56711263
-5.8267025
-0.38840893
-5.0765199
-0.21249554
-4.385138
-0.1494608
-3.7080745
-0.043716398
-3.9597576
0.015570741
-2.9947362
-3.7717588
-0.20963506
1.4256496
-0.097750164
-0.57639634
-3.0938863
-0.58279838
-5.8203004
-0.43110163
-5.2282166
-0.24269857
-4.5735411
-0.15539529
-3.7953778
-0.063806382
-4.0513465
0.029810174
-3.0883528
-3.7419486
-0.15767004
1.652462
-0.069142425
-0.51991018
-2.7316462
-0.58745444
-5.7527562
-0.47457499
-5.3410961
-0.28678701
-4.7613291
-0.18559973
-3.8965651
-0.10267426
-4.134272
0.0080466703
-3.1990737
-3.7339019
-0.091263261
1.7667475
-0.023022192
-0.43408195
-2.3888275
-0.55112508
-5.6357131
-0.48234877
-5.4098724
-0.31680764
-4.9268702
-0.19784304
-4.0155297
-0.11990505
-4.21221
0.0093267826
-3.3283056
-3.7245751
-0.01712185
3.4912643
-3.4741424
-0.012211811
3.4208977
-3.4258078
-0.051892543
3.9835766
-3.9438959
-0.079259444
3.9032101
-3.8758432
-0.14765964
4.5855763
-4.5171761
-0.23109856
4.8779214
-4.7944825
-0.30997363
5.3436801
-5.264805
-0.11380414
3.6780164
-3.8741859
-1.330038
1.1018748
0.11435906
-0.022095581
3.5133599
-0.014359014
3.4131612
-0.050954073
4.0201716
-0.07613938
3.9283954
-0.14044425
4.6498812
-0.21754583
4.955023
-0.28663859
5.4127728
-0.097701431
3.4890793
-1.5425013
0.11476186
-0.023546244
3.5369061
-0.012021153
3.4016361
-0.045401418
4.0535519
-0.06652652
3.9495205
-0.12776577
4.7111204
-0.20540765
5.0326648
-0.26859892
5.4759641
-0.085917385
3.3063977
-1.7366623
0.10824367
-0.027937156
3.5648433
-0.0166004
3.3902993
-0.04728384
4.0842354
-0.065168988
3.9674057
-0.11994104
4.7658925
-0.19212494
5.1048487
-0.2418807
5.5257199
-0.066259076
3.1307761
-1.9179659
0.11504451
-0.027038359
3.5918816
-0.014467805
3.3777288
-0.045017291
4.1147848
-0.057518858
3.9799072
-0.10527295
4.8136466
-0.17796023
5.177536
-0.22041574
5.5681754
-0.053043728
2.9634041
-1.9596187
-0.0113909
-0.030416063
3.6222977
-0.018322097
3.3656348
-0.046186902
4.1426496
-0.05798341
3.9917037
-0.097482515
4.8531457
-0.16116897
5.2412225
-0.1949149
5.6019213
-0.04229352
2.8107827
-1.9537918
-0.048120419
-0.030763245
3.6530609
-0.017790105
3.3526616
-0.044514302
4.1693738
-0.052532478
3.9997219
-0.083769784
4.884383
-0.14713442
5.3045871
-0.17495767
5.6297445
-0.02568964
2.6615147
-1.9047497
-0.074731757
-0.034906234
3.6879672
-0.022712012
3.3404674
-0.045123526
4.1917854
-0.054564458
4.0091628
-0.078353252
4.9081718
-0.13234759
5.3585814
-0.14494104
5.642338
-0.0059044956
2.5224782
-1.8408948
-0.069759456
-0.036607965
-0.0244461
-0.044870729
-0.051237574
-0.069935989
-0.12122694
-0.11460204
0.0190486
-0.055098709
0.21883868
0.53442696
0.34860914
0.68885171
-4.3441989
0.56253142
-5.1384847
0.4040854
-4.6360364
0.2652767
-4.3783674
0.18781696
-3.7983835
0.097892029
-3.8539709
0.056652642
-3.3845684
-3.4174898
0.37442844
-0.16216394
0.32216246
0.75098181
-4.7207523
0.58315229
-4.9706552
0.41357749
-4.4664616
0.27135135
-4.2361413
0.19201443
-3.7190465
0.10012219
-3.7620787
0.054589351
-3.3390355
-3.3629004
0.76798238
-0.94373595
0.013589626
0.79397659
-4.7467465
0.59815716
-4.7748358
0.42777659
-4.2960811
0.28335779
-4.0917225
0.19935893
-3.6350477
0.10646588
-3.6691856
0.053788763
-3.2863584
-3.3091117
0.88602005
-1.8217696
-0.0079864235
0.8156491
-4.6763756
0.61529563
-4.5744823
0.43727716
-4.1180626
0.29197399
-3.9464193
0.20443324
-3.5475069
0.11024083
-3.5749932
0.053658648
-3.2297762
-3.255453
0.93628172
-2.7433329
-0.014718365
0.82770458
-4.5677984
0.62298059
-4.3697583
0.44887539
-3.9439574
0.30343477
-3.8009787
0.21213007
-3.4562022
0.11744741
-3.4803106
0.054293993
-3.1666228
-3.201159
1.009724
-3.685855
-0.067201909
0.84337361
-4.4014481
0.6205447
-4.1469294
0.45331071
-3.7767234
0.31130811
-3.6589761
0.21902314
-3.3639173
0.12223617
-3.3835236
0.055376143
-3.0997628
-3.1457829
1.0505363
-4.2001288
-0.53626252
0.85069662
-4.2016084
0.62800641
-3.9242392
0.46348718
-3.6122042
0.3218304
-3.5173193
0.22731745
-3.2694043
0.1293719
-3.2855781
0.055908118
-3.026299
-3.0898748
1.0772656
-4.1598544
-1.11754
0.82910852
-3.9534513
0.61905134
-3.714182
0.46675929
-3.4599121
0.33084485
-3.3814049
0.23464602
-3.1732055
0.13685099
-3.187783
0.060442996
-2.949891
-3.0294318
1.0683385
-3.9478207
-1.2803722
0.81383824
-3.698951
0.61965655
-3.5200003
0.47398176
-3.3142373
0.34052915
-3.2479523
0.24184608
-3.0745224
0.14256888
-3.0885058
0.061310528
-2.8686327
-2.9681212
0.054091577
3.5175438
-3.5716354
0.10059908
3.3747799
-3.4212874
0.14235643
3.5484999
-3.5902573
0.17381478
3.5059121
-3.5373704
0.1987651
3.6070324
-3.6319827
0.20051553
3.6153271
-3.6170775
0.17180176
3.5858743
-3.5571605
0.11482748
3.390093
-3.3331187
2.7019607
-2.6406974
0.053564197
0.057515959
3.4600279
0.11017548
3.3221204
0.15683484
3.5018405
0.19385588
3.468891
0.22104741
3.5798409
0.22898101
3.6073935
0.19856174
3.6162936
0.12531351
3.4633412
2.7773603
0.049913941
0.06040942
3.3996185
0.1160496
3.2664802
0.16534862
3.4525415
0.20654839