/*--------------------------------*- C++ -*----------------------------------*\
  =========                 |
  \\      /  F ield         | OpenFOAM: The Open Source CFD Toolbox
   \\    /   O peration     | Website:  https://openfoam.org
    \\  /    A nd           | Version:  11
     \\/     M anipulation  |
\*---------------------------------------------------------------------------*/
FoamFile
{
    format      ascii;
    class       volScalarField;
    location    "0.3592377";
    object      Ma;
}
// * * * * * * * * * * * * * * * * * * * * * * * * * * * * * * * * * * * * * //

dimensions      [0 0 0 0 0 0 0];

internalField   nonuniform List<scalar> 
880
(
1.118016635923817
1.118016634793396
1.117913274619414
1.10170235332354
1.118016635922823
1.118016632481563
1.117870536570672
1.096268836131438
1.118016635905756
1.118016621504525
1.117737692394582
1.089038962790127
1.118016635824109
1.118016566726022
1.117400353482031
1.069554860873588
1.118016636535325
1.118016634945924
1.118016603633783
1.118016146179969
1.118016282129286
1.118014695865673
1.118008386251152
1.118021818263533
1.116457602045233
1.115369342508252
1.11382432087991
1.113109174775894
1.031318140789193
0.9943403977268879
0.9723371047221457
0.9700768782937469
1.118010992282918
1.117995259270766
1.117968926296096
1.117859297740167
1.117902554358777
1.117468084658164
1.116770894637379
1.115507615097616
1.104433956289351
1.097435344908666
1.088274396331588
1.079903720836823
0.9590687469709416
0.9591346067536933
0.9575131473219315
0.9810532309666014
1.040052811547159
1.075624073010698
1.089969050987264
1.10439299468666
1.065631321166314
1.065218703931761
1.069325877692263
1.077707076577672
1.111148940396745
1.105552451367333
1.100432529348363
1.097672857142451
1.117316736074471
1.116401011213837
1.115078528453163
1.11344058601353
1.111889978763839
1.110735793860328
1.109985186412523
1.109839791834104
1.097061148191501
1.098711825245432
1.10251453788935
1.107802258969548
1.086124554499323
1.096163723518134
1.105646792211266
1.113536294665768
1.111645907563073
1.119220082227627
1.123416399270242
1.126389382184263
1.128791610747759
1.120906357971724
1.113436668600827
1.109951794303684
1.079487199873528
1.125822858412257
1.120187478589428
1.110313798815988
0.8046061690498688
1.115049971545346
1.125647055796234
1.111385999270458
0.5734007456123179
1.037969546374324
1.125572295572685
1.113023845511291
1.113322293096358
1.121409584947499
0.9542257482683179
0.5177884618033787
1.108802664508312
1.108874022887235
0.8848665781127634
0.5549417535811481
1.106523762917276
1.080245250416103
0.8075018636976947
0.5746153757978866
1.100895078286764
1.033507857306325
0.7627552152270877
0.6140857112093903
0.6624719958513469
0.7509869025137863
0.9748967768645406
1.089462753719956
0.7143565336292287
0.7749386414648654
0.9219127251469299
1.069246535794882
0.7674917458600327
0.8176036720890258
0.9053467703826107
1.037923971223796
0.815171528668675
0.8746828341708277
0.9234561988544174
1.00607295633468
0.9854169096580108
0.9755966378737854
0.9503712320633896
0.8753677687111653
1.009918096851498
1.039760809669635
1.036596624735965
0.9571066593707959
1.038619492363832
1.101927412588604
1.127950004121709
1.06439974559232
1.064422458171877
1.149828471638659
1.21600338047091
1.193061454611216
1.084293388799914
1.19106173556965
1.30572764315048
1.394838811353423
1.109067429252121
1.221506853062708
1.366105112544565
1.585976213329385
1.124974743982035
1.226893191940398
1.411601941933844
1.774900347141723
1.134437348053686
1.212809415161033
1.386976366477711
1.945092367428112
1.717469711300112
1.321802944494922
1.201074075828128
1.140474935107952
1.181739881023074
1.275076330485081
1.188875363697569
1.140462292597644
1.027537256333754
1.252847501191185
1.179570576881001
1.136957082145116
0.8788739350480265
1.215799759441577
1.165457809260519
1.132923599389804
0.8055063616360782
1.162031287657141
1.142393170818995
1.125675386160163
0.7301840124239891
1.092243797317209
1.117140069754919
1.118953374482463
0.696951714772768
1.041879670963345
1.105959234371342
1.117614327685014
0.6807076332760178
1.033195131345135
1.106960077800654
1.117614701308563
0.6500018705327077
0.9389506167063463
1.069464595220029
1.113028126985188
0.6571804617305826
0.937222364741775
1.069604027647283
1.112891431313799
0.6852819081629455
0.9362561012979755
1.070400120566946
1.112842019743521
0.7090110626397478
0.9439650417494307
1.073783779707919
1.113117976674819
0.6807076332758479
1.033195131346267
1.106960077806229
1.117614701313904
0.6969517147716957
1.041879670969048
1.105959234375603
1.117614327693206
0.7301840124257042
1.092243797318958
1.117140069755844
1.118953374483949
0.8055063616372929
1.162031287665866
1.142393170820463
1.125675386159146
1.140474935106294
1.201074075826937
1.321802944496509
1.717469711299948
1.140462292598501
1.188875363697735
1.275076330489352
1.181739881029703
1.136957082141312
1.179570576875777
1.25284750119665
1.02753725633037
1.132923599384349
1.165457809256214
1.215799759443458
0.8788739350523014
1.945092367418518
1.386976366475512
1.212809415159392
1.134437348051637
1.774900347142747
1.411601941936676
1.226893191940839
1.124974743984219
1.585976213331355
1.366105112536609
1.22150685306211
1.109067429245272
1.394838811349334
1.305727643151975
1.191061735576981
1.084293388792848
0.9854169096546961
0.9755966378710887
0.9503712320609107
0.8753677687120049
1.009918096851787
1.039760809670235
1.03659662473217
0.9571066593723522
1.038619492366336
1.10192741259004
1.127950004118707
1.064399745591712
1.064422458169934
1.149828471642664
1.216003380472985
1.193061454608589
0.8151715286693824
0.8746828341733958
0.9234561988526062
1.00607295632842
0.7674917458615821
0.8176036720911833
0.9053467703819666
1.037923971223195
0.7143565336295474
0.7749386414680037
0.9219127251481659
1.069246535789873
0.662471995852236
0.7509869025134374
0.9748967768601992
1.089462753720071
1.113322293099086
1.121409584949306
0.954225748268428
0.5177884618056027
1.108802664503829
1.108874022886953
0.8848665781138049
0.5549417535831181
1.106523762910016
1.080245250407794
0.8075018637003063
0.5746153757995808
1.100895078284585
1.0335078573045
0.7627552152297625
0.6140857112094008
1.113023845510369
1.11138599927271
1.110313798811493
1.10995179430312
1.125572295576941
1.125647055799732
1.120187478583248
1.11343666860098
1.037969546379743
1.11504997154686
1.125822858416095
1.120906357973218
0.573400745615704
0.8046061690529108
1.079487199870036
1.128791610747459
1.109839791831055
1.107802258965393
1.113536294664859
1.126389382188018
1.109985186415948
1.102514537888182
1.105646792216033
1.123416399272756
1.110735793859644
1.098711825244939
1.096163723516634
1.119220082230625
1.111889978766707
1.09706114819479
1.086124554501646
1.111645907562868
1.117316736075468
1.111148940402266
1.065631321168219
1.040052811548802
1.116401011214094
1.10555245137075
1.065218703933688
1.075624073015251
1.115078528446916
1.100432529356922
1.069325877693418
1.08996905099556
1.113440586014419
1.097672857142499
1.077707076582829
1.104392994689587
0.9810532309675486
1.079903720834662
1.115507615100445
1.117859297740539
0.9575131473234115
1.088274396330871
1.116770894640912
1.117968926297685
0.959134606757549
1.0974353449117
1.117468084666779
1.117995259267825
0.9590687469690097
1.104433956293435
1.117902554362626
1.118010992285752
0.9700768782933903
1.113109174774438
1.118021818265456
1.118016146177873
0.9723371047203215
1.113824320880413
1.11800838625188
1.118016603631365
0.9943403977207482
1.115369342509542
1.118014695865112
1.118016634947369
1.031318140778881
1.116457602049114
1.118016282138809
1.118016636532614
1.118016635923625
1.118016634792657
1.117913274619142
1.101702353322285
1.118016635921967
1.118016632485307
1.117870536566764
1.096268836125693
1.118016635905015
1.118016621508175
1.117737692395862
1.089038962773723
1.118016635822624
1.118016566728281
1.117400353482176
1.069554860860153
1.090021515365108
1.079808861854148
1.058234114608549
1.00845535443413
1.079808861863277
1.064149930604789
1.027795578258581
0.9529324759584238
1.058234114627826
1.027795578274886
0.9622073131235754
0.8591085819018616
1.008455354450196
0.9529324759844329
0.8591085819120639
0.7515444952294389
0.7259574535561455
0.7634722479938334
0.8354126446443495
0.9069051302714185
0.7808834072912885
0.7857139487233626
0.8156858182981571
0.8610029260716285
0.7683364238930276
0.8085904348809638
0.8384370903683614
0.8598141151580548
0.803504027919564
0.8475332434305477
0.8694710524453594
0.8807776433397687
0.8966514815962575
0.9095153866403296
0.929624389340427
0.9684913760108321
0.8949915615055035
0.9106166063510521
0.9352849208088748
0.9903470331024037
0.883906564725833
0.9081218811648428
0.9365979842710139
1.054092719120584
0.833466294668062
0.860996724401569
0.8995067834253729
1.141561213643519
1.149102375995957
1.19019086968026
1.162244677867726
1.155848569088431
1.270483916467412
1.298132413512036
1.245480174933749
1.213594643658026
1.425516173845472
1.363578782548859
1.297061991507144
1.251312364363791
1.16055074277597
1.101036219790207
1.087577058733036
1.089678614402157
1.158622345633078
1.159546666741993
1.157141567335828
1.153222456046726
1.197679830194179
1.182975684082138
1.168754356692902
1.156244167369511
1.223636146857988
1.198458869640926
1.175103149012063
1.153897022489349
1.088935521008686
1.07862835797268
1.068265950867699
1.050981094647031
1.122111691409646
0.8700048355442364
0.564350311899478
0.3648314920770755
1.090915719831514
0.6976035496453301
0.366159140690995
0.1741338501665781
1.032829615214841
0.5043280430807086
0.1475374360411977
0.0313568619998242
0.8517505434834322
0.3004540383531987
0.02332750106016602
0.1011552053414323
0.3408961820125412
0.4415100784862255
0.5060778969967339
0.5696203945679279
0.2433964284674762
0.3991277128901568
0.4925659141203169
0.5666276600468056
0.1101828980138825
0.3087564590141944
0.4557143063267398
0.5501833350106995
0.009858322073934131
0.1609758121892311
0.3251009428008046
0.4612704497811158
0.6437909439922962
0.7091243086392535
0.7653467075444103
0.8044257541878718
0.6372081175539613
0.7038042833980546
0.7599634515180299
0.7996771454505885
0.6207892790234537
0.6914820000545586
0.7536164048357332
0.7976348682425687
0.5749320994931599
0.6673102524031931
0.7485512261826476
0.7963439474132369
0.8505503885980511
0.9213129081964879
1.016684536942049
1.130832856613902
0.8424435428545869
0.9072171611968898
0.995090508281802
1.146749330677782
0.8386696546251704
0.8955813732219882
1.009276925872707
1.465248355285737
0.8366960072342178
0.8901267570691993
1.035239281912996
2.043035527316269
1.35800505011316
1.502749566141207
0.7466966892700037
1.540905223086058
1.440689757174451
1.291890647053725
1.120954346104655
1.900697837838459
1.484631564873782
0.9245305217325979
1.364566488958076
1.930172964327727
1.143592179207694
0.4372454702035948
1.650018103864374
1.864190557758171
1.320027844666581
0.8907217357183946
0.6860976560947099
0.4518955371028759
1.399965333259183
0.9917655945078425
0.7130746685750674
0.3512420449055969
1.338004440050734
0.9695953272072263
0.6147499466427039
0.2354627878801182
1.27545902880697
0.9266916403794648
0.5551686816445277
0.1790079293335307
0.3129861674158609
0.09002336600845105
0.1519464548164862
0.3539349872100807
0.357573859264545
0.2740440589942514
0.06743534014783416
0.2737532234406582
0.3253599763906964
0.3765599439820236
0.2087452119053862
0.1802069315111437
0.256383958413401
0.3770788708846761
0.2875059883356567
0.05460912529228119
0.3303602277238284
0.3633309320089906
0.3674623366048873
0.3665507377348998
0.3127492362623288
0.297751807734647
0.3017533893575499
0.287936347775768
0.2125368174775887
0.1577211248883075
0.1531258967866186
0.1300841432951373
0.1153165834667755
0.06702830538343815
0.08520385587120831
0.0805166261915314
0.06427331416950452
0.06053851868852438
0.05568733011158628
0.04946245610261946
0.08590435576251243
0.03554082897667928
0.01249064491805576
0.03216349154561704
0.2343406727978718
0.1729309322317807
0.1018663191620913
0.04156679857450694
0.3263150760143541
0.2781407457609841
0.2178974331636908
0.1782778559104632
0.0494624561023707
0.0321634915456357
0.04156679857432841
0.1782778559103296
0.05568733011097391
0.01249064491819812
0.1018663191621363
0.2178974331643948
0.06053851868790538
0.03554082897685794
0.1729309322316515
0.2781407457617721
0.06427331416903224
0.08590435576275239
0.2343406727975746
0.3263150760148005
0.3665507377330887
0.3674623366043357
0.3633309320082988
0.3303602277232066
0.2879363477757756
0.3017533893574569
0.2977518077345493
0.3127492362618111
0.1300841432950632
0.153125896786307
0.1577211248884602
0.2125368174773648
0.08051662619152351
0.08520385587158653
0.06702830538393439
0.1153165834672956
0.05460912529195802
0.2875059883332554
0.377078870882158
0.2563839584117711
0.180206931511042
0.2087452119043833
0.3765599439789717
0.3253599763865402
0.2737532234405309
0.06743534014718842
0.2740440589907739
0.3575738592608145
0.3539349872101675
0.15194645481789
0.09002336600455693
0.3129861674098316
0.4518955370980505
0.6860976560949095
0.8907217357329492
1.320027844650209
0.3512420449027314
0.7130746685734238
0.9917655945134783
1.399965333257456
0.2354627878788872
0.6147499466400997
0.9695953272105593
1.338004440051526
0.1790079293336286
0.5551686816456726
0.9266916403788374
1.275459028806032
1.540905223042009
0.7466966892657783
1.502749566140822
1.358005050115592
1.900697837819415
1.120954346114607
1.29189064705821
1.440689757169869
1.930172964329943
1.36456648896605
0.9245305217272459
1.484631564868822
1.864190557762739
1.650018103875633
0.4372454702042546
1.143592179205142
1.130832856612737
1.016684536939745
0.9213129081979653
0.8505503885961363
1.146749330679206
0.9950905082841918
0.9072171611962452
0.8424435428571194
1.465248355280868
1.009276925871752
0.8955813732156627
0.8386696546251772
2.043035527310047
1.035239281915767
0.8901267570654152
0.8366960072348638
0.8044257541893218
0.7653467075451478
0.7091243086383988
0.6437909439938609
0.7996771454507038
0.7599634515179271
0.7038042833990895
0.6372081175547122
0.7976348682411085
0.7536164048369925
0.6914820000543381
0.6207892790231239
0.7963439474154407
0.7485512261825014
0.6673102524029553
0.5749320994931949
0.5696203945689031
0.5060778969983958
0.4415100784859159
0.3408961820128287
0.5666276600471013
0.4925659141221269
0.3991277128908775
0.2433964284681603
0.550183335010644
0.4557143063274191
0.308756459014516
0.1101828980147921
0.4612704497804594
0.3251009427998233
0.1609758121896587
0.009858322074141744
0.3648314920780589
0.5643503119020122
0.8700048355450197
1.122111691407488
0.1741338501674516
0.3661591406934436
0.6976035496478015
1.090915719829524
0.03135686199922763
0.1475374360428219
0.5043280430832559
1.032829615212693
0.1011552053414522
0.02332750106027398
0.3004540383540256
0.8517505434803119
1.153222456045585
1.157141567340292
1.159546666748157
1.158622345640443
1.156244167367484
1.168754356693097
1.182975684087178
1.197679830197662
1.153897022486909
1.175103149011096
1.198458869645686
1.22363614686183
1.050981094642733
1.068265950868882
1.078628357975622
1.088935521014593
1.155848569093338
1.162244677874672
1.190190869678791
1.14910237599496
1.213594643664274
1.245480174940689
1.298132413510894
1.270483916466996
1.251312364370381
1.29706199151406
1.363578782547225
1.425516173846028
1.089678614402864
1.087577058738588
1.101036219789236
1.160550742778394
0.9684913760113395
0.9296243893407539
0.9095153866368877
0.8966514815952753
0.9903470331007126
0.9352849208067127
0.9106166063496203
0.89499156150312
1.054092719123076
0.9365979842711132
0.9081218811606635
0.8839065647220971
1.141561213643326
0.8995067834223712
0.8609967243992733
0.8334662946640475
0.8807776433379041
0.8598141151576504
0.8610029260646465
0.9069051302594253
0.8694710524449549
0.8384370903606922
0.8156858182909557
0.8354126446323376
0.8475332434255616
0.8085904348729552
0.7857139487139529
0.7634722479855069
0.8035040279150836
0.7683364238862602
0.7808834072834225
0.725957453552543
0.6232855996708594
1.002704584721576
1.099020312288039
1.116673305268828
0.6574115562063529
0.9785203423708362
1.091854807375623
1.115850633573406
0.6902723319598083
0.9705181367246971
1.08581885581648
1.114840307371152
0.7062569741737533
0.9574413391129359
1.079432252475104
1.113852727272751
1.113028126984243
1.069464595218719
0.9389506167067037
0.6500018705291335
1.11289143131454
1.06960402764766
0.9372223647438261
0.6571804617315975
1.112842019745522
1.07040012056757
0.9362561013001003
0.6852819081618422
1.113117976677965
1.073783779709501
0.9439650417509429
0.7090110626374341
1.113852727277341
1.114840307367826
1.115850633578652
1.116673305275254
1.079432252479087
1.085818855818216
1.091854807382879
1.099020312297702
0.9574413391110651
0.9705181367282785
0.9785203423712349
1.002704584720876
0.7062569741729522
0.690272331960496
0.6574115562061794
0.6232855996691918
)
;

boundaryField
{
    back
    {
        type            empty;
    }
    inlet
    {
        type            calculated;
        value           nonuniform List<scalar> 
16
(
1.118016635923817
1.118016635923327
1.118016635921991
1.118016635900154
1.118016636034887
1.118016635839496
1.118016624557106
1.118016452907089
1.118016452906317
1.118016624556555
1.118016635839877
1.118016636034292
1.118016635923624
1.118016635923231
1.118016635921705
1.118016635899328
)
;
    }
    front
    {
        type            empty;
    }
    top
    {
        type            calculated;
        value           uniform 0;
    }
    outlet
    {
        type            calculated;
        value           nonuniform List<scalar> 
16
(
1.111558538233945
1.111421847430939
1.111388295759511
1.111763472514927
1.116097189263987
1.115119952272926
1.11389008833348
1.112672598722228
1.111558538232465
1.11142184743123
1.111388295761383
1.111763472517975
1.11267259872626
1.113890088330092
1.115119952278135
1.116097189270385
)
;
    }
    bottom
    {
        type            calculated;
        value           uniform 0;
    }
    wall
    {
        type            calculated;
        value           uniform 0;
    }
}


// ************************************************************************* //
