/*--------------------------------*- C++ -*----------------------------------*\
  =========                 |
  \\      /  F ield         | OpenFOAM: The Open Source CFD Toolbox
   \\    /   O peration     | Website:  https://openfoam.org
    \\  /    A nd           | Version:  11
     \\/     M anipulation  |
\*---------------------------------------------------------------------------*/
FoamFile
{
    format      ascii;
    class       volScalarField;
    location    "0.125";
    object      T;
}
// * * * * * * * * * * * * * * * * * * * * * * * * * * * * * * * * * * * * * //

dimensions      [0 0 0 1 0 0 0];

internalField   nonuniform List<scalar> 
880
(
300
300
299.9999999998126
300.0004936291366
300
300
300.0000000024133
300.0021319147181
300
300
300.0000000350951
300.0109325053806
300.0000000000001
300
300.0000008419355
300.019881605974
300
300
299.9999999999999
299.9999999979522
300
300
299.9999999999997
300
299.999995190953
300.000069375773
300.0443800649612
299.9238763053576
301.2507299972166
304.9849493464571
308.2843116819566
309.5063693560142
300.0000067754855
300.0000441123464
300.0000580743624
300.0000413837295
300.0001700471056
300.0004686529616
300.0014632577011
300.0011402762938
300.092785565412
300.2061478596634
300.362155125238
300.3869831557953
311.0117075326085
312.9072763739563
314.5115071558643
316.5965169457428
316.0378430328619
313.168170891831
310.6507286224779
308.7534349716402
300.681233954181
301.2577780037385
301.5582058003819
301.450723671369
300.0033287623173
300.0089961833881
300.0178916144803
300.0219106257627
300.000139566666
300.0003731345249
300.0007959106008
300.0008964054429
300.0007299119071
300.0003891098322
300.0001076672185
300.0000096842043
300.0197373856375
300.0145167826486
300.0071801998261
300.0017583839942
301.1781881279961
300.8535848095609
300.5103765803099
300.201153652551
306.774334564346
304.8832740787398
303.3303964977781
302.0645662306407
301.0126016297211
300.0429089211354
300.0001678029989
300.0000001269042
300.3107236889574
300.0047925098409
300.0000115529897
300.000000050156
300.0263202280862
299.999721878146
299.9999830516895
300.00000033226
303.1416793917517
300.0193862329866
299.999806844535
299.9999814994677
299.9999514841184
299.999897838307
300.1072196684672
323.8770989780162
299.9999911362033
300.0013823188905
300.6133590019435
341.417153690889
300.0001437858728
300.0034636269705
301.2850918297755
352.0171523974708
300.0004910344399
300.0121465484713
302.4110190052446
360.8939613773344
368.2086355707436
303.6499447096493
300.017891652886
300.0007618983176
376.0669755268602
305.3407280969166
300.0377083039877
300.0014911345204
381.8628081686366
306.7650227610604
300.0438620638574
300.0016328318935
387.5363647771906
308.5499066431949
300.0743350596105
300.0029902125761
300.0034441612142
300.0917817238459
310.7161311028822
392.3866677189792
300.0054446124739
300.1444553437617
313.3568751089513
392.0717026442563
300.0107733268995
300.1970058025598
313.4883289510201
383.2037091623998
299.9997979326731
300.0860091309882
308.4277832396335
361.3584322225148
300.0184843361351
300.3726031273767
309.5876820548842
340.6501405358318
300.0217369729006
300.4830904002193
305.8022137349528
317.9276310674799
300.0044565985339
300.2632884651064
304.8257232711417
313.1892116662242
299.995016921707
300.0046450373077
303.2143145378045
318.2779824206301
314.4933403339085
300.3325482078353
299.8437793211477
299.9941537157247
307.0671341165705
298.907518310458
299.8172560534748
299.9977503059858
300.0315492033086
297.9924830663199
299.8478823687206
299.9992864334691
290.7477192035671
297.6153297626309
299.8994124806429
299.9994893642508
285.0445024050356
298.3561995815306
299.966637502734
299.9998387055605
281.0493923888877
299.1193421477341
299.9907576366315
299.9999622118688
280.7029445175348
299.4256151899785
299.995982358068
299.9999872774854
283.1032208463303
299.7238859769029
299.9986932651653
299.9999938326177
297.3107442172842
299.540241392058
299.9831772435953
299.9998365491584
298.482856628737
299.5708241852812
299.982356444587
299.9998325816171
298.8575085762112
299.5763481423118
299.9794516263935
299.9998155432426
300.0838003511436
299.6614880920947
299.9704211043421
299.9997470489002
283.1032208458634
299.7238859760495
299.9986932638457
299.9999938350276
280.7029445171173
299.4256151895314
299.9959823555195
299.9999872772902
281.0493923884371
299.1193421490627
299.990757637094
299.9999622120902
285.044502405373
298.3561995838953
299.9666375028135
299.9998387047827
299.9941537156988
299.8437793229932
300.3325482078766
314.4933403337567
299.9977503079011
299.8172560544562
298.9075183113482
307.0671341171977
299.9992864317704
299.8478823706454
297.9924830652092
300.0315492036747
299.9994893649196
299.8994124813273
297.6153297644923
290.7477192028335
318.2779824193336
303.2143145359409
300.0046450343677
299.9950169201411
313.1892116638685
304.8257232698608
300.2632884636977
300.0044565960718
317.9276310681727
305.8022137336363
300.4830904005272
300.0217369729316
340.6501405360852
309.5876820544568
300.3726031263589
300.0184843397157
300.0034441600874
300.0917817271769
310.7161311046438
392.3866677197061
300.0054446122709
300.144455345782
313.3568751105024
392.07170264451
300.0107733277272
300.1970058026652
313.488328949943
383.2037091623575
299.9997979367369
300.0860091313314
308.4277832387411
361.3584322223177
387.5363647784806
308.5499066433981
300.0743350610176
300.0029902130637
381.8628081701881
306.7650227646963
300.0438620624463
300.0016328322735
376.066975526841
305.3407280945902
300.0377083127253
300.0014911334637
368.2086355717492
303.6499447087659
300.0178916455487
300.0007618975317
299.9999514857749
299.9998978394301
300.1072196685446
323.8770989769985
299.9999911356849
300.0013823182636
300.6133590029949
341.4171536911039
300.0001437847943
300.0034636236848
301.2850918293151
352.0171523977472
300.0004910329669
300.0121465541063
302.4110190060907
360.8939613772817
299.9999814989202
300.0000003330973
300.0000000502436
300.0000001264724
299.999806843037
299.9999830521757
300.0000115548165
300.0001678012885
300.0193862333874
299.9997218786197
300.0047925083116
300.0429089214431
303.1416793921753
300.0263202286274
300.3107236885566
301.0126016300554
300.0000096821323
300.0017583845129
300.2011536542906
302.0645662310024
300.0001076671388
300.007180199314
300.5103765822238
303.3303964977649
300.0003891111846
300.0145167829006
300.8535848086037
304.8832740782805
300.0007299120973
300.0197373857901
301.1781881290814
306.7743345636863
300.0001395647453
300.0033287607864
300.6812339545373
316.0378430330936
300.0003731324226
300.0089961831309
301.2577780042305
313.1681708911149
300.0007959093508
300.0178916159068
301.5582058005555
310.6507286219225
300.0008964044866
300.0219106270277
301.4507236714849
308.7534349705909
316.5965169467322
300.3869831583244
300.0011402754146
300.0000413828701
314.5115071561927
300.362155126764
300.0014632574858
300.0000580739419
312.9072763750856
300.2061478591422
300.0004686531317
300.0000441127671
311.0117075323162
300.0927855642097
300.0001700465395
300.0000067762123
309.5063693561394
299.9238763065368
300
299.9999999985558
308.2843116809641
300.0443800600193
300
300.0000000000001
304.9849493459871
300.0000693752954
300
300
301.2507299973249
299.9999951903781
300
299.9999999999999
300
299.9999999999999
299.9999999996476
300.0004936303396
300.0000000000002
300
300.0000000024366
300.0021319115907
300
300
300.000000035231
300.0109325020239
300
300
300.0000008407523
300.0198816069966
300.0011651798837
300.0043520879429
300.0194551621991
300.2676717409916
300.0043521145402
300.0056932358424
300.018924939838
301.0264592088206
300.0194551379561
300.0189248829766
300.4009816444668
306.4020850497796
300.2676717154342
301.0264591894054
306.4020851222497
326.1188938624331
355.047593829757
336.0622182922333
322.8767522086926
310.8922373377557
351.2365657440804
346.5605860395173
342.1405842877477
333.3059675167257
348.3058035162869
346.1815831680464
344.060551499693
339.9882181905307
346.467872444621
345.6154491101369
345.063043052969
342.982905058243
344.657859923242
345.2026379122894
346.0219316672046
348.1096885507534
344.9206204149209
344.6762800597311
345.3027196422204
347.4523841609992
345.1791999447155
344.2020007601649
344.5718927403794
345.8429386161667
345.727575572469
344.0623145379982
344.2939100845389
342.057576133829
331.1575495938142
312.9531540124196
304.1861210752052
304.2703763400068
322.0978667030389
304.9335294000793
302.2979932755942
304.9429823879452
311.7000206430481
298.5629818833223
303.2889726021796
306.4645963895715
287.7020966769121
291.3841283795426
302.7519384864383
306.0280949842473
303.729804257121
302.9935215453095
302.4120372967384
302.3628476731625
304.658062275145
303.5641874110119
302.753343974874
302.3900370871701
305.8984586575722
304.3472975218704
303.3056351165622
302.6645058435427
305.3552162557107
303.7608806116569
302.6873548680122
302.3795711591726
301.7140854388596
300.8220471575373
300.1761808164927
332.9674710124773
301.5676050213449
300.7559066852342
300.170386804785
349.6925301611059
301.7154148382943
300.8549648340145
300.5038176570667
358.9969080713491
301.4400343034391
300.5419838093802
301.0335445059151
364.5696454910063
409.6777151747172
420.1231092484281
422.8027221630517
424.7531821360722
423.2542290653448
425.9069775635315
423.5789817831672
422.6642862617412
425.8664575571734
424.0518498492229
422.8293694743075
420.1120590757506
434.0350794410537
427.9128542844614
423.0062391500205
418.9794076461883
425.5706023095217
428.9839586949204
431.6531820749773
434.5142331436116
421.7921057760178
424.0463207173366
425.9198392435453
428.6849478305281
416.8308420119578
418.1579989685378
419.5831664529495
422.2116117992528
415.0082583389309
415.657780171649
416.6765863697074
419.2942358211254
434.6242106782382
429.3720500498663
417.6923851834586
398.8763471103076
429.4040762449254
425.1231047090304
415.158803038157
415.1666837106283
423.2769237686052
420.290776375844
415.3593192638642
428.4078354745351
420.1695628812634
418.8182977486644
419.7637599081108
409.4611778110093
362.8240403599943
297.647413267066
206.318773737755
205.7406418940502
350.7496554595399
261.6614251070305
189.5587350744479
172.713630875131
317.3839984256551
214.6875806680625
166.1483656299771
156.2083875166227
241.158395987739
155.948644592624
165.8551668485249
151.2054042347357
218.105301756804
226.1973316926961
231.924781351513
231.4290357513937
181.694366866588
192.3115443937534
204.9844852864944
221.575611920025
157.8351836640168
164.964350379352
186.6061364865577
221.7190992878767
148.7525336580051
153.9857388589845
181.0850870632577
228.2208308874504
265.5474174532346
256.9030977996967
252.451760901088
256.779711861553
272.7874076663008
267.9275235798851
259.1847684956746
262.8274638492013
265.8967261912259
275.9191246405992
271.6808520660915
277.2572296894518
248.9822961844925
266.96923353663
271.5488524864987
288.6691424285546
235.6967283944787
211.32960585532
184.6316587854653
202.8748998808703
239.3829396914002
212.8221930892327
192.2084887091717
217.490469837064
241.5359285984617
187.6675956689815
214.1671261176533
205.6556974918461
214.93869012425
183.4171605828452
208.8574115516527
183.0903555792638
173.1216660449453
170.6502411254877
167.4245102155985
165.7956579201718
182.8142623232548
173.1175841646499
172.0207488365749
171.3764436011184
212.5280723972407
207.0878346900516
209.2977061911209
210.9118822808884
248.689553498266
266.4534627928586
260.3498273049739
256.7019266679594
165.7956579202336
171.3764436011201
210.9118822808165
256.7019266674268
167.4245102158411
172.0207488365909
209.2977061911774
260.3498273046311
170.6502411257077
173.1175841648541
207.0878346900783
266.4534627925372
173.1216660451212
182.814262323524
212.5280723972234
248.6895534981682
202.8748998807383
184.6316587851476
211.3296058548065
235.6967283937807
217.490469837088
192.2084887093921
212.822193089067
239.382939690926
205.6556974918031
214.1671261177451
187.6675956687668
241.535928598268
183.0903555792873
208.8574115515698
183.4171605829735
214.9386901240873
288.6691424284713
271.5488524862246
266.9692335356129
248.982296182972
277.2572296892562
271.6808520659056
275.919124639795
265.8967261895941
262.8274638489273
259.1847684954887
267.9275235790315
272.7874076647693
256.7797118612741
252.4517609009431
256.903097798792
265.5474174519387
231.4290357509182
231.9247813519742
226.1973316932191
218.1053017564985
221.5756119195091
204.9844852870851
192.3115443944826
181.6943668662901
221.719099287329
186.6061364869805
164.9643503798423
157.8351836639494
228.2208308865065
181.0850870633219
153.9857388592891
148.7525336580854
205.7406418923726
206.3187737362884
297.6474132669949
362.8240403601062
172.7136308739613
189.558735073215
261.6614251066162
350.7496554589687
156.2083875158131
166.1483656290512
214.6875806677025
317.3839984254645
151.2054042342351
165.8551668460943
155.9486445909729
241.1583959873996
398.8763471101968
417.6923851835805
429.3720500496765
434.6242106783088
415.1666837106985
415.158803038313
425.1231047090861
429.404076245227
428.4078354747405
415.3593192641476
420.2907763762478
423.2769237692184
409.4611778110543
419.7637599086642
418.8182977491756
420.1695628820977
434.5142331436313
431.6531820757818
428.9839586957986
425.57060231013
428.6849478309133
425.9198392442372
424.0463207179474
421.7921057768977
422.2116117998555
419.5831664535395
418.157998969001
416.8308420129459
419.294235821936
416.6765863702283
415.6577801721955
415.0082583402678
424.753182136437
422.802722161564
420.1231092481182
409.6777151739008
422.6642862621327
423.5789817813948
425.9069775638313
423.2542290635679
420.1120590762891
422.8293694727959
424.05184984868
425.8664575543922
418.9794076466282
423.0062391489068
427.9128542837316
434.0350794379042
332.9674710099656
300.1761808116808
300.8220471591237
301.7140854385672
349.6925301579024
300.1703868000368
300.7559066877401
301.5676050203991
358.9969080685818
300.5038176552764
300.8549648367895
301.7154148368008
364.5696454886065
301.0335445057929
300.5419838118756
301.440034301656
302.3628476730403
302.4120372966334
302.9935215448943
303.7298042565391
302.3900370873226
302.7533439746645
303.5641874107608
304.658062274609
302.664505843777
303.3056351160959
304.3472975218571
305.8984586569953
302.3795711597068
302.6873548675762
303.7608806117777
305.3552162550407
304.270376338865
304.1861210749759
312.9531540113707
331.1575495937239
304.942982386992
302.29799327529
304.933529398883
322.0978667030622
306.4645963887879
303.288972601854
298.5629818822041
311.7000206429646
306.0280949833801
302.7519384862467
291.3841283783215
287.7020966760918
348.1096885505298
346.0219316676278
345.2026379146705
344.6578599247079
347.4523841603727
345.3027196426066
344.6762800620122
344.9206204150963
345.842938615374
344.5718927401049
344.2020007619096
345.1791999449703
342.0575761332309
344.293910083835
344.0623145393775
345.7275755725413
342.9829050569695
339.9882181915794
333.3059675134963
310.8922373443476
345.0630430512146
344.0605514994056
342.1405842882066
322.8767522086322
345.6154491088586
346.1815831670953
346.5605860398675
336.0622182895362
346.467872443627
348.3058035139029
351.2365657398684
355.047593829788
285.9728639273222
299.6346982690501
299.9964805263645
299.9999840894772
289.7942359135805
299.6653355169451
299.9954251925459
299.9999706944039
294.8446238461034
299.6992934675629
299.9930715059559
299.999945329553
299.7253209647919
299.7152641930011
299.9771634348059
299.9998168446453
299.9998365501306
299.9831772437819
299.5402413910325
297.310744215181
299.999832582653
299.9823564458151
299.5708241836046
298.4828566287459
299.999815541574
299.9794516278791
299.5763481411182
298.8575085753242
299.9997470449883
299.9704211059376
299.6614880893769
300.0838003500859
299.9998168433653
299.9999453273937
299.9999706889431
299.9999840849779
299.9771634354328
299.9930715060179
299.9954251921222
299.9964805248283
299.7152641923812
299.6992934660335
299.6653355181265
299.6346982681063
299.7253209638313
294.8446238442372
289.7942359127426
285.9728639278695
)
;

boundaryField
{
    back
    {
        type            empty;
    }
    inlet
    {
        type            zeroGradient;
    }
    front
    {
        type            empty;
    }
    top
    {
        type            zeroGradient;
    }
    outlet
    {
        type            fixedValue;
        value           uniform 300;
    }
    bottom
    {
        type            zeroGradient;
    }
    wall
    {
        type            zeroGradient;
    }
}


// ************************************************************************* //
