/*--------------------------------*- C++ -*----------------------------------*\
  =========                 |
  \\      /  F ield         | OpenFOAM: The Open Source CFD Toolbox
   \\    /   O peration     | Website:  https://openfoam.org
    \\  /    A nd           | Version:  11
     \\/     M anipulation  |
\*---------------------------------------------------------------------------*/
FoamFile
{
    format      ascii;
    class       volScalarField;
    location    "0.1375";
    object      T;
}
// * * * * * * * * * * * * * * * * * * * * * * * * * * * * * * * * * * * * * //

dimensions      [0 0 0 1 0 0 0];

internalField   nonuniform List<scalar> 
880
(
500
500.0000000005329
500.0000920318123
500.0338424445117
500.0000000000001
500.0000000029759
500.0002688750317
500.1738326740153
500
500.0000000793018
500.0011398705469
500.6641519680323
500.0000000000001
499.9999998645779
500.0040348522522
501.7432707389282
500.0000000002277
499.9999999996742
500.0000000132345
500.0000016724157
500.0000001282659
500.0000001247583
500.000010305761
500.0001063626248
500.0245600519793
500.0503093214726
500.1660274316899
499.9729828614907
505.6046371508762
510.7504770114431
514.6986487610511
516.4006613621229
500.0000176511388
500.0001765401759
500.0007788152071
500.0006579547518
500.0011446318802
500.0032167239307
500.0094594668736
500.0110493385416
500.3625614791127
500.6882336596667
501.1039324839358
501.4647527919801
518.4079941072528
521.0266915944596
523.3846718799477
524.7205832119261
519.9350052661447
517.0334349217397
515.4872899630462
513.9889511435304
502.7462115095975
503.8213690304577
504.3706654635046
504.3108725475241
500.0367981313434
500.0898567691801
500.1427058412257
500.1759958088905
500.0022203164405
500.0064418565937
500.011158613999
500.0124834165179
500.0108536777074
500.0075797231959
500.0038470565473
500.001253454664
500.1705965470002
500.1455089002761
500.1065032860223
500.0598352850259
503.7672425785765
503.0992988909784
502.387737063696
501.6642118138922
512.0634618489014
509.8853726500078
507.8989810620711
506.1755244805427
504.6824150317368
500.9676283030552
500.021940502779
500.000214703684
502.9530545562396
500.368957501415
500.0042321240557
500.0000154136447
503.0078173478505
500.0682888170971
500.0002875222704
500.0000018176005
519.8925818331626
500.3714414234774
500.0017437423936
500.000060948559
500.0002430595642
500.0080701472585
501.8658900701781
559.6390192051005
500.0011330712078
500.0296649769448
503.8779977774068
571.9678110491534
500.0034492390245
500.0650361029159
506.9028511574657
583.9836721598341
500.0088344623951
500.1603459177186
511.0605423816914
594.175419686953
602.6621397839699
515.9721877688071
500.2761120057636
500.0162976985552
610.9751351672398
521.9039296315686
500.5172537182381
500.029761929149
619.4228687540971
528.302694949945
500.7533519648372
500.0423154304229
625.1189173251691
535.763004908525
501.2275950805174
500.0699298641043
500.09880545739
501.735124318282
542.6149242188671
628.23698217526
500.1584468194037
502.3305797894567
541.5038448143123
615.8222615716841
500.2229146247616
501.9048822096127
531.3068366863455
592.0313694210992
500.0320615795464
501.0485665267269
517.6167744542423
557.0082205731999
500.1832886376955
501.7450261738676
513.2736182119797
523.6724258855439
500.1348903835947
501.1326492627385
506.860258462284
508.81171061636
500.0263503750454
500.6348074527934
507.3363745859493
514.6780391650841
499.9818899207748
500.158747690132
506.0660147258462
529.0595237583234
521.8448317058034
501.7167696783254
499.5886228094475
499.9683074755573
511.4215876158038
498.1171647122512
499.3819777733912
499.9820343576905
501.8612606981175
496.4273792397902
499.4097639817747
499.992366953489
486.9258879151053
494.8802235591468
499.5640936667587
499.9956154088291
474.1074882138896
495.1114139744308
499.7748404264817
499.9979354524089
462.3997774551389
496.1680283780472
499.9091927902322
499.9993776813676
459.1019800202176
497.0809015342714
499.9540383180155
499.9997497673936
463.1824892210733
498.682742564905
499.9878165017159
499.9998965340168
498.8933736748948
498.576993350082
499.8943439159282
499.9987172552361
497.3157167554807
498.6477460285165
499.907787488457
499.9987654214818
494.7630680705397
498.6467231106612
499.9174196362533
499.9988509805548
494.0261160999236
498.6857329271513
499.9265919571748
499.9990228412752
463.1824892210261
498.6827425649431
499.9878165020879
499.9998965338194
459.1019800203667
497.0809015342315
499.9540383179149
499.9997497672185
462.3997774551094
496.168028377826
499.9091927898521
499.9993776812098
474.1074882139437
495.1114139740766
499.774840426486
499.9979354523582
499.9683074757006
499.5886228097625
501.7167696785369
521.8448317055676
499.9820343575329
499.3819777734953
498.1171647125761
511.4215876154727
499.9923669536489
499.4097639816365
496.4273792394646
501.8612606977595
499.9956154088581
499.5640936671531
494.8802235589129
486.9258879150929
529.0595237583359
506.0660147258736
500.1587476898946
499.9818899210055
514.6780391654331
507.3363745860561
500.6348074529721
500.0263503749657
508.8117106163242
506.8602584624772
501.1326492627974
500.1348903836632
523.6724258854248
513.2736182117189
501.7450261734537
500.1832886379772
500.0988054569557
501.7351243184179
542.6149242195322
628.2369821756209
500.1584468193748
502.3305797886366
541.5038448146859
615.8222615719129
500.2229146240706
501.9048822095182
531.3068366861914
592.0313694209719
500.0320615800866
501.048566526352
517.6167744541425
557.0082205731012
625.1189173253338
535.7630049090535
501.2275950824256
500.0699298648419
619.4228687545034
528.3026949493252
500.7533519621274
500.0423154303521
610.9751351677168
521.9039296324469
500.5172537205501
500.0297619290976
602.6621397842031
515.9721877691113
500.2761120051731
500.0162976985171
500.0002430596266
500.0080701471579
501.8658900697649
559.6390192050875
500.0011330716072
500.0296649778654
503.8779977777546
571.9678110494381
500.003449239355
500.0650361029957
506.9028511574638
583.9836721596477
500.0088344621784
500.1603459178954
511.0605423816354
594.1754196868214
500.0000609485386
500.0000018174909
500.0000154137407
500.0002147037605
500.0017437420181
500.0002875221253
500.0042321238952
500.0219405025822
500.371441423295
500.0682888172389
500.3689575012328
500.9676283028555
519.8925818329636
503.0078173478927
502.9530545563264
504.6824150317595
500.0012534546989
500.0598352850825
501.6642118140187
506.1755244807105
500.003847056567
500.1065032862887
502.3877370638476
507.8989810622508
500.0075797232191
500.1455089004551
503.0992988907605
509.8853726496337
500.0108536776001
500.1705965469575
503.7672425787194
512.063461848947
500.0022203163737
500.0367981312722
502.7462115097244
519.9350052664221
500.0064418562895
500.0898567694085
503.8213690306346
517.0334349216944
500.0111586141616
500.1427058410131
504.3706654634075
515.4872899626947
500.0124834164395
500.1759958088155
504.3108725476559
513.988951143268
524.7205832118885
501.4647527918862
500.0110493385739
500.0006579549134
523.3846718797936
501.1039324841891
500.0094594666839
500.0007788153943
521.0266915946278
500.688233659946
500.0032167233828
500.0001765397413
518.407994107229
500.3625614788323
500.0011446315863
500.0000176514637
516.4006613620436
499.9729828615194
500.0001063626362
500.0000016726597
514.6986487610487
500.1660274317427
500.0000103056969
500.0000000132421
510.7504770114161
500.050309321466
500.0000001246993
499.999999999684
505.6046371507643
500.0245600518422
500.0000001280346
500.0000000001862
500.0000000000001
500.0000000005397
500.0000920318512
500.0338424444056
500
500.0000000029052
500.0002688750311
500.1738326738192
500
500.0000000791675
500.0011398705099
500.6641519680955
500
499.9999998645827
500.0040348522108
501.7432707386834
500.1220051649962
500.4675140371767
501.51227712454
505.8127650994474
500.4675140372886
501.0636085914308
503.7888422564086
512.767685486031
501.5122771243689
503.7888422560859
511.041951325006
525.601944089845
505.8127650995352
512.7676854863145
525.6019440903907
544.3754750078889
565.0443250660093
549.3623454729902
540.2002982030231
526.3158942180725
560.8989230742412
556.7266773208167
554.7560611934123
547.322522979578
561.3941724922229
559.4458117128809
558.2971968755047
555.0275747001148
560.791828688703
559.8419494299607
559.8796604279107
557.9170790574285
557.9159308573443
557.8984674170894
557.7789766081236
556.3489139096785
558.75709011426
557.148723455931
556.6534579983708
555.6076788653928
558.5945719293691
556.6328531539153
555.7435988225824
554.5744738938422
558.8266978795909
556.5044081127526
555.4462955662146
549.6174170697824
518.8589150225267
504.4809569357144
503.8576544126739
504.5190567136901
507.043315814641
498.8187724364483
503.7519800446468
505.0963051762281
493.6163590856472
497.3737973684214
504.5992975871009
506.44942654242
470.5593114838567
491.3489440182968
502.7229999238949
505.1809170352623
504.5781600560031
504.2825800203844
503.889400178096
503.6235202860654
505.0954479306876
504.6612878798513
503.7928417614573
503.3006204697894
506.1329652436452
505.3989089713178
504.1835389858222
503.4746846604706
505.4573636196446
505.2074749116569
504.1150381028226
503.0087233086734
503.3566731694972
503.2749139244779
521.52999930305
581.1945781399055
503.3026648381204
503.0997149945968
531.1739320349824
592.2509344026131
503.583879146755
503.2548711695561
542.267589395368
600.7466310262751
503.2135677546032
503.067916669478
549.5353528631673
606.8493101424547
649.2360568768077
647.4715372400425
649.0587614199344
649.8810343841541
656.6115247665446
651.8023265740843
649.7941391566088
648.9773119727645
658.3461859106376
654.6241644297198
650.599868143756
648.6770829528997
660.1609615497783
657.3794712463458
652.0112552743554
648.5650849680422
648.5663219239898
648.7927044716291
650.6623478643018
652.2620286348969
646.8385870710599
646.3502878156568
647.464756117478
648.6989177208039
645.0746874869723
643.3236423133663
643.87904630642
644.7592369852867
644.5058645354912
641.9787122381969
642.0931158605511
642.8158767537672
652.1916129357442
642.2474252090797
623.6439624395158
593.1836616333725
648.6846055050623
640.5447249054611
623.3271114019022
622.933923060289
644.4964578413035
639.4448645758067
629.8889287704643
649.6215452841345
642.3912160244327
640.4415987402793
642.2927884295962
635.2667820901469
553.3870188268004
472.3132687534774
358.9376550506217
376.8808874365386
542.5774883345667
432.4582458568623
330.0938124337106
328.9640580123436
491.7103572993349
364.9499810727755
309.8630788391815
307.8884021182417
393.6444886541166
313.9750332870972
310.5367314432328
301.6947439184809
396.429675795937
414.1595378929118
424.3306891270543
415.8493531860539
349.4368513263026
378.1961584121715
399.4166609807957
403.7013031626082
322.1005742355803
349.8975453278289
379.8310454386412
402.1011745528358
315.0308758003983
341.9262832026139
375.5958314373959
406.1110107576844
443.1297947138046
422.974912862826
410.4222821909493
410.2378416745314
444.7320807075269
431.843864010838
415.766642128362
420.6368503546671
436.003180711878
438.6249317222254
429.1716560997183
439.5423143167242
423.547953311618
438.8980301095395
435.6410507203886
459.3971627014275
376.3846329234816
370.4786056067547
381.2565027473398
409.0994587326293
395.0897255339966
401.875133164089
393.1365278314322
373.735252626651
407.0407038248013
409.4411507886137
391.8877120608578
368.4459890781811
389.7695335953153
403.4791808720667
384.4367723652999
364.1021070254307
353.6796749706682
351.0039026775979
350.1330133595887
349.6607646394644
352.716197021183
347.3283079171287
346.4411336730557
345.0927628108344
369.0012807500992
368.5772953501975
366.5396484410758
364.2054555054336
411.0192074546988
405.4347505669217
399.63343036215
396.2700518395118
349.6607646394701
345.0927628108513
364.2054555054273
396.2700518394898
350.1330133595849
346.4411336730582
366.5396484411084
399.6334303622163
351.0039026775678
347.3283079171131
368.5772953502352
405.4347505670485
353.6796749706203
352.7161970211633
369.0012807501117
411.0192074548136
409.0994587327035
381.2565027474139
370.4786056066882
376.3846329233825
373.7352526266479
393.1365278313926
401.8751331639843
395.0897255338965
368.4459890781588
391.8877120607953
409.441150788508
407.0407038247153
364.1021070253672
384.4367723652331
403.4791808719897
389.7695335952305
459.3971627013542
435.6410507204454
438.8980301097864
423.5479533119897
439.5423143166481
429.1716560997319
438.6249317224066
436.0031807121961
420.6368503545823
415.7666421283737
431.843864011033
444.7320807077983
410.2378416744456
410.4222821910221
422.974912863009
443.1297947140199
415.8493531865183
424.3306891275274
414.1595378933031
396.4296757961221
403.7013031631591
399.4166609815145
378.1961584126537
349.4368513263405
402.1011745533687
379.8310454393825
349.8975453282956
322.1005742355806
406.1110107582354
375.5958314381623
341.9262832031152
315.0308758004333
376.8808874367415
358.9376550500183
472.3132687532189
553.3870188268575
328.9640580124181
330.0938124333633
432.4582458566159
542.5774883343795
307.8884021182268
309.8630788390524
364.9499810729333
491.7103572993881
301.6947439184634
310.5367314430509
313.9750332870495
393.6444886543051
593.1836616333117
623.6439624394105
642.2474252090387
652.1916129358133
622.9339230602627
623.3271114017625
640.5447249053479
648.6846055050339
649.6215452840586
629.8889287703474
639.4448645756197
644.4964578411855
635.266782090147
642.2927884294621
640.441598740091
642.3912160242892
652.2620286349376
650.6623478647583
648.7927044718134
648.5663219242736
648.6989177207997
647.4647561178583
646.350287815806
646.8385870712445
644.7592369852817
643.8790463067194
643.3236423135339
645.0746874871514
642.8158767537778
642.0931158608439
641.9787122383717
644.5058645356644
649.8810343840837
649.058761419957
647.4715372401655
649.2360568768618
648.9773119726487
649.7941391565543
651.8023265742144
656.61152476642
648.6770829527292
650.5998681436753
654.6241644297592
658.3461859103797
648.5650849678804
652.0112552743352
657.3794712463023
660.1609615494244
581.1945781398772
521.5299993029345
503.2749139248269
503.3566731695771
592.2509344025584
531.1739320348256
503.0997149949295
503.3026648382423
600.7466310262405
542.2675893952083
503.2548711698896
503.5838791469374
606.849310142331
549.5353528629312
503.0679166698461
503.2135677548039
503.6235202863107
503.8894001779037
504.2825800204309
504.5781600559279
503.3006204701975
503.7928417611223
504.6612878797328
505.0954479306196
503.4746846610196
504.1835389854295
505.3989089711378
506.1329652436114
503.0087233093306
504.1150381026013
505.2074749113713
505.457363619746
504.5190567134586
503.8576544122292
504.4809569359729
518.8589150227729
505.0963051759458
503.7519800443441
498.8187724366779
507.0433158147931
506.44942654209
504.5992975868541
497.3737973686124
493.6163590856388
505.1809170348279
502.7229999236282
491.3489440185456
470.5593114838395
556.3489139097579
557.7789766080872
557.8984674174106
557.9159308574576
555.607678865395
556.6534579982613
557.148723456266
558.7570901142899
554.5744738937327
555.7435988224291
556.6328531542424
558.594571929385
549.6174170694663
555.4462955660948
556.5044081130751
558.8266978795821
557.9170790571465
555.0275747000952
547.3225229795961
526.3158942181958
559.8796604276293
558.2971968755144
554.7560611933533
540.2002982029915
559.8419494297103
559.4458117128273
556.7266773206205
549.3623454727996
560.7918286884783
561.3941724921672
560.8989230739966
565.0443250657778
465.2793613100597
498.2222255434255
499.9677968922877
499.9998104748574
468.7385581477641
498.1559770962701
499.9634859068473
499.9997275801515
479.9250164422875
498.3753143399833
499.957255427844
499.9996129152547
489.5349078750596
498.5688563143746
499.9425185333316
499.9993505526994
499.9987172554435
499.8943439157098
498.5769933500359
498.8933736748643
499.9987654213965
499.9077874883184
498.6477460285168
497.3157167553731
499.9988509807163
499.9174196362139
498.6467231105332
494.7630680707127
499.9990228412778
499.9265919573184
498.6857329270557
494.0261161000753
499.9993505525638
499.9996129152207
499.9997275802813
499.9998104747941
499.942518533247
499.9572554277178
499.9634859066642
499.9677968922352
498.5688563144456
498.3753143398864
498.1559770963177
498.2222255435999
489.5349078748155
479.9250164418638
468.7385581476121
465.2793613100378
)
;

boundaryField
{
    back
    {
        type            empty;
    }
    inlet
    {
        type            zeroGradient;
    }
    front
    {
        type            empty;
    }
    top
    {
        type            zeroGradient;
    }
    outlet
    {
        type            fixedValue;
        value           uniform 500;
    }
    bottom
    {
        type            zeroGradient;
    }
    wall
    {
        type            zeroGradient;
    }
}


// ************************************************************************* //
