/*--------------------------------*- C++ -*----------------------------------*\
  =========                 |
  \\      /  F ield         | OpenFOAM: The Open Source CFD Toolbox
   \\    /   O peration     | Website:  https://openfoam.org
    \\  /    A nd           | Version:  11
     \\/     M anipulation  |
\*---------------------------------------------------------------------------*/
FoamFile
{
    format      ascii;
    class       volScalarField;
    location    "0.0975";
    object      rho;
}
// * * * * * * * * * * * * * * * * * * * * * * * * * * * * * * * * * * * * * //

dimensions      [0 0 0 0 0 0 0];

internalField   nonuniform List<scalar> 
880
(
0.2239950333699092
0.2239950333699093
0.2239950437704108
0.2239961078297637
0.2239950333699093
0.22399503337003
0.2239950712580524
0.2240164092837125
0.2239950333699093
0.2239950333746608
0.2239954100078264
0.2241955316706432
0.2239950333699091
0.2239950333516072
0.2239956508483964
0.2248307698288721
0.2239950333699093
0.2239950333699092
0.223995033371826
0.2239950341231603
0.2239950334358346
0.2239950332876923
0.2239950343913514
0.2239950506254937
0.2240037451871664
0.2240137977214946
0.2240778583823151
0.223942374028331
0.2275926408463959
0.2314910089119817
0.2340413778184521
0.2352781645436399
0.2239950436124454
0.2239951220450686
0.2239951516046714
0.2239951169186801
0.2239953687265913
0.2239960259211134
0.2239975692111877
0.2239971547794104
0.2241342118852609
0.2242909845702671
0.2244908551668495
0.2245244282872858
0.2366984148303506
0.2389531126864449
0.2410766858125239
0.2430378382299525
0.2385367438549305
0.2356040481405323
0.2343548564954395
0.2327162807465527
0.224922992093616
0.2255533436623204
0.2256368315020969
0.2254340953225171
0.2240008145463483
0.2240109776923312
0.2240174650747069
0.2240159544925521
0.2239953241576955
0.2239957321239815
0.2239958871214427
0.2239957442872973
0.2239954193256666
0.2239951522234393
0.2239950509195737
0.2239950344223477
0.2240100660255109
0.2240020216915427
0.2239969250052781
0.2239952842364466
0.2250883337701071
0.2246190701021125
0.2242420553732333
0.2240551955959562
0.2309516080380687
0.2291484254174786
0.2272597888912233
0.2254954187240995
0.2243847802139281
0.2240017338347727
0.2239950465838786
0.2239950334141723
0.224025172226901
0.2239952103090998
0.2239950333976571
0.2239950333560494
0.2242409840101415
0.2239956679520726
0.2239950342266223
0.2239950334599168
0.2329039836716771
0.2240846346943517
0.2239951227968495
0.2239950082726867
0.2239950419203282
0.2239967163852274
0.2246409269771281
0.2653699921887252
0.2239952032660516
0.2240003587890564
0.2252837242773828
0.2732550164736208
0.2239956197568557
0.2240063603310021
0.2261111496967805
0.280216706533027
0.2239962558817334
0.2240200982229671
0.2273029406013626
0.287885581159097
0.2950039497770993
0.2283625714433556
0.224028719642088
0.2239967613965002
0.3038306128073292
0.229858364821869
0.224052497135843
0.2239977584636689
0.3111174420896392
0.2309606495739623
0.2240624994118417
0.2239984055071271
0.3191571979183117
0.2329402103440671
0.2241042096336034
0.2240005516074542
0.2240018939565645
0.2241334646910334
0.2351021513816552
0.3255517242972767
0.2240062859423618
0.2242047051812125
0.2368977505927862
0.3200796192120931
0.2240108389886007
0.2242019586669903
0.2342596514042991
0.2965425634868897
0.2239964477279577
0.2240999617493764
0.2289396218494051
0.262701147711537
0.2240156890590824
0.2243459836608287
0.2278450982382521
0.2226160906882374
0.224003305660232
0.22411028731737
0.2242557660387441
0.1867998803938014
0.2239943745896988
0.2239777098041466
0.2212994845082408
0.1639305186323402
0.2239942303128806
0.2238446422588197
0.2174808063258681
0.1499787320333134
0.1463948011849061
0.216422785078194
0.2238334012105455
0.2239941190942119
0.143793010747545
0.2158908580587117
0.2238218486774581
0.2239941215199618
0.1424834502299403
0.216587576972413
0.2238862670995294
0.2239946499922926
0.1356165776902197
0.2160238979982556
0.2238870501767159
0.2239946735196555
0.1514184205375083
0.2193100742014254
0.2239488047031822
0.2239948643765893
0.1713261791666293
0.2219798783319314
0.2239811600420586
0.2239949893161039
0.1864601921728356
0.2230403313405147
0.2239896130949035
0.2239950175246855
0.1998120249349885
0.2236592797931371
0.223993291890133
0.223995025164633
0.2055518998147965
0.2229178026629244
0.2239767296100786
0.2239949126539973
0.2066240002235289
0.2229616280852253
0.2239772732221518
0.2239949150226863
0.2077491885324832
0.223004765777725
0.2239778869757486
0.2239949179820246
0.209501239600233
0.2231282423920683
0.2239800147157794
0.2239949300287432
0.1998120249350029
0.2236592797928836
0.2239932918899123
0.2239950251641986
0.1864601921728673
0.2230403313402285
0.2239896130944932
0.2239950175245005
0.1713261791664888
0.2219798783316491
0.2239811600419574
0.2239949893159919
0.1514184205374667
0.2193100742010902
0.2239488047033125
0.2239948643766143
0.2239941190944183
0.2238334012106558
0.2164227850783489
0.1463948011844372
0.223994121519846
0.2238218486775387
0.2158908580588943
0.1437930107471905
0.2239946499923768
0.2238862670994608
0.2165875769721139
0.1424834502297518
0.2239946735197
0.2238870501770694
0.2160238979982149
0.135616577690219
0.1499787320330759
0.2174808063257778
0.2238446422586134
0.2239942303130384
0.1639305186321648
0.2212994845081787
0.2239777098043017
0.2239943745896775
0.1867998803935702
0.2242557660387562
0.2241102873172984
0.2240033056604127
0.2226160906881922
0.2278450982380504
0.2243459836604582
0.2240156890593361
0.2240018939564433
0.2241334646906064
0.2351021513819854
0.3255517242973902
0.2240062859424675
0.2242047051811447
0.2368977505931866
0.3200796192124563
0.2240108389882284
0.2242019586671856
0.2342596514043163
0.2965425634868825
0.223996447728134
0.2240999617492121
0.2289396218494501
0.2627011477115729
0.3191571979184557
0.2329402103437923
0.2241042096348098
0.224000551608034
0.3111174420898424
0.2309606495740975
0.2240624994112314
0.2239984055071425
0.3038306128072975
0.2298583648215602
0.224052497136079
0.2239977584637066
0.2950039497770213
0.228362571443577
0.2240287196420669
0.2239967613965955
0.2239950419204169
0.223996716385073
0.2246409269765917
0.2653699921882304
0.2239952032664174
0.224000358789829
0.2252837242780761
0.2732550164742372
0.2239956197573272
0.2240063603310046
0.2261111496960416
0.2802167065324499
0.2239962558817223
0.2240200982230372
0.2273029406022432
0.2878855811591323
0.2239950082726979
0.223995033459873
0.2239950333561661
0.2239950334141686
0.2239951227964314
0.2239950342264498
0.2239950333975222
0.2239950465837834
0.2240846346941477
0.2239956679521754
0.2239952103089581
0.2240017338346292
0.2329039836715379
0.2242409840102001
0.2240251722269787
0.2243847802139465
0.2239950344224071
0.2239952842365388
0.2240551955960868
0.2254954187240934
0.2239950509195406
0.2239969250055031
0.2242420553732511
0.2272597888913614
0.223995152223438
0.224002021691655
0.2246190701018842
0.2291484254171147
0.2239954193254982
0.224010066025438
0.2250883337702197
0.2309516080380107
0.2239953241577681
0.2240008145460082
0.2249229920937001
0.2385367438551137
0.2239957321237009
0.2240109776923986
0.2255533436624875
0.235604048140609
0.2239958871215587
0.2240174650744665
0.2256368315019698
0.2343548564951592
0.2239957442871893
0.2240159544924808
0.2254340953226679
0.23271628074632
0.2430378382298349
0.2245244282871971
0.2239971547791577
0.223995116918881
0.2410766858123128
0.2244908551670483
0.2239975692107813
0.2239951516046713
0.2389531126865395
0.2242909845705306
0.2239960259206262
0.2239951220448106
0.2366984148302395
0.2241342118851773
0.2239953687263504
0.2239950436129767
0.2352781645434972
0.2239423740285524
0.2239950506254954
0.2239950341233654
0.2340413778183702
0.2240778583820242
0.2239950343909677
0.2239950333718283
0.2314910089118788
0.224013797721447
0.2239950332878012
0.2239950333699091
0.2275926408462419
0.2240037451870245
0.2239950334357335
0.2239950333699093
0.2239950333699092
0.2239950333699093
0.2239950437705127
0.2239961078297592
0.2239950333699093
0.2239950333699464
0.2239950712580555
0.2240164092832718
0.2239950333699093
0.2239950333745622
0.2239954100078235
0.2241955316706891
0.2239950333699093
0.2239950333514358
0.223995650848312
0.2248307698286157
0.2240046923326333
0.2240782569554443
0.2245325965210074
0.2275781555957268
0.2240782569553077
0.2242788075809834
0.2259055607621309
0.233912878853593
0.2245325965216186
0.2259055607637903
0.2321920853908153
0.247144569941103
0.2275781555966158
0.2339128788534627
0.2471445699385344
0.2676851336141559
0.2891064472914322
0.2713572168658627
0.2633452136959323
0.2484603541864274
0.2833791979019538
0.279353196498532
0.2805714030988994
0.2722576099388397
0.2833020005975448
0.2816590449291061
0.2824041580404323
0.2784203312526818
0.2852201674682527
0.2847161659376116
0.2850512106724981
0.2821291441249843
0.2831839249867307
0.2840140127193681
0.2849345715852646
0.2851472963352574
0.2849694610537356
0.2855022955072458
0.2864147784900867
0.286441097535327
0.2858363201397287
0.2860160949099296
0.2869608233926673
0.2868651126383375
0.2867376831590983
0.2860346400979158
0.286952081205984
0.284660577211209
0.242714757194733
0.2254843298478295
0.226587173033252
0.2276186086666505
0.2276199158850545
0.2194829778687587
0.2250846643582859
0.2269366622425024
0.2143906676964018
0.2199583715342362
0.2263075963222625
0.2279497896354905
0.1945231105440843
0.2151968731213092
0.2239007091925911
0.2264478465358993
0.2280403364497428
0.2287435661379825
0.2284317237608898
0.2267500446359803
0.2279322182144747
0.2287862484922988
0.2282075162091802
0.2266316801473085
0.228916410135063
0.2294134149139817
0.2285655305471851
0.2269006994563027
0.2279992183838776
0.2289187248813729
0.2280042660590058
0.2263097159144117
0.2250172336402881
0.2241456166012808
0.2300433990539817
0.2845662624257775
0.2250653832446986
0.2241791478814251
0.2344183288993079
0.2955563199843488
0.2252423004900477
0.2242093254883956
0.2381533301693376
0.3007694021480941
0.2248720528645231
0.2242488948007704
0.2395940122138631
0.3020417948527839
0.3768651792132823
0.3726002731600501
0.3688296597561301
0.3671236107866037
0.3864884165806454
0.3790541624507232
0.3727287280801536
0.3705401627646119
0.3825520139920595
0.377015469306527
0.3744861324707799
0.3736138587412449
0.3887527500290018
0.3810640393584973
0.3758354850552406
0.3747302491975942
0.3667276180662117
0.3718565814924401
0.3763796770030935
0.3801159065983895
0.3702713683821317
0.3750519169010583
0.3790280974596659
0.3826805151892849
0.3734580736413047
0.3782816788038552
0.3822980037166699
0.386121445862217
0.3746614085684807
0.37946239497496
0.3833605497604164
0.3873600634375556
0.3789019188003153
0.3678204461350138
0.343319736750437
0.2953371858331831
0.3813529883186735
0.370947026814367
0.3466583210113691
0.3031080172390156
0.3851326045050751
0.3753322328397731
0.3483654470751623
0.3115341681170099
0.3868939851795699
0.3786372009240607
0.3515465516037784
0.3571856835352265
0.2091075847409762
0.07137057932272296
0.04763382452567231
0.05557417038439626
0.1688888400773184
0.04981294049546343
0.04893006570105338
0.05979043837334846
0.1230821138608508
0.03873405651967724
0.04979932767864752
0.06544016316494253
0.08705691015959083
0.03519339884384532
0.05450493809391098
0.06803053462917613
0.0620993192003028
0.06362200453789726
0.0637161779742559
0.05856926197919787
0.06647064797521884
0.06677931725216495
0.0640188315819433
0.05767906246883093
0.07248764877784412
0.07190452499019222
0.06663650043412844
0.05980900789124253
0.0746075199228564
0.07314759913289333
0.06786104219277558
0.06421999845001425
0.08616806552959899
0.111186315047077
0.1314502008207063
0.1502822962143579
0.08214203793621186
0.1052265347553955
0.1215778780836775
0.1429856461269846
0.07798011729155031
0.0991822013085243
0.1148975316093466
0.1327789141769537
0.07099950648913186
0.09012996578475715
0.1053650494331412
0.1280835624801853
0.1182425859980137
0.0759897889421287
0.06451532431221302
0.09784455507146628
0.1074587501664267
0.06750708603292745
0.06833996134937174
0.08162566051901031
0.09078391338324131
0.06100387748365332
0.08518428115860556
0.09023381193155007
0.06961970560741997
0.07538336183942605
0.09559145723728127
0.1029363610307221
0.09901239249971387
0.09464378528362277
0.0929318481867782
0.09351698095395275
0.0886358812039168
0.08884683509177978
0.08993403498422635
0.08993699327342924
0.08492270288190619
0.09033454884477569
0.09512428324392992
0.09860862558450394
0.1190069619438765
0.1197874316358145
0.1187301839500193
0.1189918793523573
0.09351698095395641
0.08993699327342704
0.09860862558450612
0.1189918793523789
0.09293184818679065
0.08993403498424136
0.09512428324394258
0.1187301839500345
0.09464378528364503
0.08884683509180383
0.09033454884479436
0.1197874316358232
0.09901239249974077
0.08863588120393151
0.08492270288192569
0.1190069619439026
0.09784455507157186
0.06451532431229572
0.07598978894212396
0.1182425859980496
0.08162566051902603
0.06833996134938637
0.06750708603293122
0.1074587501664569
0.09023381193156754
0.0851842811586053
0.06100387748366892
0.09078391338326948
0.1029363610307385
0.09559145723728013
0.07538336183943037
0.06961970560744569
0.1280835624802596
0.1053650494332631
0.09012996578489613
0.07099950648923647
0.1327789141770127
0.1148975316094245
0.09918220130863011
0.07798011729165515
0.1429856461270413
0.1215778780837268
0.1052265347554716
0.08214203793631025
0.1502822962144635
0.1314502008207797
0.1111863150471085
0.08616806552966121
0.05856926197928522
0.06371617797433539
0.06362200453786503
0.06209931920024001
0.05767906246891803
0.06401883158202076
0.06677931725221635
0.06647064797522551
0.05980900789131394
0.06663650043417949
0.07190452499023038
0.07248764877788441
0.0642199984500888
0.06786104219282371
0.07314759913290003
0.07460751992290769
0.0555741703844484
0.04763382452565774
0.07137057932255154
0.2091075847408871
0.05979043837343479
0.0489300657011693
0.04981294049543684
0.1688888400771187
0.06544016316505706
0.04979932767881129
0.038734056519785
0.1230821138607613
0.06803053462931034
0.05450493809409199
0.035193398843936
0.08705691015956021
0.2953371858331085
0.3433197367503991
0.3678204461348818
0.3789019188000509
0.3031080172389942
0.34665832101134
0.3709470268142296
0.3813529883184549
0.3115341681169879
0.3483654470751013
0.3753322328396301
0.3851326045049269
0.3571856835351651
0.3515465516037324
0.3786372009239083
0.3868939851794099
0.3801159065982328
0.3763796770029979
0.3718565814923203
0.3667276180662332
0.3826805151891594
0.379028097459634
0.3750519169009663
0.3702713683822013
0.3861214458621337
0.3822980037166644
0.3782816788037159
0.3734580736412876
0.387360063437452
0.3833605497604137
0.3794623949748115
0.374661408568437
0.3671236107864053
0.3688296597556484
0.3726002731601697
0.3768651792131736
0.3705401627644184
0.3727287280797059
0.3790541624509131
0.3864884165806775
0.3736138587409444
0.3744861324704453
0.3770154693067855
0.3825520139922688
0.3747302491972962
0.3758354850549812
0.3810640393588159
0.3887527500292458
0.2845662624259596
0.2300433990541452
0.2241456166014758
0.2250172336400878
0.29555631998479
0.2344183288995197
0.2241791478815638
0.2250653832439506
0.3007694021486329
0.2381533301695331
0.2242093254885881
0.2252423004890146
0.3020417948533031
0.2395940122139002
0.2242488948005306
0.2248720528632716
0.2267500446359962
0.2284317237611059
0.2287435661374413
0.2280403364499953
0.226631680147981
0.2282075162089874
0.2287862484919977
0.227932218214651
0.2269006994574009
0.2285655305466286
0.2294134149140158
0.2289164101349596
0.2263097159164579
0.2280042660576734
0.2289187248819329
0.2279992183833991
0.2276186086663793
0.2265871730330763
0.2254843298479496
0.2427147571948988
0.2269366622422395
0.2250846643581176
0.2194829778689547
0.2276199158851913
0.2279497896352945
0.2263075963221251
0.2199583715344611
0.2143906676964682
0.2264478465357875
0.2239007091923852
0.2151968731216004
0.1945231105442486
0.2851472963351431
0.2849345715850242
0.2840140127195154
0.2831839249866536
0.2864410975351785
0.2864147784898963
0.2855022955074393
0.2849694610536523
0.2868651126382004
0.28696082339257
0.2860160949101325
0.2858363201396409
0.2846605772109801
0.2869520812058739
0.2860346400981157
0.2867376831590456
0.2821291441246261
0.2784203312526621
0.2722576099388857
0.2484603541862367
0.2850512106722223
0.2824041580404459
0.280571403098886
0.2633452136960096
0.2847161659371932
0.2816590449290887
0.2793531964985294
0.2713572168660008
0.285220167467692
0.2833020005975753
0.2833791979018689
0.2891064472912346
0.2092987113580878
0.2236383432184012
0.2239918849261887
0.2239950204367138
0.2073870237219776
0.2235427824004044
0.2239904102046587
0.2239950097152498
0.2082118939617096
0.2234322621992637
0.2239880052868464
0.2239949921492461
0.2089089241790167
0.2232635234413311
0.2239838932296691
0.2239949603437659
0.2239949126543576
0.2239767296100439
0.2229178026628987
0.2055518998146332
0.2239949150226231
0.223977273222218
0.2229616280852928
0.2066240002235843
0.2239949179820974
0.2239778869755047
0.2230047657777451
0.2077491885324101
0.2239949300287547
0.2239800147156599
0.2231282423921467
0.2095012396000951
0.2239949603435366
0.2239949921493755
0.2239950097153664
0.2239950204364091
0.2239838932294505
0.2239880052867897
0.2239904102046846
0.2239918849262738
0.2232635234413788
0.2234322621991791
0.2235427824005328
0.2236383432183157
0.2089089241788605
0.2082118939615579
0.2073870237219411
0.2092987113581815
)
;

boundaryField
{
    back
    {
        type            empty;
    }
    inlet
    {
        type            calculated;
        value           nonuniform List<scalar> 
16
(
0.2239950333699092
0.2239950333699093
0.2239950333699093
0.2239950333699091
0.2239950333699093
0.2239950333699092
0.223995033371826
0.2239950341231603
0.2239950341233654
0.2239950333718283
0.2239950333699091
0.2239950333699093
0.2239950333699092
0.2239950333699093
0.2239950333699093
0.2239950333699093
)
;
    }
    front
    {
        type            empty;
    }
    top
    {
        type            calculated;
        value           nonuniform List<scalar> 
40
(
0.2239950436124454
0.2239951220450686
0.2239951516046714
0.2239951169186801
0.2239953241576955
0.2239957321239815
0.2239958871214427
0.2239957442872973
0.2239954193256666
0.2239951522234393
0.2239950509195737
0.2239950344223477
0.2239950334141723
0.2239950333560494
0.2239950334599168
0.2239950082726867
0.2239950419203282
0.2239952032660516
0.2239956197568557
0.2239962558817334
0.2239967613965002
0.2239977584636689
0.223998405507127
0.2240005516074542
0.2240018939565645
0.2240062859423618
0.2240108389886007
0.2239964477279577
0.2240156890590824
0.224003305660232
0.2239943745896988
0.2239942303128806
0.2239941190942119
0.2239941215199619
0.2239946499922926
0.2239946735196555
0.2239948643765893
0.2239949893161039
0.2239950175246855
0.223995025164633
)
;
    }
    outlet
    {
        type            calculated;
        value           uniform 0.2239950333699093;
    }
    bottom
    {
        type            calculated;
        value           nonuniform List<scalar> 
40
(
0.2239950251641985
0.2239950175245005
0.2239949893159919
0.2239948643766143
0.2239941190944183
0.223994121519846
0.2239946499923768
0.2239946735197
0.2239942303130384
0.2239943745896775
0.2240033056604127
0.2240156890593361
0.2240018939564433
0.2240062859424675
0.2240108389882284
0.223996447728134
0.224000551608034
0.2239984055071425
0.2239977584637066
0.2239967613965955
0.2239950419204169
0.2239952032664174
0.2239956197573272
0.2239962558817223
0.2239950082726979
0.223995033459873
0.2239950333561661
0.2239950334141686
0.2239950344224071
0.2239950509195406
0.223995152223438
0.2239954193254982
0.2239953241577681
0.2239957321237009
0.2239958871215587
0.2239957442871893
0.223995116918881
0.2239951516046713
0.2239951220448106
0.2239950436129768
)
;
    }
    wall
    {
        type            calculated;
        value           nonuniform List<scalar> 
104
(
0.2891064472914322
0.2833791979019538
0.2833020005975448
0.2852201674682527
0.2867376831590983
0.2860346400979158
0.286952081205984
0.284660577211209
0.1945231105440843
0.2151968731213092
0.2239007091925911
0.2264478465358993
0.2279992183838776
0.2289187248813729
0.2280042660590058
0.2263097159144117
0.2248720528645231
0.2242488948007704
0.2395940122138631
0.3020417948527839
0.3887527500290018
0.3810640393584973
0.3758354850552406
0.3747302491975942
0.3746614085684807
0.37946239497496
0.3833605497604164
0.3873600634375556
0.3868939851795699
0.3786372009240608
0.3515465516037784
0.3571856835352265
0.08705691015959083
0.03519339884384532
0.05450493809391098
0.06803053462917613
0.0746075199228564
0.07314759913289333
0.06786104219277558
0.06421999845001425
0.07099950648913186
0.09012996578475715
0.1053650494331412
0.1280835624801853
0.06961970560741997
0.07538336183942605
0.09559145723728127
0.1029363610307221
0.09901239249971387
0.09464378528362277
0.0929318481867782
0.09351698095395275
0.09351698095395641
0.09293184818679065
0.09464378528364503
0.09901239249974077
0.1029363610307385
0.09559145723728013
0.07538336183943037
0.06961970560744569
0.1280835624802596
0.1053650494332631
0.09012996578489613
0.07099950648923647
0.0642199984500888
0.06786104219282371
0.07314759913290003
0.07460751992290771
0.06803053462931034
0.05450493809409199
0.03519339884393599
0.08705691015956021
0.3571856835351651
0.3515465516037324
0.3786372009239083
0.3868939851794099
0.387360063437452
0.3833605497604137
0.3794623949748115
0.374661408568437
0.3747302491972962
0.3758354850549812
0.3810640393588159
0.3887527500292458
0.3020417948533031
0.2395940122139002
0.2242488948005306
0.2248720528632716
0.2263097159164579
0.2280042660576734
0.2289187248819329
0.2279992183833991
0.2264478465357875
0.2239007091923852
0.2151968731216004
0.1945231105442485
0.2846605772109801
0.2869520812058739
0.2860346400981157
0.2867376831590456
0.285220167467692
0.2833020005975753
0.2833791979018689
0.2891064472912346
)
;
    }
}


// ************************************************************************* //
