/*--------------------------------*- C++ -*----------------------------------*\
  =========                 |
  \\      /  F ield         | OpenFOAM: The Open Source CFD Toolbox
   \\    /   O peration     | Website:  https://openfoam.org
    \\  /    A nd           | Version:  11
     \\/     M anipulation  |
\*---------------------------------------------------------------------------*/
FoamFile
{
    format      ascii;
    class       surfaceScalarField;
    location    "0.14";
    object      phi;
}
// * * * * * * * * * * * * * * * * * * * * * * * * * * * * * * * * * * * * * //

dimensions      [0 3 -1 0 0 0 0];

internalField   nonuniform List<scalar> 
1652
(
1.706212168242967
0.533738165450848
0
1.172474002795967
0.5337381654144551
1.787459069646502e-13
0.6387361061386354
0.5337355943367759
-1.434408147815702e-13
0.5331958615040266
3.699263118051022e-13
0.1050079207796069
1.706212168246044
1.067476330897487
1.172474002818037
1.067476330691365
0.6387366080098639
1.067466532081644
1.06451712492049
0.1055354537543753
1.706212168254443
1.601214496347643
1.172474003391787
1.601214492572391
0.6387383123266476
1.6011803057802
1.59170546136902
0.1065733556281075
1.70621216825573
2.134952661796789
1.172474001004027
2.134952662664047
0.6387391221804801
2.134830842665186
2.115478543435683
0.1047590527531345
2.651191215273227
1.723711780227197
3.167429768743628
1.723711780223373
3.683668321436222
1.723711780314471
1.723711795735501
4.199906765259472
2.651191213171978
1.207473229265332
3.167429755804013
1.207473226095781
3.683667575915713
1.207473285260476
1.207473434452945
4.199904503514573
2.651113473788759
0.6907932636965904
3.167534505147426
0.6903427687048644
3.683833487536756
0.6899168196887716
0.6901953703667162
4.199456744953166
2.655592772550474
0.1244243498870515
3.264587003627709
0.05094833891098921
3.886327159535881
0.02835200225284856
4.509085451908796
0.01870666399548071
4.164907560602798
0.03499882275159272
4.129907520057744
0.03499913513822817
4.094904167694719
0.03497286976249381
0.03497352124182318
4.059903685120715
4.164919444855085
0.06995555240370643
4.129989406887671
0.06986295418312999
4.095142062331211
0.06967983041580206
0.06956504492961618
4.06028933054555
4.169858776143665
0.09528607701965014
4.143054914912845
0.09047666521246955
4.118394854339494
0.08591469713294997
0.08115224335223192
4.094161110981403
4.554923891419564
0.009083696560117371
4.595174814823121
0.007199429289410142
4.627725938963112
0.008760260435727529
4.668774918106272
0.005458473797940511
4.672070558229258
0.05761833661112431
-0.07019410417682159
4.621163380692342
0.06875110450094701
-0.0189841439622366
4.573482763092089
0.05991295300434762
-0.009982341765565117
0.04896771711612208
4.530646647749623
-0.007675482390727628
4.127500450394168
0.001788868133357935
4.168319246595155
0.004092921627989243
4.194616904417848
0.006432626237983075
0.007164832816159095
4.198030573356874
4.060956405389133
9.520982127475541e-05
4.062636334447846
0.0002714575158400123
4.06505088906323
0.0005392243958951548
0.0006860197284067615
4.066408955319245
4.05990323528935
4.059901633547052
4.059885248834609
4.059854697298691
4.05982680585148
-0.0006595198682529668
4.05981891673277
-0.0005691716400194613
4.059837600740472
-0.0003991508826250989
-0.0002114819801363188
4.059871114679866
4.066343388361325
-0.006570708530121205
4.065471225936502
-0.005508193842686138
4.063755799600306
-0.004059078020164419
-0.002514288487970306
4.061781555590838
4.188574362228443
-0.03792167655423528
4.169636831980976
-0.02873585919957139
4.144600630140532
-0.02190877001652086
-0.01665007727793844
4.116470605687014
4.477608935236426
-0.004095950236557011
4.417941011320293
-0.001491938028224837
4.355540601748644
-0.001089667040757136
4.292398666918878
-0.001824582316964418
0.01282583254819358
4.230026974727686
-0.002741713168097293
0.001185622505293082
4.089367148788063
7.50848079313915e-05
4.060435623562634
4.059899090932069
0.005900418933955265
4.168897654913028
-6.509388421144235e-05
0.0003171037147489675
4.068630266820222
1.467387900111472e-05
4.05997195087546
4.059908854940166
0.001490036294972796
4.143372440791524
-0.04838627381871136
2.405673394473284e-05
4.063044481082581
1.033008886541786e-06
4.059926394852473
4.059909882949037
0.009073290384640553
4.116070156112579
-0.1495949141905292
9.162942770146731e-05
4.062966394747475
5.048708351051978e-06
4.059934226330706
4.059910464116038
0.09331648606118936
3.96658171372809
0.1863033487439082
3.966695749983813
0.2461308522498524
3.974913448853136
3.983026340431323
0.1087186958297642
0.09327734900063323
3.873255028297592
0.1856524274885593
3.873470711266132
0.2242849254589948
3.888335998006499
3.880848795154846
0.08740295592486169
0.09315406492690648
3.779965118197414
0.1841712707293041
3.780570467456704
0.1874147096659377
3.806847476347091
3.779161062268381
0.05278936250589805
0.0929416766489628
3.686671163403869
0.181527049763795
3.687744039238855
0.1472114186620304
3.726671282912207
3.658084585000765
0.03633906418689914
-0.09437584931655318
3.504824587141587
0.01758942528106977
-0.176942868034788
3.649440109516249
-0.0924805076701678
3.595668396380865
3.593471773847875
-0.04476776057585419
3.34417003836043
0.00384841678144876
-0.1705563489734501
3.568386067161113
-0.09187931863721366
3.503463711488557
3.500232797352228
0.01369981831406242
3.17597987937709
-0.001887736399117657
-0.161473454749391
3.480835556629102
-0.09097593200072723
3.411675774691957
3.407149036307892
0.06016001521370673
3.028328568210295
0.001109877129295556
-0.1486038824438003
3.371785071420229
-0.0896373713336388
3.318837807993421
3.314092500814092
0.1140502418014918
3.195040278912299
0.1836854960034741
3.20015829625414
-0.05977186094683684
3.243368015274838
2.912822243312343
0.03109966102312101
0.1116653511264913
3.076158130494332
0.1777272925066142
3.079503863373011
0.03056402581562889
3.120786606622649
2.898182989802398
0.05121424770971439
0.1128612613819362
2.953836849154459
0.195103194587828
2.958843412967194
0.1420395757440186
3.006398360209221
2.910225210248029
0.1284571091548317
0.1155158457930809
2.836456032726066
0.2151171732352038
2.838892674957604
0.2494362775830373
2.885526396354576
2.895961620891003
0.2583826620544857
-0.2083921666390955
3.038317099457914
-0.445488973943807
3.046296217985872
-0.7362405160961799
3.129042235766319
3.025809636939609
-0.841997836361724
-0.2075884751628777
3.239065809119422
-0.4373710108379543
3.259080184415158
-0.6350919478020598
3.317287621972899
2.774842975827839
-0.2979737863507469
-0.2031064404857727
3.439366100868391
-0.4075914526762676
3.454471101129545
-0.5715810672900041
3.497670424019701
2.404950148754491
-0.05159651850528188
-0.2003283746664386
3.639989948140889
-0.3963806027785509
3.645318406878021
-0.4744129240303342
3.618228811289819
2.171659391448146
-0.02664341771841696
0.1899506939581485
2.118943885074983
-0.01053190070241766
0.1992361667972468
3.653698596474889
0.1046900672132515
3.742514767622721
3.744985111012026
0.1677978615880547
2.061890477808897
-0.007539117648891092
0.1964949428173753
3.672893244096048
0.1046354402740442
3.843401601656939
3.849852620209514
0.1683417357111919
1.998992138246138
-0.002987402299622903
0.1969834252488321
3.700313695653109
0.1047481612538804
3.946282971353077
3.954845841387377
0.158367917792989
1.924151139877226
0.004618223043228183
0.195847330081549
3.744582851233506
0.1047620296288172
4.049597987330698
4.059844193975762
-0.1416960436196918
2.099844146545832
0.06977029864027072
-0.01727555041314766
3.815821693399263
-0.0002867006174305242
4.05497687379685
4.059886632641149
-0.1070477880811272
2.263831447352399
0.09406348774685938
-0.008489158098791916
3.904980126131149
-9.961086211940362e-05
4.058119288229329
4.059904052431342
-0.07874818283169671
2.510696648950612
0.09154781571139362
-0.004139597502963999
3.982986500558292
-3.935283810174717e-05
4.059596454355788
4.059908918204036
-0.05605540738768677
0.1025767424929436
2.775004334297732
-0.001871747570873494
4.008532192777945
-1.52473536898512e-05
4.058933808757484
4.05990908919296
0.6027188351893918
-0.5422123208356675
-0.003933482922292713
5.895728349969431e-12
1.183125074513388
-0.5223800792224944
-1.49080747746666e-12
1.714774274611812
-0.5246596909931456
-7.914113808737966e-12
-0.5249827239548472
-1.123101611710808e-12
0.6021851462688792
-1.047167729535566
-0.005007127442292109
1.183643944396075
-1.042517802442764
1.714789278959227
-1.049327472410209
-1.049966007203388
0.5967337821841946
-1.490707139757476
-0.008319753814106479
1.183821548510211
-1.5640287409272
1.714805271334825
-1.574247224160149
-1.574953023627177
0.594215425456724
-0.01634803484630905
-1.83688588066516
1.184420569910848
-2.079923912086974
1.714833474939536
-2.099336342263341
-2.09994522183844
-0.05605540738617998
-2.510696648946623
0.1025767424927289
2.775004334293603
-0.00187174756703401
-3.982986500558653
4.008532192773577
-1.524735304103686e-05
-4.059596454352775
4.058933808746312
-4.059908918205345
4.059909089191119
-0.07874818283052476
-2.263831447349095
0.09154781571130917
-0.004139597504586479
-3.904980126133367
-3.935284040568199e-05
-4.058119288234744
-4.059904052432832
-0.1070477880817156
-2.09984414654498
0.09406348774703881
-0.008489158102123806
-3.815821693403326
-9.9610862793309e-05
-4.054976873799258
-4.059886632641525
-0.1416960436190252
-1.924151139875268
0.06977029864049196
-0.01727555041429518
-3.744582851241251
-0.0002867006181230813
-4.049597987329244
-4.05984419397521
-0.1046900672069236
3.744985111034484
-3.639989948168131
-0.1992361667853099
3.742514767643586
-3.645318406902124
-0.1899506939523361
3.653698596451574
-3.618228811258857
2.118943885057022
-2.171659391424879
-0.01053190070265714
-0.1046354402655511
3.849852620224198
-0.1964949428041645
3.843401601675672
-0.1677978615821769
3.672893244083665
2.061890477796217
-0.007539117649052206
-0.104748161247119
3.954845841394323
-0.1969834252346663
3.94628297136108
-0.1683417357056431
3.700313695648245
1.99899213823874
-0.002987402299500785
-0.1047620296215703
-0.1958473300669853
-0.1583679177874951
0.004618223043350619
0.4744129240338348
-2.404950148734539
-0.02664341771820333
0.3963806027921922
-3.497670424000291
0.2003283746747427
-3.454471101151193
-3.439366100888591
0.5715810672956589
-2.774842975814765
-0.05159651850451821
0.4075914526906675
-3.317287621962074
0.2031064404936
-3.259080184428159
-3.239065809133267
0.6350919478103516
-3.02580963693489
-0.2979737863494932
0.4373710108526574
-3.129042235761502
0.2075884751691789
-3.046296217992809
-3.038317099465026
0.7362405161036821
-2.895961620890902
-0.8419978363640046
0.4454889739558376
-2.885526396354793
0.2083921666432041
-2.838892674953787
-2.836456032730116
0.1140502418057812
3.19504027892152
-3.314092500826241
0.1836854960120286
3.200158296256665
-3.318837808026851
-0.05977186094329878
3.243368015262138
-3.371785071405801
2.912822243299523
-3.028328568195986
0.03109966102352824
0.1116653511320624
3.076158130501637
0.1777272925133738
3.079503863365773
0.0305640258180726
3.120786606612371
2.898182989794382
0.05121424771011363
0.112861261386583
2.953836849166938
0.195103194589661
2.95884341296131
0.1420395757473722
3.006398360202359
2.910225210243882
0.128457109154867
0.1155158457941608
0.2151171732452362
0.2494362775864398
0.2583826620543089
0.06016001521878456
-3.175979879365624
0.001109877129237935
-0.1486038824444449
-3.480835556607314
-0.08963737133481237
-3.411675774676938
-3.407149036324245
0.01369981831910394
-3.34417003835514
-0.001887736398229256
-0.161473454728051
-3.568386067152279
-0.09097593199179227
-3.503463711468766
-3.500232797355577
-0.04476776057249543
-3.50482458714304
0.003848416781299102
-0.1705563489740905
-3.649440109523606
-0.09187931863678006
-3.595668396395214
-3.593471773852663
-0.09437584931681275
-3.658084585001216
0.01758942528231222
-0.1769428680216017
-3.726671282913828
-0.09248050766322907
-3.687744039229945
-3.686671163402586
0.0933164860609802
3.966581713728791
-4.059910464115744
0.1863033487434457
3.966695749979907
-4.059934226329434
0.2461308522473793
3.974913448851418
-4.062966394747732
3.983026340427979
-4.116070156112423
0.1087186958279895
0.09327734900125118
3.87325502829798
0.1856524274899276
3.873470711272188
0.2242849254624359
3.888335998013982
3.880848795163381
0.08740295592582936
0.09315406492652045
3.779965118198601
0.1841712707285924
3.780570467463155
0.1874147096634018
3.806847476346217
3.779161062268747
0.0527893625054604
0.09294167665000741
0.1815270497661138
0.1472114186620982
0.03633906418617672
-4.059909882948465
-5.048708058286167e-06
-4.059908854940392
-1.033008763307031e-06
-4.059899090932721
-1.467387855924596e-05
-7.508480832640885e-05
-4.059871114680407
-4.0599263948518
-9.162942743451419e-05
-4.059971950874559
-2.405673380290185e-05
-4.060435623561806
-0.0003171037142842281
-0.001185622505877337
-4.061781555591836
-4.063044481082656
-0.009073290385003652
-4.068630266819071
-0.001490036295021535
-4.089367148786792
-0.005900418934144669
-0.01282583254858527
-4.116470605686065
-4.143372440791334
-0.1495949141911885
-4.168897654913255
-0.04838627381855276
-4.230026974727648
-6.50938838632209e-05
-4.292398666918381
-0.002741713168230631
-0.0002114819805766333
-4.05983760074048
-0.002514288488339511
-4.063755799601528
-0.01665007727755002
-4.144600630140705
-4.355540601748189
-0.001824582316730994
-0.0003991508825075263
-4.059818916732235
-0.004059078019632956
-4.065471225936503
-0.02190877001578723
-4.169636831982892
-4.417941011319799
-0.001089667039474662
-0.0005691716395760382
-4.059826805851174
-0.005508193842074183
-4.066343388360545
-0.02873585920050353
-4.188574362230114
-4.47760893523492
-0.001491938029733353
-0.0006595198682913805
-4.059854697298993
-0.006570708530456326
-4.066408955318203
-0.03792167655321382
-4.198030573358648
-4.530646647749252
-0.004095950235852186
-9.520982388733223e-05
4.059903235281745
-4.05990368510874
-0.001788868139127209
4.060956405377033
-4.060289330530771
-0.05761833661474386
4.127500450406949
-4.094161110999281
4.672070558238942
-4.668774918118596
-0.07019410417649946
-0.0002714575184084023
4.059901633540128
-0.004092921632976809
4.062636334439697
-0.06875110450441868
4.168319246604841
4.62116338069838
-0.0189841439620746
-0.0005392243986249712
4.059885248830605
-0.006432626244436523
4.065050889057423
-0.05991295300793981
4.194616904422232
4.573482763093329
-0.009982341766009928
-0.0006860197313643956
-0.007164832822544598
-0.04896771711882392
-0.007675482391014565
-0.08115224335641064
-4.627725938971047
0.005458473797816332
-0.0695650449424744
-4.118394854349333
-0.03497352124555719
-4.095142062323775
-4.094904167685668
-0.08591469713781841
-4.595174814826748
0.008760260435407674
-0.06967983042848575
-4.143054914911317
-0.03497286976472125
-4.129989406891832
-4.129907520040876
-0.09047666521816367
-4.554923891417459
0.007199429289751869
-0.06986295419457134
-4.169858776133101
-0.03499913514169684
-4.164919444867833
-4.164907560601524
-0.09528607702357611
-4.509085451904183
0.009083696559892329
-0.06995555241650669
-4.19945674493161
-0.03499882275474642
-4.199904503538244
-4.199906765258584
-0.6901953703634889
-3.886327159533874
0.01870666399476151
-1.20747343444441
-3.683833487522346
-1.723711795736663
-3.683667575929687
-3.683668321434301
-0.6899168196875212
-3.264587003626265
0.02835200225294054
-1.207473285253044
-3.167534505141545
-1.723711780314332
-3.167429755816806
-3.167429768741778
-0.6903427687047394
-2.655592772549339
0.05094833891089329
-1.207473226092611
-2.651113473785053
-1.723711780224234
-2.651191213176674
-2.651191215272203
-0.6907932636961653
-2.115478543435545
0.1244243498865782
-1.20747322925905
-2.134830842667721
-1.723711780228206
-2.134952662661094
-2.134952661796809
1.706212168246006
0.5337381654478082
1.172474002800067
0.5337381654146649
0.6387361061420498
0.5337355943382704
0.5331958615084182
0.1050079207794723
1.70621216824656
1.067476330893925
1.172474002818531
1.067476330690479
0.6387366080102436
1.067466532083313
1.06451712492385
0.1055354537530689
1.706212168253681
1.60121449634489
1.172474003390021
1.601214492574447
0.6387383123255507
1.601180305781585
1.591705461371932
0.106573355627031
1.706212168252937
1.172474001002043
0.6387391221774468
0.1047590527513546
0.1049584725990728
0.1049584725987831
0.104710641676144
0.1055598339821554
0.1048741839629325
0.1059986382815186
0.1034343195229927
0.1054574295017302
0.1055598339832689
0.1047106416761867
0.1053775989147367
0.1053775989142296
0.1055493380585905
0.1051725775193614
0.09984730602314465
0.1082769309503229
0.1059986382824266
0.1048741839630532
0.1051725775197668
0.1055493380585225
0.1047384243107396
0.1047384243100209
0.09650774392487904
0.1072937056997164
0.1034343195247894
0.1054574295018563
0.09984730602414627
0.1082769309510735
0.09650774392605425
0.1072937056990139
0.09622717396490377
0.09622717396596575
-0.03911154591214799
0.1343217529346902
-0.06499189857368515
0.1319204070302504
-0.09497562010652466
0.1368097519823042
0.1333974081974547
-0.009244307632439497
0.1420732582572501
-0.02007646734962232
0.1414318408878371
-0.03220756976344485
0.1477465740231306
0.1507663508708915
-0.005991879091301333
0.146640403892637
-0.01443835136153332
0.1482693154882642
-0.02151997090835595
0.153231044241709
0.1558128445767499
-0.004299551005498115
0.1500646069863081
-0.01044867108929043
0.1534774908465287
-0.01490656042131505
0.1567168058210024
0.1584515973309685
0.1599366914150655
0.00729969968516947
0.1613812538237589
0.005652543697113432
0.1622103702022104
0.00813887394047863
0.005482049395410582
0.1629692617175427
0.1591270103858857
0.004650084405798116
0.1613206278403212
0.003404375566763485
0.1631141250949994
0.006633925560601717
0.002651137249610691
0.1668322108034699
0.1569138469033541
0.0010989775990079
0.1604672810801968
-0.0001182833315170884
0.1636983369928742
0.003635002828316025
-0.01004687236825785
0.1772196195890393
0.1510103627674091
0.1510085845125477
0.1548173968670043
0.1462759028813583
0.1543067905181504
-0.06089178848202306
0.1457021085437721
-0.008509829836124999
0.1449129022428343
-0.006989502995748159
-0.006580823140430653
0.1458795303635178
0.1551956969539694
-0.04804932089987979
0.1510358564760227
-0.002620306430802466
0.1493359183625449
-0.003200392607259017
-0.003685513641587645
0.1485480688668198
0.1603219006532872
-0.02932587395834579
0.1561788624440622
0.003190259221753033
0.1529068179517332
0.001863037982142518
0.0007936028811673379
0.1504498002952024
0.1186210507716907
0.1231442186109195
0.1263558298632952
0.1290848763002075
0.1467657561903689
-0.003443543659576553
0.1468150322229867
-0.0006745686080440461
0.1465788095341078
6.654649394005618e-05
-0.0007420621902785585
0.1459595340683012
0.1481158014176451
-0.001483320442033587
0.1475688901136769
0.0005905349092068524
0.1469153297150249
0.001311767050052259
0.0003662276831930544
0.1462809914511575
0.1491157365938649
0.001434095669108293
0.1482273635779734
0.002332537357532083
0.1474432403844124
0.002399775096427414
0.00164072091406231
0.1469049883937526
0.132185745533965
0.1354310851758904
0.1377215880255541
0.1395074112669115
0.1453088019659418
-0.001890973736916934
0.1449235914680002
4.240785827852589e-05
0.1482021649381245
-0.05826503388683346
-0.1356087588126738
0.126419256316128
0.1458154988584923
-0.0006087937619231876
0.145293045307918
0.0002211241440822631
0.1441433187522479
-0.06489637348675437
-0.1004106011948174
0.1038427902132156
0.1466344568694663
0.000764007392995536
0.1458084629482913
0.0008655707838018389
0.1247346007881448
-0.0511250574832417
-0.054057803144693
0.07540689059946711
0.1415821289950201
0.142111647835719
0.08236907186971015
0.02538209416301081
0.138056091574573
0.09193327296998466
0.1410113699650815
0.08098113916362393
0.1447905978930417
0.04656311605107755
0.03061728431484412
0.1479660345068588
0.1292653645216562
0.0629748824505123
0.139009996028769
0.06842727893915235
0.1445085284985956
0.03905649482402007
0.0249332332511496
0.148152063304369
0.1057726641573994
0.02909045817184241
0.1283032538262135
0.04266089960677877
0.1395767896838179
0.02607543330170137
0.01637813002696387
0.1468247587891456
0.05178023976257359
0.09127120236683732
0.1156023671903825
0.1307698223496325
0.147576202095665
0.01454217897985988
0.1466868324893274
0.003390706295487433
0.1465663988849911
-0.001030931434413795
0.0005173060553445019
0.1484029633841899
0.1479443875109595
0.01199807651756113
0.147630057756083
0.002859882748249998
0.1480766667252375
-0.000382637825055876
0.0002422379770367078
0.1507968385035739
0.1477741635448466
0.008607019467975596
0.1478589742194154
0.00238586431172827
0.1489068523454864
1.313038859063198e-05
0.0006781317466305614
0.1519448387801228
0.1370386199507893
0.1390750796368233
0.1405712591568236
0.1447696355280807
0.1606159212529319
0.01890997452410503
0.1772307436489245
0.03920367178271
0.2038131309938132
0.1082784823635661
0.2069203149398381
0.2568670214028884
0.1620478146232364
0.01047208060995053
0.1771425767765377
0.02932514055562008
0.2049195200710895
0.0874288476258146
0.1397887859748201
0.2750570688895455
0.1612853152791627
0.005950242961946461
0.1759579898589798
0.02105484043036376
0.208712909087313
0.06053004371313342
0.04070164428820688
0.313265270031389
0.1552554049586047
0.1827591473659189
0.2496642543368636
0.2958300450046042
0.1385271397184594
-0.7189465078037294
0.01891095666849855
-0.1753750912555561
0.001415904127451312
-0.02842152851430525
-0.01860923775012222
0.0005348763534639093
0.09992560719402968
-0.5402595527050008
0.007103016203209197
-0.08053516887205765
-0.002847124719241089
-0.01320477366334975
-0.01166091614726295
-0.003638861290723829
0.05236751103800253
-0.2772264968532276
0.0009559128024172591
-0.02735579506379303
-0.004670146388696895
-0.003476320260089538
-0.005763220592090827
-0.005202238033692456
0.02015430119474288
-0.004818829986898635
-0.004379362255370296
-0.005430020660249902
0.002293023728275117
-0.008670643019322667
0.002481772989103671
-0.005148193215752925
0.002354258338790334
-0.001447208539590912
0.002061444969266524
0.005355376770000128
-0.002678774855184068
-0.006330091159873132
-0.001445217094644055
-0.003779665044130603
-0.0007587163105322418
-0.0009809554118644856
0.0006035048431616633
0.0007363133631445203
-0.004758911416164645
-0.00356467606717082
-0.003424971331181626
-0.002349909632898869
-0.002460423943749356
-0.0006561082204496888
0.0009960935761437612
-0.003823480376545462
-0.005190159033862711
-0.004334372468404121
-0.004234517320499037
-0.004486296624266924
0.03474875343988019
0.03980289162927333
0.05871381558857505
0.07146335070242882
0.08077461407797726
0.07362810098393768
0.08631385338065693
0.1034346666299015
0.01960947520244746
0.01807759167808955
0.04538117082900152
0.04430248181977467
0.06806868000794873
0.0522781290291819
0.06348456154281829
0.094725871063193
0.006358282567238714
0.004217826614196937
0.02919073136509221
0.01825252834550878
0.0526688603761576
0.02888205124203599
0.04034267294977356
0.0808965161070081
-0.004296371031214309
0.009001395613624744
0.03504357241857479
0.07617275472539524
0.08523190442783196
-0.08446081667107823
0.1041652443780732
0.06755828306180571
-0.0786475726021425
0.09556710458802302
0.04353391733743578
-0.06799778791928342
0.09204567963416575
-0.04333901215814508
0.02129233315232367
0.0645345154863541
0.07305997045362532
-0.06305810926207345
0.05334860977921445
-0.05605168718150314
0.02997878315524123
-0.03943620880002873
-0.0230612934211228
0.009593462744672522
0.0595415427431492
-0.03941206226623951
0.03610453711340516
-0.02941700296601888
0.01411411091415436
-0.01580764380324281
-0.007134812323629721
-0.0007868642332021156
0.03739168959018313
0.009314493999741061
-0.004105084642216913
-0.008392068524185441
-0.00832958712833979
0.001749255121019349
-0.006297878531922881
-0.0007546381873962012
-0.00360419396060125
-0.002124666072295688
-0.002774485363408099
-2.113587083130142e-14
-0.003358965431949218
0.00544209075823833
-0.002730414022071775
-0.0006867460282623458
-0.001106325239783434
-0.003659846696948486
-0.004272468332848974
-2.099709295322327e-14
0.005815133888004191
0.009501121392763672
0.003884504062787023
0.001497411658416097
0.001978119392254347
-0.001465242217443392
-0.001895556763675938
-2.071259830316308e-14
0.01562437061428428
0.01006486686350231
0.004696633912027542
-3.358424649491099e-15
-0.002774485363416263
0.003604193960563287
-0.004272468332868505
0.001106325239737423
-0.001895556763720385
-0.001978119392268531
-0.004696633911946274
0.003933482922160548
-0.002124666072296146
0.006297878531885001
-0.003659846696950464
0.002730414022037643
-0.001465242217437462
-0.003884504062800935
-0.01006486686350636
0.005007127442390139
-0.000754638187391167
0.008329587128309036
-0.0006867460282542516
0.003358965431925605
0.001497411658437545
-0.005815133888026104
-0.01562437061433764
0.008319753814192209
0.00174925512102669
0.008392068524166615
0.00544209075824801
0.0007868642331742629
0.009501121392782126
-0.009593462744703608
-0.02129233315237961
0.01634803484636494
-0.04353391733741641
-0.04333901215815152
0.06453451548635983
-0.06755828306179575
-0.06799778791931191
0.09204567963407913
-0.08523190442779137
-0.07864757260213581
0.09556710458800144
-0.08446081667104756
-0.103434666629821
0.1041652443778625
-0.02997878315526127
-0.02306129342113121
-0.05334860977924067
-0.03943620880003433
-0.07305997045362489
-0.05605168718150894
-0.06305810926207932
-0.09472587106315268
-0.01411411091416662
-0.007134812323634603
-0.03610453711342893
-0.01580764380324874
-0.05954154274316226
-0.02941700296603202
-0.03941206226625894
-0.08089651610700545
0.004105084642199504
-0.009314493999778982
-0.03739168959021889
-0.07617275472543808
-0.03504357241862568
-0.04034267294973738
-0.009001395613661291
-0.02888205124205877
0.004296371031219604
-0.01825252834559243
-0.004217826614234851
0.004486296624261858
-0.05266886037617864
-0.06348456154275761
-0.02919073136514711
-0.05227812902920524
-0.006358282567260905
-0.04430248181991811
-0.01807759167819133
0.003823480376531182
-0.06806868000795771
-0.08631385338052457
-0.04538117082905457
-0.07362810098389942
-0.01960947520248012
-0.07146335070259119
-0.03980289162944624
-0.0007363133631595915
-0.08077461407796586
-0.05871381558860081
-0.03474875343990047
-0.005355376769954203
-0.002354258338751469
0.002061444969379371
-0.002481772989041987
-0.001447208539481631
-0.00229302372826256
-0.005148193215854927
-0.008670643019521342
-0.0005348763534852499
0.0007587163105393542
0.0006035048432480594
0.001445217094677428
-0.0009809554117649541
0.002678774855215929
-0.003779665044189175
-0.006330091160017239
0.003638861290707288
0.002460423943764788
0.0009960935762016038
0.003424971331212164
-0.00065610822040571
0.00475891141622951
-0.002349909632949718
-0.003564676067235394
0.005202238033690212
0.00423451732051899
0.004334372468437205
0.005190159033914432
0.005430020660258848
-0.001415904127368924
-0.01860923775005904
-0.0189109566679375
-0.02842152851404167
-0.1385271397173883
-0.1753750912547644
-0.7189465078046973
-0.2568670214030119
0.002847124719258741
-0.01166091614727655
-0.007103016202997757
-0.01320477366326276
-0.09992560719327724
-0.08053516887179339
-0.5402595527052017
-0.2750570688894626
0.004670146388669437
-0.005763220592105198
-0.0009559128023323669
-0.003476320260074821
-0.05236751103769845
-0.02735579506372544
-0.2772264968532676
-0.3132652700312061
0.004379362255359528
0.004818829986928944
-0.0201543011946548
-0.2958300450045263
-0.2038131309937776
0.2069203149395794
-0.1772307436488362
0.1082784823635109
-0.1606159212529276
0.03920367178295348
0.01890997452435406
-0.1484029633841879
-0.2049195200709794
0.139788785974731
-0.1771425767764614
0.08742884762570768
-0.1620478146232107
0.02932514055576874
0.01047208060990923
-0.1507968385036156
-0.2087129090871498
0.04070164428821799
-0.1759579898588441
0.06053004371299042
-0.1612853152791554
0.02105484043050654
0.005950242961953678
-0.1519448387801977
-0.2496642543366923
-0.1827591473658718
-0.1552554049586587
-0.1447696355282245
-0.1465663988851822
0.0005173060553270714
-0.1466868324893421
-0.001030931433844917
-0.1475762020958173
0.003390706295426704
0.01454217898088339
-0.1479660345068703
-0.1480766667254825
0.0002422379770901095
-0.1476300577561335
-0.0003826378246115647
-0.1479443875111038
0.00285988274840554
0.01199807651827767
-0.1481520633044353
-0.1489068523456374
0.0006781317467107195
-0.1478589742194233
1.313038882155837e-05
-0.1477741635449804
0.002385864311956309
0.008607019468362953
-0.1468247587891589
-0.1405712591569853
-0.1390750796368024
-0.1370386199505912
-0.130769822349081
-0.1447905978930263
0.03061728431416955
-0.1410113699652323
0.04656311605079677
-0.1380560915742105
0.0809811391642854
0.09193327296852849
-0.1264192563161451
-0.144508528498572
0.02493323325037977
-0.13900999602885
0.03905649482393181
-0.1292653645212326
0.06842727893950529
0.06297488244926153
-0.1038427902130966
-0.1395767896837371
0.0163781300262732
-0.1283032538262531
0.02607543330169748
-0.105772664157098
0.04266089960700159
0.02909045817119815
-0.07540689059963412
-0.1156023671905519
-0.09127120236696896
-0.05178023976228729
-0.02538209416329056
-0.1482021649381503
-0.1356087588133031
-0.1449235914680969
-0.05826503388656123
-0.1453088019659943
4.240785842501982e-05
-0.001890973737100232
-0.1459595340682661
-0.1441433187522937
-0.1004106011951995
-0.1452930453080339
-0.06489637348634242
-0.1458154988584948
0.0002211241440826517
-0.0006087937620854467
-0.1462809914511811
-0.12473460078854
-0.05405780314482539
-0.1458084629484091
-0.05112505748302648
-0.1466344568694799
0.0008655707837257887
0.0007640073928555924
-0.1469049883938121
-0.08236907187010738
-0.1421116478358092
-0.1415821289950931
-0.1395074112671201
-0.146578809534045
-0.000742062190218773
-0.1468150322230006
6.654649506787624e-05
-0.1467657561905286
-0.000674568608929671
-0.00344354365919769
-0.1458795303634367
-0.1469153297150879
0.0003662276832054334
-0.1475688901136606
0.001311767050827028
-0.1481158014176495
0.0005905349086109402
-0.001483320441758695