/*--------------------------------*- C++ -*----------------------------------*\
  =========                 |
  \\      /  F ield         | OpenFOAM: The Open Source CFD Toolbox
   \\    /   O peration     | Website:  https://openfoam.org
    \\  /    A nd           | Version:  11
     \\/     M anipulation  |
\*---------------------------------------------------------------------------*/
FoamFile
{
    format      ascii;
    class       volScalarField;
    location    "6.975";
    object      p;
}
// * * * * * * * * * * * * * * * * * * * * * * * * * * * * * * * * * * * * * //

dimensions      [0 2 -2 0 0 0 0];

internalField   nonuniform List<scalar> 
4455
(
5895.016
5903.3698
5919.9494
5947.1701
5987.5925
6041.6297
6115.8572
6218.6311
6382.9587
5944.1095
5948.2068
5962.1461
5987.7368
6028.9854
6088.4658
6170.322
6285.458
6454.6687
5987.0079
5988.0784
5999.7733
6024.4165
6066.6469
6129.1522
6213.4788
6333.9247
6497.1335
6023.2688
6022.6192
6032.4383
6056.7622
6100.5547
6166.8164
6256.7657
6388.4103
6559.7072
6053.3009
6050.8902
6060.2133
6084.7837
6130.6863
6201.6962
6299.7583
6445.3582
6620.4102
6076.892
6073.8955
6083.2903
6108.2635
6156.9431
6232.8654
6340.6702
6502.7541
6686.8563
6094.4414
6092.2422
6102.1331
6127.3507
6178.8028
6259.4253
6377.3971
6561.2245
6756.7692
6106.4136
6106.5675
6116.4158
6142.2012
6196.1575
6281.7884
6408.9798
6621.5146
6833.9649
6113.8199
6116.3156
6126.1701
6153.8445
6209.3484
6300.4063
6435.2077
6683.0685
6924.1339
6117.3394
6117.7922
6115.8801
6112.5001
6108.5913
6104.7777
6101.4824
6099.0855
6097.8018
6121.7496
6123.7508
6123.2294
6120.8163
6117.0204
6112.3384
6107.1977
6102.0726
6097.0936
6132.6059
6135.7078
6135.9495
6133.9216
6129.9922
6124.5938
6118.1093
6111.2328
6104.5097
6162.7003
6167.4274
6168.2793
6166.193
6161.6117
6155.0879
6147.0103
6137.7281
6127.5604
6219.1998
6224.912
6226.8002
6225.2875
6220.616
6213.492
6204.3046
6194.0851
6183.6216
6317.8839
6331.7959
6340.6386
6343.8646
6341.7524
6334.4384
6322.7741
6308.2815
6292.3703
6460.183
6481.9032
6501.5042
6516.7452
6523.9726
6522.9577
6514.0228
6499.3508
6480.8725
6755.9371
6827.7314
6878.9311
6910.3179
6921.1268
6915.9621
6898.2164
6872.8396
6841.8312
7066.9496
7290.5012
7454.2346
7489.8895
7464.0551
7414.5645
7345.9548
7262.4288
7169.9226
6097.7155
6096.6997
6094.9683
6092.8467
6090.3189
6087.2976
6083.5761
6079.1316
6073.7349
6093.5037
6090.6341
6087.8092
6084.7158
6080.9102
6076.2743
6070.7218
6064.1515
6056.4081
6100.4156
6099.33
6097.9508
6095.8254
6093.1672
6089.3072
6084.144
6077.9381
6070.6385
6118.8803
6115.8435
6115.4635
6115.4033
6114.6243
6112.6363
6108.9867
6103.4957
6096.1924
6174.986
6175.7099
6179.5184
6183.1036
6184.9761
6184.8455
6182.2824
6177.3377
6170.3891
6280.5001
6281.5246
6287.4054
6293.1598
6295.953
6294.9819
6290.2846
6282.6879
6272.8468
6465.9628
6466.9391
6473.5169
6478.1328
6477.8178
6472.7741
6462.5478
6448.4341
6432.6799
6811.9943
6790.6183
6770.2661
6745.3637
6714.8806
6679.0267
6638.0203
6594.6659
6552.3103
7089.4889
7018.4266
6945.5955
6870.2663
6791.0281
6711.6863
6639.0849
6572.7786
6513.807
6474.0015
6439.0519
6421.1938
6428.9921
6461.9472
6515.1771
6580.4306
6651.4253
6726.8289
6515.1266
6484.5577
6459.8201
6440.516
6426.4544
6418.1948
6414.8545
6416.7378
6423.8858
6416.1224
6400.4473
6386.6618
6374.3363
6362.3628
6349.9688
6337.2345
6325.6891
6316.3646
6261.6348
6250.5551
6238.8021
6226.048
6212.4506
6198.1418
6183.1625
6167.1431
6150.0141
6161.8022
6152.8306
6143.0049
6131.9217
6118.9711
6104.0082
6087.2002
6068.4669
6047.8493
6087.359
6077.4146
6066.3889
6054.5566
6040.1979
6024.3532
6007.2061
5987.9888
5966.2488
6062.178
6052.5029
6041.2971
6028.0629
6013.3718
5996.7716
5978.2075
5957.3242
5934.4664
6047.3965
6037.0429
6025.2995
6011.9368
5996.6675
5980.5152
5961.8346
5939.8276
5916.2389
6067.1048
6058.659
6049.0343
6038.1537
6025.3778
6011.1023
5994.7306
5976.1146
5955.2581
5932.5386
5907.2093
5878.1477
5845.6995
5809.8142
5770.2415
5727.1388
5680.276
5629.0934
5890.9317
5862.1181
5830.1074
5795.6043
5758.123
5717.2078
5671.7773
5623.7539
5572.3458
5909.712
5882.633
5852.725
5820.3918
5784.3933
5745.9749
5705.4086
5660.1364
5611.2588
5942.1376
5916.949
5888.1871
5856.8929
5823.5769
5786.9872
5747.7931
5705.6182
5659.4523
6025.6148
6001.9383
5976.8508
5949.9623
5921.2514
5890.4457
5857.1874
5821.3517
5782.4893
6131.8786
6112.9608
6093.6113
6073.8449
6053.3787
6031.2949
6007.4282
5980.8375
5951.3182
6309.7715
6304.6965
6299.8038
6294.6695
6291.0417
6287.9994
6283.8562
6277.5578
6269.4779
6435.2429
6451.5603
6471.9045
6494.1699
6518.3659
6539.8473
6560.7276
6580.3832
6589.7845
6806.6695
6887.0187
6971.2787
7059.5046
7143.6481
7235.8325
7331.5441
7411.7155
7509.956
7589.0771
6594.7924
6257.1541
5917.8998
5739.9998
5608.6033
5559.7327
5516.3166
5573.2606
7602.6442
6590.9202
6239.847
5880.3529
5693.9303
5553.7184
5503.7779
5455.3752
5512.1792
7614.6867
6549.5723
6219.8746
5837.7612
5643.6415
5494.0791
5443.2735
5390.904
5445.9469
7572.2569
6488.5556
6190.8996
5789.5973
5588.4914
5431.0566
5378.4677
5321.7021
5374.2681
7465.4764
6442.1029
6151.4296
5735.6109
5527.7022
5360.5461
5307.66
5247.6915
5297.0876
7410.4776
6434.8526
6107.3126
5674.5181
5460.8611
5284.0823
5233.7517
5168.0789
5213.9068
7489.4378
6450.8659
6057.9779
5605.7389
5387.4406
5205.1757
5153.0448
5083.7753
5125.8342
7643.8952
6471.9785
6006.2852
5528.849
5306.9656
5117.4498
5065.5354
4994.5086
5032.1137
7753.4691
6479.9714
5949.8644
5443.4544
5218.3628
5020.1388
4973.3892
4900.4057
4934.8063
4838.5631
4800.1466
4872.2574
4916.6249
5117.43
5345.1031
5878.6791
6473.8012
7884.7571
4743.5922
4694.7448
4762.0766
4805.5954
5001.7463
5227.3304
5773.1835
6407.6519
7901.7688
4629.4147
4583.1802
4644.7897
4683.6616
4872.2231
5088.7261
5633.7832
6281.8257
7761.1105
4500.7619
4465.4565
4519.5916
4551.4263
4729.5695
4931.4985
5466.1461
6110.971
7550.0785
4361.8698
4340.2027
4387.1062
4412.3397
4574.7922
4759.0996
5277.7026
5921.4072
7321.8094
4218.9026
4209.6709
4248.4943
4267.0595
4410.1857
4574.9799
5070.8196
5707.7869
7058.2688
4070.0857
4072.624
4100.6669
4114.1246
4236.0564
4379.223
4846.9587
5472.4913
6790.4904
3918.7252
3931.9362
3950.0025
3955.4126
4053.7944
4173.2996
4606.9239
5213.8746
6507.1465
3762.8457
3787.7903
3797.8565
3792.5099
3864.7543
3956.5726
4351.9902
4931.818
6210.1665
5906.0634
4627.1694
4082.4515
3730.3678
3671.2309
3626.2775
3639.1553
3642.4223
3604.7835
5592.0389
4302.5984
3795.9165
3495.6181
3474.1167
3457.643
3480.1824
3494.8076
3442.3171
5259.4752
3955.426
3497.7713
3252.959
3274.036
3287.4909
3323.6044
3345.0183
3281.6958
4917.3861
3587.0833
3188.2572
3011.0393
3077.2327
3119.2621
3163.8433
3195.5079
3119.7485
4552.1797
3196.3017
2871.9171
2768.0553
2880.7605
2953.623
3009.588
3048.9054
2961.6046
4168.6674
2783.6294
2547.2341
2528.0484
2689.7158
2793.8427
2861.9402
2902.6129
2803.989
3754.3061
2348.5874
2223.6601
2298.6726
2511.1268
2640.0448
2713.7557
2760.0014
2651.2565
3313.9018
1896.3524
1906.4412
2084.1193
2340.4992
2495.1931
2570.9822
2621.0565
2500.6677
2833.4715
1427.2088
1601.2825
1884.2508
2183.0868
2359.5794
2439.8876
2486.6254
2358.9033
2220.4155
2354.5779
2316.8125
2234.0177
2041.8659
1700.5859
1301.5467
917.68435
2261.4438
2085.0608
2227.2886
2194.3953
2121.5709
1919.7875
1549.1306
1034.4055
368.756
1533.2249
1946.2897
2104.5408
2080.6828
2023.1158
1821.0371
1431.5548
826.65636
-144.50347
683.48861
1811.1333
1984.7533
1975.5476
1934.3057
1742.341
1352.5311
694.3836
-584.8888
-331.94563
1673.4262
1864.6246
1873.3682
1855.0007
1683.4288
1311.8892
652.62403
-881.87828
-1564.629
1541.8049
1744.9318
1772.922
1785.6364
1643.3553
1301.7008
705.03546
-998.00391
-2977.7927
1405.4083
1622.5067
1677.3875
1718.1696
1613.5445
1314.559
824.80769
-881.71396
-4527.1303
1276.9683
1497.0643
1576.3404
1649.8494
1593.4003
1331.1763
989.90028
-475.10034
-5772.3958
1085.0625
1369.4963
1474.425
1581.3742
1582.268
1339.4261
1126.6173
257.85792
-6531.4203
881.72418
1238.4792
1362.537
1503.6196
1548.7611
1317.3767
1191.1671
978.26959
-7163.529
703.17619
1108.9234
1245.9016
1424.7553
1480.9447
1287.0487
1158.6367
605.74583
-8669.0582
549.74346
975.8903
1125.9083
1346.7583
1408.1069
1263.1001
1065.0033
27.492654
-10846.431
401.96038
841.18291
1007.7916
1268.4255
1336.6615
1254.2707
1009.2217
-634.8058
-10984.813
252.07115
703.80778
891.71104
1196.594
1285.5366
1270.2817
987.6574
-1551.1061
-8827.1446
96.809578
559.54703
770.84248
1124.132
1260.7923
1280.8514
1028.0786
-2422.4197
-8255.5746
-58.079403
409.58268
640.67288
1042.7795
1253.4489
1301.1743
1060.2291
-3259.4068
-9109.6606
-212.85485
255.66868
501.73364
946.58658
1254.5093
1341.781
999.82533
-3887.5113
-9672.6089
-358.65613
94.637319
352.36343
830.46206
1251.7088
1410.3387
964.3503
-4055.4941
-9966.0854
-9918.3284
-3956.9852
959.92052
1505.4247
1240.1115
702.21311
202.12086
-67.209552
-496.37723
-9798.6394
-3938.7413
1007.2488
1592.4354
1213.998
566.41383
52.897999
-226.11626
-620.40457
-9686.2794
-3970.5291
1074.5387
1689.185
1168.7374
412.34201
-101.03983
-384.48349
-730.25939
-9515.3748
-4005.1917
1120.649
1779.4501
1099.6985
239.42051
-257.15718
-540.50509
-829.44044
-9393.5506
-4053.5172
1150.6692
1858.9894
1007.5572
54.269351
-410.83987
-691.06091
-915.0798
-9223.4765
-4076.1837
1195.4554
1939.2302
898.9226
-137.77819
-562.78025
-833.60286
-975.19343
-8921.479
-4117.4265
1136.9945
1992.2778
762.39316
-340.03456
-712.90167
-969.47945
-1022.208
-8589.7731
-4237.1555
1093.1091
2023.4662
601.21338
-550.49979
-862.6078
-1093.8366
-1063.559
-8268.5785
-4389.1724
960.64223
2026.9363
422.3077
-764.59017
-1010.193
-1204.9841
-1087.6393
-7981.9109
-4197.4365
754.30428
2024.3796
78.822882
-1133.0256
-1246.8567
-1365.9142
-1104.8153
-7725.1079
-3825.2835
991.53635
1857.5074
-628.50429
-1650.1649
-1524.7119
-1504.9798
-1028.1268
-7603.9401
-3549.8409
694.64933
1581.7448
-1435.8759
-2138.8936
-1751.8042
-1536.4302
-875.44676
-7677.5172
-3302.785
587.01813
1272.7733
-2292.3168
-2538.4475
-1886.6344
-1459.2981
-686.14551
-7658.0238
-3033.062
202.2747
912.75005
-3175.788
-2803.7937
-1917.238
-1277.4988
-482.0767
-7695.5604
-2813.7994
-277.63541
472.74866
-4077.0835
-2925.3464
-1818.9683
-1047.4985
-298.20532
-7831.471
-2602.1202
-688.48964
63.17233
-4948.0023
-2887.3138
-1660.438
-802.37439
-120.86794
-7892.2037
-2520.3898
-928.38097
-579.37494
-5735.3148
-2697.8572
-1455.6449
-533.72852
-19.441534
-7790.0024
-2355.1193
-977.96006
-1078.4079
-6363.4289
-2335.4017
-1260.7994
-324.53334
17.877682
-10421.929
-9470.7743
-7144.6866
-5377.6129
-4346.3592
-4573.2011
-2898.8656
-1579.7759
-31.780881
-10340.459
-9231.4399
-7008.4026
-5413.3514
-4763.3169
-5074.9483
-3189.247
-1645.8614
-141.09278
-10251.15
-8980.55
-6849.2318
-5410.463
-5177.4836
-5511.2901
-3425.3467
-1682.2768
-233.08777
-10157.65
-8716.4904
-6657.9282
-5368.2906
-5567.2642
-5867.4006
-3605.5897
-1683.0473
-309.72795
-10057.149
-8442.0897
-6434.8738
-5274.8862
-5924.5889
-6136.466
-3721.7888
-1639.876
-380.34171
-9955.195
-8156.5922
-6193.4651
-5139.7326
-6245.4985
-6305.462
-3767.3256
-1546.9317
-448.43906
-9848.3582
-7860.688
-5927.3308
-4972.0833
-6525.6739
-6367.1226
-3744.9289
-1406.6152
-515.66084
-9721.1044
-7560.8747
-5626.3092
-4781.9072
-6763.5569
-6321.7819
-3658.9006
-1225.5595
-583.27886
-9578.5667
-7249.5024
-5312.9882
-4584.8361
-6949.5998
-6171.4665
-3511.3683
-1025.736
-626.98785
-11222.105
-13855.956
-5274.5246
-738.51217
841.32305
1538.1269
2540.7349
3077.2483
2520.4595
-11676.115
-14134.647
-6060.4698
-1166.8898
659.85181
1420.2508
2349.4898
2919.3948
2877.0015
-11529.6
-14361.096
-6836.7839
-1749.526
457.11011
1294.5185
2141.0885
2804.3391
2964.2988
-11650.986
-14523.479
-7549.7461
-2424.8934
178.68594
1155.8629
1870.1929
2574.8073
2955.0554
-11966.643
-14616.37
-8178.4392
-3147.2576
-210.71962
934.64353
1623.4526
2388.5985
2808.8998
-12481.422
-14669.781
-8732.6241
-3850.2362
-662.03201
696.37443
1398.8512
2074.8877
2621.4254
-13172.129
-14709.835
-9219.6492
-4535.8841
-1209.5766
406.95984
1178.2517
1810.4588
2385.9215
-13791.582
-14717.627
-9625.3404
-5109.3185
-1775.1761
36.068253
937.40243
1532.9191
2166.0848
-13955.591
-14663.757
-9967.3732
-5531.8217
-2230.4139
-332.32302
677.15146
1242.5188
1943.4358
771.14142
-98.8636
-439.80956
-1625.1249
-3126.6845
-5585.0083
-9125.4904
-13631.916
-12836.008
937.9552
39.877612
-333.59798
-1530.2224
-3120.8871
-5702.0432
-9411.5347
-13840.277
-12913.578
1081.1917
183.65024
-218.19214
-1413.6334
-3077.679
-5771.4092
-9643.4655
-14015.745
-12977.517
1208.4462
328.02052
-99.075052
-1283.691
-3010.9359
-5811.5865
-9831.93
-14153.462
-13040.536
1331.508
469.28465
21.755204
-1145.4226
-2928.4614
-5833.1852
-9986.2289
-14303.312
-13110.509
1450.5997
608.69252
140.54264
-1010.6219
-2838.9744
-5844.9156
-10107.43
-14424.045
-13208.324
1565.1649
745.28661
255.8613
-872.18849
-2742.9257
-5845.5182
-10201.434
-14541.652
-13399.665
1674.587
880.05324
369.65006
-736.28285
-2635.1332
-5826.2307
-10270.04
-14624.096
-13679.36
1778.3618
1014.302
481.84222
-593.80687
-2516.7296
-5773.3891
-10299.452
-14752.9
-13906.716
-12724.042
-13354.183
-8706.3306
-5395.5836
-3093.8628
-1698.4158
-541.6479
-233.63818
589.01148
-12782.096
-13253.964
-8099.6418
-5140.1044
-3039.5678
-1757.4577
-645.56254
-359.87998
420.11739
-12391.541
-12756.883
-7452.4442
-4872.7671
-2973.7159
-1798.0319
-741.34322
-478.26992
270.75743
-10612.321
-11516.608
-6840.5567
-4583.4448
-2889.9012
-1818.6818
-830.47939
-587.24035
124.52661
-10321.965
-10160.99
-6273.3579
-4290.986
-2782.9678
-1817.5742
-902.56966
-683.34976
-24.424343
-12171.666
-8923.6849
-5700.9337
-3996.0662
-2674.3529
-1798.634
-962.55372
-763.80634
-169.31194
-13545.509
-7746.2505
-5081.2738
-3689.4229
-2543.6033
-1767.2974
-1010.1176
-829.16386
-310.53192
-12733.9
-6557.3291
-4472.7929
-3424.166
-2429.6947
-1736.8383
-1067.4851
-886.20126
-429.65488
-11361.585
-5770.1502
-4127.8714
-3250.3426
-2380.0231
-1738.6968
-1140.2083
-939.589
-520.47495
-699.79244
-716.21898
-863.09216
-1098.1628
-1396.844
-1728.1614
-1927.3086
-1686.3938
191.88553
-788.77772
-835.5326
-1009.8883
-1284.551
-1640.259
-2059.1805
-2414.6213
-2429.6403
-580.12546
-849.62331
-926.86799
-1128.8316
-1441.114
-1855.2578
-2358.1854
-2871.3249
-3202.2122
-1445.9541
-878.88855
-991.82613
-1218.8327
-1567.5555
-2036.2732
-2616.5592
-3275.9604
-3962.8476
-2435.7603
-878.73437
-1034.499
-1276.8048
-1662.2865
-2174.9197
-2827.1047
-3616.1732
-4686.5581
-3564.9616
-849.86864
-1055.5852
-1302.7228
-1726.3686
-2278.2906
-2982.584
-3873.6633
-5303.0345
-4904.1482
-793.64844
-1054.7341
-1299.7059
-1763.3798
-2343.3516
-3085.6588
-4027.7819
-5752.7251
-6513.1405
-714.64079
-1031.8686
-1269.3471
-1773.2434
-2373.3109
-3143.6429
-4072.3288
-5966.3995
-8317.6765
-616.36245
-991.29626
-1216.3925
-1762.162
-2378.9796
-3179.7196
-4052.3427
-5883.2216
-9911.805
795.17557
-1029.4141
-1442.3317
-1380.6838
-1131.4874
-893.22199
-696.33987
-573.50828
-578.71485
1302.6638
-446.93109
-982.50138
-1033.7184
-861.37495
-676.2675
-512.66756
-411.88708
-437.68632
1773.196
102.04796
-525.49805
-677.4775
-574.86425
-446.49704
-314.62036
-235.24406
-273.9948
2212.1561
618.15615
-81.298905
-319.66905
-284.64649
-205.14225
-103.61854
-45.988438
-94.222852
2623.9057
1103.1883
352.71364
35.939266
11.658537
41.614258
116.7
154.71671
103.12384
3012.7405
1557.442
766.75776
385.99241
307.9753
291.0513
342.66925
362.07396
310.25454
3381.706
1985.3979
1164.9301
728.10878
601.55988
544.76905
571.85551
574.44724
527.94128
3734.081
2386.6784
1541.2387
1059.222
888.61562
793.64452
804.13804
789.26138
749.5253
4078.1762
2764.7129
1899.6196
1376.0866
1167.7954
1040.666
1033.3873
1005.2371
975.49185
2767.3824
2697.4716
2804.1217
2844.5587
3126.5967
3462.5015
4170.852
5152.9847
6752.9011
2617.7219
2542.3661
2645.9953
2690.7954
2974.3794
3315.2269
4030.7002
5021.3815
6534.6871
2454.2738
2379.192
2476.3929
2524.8052
2802.3076
3138.7644
3841.6847
4814.982
6227.9614
2266.7574
2206.9727
2298.2914
2346.7739
2611.6297
2938.0999
3622.0451
4574.5641
5929.8685
2061.6815
2025.0315
2106.1912
2154.5752
2404.1665
2717.4038
3380.3236
4316.8619
5638.222
1850.7479
1833.9206
1906.7509
1950.8759
2181.6188
2481.2207
3121.5784
4045.6548
5345.5603
1639.081
1635.118
1699.3776
1736.6045
1946.4554
2228.16
2845.4125
3757.448
5044.5901
1423.5442
1428.7129
1483.2863
1513.4623
1699.3535
1959.8968
2551.5772
3449.8058
4734.8825
1200.9305
1219.15
1259.4242
1279.6383
1439.5833
1675.225
2235.1907
3118.7221
4413.1178
2920.3235
3070.4551
3213.3019
3348.6887
3476.4347
3596.5293
3709.7284
3816.1084
3915.7649
2844.8313
2985.5105
3118.8924
3245.2504
3364.8645
3477.896
3584.569
3685.4829
3781.2818
2947.8435
3081.5272
3208.1445
3325.4795
3435.8463
3541.7048
3639.006
3732.5252
3820.8555
2984.7333
3115.8373
3238.0949
3349.844
3455.1906
3552.5098
3643.0686
3728.2949
3808.5973
3257.0473
3370.1264
3473.5335
3566.6748
3652.435
3731.2634
3802.6185
3869.1467
3932.344
3582.849
3682.0923
3769.4648
3844.0133
3908.8838
3965.185
4014.2626
4057.802
4096.5825
4263.4223
4329.3761
4378.1984
4414.188
4439.4752
4456.194
4465.9512
4470.4338
4471.5358
5201.732
5214.9853
5206.3523
5182.0429
5145.4204
5099.6103
5046.7478
4989.2502
4928.4171
6763.3682
6722.4591
6640.1433
6539.7327
6426.6709
6305.6717
6178.3917
6050.1198
5923.531
4009.4898
3871.4379
3902.9932
3883.8443
3989.5962
4132.1847
4469.8439
4866.2729
5796.3057
4097.2604
3957.0155
3982.6569
3956.5872
4044.705
4164.8691
4466.3397
4803.7876
5669.7161
4180.1426
4038.4843
4057.0476
4024.7052
4098.2407
4196.2293
4463.2376
4742.2959
5546.8383
4257.3485
4115.2509
4127.7713
4090.9114
4148.6872
4226.9546
4460.2055
4683.1426
5423.0727
4330.2495
4188.961
4196.0681
4154.2958
4198.3756
4258.0609
4457.9399
4626.9045
5304.0329
4398.3025
4258.2767
4259.8965
4215.294
4247.8734
4289.476
4457.1086
4573.8146
5185.4781
4461.9085
4324.739
4321.9497
4274.5946
4295.313
4321.5859
4459.54
4523.7041
5068.7763
4522.0433
4387.9981
4381.4414
4331.7983
4342.487
4354.2105
4465.7317
4477.3754
4952.7883
4578.5435
4447.426
4437.5298
4387.4133
4389.3478
4387.5205
4476.0362
4436.5879
4836.6094
4933.9581
4855.1728
4832.1097
4806.0321
4789.5312
4743.9432
4747.7796
4483.5219
4178.6558
4901.8319
4820.4026
4797.0012
4767.3094
4747.6713
4702.8586
4704.823
4441.8061
4164.326
4869.1719
4782.9415
4759.5732
4726.0842
4704.8531
4660.4893
4664.3772
4403.7853
4177.6968
4835.9789
4742.5829
4719.9846
4682.8307
4660.9292
4617.623
4626.2743
4374.3633
4221.471
4801.6803
4699.7464
4678.4308
4637.8758
4616.347
4575.2497
4591.0231
4357.73
4291.4401
4764.5819
4654.9191
4634.799
4591.124
4571.1797
4534.2466
4559.175
4354.0853
4384.0575
4724.165
4607.6663
4588.9581
4542.7035
4525.9443
4494.9888
4531.2956
4360.7769
4488.7217
4679.6527
4557.0285
4540.8554
4492.5426
4480.7423
4457.516
4508.1458
4377.0482
4600.127
4631.0782
4503.6125
4490.4429
4440.7452
4434.9979
4421.6881
4489.8414
4402.8039
4718.0443
4198.4322
4527.7908
4794.1472
4784.6788
4831.2196
4842.4611
4865.3271
4886.7343
4960.2103
4248.0707
4580.1977
4843.3015
4825.3579
4872.1744
4877.0013
4896.6108
4915.6303
4980.837
4323.3263
4637.8983
4891.8502
4864.9868
4910.6201
4909.3839
4925.4361
4942.8953
4997.9897
4402.4624
4699.9941
4939.4003
4903.6581
4946.6199
4940.0896
4951.9316
4968.6381
5013.5519
4479.5335
4766.4079
4986.8852
4941.2983
4980.6732
4969.0387
4976.3257
4991.0723
5025.9472
4561.06
4833.2931
5036.2435
4976.9981
5013.2663
4996.0543
4998.8924
5010.4248
5036.9028
4654.2902
4895.9248
5087.9946
5010.7775
5044.9106
5020.9856
5019.9131
5027.3525
5045.2728
4752.478
4951.9381
5138.6175
5044.276
5075.1229
5044.2581
5039.5489
5041.4887
5051.3424
4851.2283
5001.2754
5186.1495
5079.8843
5102.7967
5066.709
5057.7441
5052.6654
5053.6855
4966.3478
5055.7568
5235.4264
5126.2388
5133.5132
5095.5694
5079.2511
5064.1637
5055.2589
5103.5164
5122.0999
5286.842
5185.2404
5175.1993
5136.3381
5111.3502
5084.7718
5064.4822
5255.9225
5192.2916
5337.2316
5241.9073
5218.0968
5178.1161
5145.6178
5110.0016
5080.0556
5427.2013
5267.9388
5390.4864
5300.1991
5263.6424
5221.3466
5182.7979
5139.5044
5101.3314
5619.5756
5351.1724
5446.1427
5359.2285
5311.9126
5266.3587
5222.6696
5173.6233
5128.075
5831.0828
5442.8824
5505.0412
5418.4902
5362.6176
5313.4498
5265.3763
5212.1398
5160.0619
6061.8318
5544.7721
5565.8649
5477.8372
5414.9555
5362.6967
5310.8883
5254.3102
5197.502
6292.4267
5648.4413
5627.2994
5536.8883
5468.7121
5413.7073
5359.1602
5300.1102
5240.3622
6446.5904
5747.7006
5687.153
5595.4394
5523.4584
5466.2112
5410.0357
5349.4092
5288.3324
5840.7287
5853.7464
5875.9551
5907.628
5950.6575
6005.832
6082.6701
6187.0056
6356.3462
5781.8286
5800.1457
5828.488
5866.0936
5912.3053
5971.1961
6054.1028
6169.3204
6391.7314
5718.9091
5743.8007
5779.2027
5821.2224
5870.793
5932.7138
6018.1413
6141.6175
6412.1589
5653.5039
5686.1683
5727.8011
5773.8265
5826.0106
5890.6273
5978.0732
6108.5998
6428.0243
5587.4616
5627.8037
5674.7772
5724.8429
5778.3685
5845.1419
5934.3363
6069.4078
6445.9865
5522.0538
5569.3163
5621.3431
5673.9729
5728.9929
5798.2386
5887.9607
6021.8189
6464.7028
5458.4566
5511.6783
5567.681
5622.0683
5678.3642
5749.6354
5839.3481
5966.6088
6482.0348
5397.8526
5455.3594
5514.3924
5569.9476
5627.1403
5699.8578
5789.3704
5902.8751
6492.5403
5341.0102
5401.2059
5461.8783
5518.3173
5576.0948
5649.3151
5740.0448
5831.5789
6482.5257
6598.3219
6628.7542
6655.357
6680.597
6704.2853
6711.7507
6686.1842
6613.4207
6450.4524
6655.8559
6683.9246
6707.1479
6730.2647
6752.0155
6756.9947
6725.7046
6643.1565
6472.5196
6713.4018
6743.4731
6769.1352
6793.8753
6813.352
6815.445
6781.8591
6682.7162
6496.3232
6789.6964
6821.7058
6849.1847
6875.1121
6895.0534
6893.1415
6857.1956
6740.7173
6532.9452
6875.2233
6914.8819
6948.0412
6975.6427
6997.3022
6994.4789
6953.784
6824.918
6578.7935
6979.5142
7025.474
7070.2756
7107.1737
7134.0577
7134.1424
7084.48
6954.3054
6712.9542
7133.6167
7184.8811
7241.4799
7290.5479
7323.3101
7323.2929
7257.5301
7086.7043
6786.4824
7358.4437
7415.6894
7484.6807
7554.324
7615.9555
7656.4155
7659.6211
7559.9208
7318.1632
7678.8061
7737.2543
7817.3803
7906.5675
7986.4056
8047.1597
8065.6868
7992.235
7591.5374
10821.18
10283.108
9910.7409
9462.0118
9099.7168
8783.6494
8545.1325
8371.2175
8259.0932
9442.2577
9553.8764
9490.4625
9409.0585
9283.0565
9137.8028
8975.7176
8816.7498
8688.3715
9083.2048
9097.8384
9071.3572
9033.0144
8974.4653
8904.0779
8821.565
8726.5976
8629.6132
8671.3704
8719.4487
8696.1572
8689.9374
8662.647
8632.0631
8595.3952
8548.8192
8485.4729
8354.4647
8390.2966
8377.3032
8384.9668
8371.2636
8357.2831
8340.2611
8320.3409
8282.4877
8100.2192
8120.2131
8106.5926
8115.6387
8104.4418
8097.0434
8084.5049
8074.9611
8050.4074
7897.0285
7902.3443
7891.2023
7890.7678
7881.0403
7873.9572
7861.4819
7854.951
7837.3699
7716.4623
7716.6438
7702.419
7702.0508
7688.475
7682.8741
7668.5664
7661.9571
7647.4109
7553.8669
7545.3467
7534.4271
7527.0103
7515.1028
7506.0898
7493.4522
7484.3331
7470.3053
7312.2259
7165.1988
7010.444
6838.1614
6645.7778
6412.0905
6135.9127
5795.469
5543.5806
7325.4251
7176.6765
7019.5416
6844.7109
6645.2823
6407.2607
6122.1787
5787.7025
5487.2674
7331.8626
7182.6191
7021.0913
6843.973
6636.0394
6394.0023
6095.7935
5760.7775
5410.6523
7344.4314
7191.6662
7029.3761
6846.814
6636.2667
6384.647
6077.0297
5719.7717
5318.7298
7351.1406
7199.0413
7033.5899
6851.0486
6635.3158
6379.0283
6058.9036
5671.8025
5221.1984
7364.4756
7208.4332
7043.6511
6857.1311
6638.6889
6377.5606
6045.4034
5625.6091
5123.7563
7370.2156
7217.09
7049.2911
6865.8783
6644.1379
6384.0167
6039.4606
5597.7793
5045.3572
7382.7792
7225.6534
7058.3407
6870.7757
6651.9391
6384.1975
6041.2595
5570.5838
5021.3127
7394.4935
7240.2742
7072.8757
6889.4903
6670.2499
6411.79
6062.0641
5599.8895
4954.4817
5546.4958
5706.9599
5966.7419
6178.6841
6320.1253
6435.7095
6553.8124
6680.1736
6813.5336
5457.2429
5628.8053
5932.4956
6164.8327
6309.987
6428.8068
6550.6062
6680.0057
6817.1415
5343.9795
5546.6508
5907.5702
6155.8524
6300.0742
6421.9638
6547.4324
6680.2728
6819.0258
5206.8402
5458.9485
5880.236
6144.6282
6290.5203
6419.0145
6550.083
6684.8187
6826.405
5037.61
5373.3817
5848.9836
6118.3331
6265.8004
6400.7634
6538.8156
6678.1449
6821.7111
4786.7033
5325.7872
5864.198
6128.3397
6274.8007
6412.5264
6551.2157
6689.595
6833.1022
4421.8273
5169.219
5808.0169
6079.743
6237.3546
6387.2344
6534.4549
6677.318
6824.4554
4084.4541
5229.753
5860.5807
6098.3575
6255.1136
6403.5276
6547.7604
6688.2013
6833.8773
3123.3335
5076.1417
5828.8483
6064.4874
6234.7056
6391.4238
6540.4274
6682.6595
6829.312
6945.9544
7084.4785
7238.4255
7399.281
7577.926
7782.433
7981.0116
8207.9595
8404.1392
6953.1881
7093.6744
7249.6736
7414.5277
7592.9156
7802.0731
8006.3244
8241.0136
8444.0389
6959.1009
7101.5648
7260.1632
7428.4998
7609.8706
7821.5654
8033.1046
8275.9953
8478.1313
6966.7655
7111.3622
7273.2889
7441.4544
7627.1491
7840.4832
8058.2219
8309.8955
8524.2922
6966.9488
7112.7541
7277.3737
7450.4825
7637.9187
7856.8598
8078.2714
8338.372
8588.0412
6976.5252
7124.9549
7289.3247
7462.843
7651.3152
7872.8643
8098.1617
8367.3398
8653.5575
6970.7981
7119.421
7288.7197
7462.0142
7656.8481
7878.8014
8109.1832
8389.656
8700.0712
6978.8602
7129.3071
7296.2394
7471.9425
7664.5091
7888.737
8122.8861
8404.7076
8736.6144
6976.2665
7126.1004
7295.7651
7468.9234
7664.6841
7889.9437
8123.2942
8412.0317
8747.346
8526.2931
8351.14
7090.9431
5390.7923
5229.3597
6070.8891
6732.4226
7088.3845
6876.9196
8633.0609
8496.4475
7169.0681
5220.0001
5078.0332
5954.2406
6652.4836
7073.5009
6713.583
8735.0468
8665.8293
7295.9443
5087.3774
5050.4735
5910.3812
6626.3353
7093.4825
6623.6307
8827.1805
8846.87
7489.4106
5045.1721
5038.4054
5848.152
6581.2466
7026.9707
6472.3196
8911.9537
9014.4676
7697.4675
5170.8314
5093.133
5832.5189
6579.0027
7127.9703
6413.593
8986.5464
9182.3208
7932.179
5406.0013
5209.6551
5824.668
6517.0878
7020.1462
6421.0651
9047.271
9323.7432
8160.8477
5666.7783
5370.0376
5861.2598
6518.6982
7035.2892
6474.8602
9098.6729
9440.868
8379.9882
5898.0653
5458.9816
5888.6064
6488.876
6977.8099
6501.1381
9119.7988
9469.6963
8442.1466
6033.3466
5523.4789
5904.9027
6501.5591
6982.0074
7057.0088
8369.4314
9021.8778
8926.2655
8669.9324
8334.0007
7969.4445
7622.332
7263.0079
6912.2064
8345.0216
9079.844
9008.9303
8756.1623
8409.6263
8042.3858
7683.8457
7318.2094
6964.5906
8279.2427
9117.1395
9082.9959
8838.6825
8485.6336
8115.4712
7744.397
7374.4656
7017.0806
8197.2285
9143.5814
9154.9593
8921.0616
8562.6979
8188.7549
7805.1871
7431.9764
7065.6386
8106.0222
9159.7925
9222.7951
9000.1029
8636.0423
8260.1506
7868.1668
7493.1646
7124.0101
8079.5242
9160.6839
9283.3178
9075.548
8707.482
8327.8764
7916.6095
7538.5132
7160.0666
7986.1101
9135.0878
9324.083
9141.0068
8780.8209
8405.9219
7991.7296
7610.047
7231.835
7874.2683
9101.4248
9351.5587
9186.5631
8821.9914
8443.6619
8017.7371
7636.427
7248.0874
7714.536
9009.7419
9347.5235
9239.1846
8899.1028
8529.6984
8104.5587
7719.6813
7330.2185
6563.4188
6217.0573
5870.6038
5518.7812
5159.6654
4783.7419
4396.9429
3992.3474
3577.159
6613.7002
6263.019
5914.9978
5558.4893
5199.979
4822.1897
4436.5908
4028.7926
3615.6905
6665.3975
6312.6816
5963.5442
5606.3367
5248.0581
4872.2818
4488.0188
4083.578
3673.2373
6714.0169
6355.9899
6008.9536
5646.8765
5291.5933
4912.8641
4533.0072
4127.2504
3721.4805
6768.0072
6408.8622
6058.6027
5699.4249
5340.4083
4966.096
4583.9524
4182.3293
3775.5625
6807.3468
6440.3772
6093.7585
5728.4341
5373.905
4996.4938
4618.5833
4217.6298
3812.3587
6875.1772
6509.5525
6160.7959
5796.7182
5439.7859
5065.2691
4685.1555
4289.2653
3880.4343
6893.7949
6521.1676
6174.5293
5807.6881
5453.4143
5077.8443
4699.9449
4305.4677
3896.6409
6974.6684
6602.1998
6254.449
5888.3611
5533.7221
5160.9004
4782.6348
4394.6634
3982.1778
3086.6058
2555.5649
1965.2383
1483.0771
947.60485
391.86366
-521.70241
-2210.4715
-4706.4049
3123.7874
2618.135
2045.7882
1575.9524
1068.365
568.5261
-214.48575
-1838.3777
-4369.2475
3189.3675
2695.5069
2138.255
1636.3218
1107.2823
552.27309
-142.03009
-1621.9809
-3897.0958
3245.7851
2763.1784
2226.4229
1711.5958
1184.7419
631.55086
-30.366865
-1358.207
-3307.9656
3308.4313
2830.9077
2318.4396
1804.751
1283.1746
733.91345
110.68694
-1034.0485
-2555.6852
3360.396
2887.8078
2399.3155
1887.515
1366.9589
816.81767
223.86991
-743.0643
-1664.1927
3439.3887
2971.4015
2511.3906
2008.0774
1501.8784
930.80089
405.84319
-573.85423
-514.82741
3470.5952
3004.8257
2556.9397
2067.9573
1561.5147
1005.9963
380.63106
-282.93391
-834.96969
3571.0139
3121.9296
2704.6156
2236.7903
1772.49
1244.0811
739.86705
-705.69801
3402.3732
-6942.6002
-9465.0518
-11452.006
-10753.049
-10737.405
-10635.332
-10608.056
-10773.802
-8746.94
-6878.0604
-9736.3527
-11464.888
-10648.639
-10556.979
-10458.588
-10384.641
-10536.668
-8636.0315
-6939.0503
-10075.972
-11318.641
-10521.109
-10684.791
-10573.026
-10421.946
-10344.785
-8496.9172
-7151.3116
-10381.649
-11085.851
-10489.515
-10605.572
-10454.569
-10319.901
-10180.513
-8375.9985
-7456.3089
-10612.32
-10682.38
-10443.092
-10644.762
-10482.299
-10280.556
-9991.1907
-8253.7067
-7321.9021
-10527.977
-10516.729
-10492.994
-10570.824
-10429.038
-10223.059
-9839.8815
-8106.3415
-6437.4464
-10226.157
-10391.305
-10452.744
-10540.924
-10398.383
-10151.378
-9642.8432
-7946.2909
-7114.3314
-10793.427
-10252.068
-10534.338
-10521.459
-10357.437
-10110.932
-9494.6228
-7802.3328
-17750.366
-8764.93
-10585.185
-10499.36
-10469.56
-10279.462
-10009.314
-9324.8123
-7704.7578
-6568.8839
-6094.3319
-5791.5594
-5665.7512
-5711.5363
-6043.9082
-6178.4763
-6027.1874
-5653.2161
-6660.5675
-6031.683
-5695.6491
-5550.983
-5600.1659
-5857.7419
-6050.0928
-5904.5119
-5604.1425
-6673.9772
-6005.0845
-5690.7321
-5556.589
-5618.2168
-5811.1069
-5966.0041
-5781.5842
-5524.8024
-6636.0343
-5953.7512
-5648.5568
-5523.0154
-5595.9437
-5748.9414
-5873.4885
-5672.7955
-5463.6903
-6568.7529
-5888.0469
-5590.6974
-5469.9153
-5547.016
-5670.1597
-5796.036
-5580.7634
-5407.532
-6485.3676
-5826.3032
-5536.349
-5426.6171
-5505.1865
-5623.0717
-5725.1322
-5501.9057
-5359.3123
-6397.388
-5776.0979
-5491.0862
-5396.0337
-5481.2223
-5612.3085
-5664.6976
-5425.9213