/*--------------------------------*- C++ -*----------------------------------*\
  =========                 |
  \\      /  F ield         | OpenFOAM: The Open Source CFD Toolbox
   \\    /   O peration     | Website:  https://openfoam.org
    \\  /    A nd           | Version:  11
     \\/     M anipulation  |
\*---------------------------------------------------------------------------*/
FoamFile
{
    format      ascii;
    class       volScalarField;
    location    "0.35923725";
    object      T;
}
// * * * * * * * * * * * * * * * * * * * * * * * * * * * * * * * * * * * * * //

dimensions      [0 0 0 1 0 0 0];

internalField   nonuniform List<scalar> 
880
(
500.0000000000027
500.000000292371
500.0240610432355
503.3408183537429
500.0000000004407
500.0000008570672
500.0298646976771
504.8871535818089
500.0000000016358
500.0000033381324
500.0553420201693
506.7156766667274
500.0000000211684
500.0000146209866
500.1147626656809
509.4284304835635
499.9999999006574
500.000000075423
500.0000101666579
500.0001636974847
500.0000671590422
500.0002570968805
500.0016144364298
500.0023566291757
500.2633647364893
500.4347031963643
500.7186574179229
500.9607652752773
514.9178589217611
521.1125894994085
526.3743040742438
529.0292319837221
500.0004089498956
500.0033847131307
500.0128252922051
500.0397784390767
500.0227916095267
500.098566999758
500.2005095210627
500.4220240721785
502.4155876379971
503.6984033565029
505.2861679178039
507.2307419498829
531.2573437453758
533.8984332116137
534.3926163449272
533.1640358112174
522.8401941458009
517.6389017988798
515.4439757768594
513.9695372340532
511.0475371143212
512.6642060231488
513.5779697714037
513.7075852315779
501.1772445181541
502.0603200232821
503.0083326137487
503.766599068862
500.1411477039829
500.3406012675409
500.6412590852783
501.0639252476366
501.5574526704797
502.0499056721863
502.5356186493546
502.8872619013186
504.3928550582982
504.7490331109006
504.9504906910911
504.900598138843
513.0679164441598
512.1692469281911
510.9866214975717
509.7491218753058
512.2219257111223
511.0323266967944
510.2808456155445
509.5129787619618
508.9400156158641
508.8784223737998
504.7597986753153
503.0953298997028
519.1988954326424
508.0402898726076
504.38604110643
503.0561006082604
571.3190359076339
510.4333881852151
503.929212752282
502.6034561421831
620.3441383285088
523.8958134807491
504.7805305235157
502.4449015910492
502.3965836620723
506.0674586370533
539.6774882266825
637.4093562770644
501.5158881822246
508.5903986434458
556.3030908878496
635.1892505190219
501.891872056058
514.4423153895083
576.6107077105232
636.1938020247281
503.3246738232806
524.867594375243
594.7480369706336
633.4377218197417
628.3166772222199
604.8053897768757
539.815917017925
506.4865488941632
621.8129416653478
607.4544086053232
554.9982942954596
512.1641172177286
614.4985565318796
605.2838764465727
566.9948976591112
521.1593111004896
606.6427417661806
594.2586972411139
569.0868666940885
532.0898424651382
541.2923272823001
563.5993629277075
579.7591494505822
597.1536029160228
539.8330273569261
552.055971625346
562.8276944397015
582.2093905960096
535.8354224977608
540.321491645007
544.5105290633093
560.5778305640321
530.6373124521425
529.8355935592632
525.3122242990422
530.4062429321755
526.7524223686795
520.4505035318545
508.4951335274824
495.5316326125762
520.5911945773469
511.2780044171341
491.9680922780219
459.8350246925541
515.763040373394
506.0172547143802
477.9300460627219
425.1205330380975
511.5882756328118
504.5831753631058
477.6778156402647
399.8652280154645
410.5399515039115
486.8259340558183
503.2609415294573
507.7684265146521
477.9396461109876
493.0369066959752
502.4041459953415
505.1698421025208
517.261001419166
495.7344210781564
500.8734657608168
503.3599181088045
530.1720519068107
500.4059330803051
500.2272451230037
502.2905321716868
539.0029101671714
504.3269410811438
498.9655193122211
500.392956943579
533.7938375541598
504.2973605197723
497.6634718714167
499.2219094458293
525.7952832218381
503.4850083858983
497.275366789223
499.1942362586591
517.7072207078688
499.1156254011983
497.0793907031086
499.4038940170705
479.7738913384954
469.4022225741128
488.9353673607465
498.6805328736344
474.2560499033362
471.2942103178644
489.4245202054196
498.6803747402379
465.2307248276161
473.418231524771
490.3268514202903
498.6945478626385
459.5026887523089
476.2501099016442
491.3790250599076
498.7838937714436
517.7072207079175
499.1156254007495
497.0793907033526
499.4038940167969
525.7952832218702
503.4850083852059
497.275366789057
499.1942362575763
533.7938375541712
504.2973605191636
497.6634718702651
499.2219094449923
539.0029101672806
504.3269410801144
498.9655193119738
500.3929569431427
507.7684265148694
503.2609415298902
486.825934055926
410.5399515029288
505.1698421023347
502.4041459953968
493.0369066962106
477.9396461098706
503.3599181089056
500.8734657611882
495.7344210773205
517.2610014190454
502.2905321716927
500.2272451234614
500.4059330796986
530.17205190715
399.8652280187652
477.6778156404291
504.5831753634478
511.5882756330484
425.1205330380117
477.9300460625876
506.0172547148474
515.7630403731765
459.8350246924676
491.9680922790411
511.2780044172811
520.5911945776306
495.5316326130035
508.4951335272178
520.4505035310978
526.7524223688633
541.2923272823151
563.5993629283164
579.7591494512185
597.1536029165242
539.833027356453
552.0559716250111
562.8276944399367
582.2093905966271
535.8354224970108
540.3214916447329
544.5105290633142
560.577830564382
530.6373124519477
529.8355935587847
525.3122242986724
530.406242932609
606.6427417665764
594.2586972416343
569.08686669438
532.0898424660686
614.4985565324376
605.2838764470876
566.9948976592189
521.1593111003972
621.8129416658753
607.4544086057954
554.9982942951399
512.1641172178317
628.3166772227373
604.80538977725
539.8159170183644
506.4865488940122
502.3965836618304
506.0674586369388
539.6774882265594
637.4093562773152
501.5158881829002
508.5903986437812
556.3030908879525
635.1892505192918
501.8918720570102
514.4423153906785
576.6107077110488
636.1938020248012
503.324673823287
524.8675943752119
594.7480369713057
633.437721819893
502.4449015908842
502.6034561419369
503.0561006088564
503.0953298998489
504.780530522805
503.9292127519208
504.3860411066599
504.7597986750933
523.8958134799836
510.4333881850937
508.0402898719852
508.8784223736543
620.3441383285659
571.3190359072295
519.1988954328527
508.9400156157362
502.8872619018467
504.9005981392523
509.7491218756788
509.5129787621928
502.5356186491592
504.950490691378
510.9866214976019
510.2808456156984
502.0499056721785
504.7490331111021
512.1692469284095
511.0323266961494
501.5574526700587
504.3928550579666
513.0679164442586
512.2219257113121
500.1411477033797
501.1772445177782
511.047537114611
522.8401941460874
500.3406012670208
502.0603200229186
512.6642060235824
517.6389017988014
500.6412590858615
503.0083326131726
513.5779697718498
515.4439757759566
501.0639252472263
503.766599068825
513.7075852316212
513.9695372336028
533.1640358112517
507.2307419501769
500.4220240721342
500.0397784393189
534.3926163450334
505.2861679179542
500.200509520753
500.012825292064
533.8984332118673
503.6984033563371
500.0985669985308
500.0033847128681
531.2573437456043
502.4155876375589
500.0227916091476
500.0004089502915
529.029231983461
500.9607652756704
500.0023566293528
500.0001636981876
526.3743040737545
500.718657417959
500.0016144362635
500.0000101671492
521.1125894987874
500.434703196311
500.0002570967144
500.0000000750825
514.9178589213061
500.2633647362779
500.0000671582386
499.999999901189
500.0000000001753
500.0000002925185
500.0240610431655
503.3408183535097
500.0000000005271
500.0000008567644
500.0298646978532
504.8871535816218
500.0000000018922
500.0000033379117
500.0553420201929
506.7156766672054
500.0000000219067
500.0000146207929
500.1147626657713
509.4284304838918
506.2254578548037
508.9278913199372
513.249234574532
521.8955967168581
508.9278913203608
512.3867895932354
518.7555736136721
531.3321265814515
513.249234574825
518.7555736137117
528.8806351137097
544.0768762157626
521.8955967169738
531.3321265812242
544.0768762163405
560.2595653227406
577.2416617798864
564.235982079598
557.354510651659
544.9499111125158
575.4561720936975
571.5456794428285
570.3314850385458
564.6289058253759
575.3922056766586
574.3217786512779
573.7614116184744
572.0573920097829
571.9799878544419
571.5450940577016
571.6840075643128
570.9797236314787
567.8988920051124
565.5535572033264
560.4612982403474
553.2864573902697
567.5583640204267
565.1532653763975
560.2395112531
553.9644364182419
567.5747615930138
564.9925126388403
559.9824190982549
554.5583692562768
567.6370926254375
564.7359117294798
560.1859980853542
550.9724932893923
512.381357476981
492.8098796619628
489.9499187051211
490.4502890863009
501.8264607955048
488.7084207438054
489.9704539245881
491.0967367759588
491.579804294428
488.8777897027417
491.5593230234645
492.8373710346152
469.9266949112557
484.1233329800047
489.9012765500429
491.5987211010228
490.7931476001639
491.8104581596839
493.3327176284242
494.8469773262964
491.0038610609695
491.4807589845167
492.8626800244888
494.8615701715399
492.3163870541362
492.3385761871118
493.2672830494108
494.7356837274003
491.2482550669914
491.4194484882898
492.7258121276794
494.8403689951848
505.0245756358678
567.6804502252694
639.3624795581495
664.5435178631838
510.9453965745608
581.1666979579156
642.0084248463664
660.2512712312558
516.4247209048933
589.4977143992062
641.9784883803212
660.949594691906
520.2339639096816
597.7654496807262
642.182971174237
661.3626253509697
694.300784409045
681.4451605945778
670.1396789110942
656.8748058706135
702.7509228373431
690.0067084944385
676.8980354672447
662.5490266041862
708.7285623325464
697.4717309254912
683.0148845632091
668.0404446319545
706.6523419336963
701.2938208695483
687.1939681476196
671.8349998815562
643.6157440111704
633.0267888107114
623.2180955806917
618.9683089387838
648.7141643444035
637.1072474562678
625.9494474573396
621.0677444487073
653.8776379642478
640.6175739076244
629.5058181181287
623.1776608443579
658.2963631597997
643.692151012521
632.9966129050209
625.5983905394471
615.0674067624884
607.6462439679461
590.9805505106469
565.0079574435177
616.8448635881776
609.2347815320963
593.7783777142837
592.6504421516429
617.839021766165
610.1545850532887
602.7703138365397
620.4156041508281
619.7334875294605
614.0058024262792
616.3505599667786
603.9811624795339
522.5289572287506
460.1973238368783
422.668820743502
426.5767633569864
512.0670927548485
421.9834953613102
305.5293863352817
252.9721772122826
468.7317777599239
368.1012910839245
252.1785810930738
231.8539840572357
368.0076336384354
282.585875663425
227.8297947705117
239.5911218388583
376.1309922349074
403.9258656875278
471.0872620061288
522.9241197903692
306.493544007384
380.3605321043581
441.8186929357091
491.7073685704303
291.6671707345084
350.9019247069892
404.4014641387906
445.1313788861178
298.937661890469
351.4329318381804
402.1239023514493
431.150407544627
487.0605877646632
510.3457461923877
509.2797844440022
509.6873009788689
435.7733211359509
473.9286617476884
492.6751368742651
510.5674753398114
407.3532847614383
432.914229512589
470.5547132949848
514.1745683693351
392.4922556703548
408.273822684862
445.0625617217796
512.9335981658531
491.8264060388472
470.6135239554335
459.3927920820215
459.703561924075
495.1786119727554
486.0222430415443
482.0172439353844
475.8953803864387
504.2373133251899
507.4085044096862
501.6103044539095
488.6176258839168
503.601908760477
508.6045248169741
498.7249792267811
484.0919837116369
465.9310428674646
450.6271110666881
442.2370112316823
439.8952753358548
471.5289117656249
455.688456571824
444.4201181029264
441.0562436907449
469.7953664630852
461.2955108480762
452.6146855844169
448.9982240790813
462.8008948782739
460.220267539871
455.4792244612143
452.3445888626926
439.8952753358188
441.0562436907127
448.9982240791069
452.3445888627856
442.2370112315295
444.4201181027829
452.614685584419
455.4792244614636
450.6271110664003
455.6884565715535
461.2955108479589
460.220267540065
465.9310428670153
471.5289117654333
469.7953664629524
462.8008948784414
459.7035619241763
459.3927920820162
470.6135239557382
491.8264060390525
475.8953803864754
482.0172439354787
486.0222430418657
495.1786119729579
488.6176258836928
501.6103044537014
507.40850440981
504.2373133252552
484.0919837113802
498.7249792266921
508.6045248168677
503.6019087604446
512.9335981659639
445.0625617221954
408.2738226854735
392.4922556709631
514.174568369438
470.5547132954686
432.91422951318
407.3532847621649
510.5674753399806
492.6751368746073
473.9286617482335
435.7733211368395
509.6873009790056
509.2797844441935
510.345746192928
487.0605877652541
522.9241197901612
471.0872620060808
403.9258656860433
376.1309922441874
491.7073685704171
441.8186929359653
380.360532103715
306.4935440078901
445.1313788864122
404.401464139429
350.9019247065774
291.6671707343466
431.1504075450135
402.123902351951
351.4329318385519
298.9376618907109
426.5767633789299
422.6688207454446
460.1973238367378
522.5289572288898
252.9721772161774
305.5293863350835
421.9834953607083
512.0670927553916
231.8539840576112
252.1785810926669
368.1012910847759
468.7317777608101
239.5911218389545
227.8297947698502
282.5858756640181
368.0076336391952
565.0079574438869
590.9805505110401
607.6462439685
615.0674067627265
592.6504421519691
593.7783777144755
609.2347815323427
616.8448635887177
620.415604151331
602.7703138365462
610.1545850530157
617.8390217663856
603.9811624804847
616.3505599667164
614.0058024259938
619.7334875297175
618.9683089394296
623.218095581069
633.0267888104985
643.6157440112677
621.0677444492461
625.9494474573193
637.1072474560589
648.7141643441898
623.1776608444943
629.5058181183485
640.6175739071671
653.8776379638215
625.5983905398978
632.9966129051829
643.6921510122872
658.2963631596826
656.8748058704924
670.1396789106198
681.4451605941726
694.3007844086832
662.549026604074
676.8980354671623
690.0067084941875
702.7509228367834
668.0404446315207
683.0148845628556
697.4717309246988
708.7285623327155
671.8349998811676
687.1939681474209
701.2938208695973
706.6523419329595
664.5435178631684
639.3624795578856
567.6804502252268
505.024575636322
660.251271231112
642.0084248460829
581.1666979578192
510.9453965751208
660.949594691675
641.9784883799819
589.4977143990035
516.4247209054632
661.3626253513983
642.1829711739014
597.7654496805012
520.2339639102457
494.8469773269494
493.3327176283066
491.8104581589491
490.7931475995554
494.8615701721871
492.8626800243542
491.4807589835515
491.0038610605562
494.7356837280408
493.2672830491221
492.3385761861225
492.3163870536079
494.8403689958246
492.7258121273134
491.4194484872368
491.2482550660936
490.450289085511
489.9499187044934
492.8098796623858
512.3813574773482
491.0967367752021
489.9704539237427
488.708420744328
501.8264607957929
492.8373710338416
491.5593230224898
488.8777897031954
491.5798042946412
491.5987211002112
489.9012765488793
484.1233329803767
469.9266949114744
553.2864573904038
560.4612982405081
565.5535572040608
567.8988920049183
553.9644364185592
560.23951125314
565.1532653770777
567.5583640201478
554.5583692559449
559.9824190981773
564.9925126394247
567.5747615927301
550.9724932893258
560.1859980854591
564.7359117295472
567.6370926252125
570.979723630581
572.0573920087104
564.6289058243933
544.9499111126352
571.6840075633747
573.7614116168697
570.331485036816
557.3545106511785
571.5450940565939
574.321778649521
571.5456794399227
564.2359820777853
571.9799878534798
575.3922056748025
575.4561720902644
577.2416617762069
505.1316931475674
497.2539046647799
496.813570931738
499.4842168765528
485.4159480191914
492.0362324329467
495.3926440723465
499.3453999345906
470.3697240676486
486.3990037405985
493.9791183220582
499.148032976781
460.1373631803064
480.4284714504728
492.4954987751779
498.94106755178
498.6805328731739
488.9353673608097
469.402222574009
479.7738913385746
498.6803747398522
489.4245202055474
471.2942103176425
474.2560499036847
498.6945478625689
490.3268514207028
473.4182315244097
465.2307248279386
498.783893771383
491.3790250602109
476.2501099013909
459.5026887524697
498.9410675513565
499.148032976711
499.3453999346239
499.4842168765657
492.4954987749174
493.9791183218654
495.3926440717223
496.8135709314749
480.4284714507222
486.3990037408701
492.0362324335252
497.253904665202
460.1373631801325
470.3697240673914
485.4159480192005
505.1316931476267
)
;

boundaryField
{
    back
    {
        type            empty;
    }
    inlet
    {
        type            zeroGradient;
    }
    front
    {
        type            empty;
    }
    top
    {
        type            zeroGradient;
    }
    outlet
    {
        type            fixedValue;
        value           uniform 500;
    }
    bottom
    {
        type            zeroGradient;
    }
    wall
    {
        type            zeroGradient;
    }
}


// ************************************************************************* //
