/*--------------------------------*- C++ -*----------------------------------*\
  =========                 |
  \\      /  F ield         | OpenFOAM: The Open Source CFD Toolbox
   \\    /   O peration     | Website:  https://openfoam.org
    \\  /    A nd           | Version:  11
     \\/     M anipulation  |
\*---------------------------------------------------------------------------*/
FoamFile
{
    format      ascii;
    class       volVectorField;
    location    "0.35923725";
    object      U;
}
// * * * * * * * * * * * * * * * * * * * * * * * * * * * * * * * * * * * * * //

dimensions      [0 1 -1 0 0 0 0];

internalField   nonuniform List<vector> 
880
(
(24.99999999999999 -2.806330971725309e-12 0)
(24.99999998203183 -1.217490037415011e-08 0)
(24.99829020762019 -0.0005554018249460433 0)
(24.71736049915384 0.007624735110740472 0)
(24.99999999998872 -2.8315064814742e-11 0)
(24.99999994445427 -7.040037525090769e-08 0)
(24.9974795364394 -0.001722106905364137 0)
(24.63269372649841 -0.1593360852585146 0)
(24.99999999963697 -2.437915423381796e-10 0)
(24.99999976102305 -2.871941668348617e-07 0)
(24.99514547522336 -0.003584512879538443 0)
(24.51359919783939 -0.264484585450391 0)
(24.99999999829957 1.052154465067873e-09 0)
(24.9999988181946 -1.167876374295978e-06 0)
(24.9890856796984 -0.007016843262680622 0)
(24.13724197024142 -0.4137218482640523 0)
(25.0000000111903 -4.114232406051512e-09 0)
(24.99999998001881 8.778249076310719e-09 0)
(24.99999953213299 -9.298730181568873e-07 0)
(24.99999314126271 -1.184400689538145e-05 0)
(24.99999376784569 -4.448771073236164e-06 0)
(24.99996304585758 -1.86702833726303e-05 0)
(24.9998558898933 1.067098900755304e-05 0)
(25.00017477392411 -0.001107693376507214 0)
(24.97171049996622 -0.01019842175239351 0)
(24.9516426438173 -0.00636050784604834 0)
(24.92414610961855 0.01073092325988113 0)
(24.91407708773771 -0.06683471136958609 0)
(23.40263758357279 -0.09542156691461047 0)
(22.6901691011647 0.6348514691814799 0)
(22.26854971818296 1.335028688330464 0)
(22.24429744444562 1.746230378771654 0)
(24.99988402641244 -6.197106294881961e-06 0)
(24.99960661205801 -0.0003640905552387204 0)
(24.99925374115001 -0.001529075234403733 0)
(24.99747566698144 -0.004522277937259496 0)
(24.99801874484812 -0.0006931094070021536 0)
(24.99019671969911 -0.0003535728892520578 0)
(24.97715009799439 0.005493430525093381 0)
(24.95441904526758 0.00891112348515275 0)
(24.75585971880465 -0.01080213983897339 0)
(24.63017633086446 0.09839518665004005 0)
(24.46164896397831 0.2785207521611163 0)
(24.31834388121125 0.4062592594151755 0)
(21.98166742354106 2.340710046853368 0)
(21.98732150275068 2.779774774409819 0)
(21.88511715154957 3.317364652388931 0)
(22.33925468972665 3.758413608542727 0)
(23.38567222012442 4.323117928361317 0)
(24.11422159529144 4.173026264933601 0)
(24.45809589800725 3.766271388867712 0)
(24.81732771250271 3.316637891677559 0)
(24.07885575221567 0.746400862540642 0)
(24.09385459989242 1.10440420221311 0)
(24.19611430518853 1.349491363728699 0)
(24.38213052063518 1.475563486205129 0)
(24.87563985340156 0.0352937932777466 0)
(24.77190104422872 0.1155051811804683 0)
(24.67953752174496 0.2412745600257106 0)
(24.6342119741067 0.3945589224142898 0)
(24.98787359542634 -0.01055581517595151 0)
(24.97236261453553 -0.02426033329022302 0)
(24.95024649860102 -0.04404422736198408 0)
(24.92405052698102 -0.07056248301253354 0)
(24.90149015676611 -0.1010177588042393 0)
(24.88770994760288 -0.1311324264293168 0)
(24.88284508947991 -0.14452841190827 0)
(24.88832615092437 -0.1379826967068487 0)
(24.63263487998155 0.5574777481314902 0)
(24.67445472599801 0.7120279368525226 0)
(24.76092003556287 0.8382281469124817 0)
(24.87668941995527 0.8925728305818376 0)
(24.54953676346413 1.608776639796018 0)
(24.75257624015141 1.654948599970211 0)
(24.9405245623675 1.627186118747518 0)
(25.09323138158915 1.555470201969175 0)
(24.99115118090956 2.9057947134779 0)
(25.17872636889707 2.489600761260219 0)
(25.29112374133521 2.09435993813222 0)
(25.36345163208165 1.778077260805813 0)
(25.42831309453469 1.377472919598042 0)
(25.24434979089266 1.45373532233622 0)
(24.99915814872496 0.9127432365084446 0)
(24.89607387802798 -0.1212268629998638 0)
(24.54803557243344 1.559501225049999 0)
(25.34338398904328 1.289321626505008 0)
(25.14340287834869 0.8617832649183155 0)
(24.90333199346286 -0.0961835978172465 0)
(19.1544093816264 1.728678111788193 0)
(25.15904505467732 1.297220794722954 0)
(25.25814672790847 0.7517649660144321 0)
(24.91621882456273 -0.08053505421841435 0)
(14.12712768344464 2.095961131954459 0)
(23.70232704250857 1.628803270627407 0)
(25.27711780396987 0.7747459033518226 0)
(24.94896320297432 -0.09185154502774728 0)
(24.95453163835904 -0.0667963668978471 0)
(25.21733294383986 0.7182278875890004 0)
(22.05147242645674 2.269357033342961 0)
(12.48984168585256 3.860305724829866 0)
(24.8313648008256 -0.08882957937932097 0)
(24.99459627760477 0.8082437709992139 0)
(20.60599305900785 3.314565896744605 0)
(12.79857465200261 5.640553922902019 0)
(24.78950504836407 -0.115851913666221 0)
(24.47444668983793 1.156908540743226 0)
(18.82495631725777 4.649485963407308 0)
(12.64752062548034 7.07864272281947 0)
(24.69831478669679 -0.1634673815099858 0)
(23.59933923361604 1.928824420481119 0)
(17.58775229487939 6.058377100847369 0)
(13.13583048471201 8.144175924945166 0)
(14.04754568906255 8.85572435431205 0)
(16.96791574332963 7.293800743835499 0)
(22.43002398557172 3.156641546876607 0)
(24.51831450826132 -0.1864962282363745 0)
(15.13573145401445 9.393290099606526 0)
(17.240874043776 8.219379499126738 0)
(21.21728845877919 4.641953195736733 0)
(24.19844294485318 -0.07129654765315339 0)
(16.37659144388109 9.6842609004945 0)
(18.11055365315012 8.754313017641794 0)
(20.7075465489718 5.995932819214822 0)
(23.69387705090652 0.2364227287943474 0)
(17.54806467188285 9.756784142224991 0)
(19.39762784532569 8.854124127421809 0)
(20.87608586537646 7.035986410414693 0)
(23.19626896964878 0.722923971703923 0)
(22.91097225871631 0.850970562173291 0)
(22.04903453595776 7.091149171908789 0)
(21.12109511809611 8.806650218242558 0)
(18.96386128976215 9.89779065806426 0)
(23.45621420403832 0.6463902119536229 0)
(23.50851209234601 6.648123099476886 0)
(23.10798633426557 8.415242445093559 0)
(20.9070671448223 9.810493387360847 0)
(24.0400026523264 0.3441212155494821 0)
(24.93162695803651 5.875076324536963 0)
(25.19364664820064 7.620150394035514 0)
(23.44736024526802 9.238277746145984 0)
(24.51868784888158 -0.2494388246885209 0)
(26.06332966940766 4.606850580197251 0)
(27.16639075803867 6.226688378267377 0)
(26.40060277860417 7.616389885885646 0)
(24.88419849000403 -0.3075623675691918 0)
(26.92926655868138 3.628092568446379 0)
(29.04980189383623 4.804324799192776 0)
(30.68347112546122 4.759031440917409 0)
(25.30047317196146 -0.4989517865536827 0)
(27.4976653968298 2.601740986845317 0)
(30.11085752446648 3.390623933640166 0)
(34.00252229098651 0.7046241436454074 0)
(25.54327879781392 -0.5425597269286746 0)
(27.54996794776076 1.647316283442424 0)
(30.83478449920088 1.256059327569118 0)
(36.34819331780256 -4.2539224970891 0)
(25.65369807199675 -0.5437397831685989 0)
(27.22446325558222 1.022789824204315 0)
(30.31239217836993 -0.3107811358079935 0)
(37.77944361159847 -9.251977848554086 0)
(34.01919860323477 -7.328100120118539 0)
(29.13041502024985 -1.41731526209515 0)
(26.94233740555277 0.3554865340242657 0)
(25.69371936572709 -0.5467527650919392 0)
(25.63452334156232 -3.21502875323332 0)
(28.24647225185339 -1.936572834087599 0)
(26.64811722251383 -0.1001459417426547 0)
(25.62905983608521 -0.4720587178112842 0)
(23.08907768345068 -3.612733365673346 0)
(27.75006916331585 -2.841731449374011 0)
(26.39350492974759 -0.5594335099619532 0)
(25.50627261017007 -0.3592937241174073 0)
(19.90314825368738 -3.659487192888394 0)
(26.97783698466718 -3.450134227165905 0)
(26.04931452187361 -0.9532402611869869 0)
(25.38980238427594 -0.2751094735513893 0)
(18.08530684625386 -4.760142886730602 0)
(25.72429932258755 -4.391146151590918 0)
(25.48602253081877 -1.289828663272667 0)
(25.1802213369329 -0.2156726316617017 0)
(15.43326821683989 -6.813601137738625 0)
(24.08650060218485 -4.635066462058935 0)
(24.89652288683232 -1.125742249939744 0)
(25.0012369041789 -0.1079277565158762 0)
(14.3782902718179 -6.976648162608806 0)
(23.0253269303592 -4.048553619994112 0)
(24.65192863977424 -0.7359144346315796 0)
(24.97081063310782 -0.04913624156102611 0)
(14.33665039247332 -5.86126935706368 0)
(22.80033183400358 -3.600485865966834 0)
(24.6730354239364 -0.60145987742328 0)
(24.97608454850222 -0.03607988811767962 0)
(14.22225068427225 -0.6632517959553761 0)
(20.34302521044868 -0.1132516896580259 0)
(23.64824654006438 0.01057923543108391 0)
(24.85559166113323 0.001982465187381245 0)
(14.20383255868169 -1.755743218469138 0)
(20.33966812984428 -0.5378117483080243 0)
(23.66315975147353 0.0006292568066340853 0)
(24.85253477212238 0.004365021108650371 0)
(14.41814910075453 -3.256064555561037 0)
(20.34758137507594 -0.9879195163385984 0)
(23.7024823647832 -0.07176009623019092 0)
(24.8517848108793 0.0002501547742663713 0)
(14.46995913581066 -4.649571205784008 0)
(20.55618064771443 -1.352451843005757 0)
(23.80221831637169 -0.1947214924010215 0)
(24.86017134571726 -0.01139081140933434 0)
(14.33665039248204 5.861269357040811 0)
(22.80033183403059 3.600485865959698 0)
(24.6730354240641 0.6014598773765278 0)
(24.97608454861399 0.03607988809831589 0)
(14.37829027181918 6.976648162569639 0)
(23.02532693045346 4.048553620048759 0)
(24.65192863985593 0.7359144346169518 0)
(24.97081063325137 0.04913624160726623 0)
(15.43326821687851 6.813601137756295 0)
(24.08650060220355 4.635066462097353 0)
(24.89652288682218 1.125742249983973 0)
(25.00123690419877 0.1079277565661845 0)
(18.08530684628285 4.760142886733682 0)
(25.72429932272784 4.391146151666753 0)
(25.48602253084214 1.289828663307355 0)
(25.18022133690597 0.215672631709514 0)
(25.69371936569642 0.5467527650335554 0)
(26.94233740554798 -0.3554865340583019 0)
(29.13041502028252 1.417315262087737 0)
(34.01919860316069 7.328100120246739 0)
(25.62905983610091 0.4720587177601993 0)
(26.64811722252093 0.1001459417353586 0)
(28.24647225194158 1.936572834095348 0)
(25.63452334165333 3.215028753339597 0)
(25.50627261009474 0.3592937240709421 0)
(26.39350492966353 0.5594335099865794 0)
(27.75006916340108 2.841731449506662 0)
(23.08907768336917 3.612733365715106 0)
(25.38980238416483 0.2751094735304607 0)
(26.04931452179498 0.9532402611583608 0)
(26.977836984686 3.450134227242857 0)
(19.90314825377724 3.659487192920725 0)
(37.77944361158966 9.251977848684925 0)
(30.31239217834165 0.3107811358024137 0)
(27.22446325557181 -1.022789824210593 0)
(25.65369807196497 0.5437397831209283 0)
(36.34819331781368 4.253922497138454 0)
(30.83478449925094 -1.256059327528195 0)
(27.54996794778749 -1.647316283448313 0)
(25.54327879784033 0.5425597269418334 0)
(34.00252229101299 -0.7046241436040814 0)
(30.11085752434623 -3.390623933614112 0)
(27.49766539683537 -2.601740986819751 0)
(25.30047317181874 0.4989517866221808 0)
(30.68347112540504 -4.759031440895157 0)
(29.04980189387067 -4.804324799162084 0)
(26.92926655881857 -3.628092568423008 0)
(24.88419848985068 0.3075623676566246 0)
(22.91097225863372 -0.8509705621542467 0)
(22.04903453589848 -7.091149171912767 0)
(21.1210951180465 -8.80665021824308 0)
(18.96386128979012 -9.897790658069439 0)
(23.4562142040301 -0.6463902119093671 0)
(23.5085120923533 -6.64812309947254 0)
(23.10798633419707 -8.415242445068291 0)
(20.90706714485837 -9.810493387372698 0)
(24.04000265236522 -0.3441212155292946 0)
(24.93162695806417 -5.875076324546291 0)
(25.19364664814396 -7.620150394003469 0)
(23.44736024526475 -9.238277746132885 0)
(24.51868784883252 0.2494388247580477 0)
(26.06332966948743 -4.606850580176785 0)
(27.16639075807391 -6.226688378240311 0)
(26.40060277856123 -7.61638988586879 0)
(17.54806467190422 -9.756784142231256 0)
(19.39762784537458 -8.854124127455156 0)
(20.87608586533754 -7.035986410412193 0)
(23.19626896952063 -0.7229239717203574 0)
(16.37659144391979 -9.68426090051589 0)
(18.11055365320142 -8.75431301766241 0)
(20.70754654895481 -5.995932819223056 0)
(23.69387705088609 -0.236422728791218 0)
(15.13573145402451 -9.393290099619694 0)
(17.24087404385577 -8.219379499139649 0)
(21.21728845880155 -4.641953195711613 0)
(24.1984429447507 0.07129654766012988 0)
(14.0475456890951 -8.855724354314793 0)
(16.96791574333735 -7.293800743805377 0)
(22.4300239854856 -3.156641546842739 0)
(24.51831450825478 0.1864962282380139 0)
(24.9545316384051 0.06679636692060044 0)
(25.2173329438715 -0.7182278875635338 0)
(22.05147242646409 -2.269357033354714 0)
(12.48984168590715 -3.860305724840072 0)
(24.83136480074024 0.08882957937762784 0)
(24.99459627760506 -0.8082437709557223 0)
(20.6059930590345 -3.314565896745053 0)
(12.79857465204818 -5.640553922927118 0)
(24.78950504822269 0.1158519136596504 0)
(24.47444668968907 -1.156908540678297 0)
(18.82495631732481 -4.649485963387781 0)
(12.64752062551963 -7.078642722831556 0)
(24.69831478664794 0.1634673815131684 0)
(23.59933923359364 -1.928824420401337 0)
(17.58775229496032 -6.058377100829137 0)
(13.13583048471799 -8.144175924944159 0)
(24.94896320294995 0.09185154504155887 0)
(24.91621882460124 0.08053505423105492 0)
(24.90333199337952 0.09618359784686996 0)
(24.89607387801917 0.1212268629962271 0)
(25.27711780404881 -0.7747459033532945 0)
(25.25814672797769 -0.75176496600539 0)
(25.14340287823286 -0.8617832649040921 0)
(24.99915814872065 -0.9127432365247897 0)
(23.70232704261204 -1.628803270647174 0)
(25.15904505470725 -1.297220794728104 0)
(25.34338398910874 -1.289321626518268 0)
(25.24434979092122 -1.453735322329122 0)
(14.12712768352358 -2.095961131960012 0)
(19.15440938169302 -1.728678111783863 0)
(24.54803557237071 -1.559501225022156 0)
(25.42831309452652 -1.377472919572432 0)
(24.88832615086942 0.1379826967140455 0)
(24.87668941987607 -0.8925728305602105 0)
(25.0932313815789 -1.555470201944037 0)
(25.3634516321627 -1.778077260759234 0)
(24.88284508954973 0.1445284118890542 0)
(24.76092003553932 -0.8382281469057614 0)
(24.94052456245669 -1.627186118729922 0)
(25.29112374138167 -2.094359938093024 0)
(24.88770994758941 0.1311324264199899 0)
(24.67445472599325 -0.7120279368004933 0)
(24.75257624014397 -1.654948599978415 0)
(25.17872636895057 -2.489600761260026 0)
(24.90149015681989 0.1010177587233367 0)
(24.63263488003695 -0.5574777481104342 0)
(24.54953676350488 -1.608776639793954 0)
(24.99115118091881 -2.905794713468603 0)
(24.98787359543093 0.01055581509081664 0)
(24.87563985351136 -0.03529379318392128 0)
(24.07885575225466 -0.7464008625336903 0)
(23.38567222015547 -4.323117928345515 0)
(24.97236261453904 0.02426033317425697 0)
(24.77190104430197 -0.1155051811090966 0)
(24.09385459993871 -1.104404202179526 0)
(24.11422159537643 -4.173026264946831 0)
(24.95024649848477 0.04404422733504374 0)
(24.67953752190763 -0.2412745599551863 0)
(24.19611430522949 -1.349491363729308 0)
(24.45809589815468 -3.766271388922655 0)
(24.92405052699612 0.07056248294439832 0)
(24.63421197411236 -0.3945589223605558 0)
(24.3821305207503 -1.475563486172361 0)
(24.81732771255377 -3.31663789170265 0)
(22.3392546897519 -3.758413608530457 0)
(24.31834388117864 -0.4062592594179046 0)
(24.95441904533591 -0.008911123390340949 0)
(24.99747566698023 0.004522277923996212 0)
(21.88511715158578 -3.317364652373999 0)
(24.46164896396648 -0.2785207521651594 0)
(24.97715009806058 -0.005493430487116852 0)
(24.99925374118258 0.001529075203378958 0)
(21.98732150283302 -2.779774774404113 0)
(24.63017633092502 -0.09839518665597947 0)
(24.99019671985897 0.0003535728962580497 0)
(24.99960661200693 0.000364090433572081 0)
(21.98166742351168 -2.340710046833383 0)
(24.75585971888103 0.01080213983147487 0)
(24.99801874492446 0.0006931094221540808 0)
(24.99988402646465 6.197120561273363e-06 0)
(22.24429744442939 -1.746230378757594 0)
(24.91407708772165 0.06683471137407872 0)
(25.00017477396593 0.00110769339579387 0)
(24.99999314123308 1.184405012887428e-05 0)
(22.26854971813138 -1.335028688317397 0)
(24.92414610963051 -0.01073092326306088 0)
(24.99985588991633 -1.067098984502332e-05 0)
(24.99999953209123 9.298822883308474e-07 0)
(22.69016910101148 -0.6348514691902761 0)
(24.95164264384457 0.006360507837155682 0)
(24.99996304585696 1.867027412388235e-05 0)
(24.99999998004261 -8.823666520095521e-09 0)
(23.40263758333445 0.09542156686756452 0)
(24.97171050004289 0.01019842174711056 0)
(24.99999376801226 4.448784130671332e-06 0)
(25.00000001114298 4.11740108676306e-09 0)
(25.00000000000002 5.955194223866158e-12 0)
(24.99999998201898 1.215819084688133e-08 0)
(24.99829020761307 0.0005554018070476753 0)
(24.71736049912133 -0.00762473495401676 0)
(24.99999999997173 4.182539582503519e-11 0)
(24.99999994453042 7.037690282588812e-08 0)
(24.99747953637614 0.001722106882983469 0)
(24.6326937263467 0.1593360853292331 0)
(24.99999999962681 2.564983849929685e-10 0)
(24.99999976109916 2.87197865420352e-07 0)
(24.99514547524731 0.003584512866184825 0)
(24.51359919748642 0.2644845853809817 0)
(24.99999999828481 -1.02626276396502e-09 0)
(24.99999881823999 1.167889028897364e-06 0)
(24.98908567970388 0.0070168432523922 0)
(24.1372419699509 0.4137218482082868 0)
(24.52527208264101 1.098674679788849e-10 0)
(24.35979389449385 0.1495548995428368 0)
(23.97404501219659 0.1736328341113023 0)
(23.03855082930086 0.01871683989785449 0)
(24.35979389471049 -0.1495548993259245 0)
(24.08843436781779 4.096721461386013e-11 0)
(23.40957320494806 -0.06031094799536413 0)
(21.9606654890908 -0.4863802341819204 0)
(23.974045012639 -0.1736328340183751 0)
(23.4095732053132 0.06031094807134404 0)
(22.12861860224576 6.328892641737328e-11 0)
(20.03096155149831 -0.5819753505322167 0)
(23.03855082967413 -0.01871683991845549 0)
(21.96066548967003 0.486380234124748 0)
(20.03096155175823 0.5819753504853727 0)
(17.78918961470557 -2.400775100829755e-10 0)
(17.25878684420841 2.521584716596797 0)
(17.89935301686942 2.917349664476334 0)
(19.54339756285954 2.655843961513075 0)
(21.08693774025085 1.887815827281845 0)
(18.24491230812862 4.246788056358424 0)
(18.30812689345568 4.203002633440354 0)
(19.04066027171878 4.114781163081162 0)
(20.07397851278785 3.952547222067145 0)
(17.6838588669345 5.193200505557242 0)
(18.85057612363309 4.491073218232691 0)
(19.52792475409342 4.691878994917716 0)
(20.05233693595508 4.563749791971555 0)
(18.33525411731662 5.754219255023554 0)
(19.70555694517144 4.717193878814289 0)
(20.2057169606687 4.891232617976524 0)
(20.49070138141907 4.805574209046085 0)
(20.79096578319383 4.932705658834928 0)
(21.02925835535788 5.061730987357373 0)
(21.40435195664779 5.120578953188663 0)
(22.16084925499022 5.280348356859839 0)
(20.72900338135928 4.994247118202485 0)
(21.03869001910379 5.101569583192514 0)
(21.53836802962063 5.117412792684182 0)
(22.65128647435161 5.500671376134575 0)
(20.47284795791121 4.931258779775597 0)
(20.9734389695845 5.105922460996937 0)
(21.55536612611565 5.158190304736593 0)
(24.10136926525056 5.943006823791436 0)
(18.97616897961817 5.851119591258059 0)
(19.59933008416679 5.875947182120082 0)
(20.50317429978704 5.734757840912986 0)
(25.83118906433498 7.125897663151303 0)
(25.81525334839106 3.187582035408886 0)
(26.40945112933732 0.8090349894164197 0)
(25.721856037443 0.4870792418519941 0)
(25.59509809817402 0.3820585340419452 0)
(28.37610572602619 2.1987825254155 0)
(28.69592331839758 0.3397477614802178 0)
(27.56801979725978 0.2832497306878248 0)
(26.89269665569797 0.3137578281220385 0)
(31.5490199015595 1.904715508460951 0)
(30.14995137979128 0.04577669364123609 0)
(28.75773818477645 0.05144592715666904 0)
(27.77933223754733 0.09386624583826134 0)
(25.07990651306988 1.987933003610999 0)
(24.21747529662672 0.6522726672237487 0)
(24.07232482358368 0.08970205901194955 0)
(24.15978686175684 -0.2164447027094567 0)
(25.66543011479888 0.3867734059143857 0)
(25.71344277849546 0.319813006847006 0)
(25.70095932291908 0.2051374506023358 0)
(25.65343596227007 0.1716678238936712 0)
(26.53712611211656 0.3417376561136073 0)
(26.22460424256156 0.2915141438783691 0)
(25.94663691798283 0.1915942560201812 0)
(25.72127680706507 0.1306863553335206 0)
(27.15030467725023 0.1478463868977424 0)
(26.59225106516802 0.1471934754709212 0)
(26.09881358392196 0.09830302696323991 0)
(25.66598739050517 0.08514147353865342 0)
(24.13124332327422 -0.4622503853806222 0)
(23.90332428211053 -0.6207340282591909 0)
(23.70232671682578 -0.715438562233195 0)
(23.3699472202137 -0.6662488760544166 0)
(25.20552856411107 0.7717271303277475 0)
(20.09239130964157 5.098306400892955 0)
(13.71993697827251 3.924523351225005 0)
(9.345206774801722 1.059322331408866 0)
(24.62759519668877 1.255378033983649 0)
(16.07223996526614 4.951625506445193 0)
(8.863793492246492 2.740817720540982 0)
(4.471030672122984 -0.1764392149682802 0)
(23.43567041631147 1.295059454431082 0)
(11.69330817056613 3.634461345579419 0)
(3.139653555169701 2.029128972063011 0)
(-0.7690312067987382 0.2418310295390885 0)
(19.41394392515171 -0.7286199331144499 0)
(7.302802418313504 -0.7957842549240548 0)
(0.2337109089428494 0.5430013756491713 0)
(-2.595590521220187 0.1743946547918641 0)
(8.569153663110637 2.693896254321466 0)
(10.58536319288633 4.559499441852408 0)
(11.49761096485742 6.280351469501644 0)
(12.44952343826797 7.625634689851945 0)
(6.136682646998604 1.993687861391654 0)
(9.51137152664151 4.411051434998461 0)
(11.20128860283158 6.226226520493386 0)
(12.40431550162873 7.672156809364522 0)
(2.933314629889565 0.0119806069636547 0)
(7.442484198391755 3.331965461711345 0)
(10.26714421455897 6.036195606874019 0)
(12.02123102151151 7.596918591875953 0)
(0.239560665327996 -0.1062554643481985 0)
(3.470287786884116 2.475987244964783 0)
(7.538053839070149 3.976191508457366 0)
(10.63465858359136 5.463980196167841 0)
(13.63848980689466 8.98649167333655 0)
(14.77053604017088 10.00815308622143 0)
(15.91945201762371 10.56578416481441 0)
(16.81353012918126 10.8559916721154 0)
(13.55816480943384 8.921003119522194 0)
(14.71383144177943 9.954782623338382 0)
(15.82396822587027 10.54167080632052 0)
(16.69639823506638 10.88141972156059 0)
(13.23585708080669 8.764174883948039 0)
(14.5173793950659 9.775720368777113 0)
(15.74209225754971 10.47462374870741 0)
(16.62306915077148 10.96197848648274 0)
(13.11738424696005 6.748232918423365 0)
(14.67204813387377 8.448537163656285 0)
(15.76611582179452 10.30179768916209 0)
(16.64565617965878 10.93921250008627 0)
(17.82791985735447 11.2756843285525 0)
(19.42337533018942 11.76984811097854 0)
(21.77504875079979 11.69322962303535 0)
(24.77798042073225 10.42096514357071 0)
(17.6227790848203 11.27976306487106 0)
(19.07492215427034 11.72985225361469 0)
(21.21153647397471 11.74952399840035 0)
(24.97582624805705 12.47347740842315 0)
(17.47370118593575 11.3688567812325 0)
(18.72297155552151 11.78345971313805 0)
(21.34547290809889 12.58553909497399 0)
(31.48515839518685 18.45884194984332 0)
(17.43735134593096 11.39312151516359 0)
(18.64011664686051 11.79211019642884 0)
(22.06806861066589 13.17483874950686 0)
(43.2439441574523 25.51573871959852 0)
(30.59388122358139 5.261213887364251 0)
(32.03812620203031 -3.582408660529172 0)
(12.65433583699507 8.691231811347327 0)
(7.857699593462147 30.84083240593436 0)
(32.23135457520434 4.900233072437705 0)
(26.46681303260388 -1.952397584026324 0)
(8.976513527191974 17.41678328537071 0)
(8.448180805759492 29.02685329352234 0)
(31.97401110679629 3.292519518808666 0)
(17.20847790406667 -4.302873433813371 0)
(3.828898106721627 21.32887572593212 0)
(4.612005933249323 29.02657917573289 0)
(20.30819306407171 -8.299020467563004 0)
(7.328069599642354 -0.5716296559300517 0)
(2.088267100028122 24.81809048499288 0)
(2.648161572782685 28.73395499725488 0)
(7.017469857632619 24.6206949482535 0)
(2.699575841025546 17.69712237752676 0)
(-0.7734050026342809 14.87154426718953 0)
(-2.833093685791761 9.937950790807882 0)
(6.712205497352774 23.57248994315477 0)
(1.915073355375612 19.24746059950094 0)
(-0.4568140023250218 14.98171103130869 0)
(-1.253578437996311 7.687178611198719 0)
(3.278211611200096 22.61476265577909 0)
(1.430412528961404 18.10667692515067 0)
(-0.3153889136923727 12.35861501523791 0)
(-0.8159269418332112 4.900436384820061 0)
(0.7861789199586258 22.03875539006586 0)
(-0.4547200968535304 17.3665751389613 0)
(-1.909241093967008 10.96804418673016 0)
(-1.738861410861062 3.285190560034376 0)
(-6.073827793938197 3.289749647564378 0)
(-2.016734428072578 0.2621726661467154 0)
(2.428980329562027 -2.420485822710674 0)
(4.456992053106389 -6.63219426666944 0)
(-6.812452617382681 3.051131273792653 0)
(-5.955769647060612 0.3487608640983133 0)
(-1.266774694962321 -0.7973418131199845 0)
(2.679132597370366 -5.575489716813867 0)
(-6.21290964664466 2.126700746239152 0)
(-7.806429336222125 0.6687286380748656 0)
(-4.517929916957206 0.3046666369116312 0)
(0.03242475802477661 -4.08621154711752 0)
(-4.58575458551257 2.18428670615302 0)
(-7.136652613673085 2.668598328267263 0)
(-5.229512857411121 3.072719419351588 0)
(-0.6499588788160054 -1.05222684653576 0)
(2.361373497962363 -6.935598895236466 0)
(2.293284409992891 -7.541105107580048 0)
(3.156917800217912 -7.215759106141925 0)
(4.462975219930188 -6.469134368481643 0)
(1.465749624389858 -6.803507140863079 0)
(1.926631165268281 -6.275230633010119 0)
(3.127028530024244 -5.840674125292569 0)
(3.899671911104762 -4.924361123210403 0)
(0.4567311018910067 -4.750754138058316 0)
(0.6584976754515701 -3.491299153084457 0)
(1.655333805697461 -3.003644058924809 0)
(2.137339521884564 -1.923655681440934 0)
(1.658864487200227 -1.986326001948255 0)
(1.311092217747563 -0.7524933870265169 0)
(1.877034236126833 -0.3122924386600179 0)
(1.653196551299036 0.6367089226396023 0)
(0.7800792733255689 1.14731488424558 0)
(-0.03299085117374874 1.284711123065121 0)
(-0.6587083172217391 0.9682832611486484 0)
(-0.9813009404129384 0.3366272121976436 0)
(1.586999736021113 -0.9804349156990572 0)
(0.5863085882618326 -0.4815305198206977 0)
(-0.2570297666369804 -0.05723414340332132 0)
(-0.675058149184068 -0.02422304618891853 0)
(3.36373360020117 -3.805973791415461 0)
(2.444049187896351 -2.79683978482926 0)
(1.338023759390106 -1.704868099661724 0)
(0.6067250801104671 -0.6385156860802784 0)
(5.107002140744852 -4.816657017710526 0)
(4.969849349446231 -3.302378539179785 0)
(4.187864669660339 -2.022001664349374 0)
(3.720943271491624 -0.7293604237965948 0)
(-0.9813009404152322 -0.3366272121747577 0)
(-0.6750581491840832 0.02422304619869778 0)
(0.6067250801107464 0.6385156860749571 0)
(3.720943271492925 0.7293604237770948 0)
(-0.6587083172258852 -0.9682832611295825 0)
(-0.257029766637893 0.05723414341284679 0)
(1.338023759394608 1.704868099659286 0)
(4.187864669688215 2.022001664330136 0)
(-0.03299085117756383 -1.284711123051742 0)
(0.5863085882604318 0.481530519827897 0)
(2.444049187895573 2.796839784827357 0)
(4.969849349466908 3.302378539180901 0)
(0.7800792733228349 -1.147314884234538 0)
(1.586999736023565 0.9804349157041347 0)
(3.363733600191472 3.805973791417133 0)
(5.107002140748684 4.816657017720014 0)
(4.462975219909642 6.46913436845302 0)
(3.156917800220021 7.215759106128569 0)
(2.293284409996186 7.541105107569651 0)
(2.36137349797643 6.93559889522173 0)
(3.899671911104554 4.924361123210546 0)
(3.127028530033077 5.840674125286255 0)
(1.926631165284745 6.275230633003257 0)
(1.465749624410654 6.803507140849114 0)
(2.137339521884994 1.923655681438241 0)
(1.655333805700086 3.00364405891607 0)
(0.6584976754625981 3.491299153085576 0)
(0.4567311019046765 4.750754138052416 0)
(1.653196551300335 -0.636708922635482 0)
(1.877034236134483 0.3122924386643725 0)
(1.311092217756572 0.7524933870335112 0)
(1.658864487208841 1.986326001956174 0)
(-0.6499588787985439 1.052226846538062 0)
(-5.229512857373585 -3.072719419323021 0)
(-7.136652613636396 -2.668598328236323 0)
(-4.585754585485206 -2.184286706144542 0)
(0.03242475804009021 4.086211547115462 0)
(-4.517929916937406 -0.3046666368892608 0)
(-7.806429336165155 -0.6687286380574974 0)
(-6.212909646576606 -2.126700746207146 0)
(2.679132597383622 5.575489716805393 0)
(-1.266774694930409 0.7973418131442346 0)
(-5.955769646989753 -0.3487608640725281 0)
(-6.812452617330257 -3.051131273740765 0)
(4.456992053119095 6.632194266664535 0)
(2.42898032958631 2.420485822732073 0)
(-2.016734427987225 -0.262172666125899 0)
(-6.073827793834493 -3.289749647492364 0)
(-2.833093685785262 -9.937950790693339 0)
(-0.7734050026919075 -14.87154426719097 0)
(2.699575841062591 -17.69712237778168 0)
(7.017469857356582 -24.62069494835301 0)
(-1.253578437992044 -7.687178611134782 0)
(-0.4568140023359706 -14.98171103127901 0)
(1.915073355464421 -19.24746059958601 0)
(6.712205497383402 -23.57248994314444 0)
(-0.815926941834794 -4.900436384795225 0)
(-0.31538891369688 -12.35861501520664 0)
(1.430412528987759 -18.10667692519308 0)
(3.278211611217456 -22.6147626557865 0)
(-1.738861410855949 -3.285190560042066 0)
(-1.909241093974356 -10.96804418675476 0)
(-0.4547200968548202 -17.36657513896202 0)
(0.7861789199683493 -22.03875539007083 0)
(7.857699593095653 -30.84083240594635 0)
(12.65433583672563 -8.691231811652068 0)
(32.03812620199975 3.582408660579305 0)
(30.59388122361873 -5.261213887355825 0)
(8.448180805608311 -29.02685329352101 0)
(8.97651352714229 -17.41678328557964 0)
(26.46681303265784 1.952397584002404 0)
(32.23135457513239 -4.900233072408303 0)
(4.612005933264269 -29.02657917579794 0)
(3.828898106668456 -21.32887572605001 0)
(17.20847790400956 4.302873433754471 0)
(31.97401110671573 -3.292519518795337 0)
(2.648161572788541 -28.73395499732777 0)
(2.088267100006886 -24.81809048512561 0)
(7.328069599665554 0.5716296558658031 0)
(20.30819306406442 8.299020467536563 0)
(24.77798042072057 -10.4209651435503 0)
(21.77504875077542 -11.69322962300291 0)
(19.42337533023758 -11.76984811098103 0)
(17.82791985732797 -11.27568432853264 0)
(24.97582624809479 -12.47347740842919 0)
(21.21153647402406 -11.74952399840507 0)
(19.07492215426898 -11.72985225359759 0)
(17.6227790848791 -11.27976306489966 0)
(31.48515839511517 -18.4588419497915 0)