/*--------------------------------*- C++ -*----------------------------------*\
  =========                 |
  \\      /  F ield         | OpenFOAM: The Open Source CFD Toolbox
   \\    /   O peration     | Website:  https://openfoam.org
    \\  /    A nd           | Version:  11
     \\/     M anipulation  |
\*---------------------------------------------------------------------------*/
FoamFile
{
    format      ascii;
    class       volVectorField;
    location    "19.1";
    object      U;
}
// * * * * * * * * * * * * * * * * * * * * * * * * * * * * * * * * * * * * * //

dimensions      [0 1 -1 0 0 0 0];

internalField   nonuniform List<vector> 
4455
(
(9.9960391 0.027791474 0)
(9.9961622 0.090410829 -1.6061423e-19)
(9.9646952 0.14415007 5.5110246e-19)
(9.9475249 0.20986059 1.0063967e-21)
(9.8932869 0.25752431 5.1565973e-19)
(9.8555928 0.34789555 -1.9404227e-18)
(9.7478957 0.404881 8.6258593e-19)
(9.6673203 0.57699102 0)
(9.410781 0.71622017 -5.2097844e-18)
(10.000359 0.032550036 -1.0449534e-18)
(9.9964747 0.098765378 1.0184761e-18)
(9.9700113 0.16095041 -1.2525283e-18)
(9.9467425 0.22711578 2.0851815e-18)
(9.9023162 0.28228936 -3.9938847e-18)
(9.8531002 0.36889696 4.3467653e-18)
(9.7530502 0.42183644 -4.1183778e-19)
(9.6512337 0.61370826 6.0080805e-19)
(9.3810364 0.65995802 2.2594537e-17)
(10.004269 0.037101707 -1.0884455e-18)
(9.9981145 0.10646801 1.3767646e-18)
(9.9742768 0.17436786 1.2261324e-18)
(9.9499646 0.24633861 -1.2191843e-18)
(9.9092259 0.30271413 5.3180827e-18)
(9.8625841 0.40311259 -2.9924105e-18)
(9.7542286 0.4557691 3.8707085e-19)
(9.6482722 0.66243682 -8.4130456e-18)
(9.3699787 0.68388944 -1.5974404e-17)
(10.005356 0.039269562 7.8177631e-21)
(10.003533 0.1144944 -1.5793541e-19)
(9.9725468 0.18556555 2.8985765e-18)
(9.9621988 0.26172001 3.9585662e-19)
(9.9121577 0.32841737 -7.0958183e-21)
(9.8737953 0.43105431 -5.7434592e-19)
(9.7719867 0.49764914 6.325432e-18)
(9.6446755 0.72705394 1.6807731e-17)
(9.3445799 0.73706215 1.3260054e-17)
(10.009839 0.042018659 2.1054445e-18)
(10.002907 0.11734052 -2.356779e-18)
(9.9783789 0.1971936 2.9904128e-18)
(9.9653085 0.27417046 1.2527765e-21)
(9.9299608 0.35073577 -3.6385716e-18)
(9.8780069 0.45325055 -1.110342e-18)
(9.7861095 0.52293768 -4.9859867e-18)
(9.6561551 0.77243418 -7.8937525e-18)
(9.2968959 0.76252838 -3.9083118e-17)
(10.012332 0.043297226 0)
(10.005265 0.11983865 0)
(9.9824189 0.20554945 -5.2209086e-18)
(9.9718633 0.2863451 -5.9887223e-18)
(9.9420533 0.3722264 0)
(9.8966206 0.48631495 -8.0197287e-18)
(9.7957019 0.56358855 -6.7827219e-19)
(9.6526033 0.84217783 -4.7248208e-19)
(9.2751103 0.80257 4.8216009e-17)
(10.015483 0.043299848 0)
(10.005318 0.11978418 -1.411286e-19)
(9.9904936 0.21184342 1.5894498e-19)
(9.9797671 0.29354018 5.8534017e-18)
(9.9530636 0.38508954 -4.2938635e-19)
(9.9104353 0.50016106 1.7065988e-17)
(9.8223618 0.58321905 0)
(9.6637156 0.89680855 0)
(9.2352783 0.83460821 2.2047152e-17)
(10.018451 0.042788454 3.9565902e-18)
(10.005854 0.11851581 0)
(9.9956224 0.21653398 0)
(9.9921069 0.30524444 0)
(9.9698829 0.40342065 0)
(9.9236603 0.53282439 -8.5122736e-18)
(9.833558 0.6186905 -9.0610722e-18)
(9.6737132 0.96489616 1.2850313e-17)
(9.2118161 0.88404376 5.8268198e-20)
(10.02132 0.039906267 -3.8960539e-18)
(10.008181 0.11593296 -1.3552366e-19)
(10.000117 0.21428455 -1.5299212e-19)
(9.9989273 0.30365333 3.4681457e-19)
(9.9848175 0.4082631 1.3326682e-17)
(9.946721 0.54218935 1.4973849e-17)
(9.8610062 0.63804108 2.8840647e-17)
(9.6952548 1.0161313 -1.2623965e-17)
(9.1973182 0.94298224 -3.7856664e-17)
(10.021428 0.03827167 0)
(10.023181 0.035484438 7.2196403e-18)
(10.021862 0.031919766 -7.161194e-18)
(10.020628 0.028581385 6.8544251e-18)
(10.01958 0.02497287 -6.6998996e-18)
(10.016229 0.01995323 1.337168e-17)
(10.014439 0.015251664 -1.2981193e-17)
(10.010404 0.008874117 0)
(10.005215 0.0029297043 0)
(10.011588 0.11149773 0)
(10.012557 0.10658478 1.2505513e-19)
(10.018069 0.10000413 0)
(10.018263 0.09029943 3.553344e-19)
(10.02154 0.082055681 7.2502123e-18)
(10.024914 0.073783869 -2.165069e-17)
(10.024621 0.065272115 1.4015278e-17)
(10.031183 0.057055109 -2.1355197e-19)
(10.026209 0.038442377 1.3517846e-17)
(10.007719 0.21849446 9.0868978e-18)
(10.013786 0.21441309 -1.7900329e-17)
(10.020511 0.21196441 1.7079337e-17)
(10.031341 0.2042145 -5.4088545e-19)
(10.034637 0.19396816 -8.0518004e-18)
(10.047019 0.18282677 -2.4446041e-19)
(10.047147 0.16490114 0)
(10.059172 0.15307466 4.6192918e-19)
(10.055032 0.11837524 -2.2475331e-19)
(10.009608 0.31064411 9.470928e-18)
(10.02225 0.31462434 -1.9231192e-17)
(10.029553 0.31222035 1.8283196e-17)
(10.044113 0.31270448 -8.8556777e-18)
(10.050579 0.30383589 -5.5322839e-19)
(10.067045 0.30096393 2.6715675e-19)
(10.073535 0.28880921 0)
(10.096195 0.28231302 -2.513126e-19)
(10.094715 0.25877063 1.5120889e-17)
(9.9995322 0.42096225 -1.0702784e-17)
(10.023348 0.43386172 0)
(10.036751 0.43592925 -9.8713031e-18)
(10.062319 0.44158131 1.0179337e-17)
(10.073951 0.43477398 -9.1802077e-18)
(10.099776 0.43413985 9.4869426e-18)
(10.1076 0.41817429 0)
(10.134046 0.41185679 0)
(10.135819 0.37934911 5.3546411e-19)
(9.9577442 0.5681766 -1.3063339e-17)
(9.9893992 0.59796297 -1.2455153e-17)
(10.002946 0.61536287 1.197272e-17)
(10.036456 0.63841809 1.1445927e-17)
(10.052388 0.64840127 -1.1034187e-17)
(10.088256 0.66732589 0)
(10.10593 0.66962088 2.0352297e-17)
(10.149103 0.68294138 -7.694707e-20)
(10.158591 0.66362608 -3.7891802e-17)
(9.8806471 0.66229811 -1.5270288e-17)
(9.9189251 0.70875381 0)
(9.9454353 0.727724 0)
(9.9846432 0.76599008 4.1206659e-19)
(10.018562 0.77022533 0)
(10.06102 0.80123157 0)
(10.098204 0.79439367 0)
(10.143671 0.82352316 0)
(10.168988 0.80467255 0)
(9.7016395 1.090708 5.8457759e-19)
(9.7520523 1.1863555 0)
(9.8085065 1.2025133 5.1619246e-19)
(9.8795037 1.2898772 -9.6597988e-19)
(9.9198295 1.3319557 -1.4507506e-17)
(9.979161 1.4070728 -1.3704328e-17)
(10.01786 1.4067898 2.6368733e-17)
(10.080174 1.4323547 2.5364422e-17)
(10.121917 1.3958167 -2.399166e-17)
(9.2568356 1.0209519 7.0149549e-17)
(9.3738491 1.1756642 -4.3850535e-17)
(9.4715545 1.4109341 3.9473075e-17)
(9.5521408 1.5692325 -3.7571343e-17)
(9.6230253 1.5728321 -5.2861051e-17)
(9.7548042 1.4912828 9.9173331e-17)
(9.9292327 1.3120543 -6.2633791e-17)
(10.098634 1.2718294 -2.9826348e-17)
(10.231264 1.2864154 2.8043883e-17)
(10.006638 0.0018693892 -1.7811445e-20)
(10.012344 0.0034061386 1.8310397e-17)
(10.02071 0.0063632726 -1.0604603e-20)
(10.030813 0.00965188 -1.844103e-17)
(10.042604 0.013052688 1.8030448e-20)
(10.056507 0.016587223 1.8538348e-17)
(10.07262 0.020303412 -1.8628763e-17)
(10.091143 0.024101678 -1.8169316e-20)
(10.113804 0.029331054 -9.3592336e-18)
(10.039211 0.044617805 -1.9396459e-17)
(10.046419 0.062123108 1.9510963e-17)
(10.063958 0.063643055 -1.9514848e-17)
(10.075281 0.082626002 0)
(10.09769 0.081906604 1.9662858e-17)
(10.114146 0.10391854 8.1375109e-21)
(10.141805 0.1004048 2.3899089e-20)
(10.163387 0.1250292 -1.9767175e-17)
(10.196309 0.11814423 9.934066e-18)
(10.07139 0.12661601 2.0705292e-17)
(10.079102 0.15021788 -2.0767276e-17)
(10.10473 0.15583613 -2.0893098e-17)
(10.115986 0.18418153 2.0945047e-17)
(10.14547 0.18794274 -2.1097008e-17)
(10.159698 0.21788651 2.1025143e-17)
(10.192595 0.22010187 -2.1207577e-17)
(10.210374 0.25265623 1.1455926e-21)
(10.247769 0.25289183 2.1229366e-17)
(10.124427 0.27128221 -2.2097075e-17)
(10.133534 0.30317342 -8.6941974e-20)
(10.162337 0.31017337 8.735774e-20)
(10.172783 0.34123687 0)
(10.205384 0.34745512 -9.40543e-23)
(10.219433 0.38224335 -2.2400472e-17)
(10.256784 0.38719902 2.2772159e-17)
(10.274688 0.42555228 8.855285e-20)
(10.316541 0.42803406 8.8763291e-20)
(10.165621 0.39505053 -9.3325764e-20)
(10.173854 0.43453475 -2.4023209e-17)
(10.211122 0.44787157 -5.0287898e-20)
(10.222024 0.49106385 2.4227703e-17)
(10.260987 0.50233013 2.4349026e-17)
(10.273803 0.5454657 -2.4472996e-17)
(10.315563 0.55469747 -9.5225962e-20)
(10.332086 0.59982929 -9.5489547e-20)
(10.377902 0.60589043 -9.5755011e-20)
(10.200335 0.6892541 2.5916102e-17)
(10.21244 0.7348604 0)
(10.246931 0.74582105 0)
(10.25826 0.78454781 2.6018432e-17)
(10.296573 0.79272106 -2.6367404e-17)
(10.311602 0.83259291 -2.6390297e-17)
(10.354512 0.83957102 5.2802345e-17)
(10.371376 0.8792788 -6.9714663e-20)
(10.418249 0.88677594 -5.3119731e-17)
(10.218135 0.83376201 -1.1086379e-19)
(10.24849 0.87158641 0)
(10.297674 0.89964505 1.1143146e-19)
(10.325702 0.93279845 2.8888766e-17)
(10.370326 0.95541582 -2.9061058e-17)
(10.394999 0.98493531 2.9063628e-17)
(10.438658 1.005961 -2.9126684e-17)
(10.463053 1.0352036 -1.128906e-19)
(10.50536 1.0531445 2.9213307e-17)
(10.149813 1.4235629 -3.0793215e-17)
(10.179522 1.4440533 3.1222015e-17)
(10.210748 1.4497099 -3.1320384e-17)
(10.254715 1.457057 3.1157317e-17)
(10.301634 1.4580439 -3.0992908e-17)
(10.356128 1.4644511 -3.004309e-22)
(10.406498 1.4660457 3.1411466e-17)
(10.45863 1.4667436 2.4759986e-19)
(10.505526 1.4615554 1.5698847e-17)
(10.38974 1.3765216 0)
(10.504642 1.4220617 -3.4824333e-17)
(10.639333 1.4955597 2.2335292e-19)
(10.73303 1.5236598 3.5474334e-19)
(10.845179 1.6087326 6.9804195e-17)
(10.895883 1.6602196 -3.4914397e-17)
(10.991224 1.6856619 -3.4894818e-17)
(11.032477 1.6298666 3.5029691e-17)
(11.110802 1.577034 1.7557031e-17)
(11.119126 1.4592791 -2.0520434e-17)
(11.140066 1.3436099 0)
(11.112703 1.2396508 2.0454589e-17)
(11.087814 1.1709667 -2.0454685e-17)
(11.001972 1.0889285 0)
(10.931539 1.029822 0)
(10.816387 0.96050645 0)
(10.733634 0.92056116 -2.0996726e-17)
(10.608685 0.87265353 2.0996783e-17)
(10.550766 1.4532596 -1.7883299e-17)
(10.595239 1.4465582 0)
(10.630645 1.4312129 0)
(10.660418 1.4193728 0)
(10.676494 1.4006052 0)
(10.68666 1.3913823 0)
(10.684739 1.3776266 0)
(10.675533 1.375785 1.7737934e-17)
(10.653836 1.3699329 -3.5510702e-17)
(10.525174 1.0771681 -8.6044754e-20)
(10.55924 1.1030188 -3.2043286e-17)
(10.575864 1.1224097 0)
(10.609156 1.143218 -1.5904112e-17)
(10.622776 1.1593106 1.5904117e-17)
(10.651111 1.1768961 0)
(10.657197 1.1913501 0)
(10.67876 1.2089415 0)
(10.676938 1.225741 0)
(10.434251 0.9241918 2.8547361e-17)
(10.484473 0.94119894 0)
(10.500034 0.97781665 1.4159269e-17)
(10.550501 0.99497138 -2.8280574e-17)
(10.565143 1.0316101 1.4121199e-17)
(10.614513 1.0489886 0)
(10.627199 1.0863999 0)
(10.674985 1.1047631 0)
(10.684426 1.1442754 1.393985e-17)
(10.394134 0.65245056 0)
(10.441678 0.6614519 2.5782447e-17)
(10.45909 0.70857074 -3.8638391e-17)
(10.508651 0.71679846 1.2855977e-17)
(10.526903 0.76448121 1.2782291e-17)
(10.578337 0.77289238 -3.7933596e-20)
(10.596479 0.8216469 -2.5449325e-17)
(10.650036 0.83157518 2.5371406e-17)
(10.667262 0.88235719 -1.2665761e-17)
(10.336458 0.46974136 0)
(10.383064 0.47348732 1.1733951e-17)
(10.405831 0.5182612 -1.1734191e-17)
(10.456559 0.52073584 0)
(10.481792 0.56775248 -2.3263016e-17)
(10.535972 0.56935673 2.3263168e-17)
(10.563107 0.61848505 1.1555434e-17)
(10.620829 0.61984049 -2.3070597e-17)
(10.649464 0.67163771 1.1515065e-17)
(10.267819 0.28859366 0)
(10.30935 0.28914526 0)
(10.332471 0.32775524 0)
(10.378385 0.32694507 -1.0775429e-17)
(10.404776 0.36852264 2.1519241e-17)
(10.455261 0.36644302 -2.1454378e-17)
(10.484863 0.41121902 1.071045e-17)
(10.540337 0.408124 -1.0637976e-17)
(10.573094 0.45663041 2.1236616e-17)
(10.221491 0.14537913 -2.0127886e-17)
(10.259914 0.13738478 2.4626092e-20)
(10.289536 0.16858047 1.0028158e-17)
(10.332335 0.1582696 -9.9737366e-18)
(10.366403 0.19191973 9.9736799e-18)
(10.413692 0.17886746 0)
(10.452091 0.21492286 9.8777434e-18)
(10.50464 0.19938577 -1.9719347e-17)
(10.547559 0.23873836 9.8415892e-18)
(10.127357 0.036014286 1.8101991e-20)
(10.1604 0.03813666 9.4146214e-18)
(10.182431 0.052257577 9.3765693e-18)
(10.222883 0.053442802 -9.3765702e-18)
(10.247533 0.065897224 0)
(10.29251 0.066510218 0)
(10.322949 0.078979853 -9.2776035e-18)
(10.374388 0.080317165 1.852477e-17)
(10.411495 0.093228089 -9.2471636e-18)
(10.46977 0.095374995 0)
(10.513466 0.10852974 -9.1404657e-18)
(10.578875 0.11153961 4.0959741e-20)
(10.629484 0.12477738 4.3874698e-20)
(10.702404 0.12883777 4.6957123e-20)
(10.76058 0.14225952 9.0086739e-18)
(10.841949 0.14754567 8.9046084e-18)
(10.90863 0.16118278 -8.904609e-18)
(10.999423 0.16810378 0)
(10.605938 0.22097274 0)
(10.653468 0.26425693 0)
(10.718132 0.24448078 -9.6738404e-18)
(10.770354 0.29224207 4.8202555e-20)
(10.841934 0.27066232 5.0963662e-20)
(10.899066 0.32362023 9.5745575e-18)
(10.978709 0.30043161 9.4635483e-18)
(11.040489 0.3592504 -9.4635338e-18)
(11.131459 0.3360412 0)
(10.634051 0.45286129 -1.0598687e-17)
(10.669933 0.50574483 0)
(10.736907 0.50165246 0)
(10.775973 0.55964516 -1.0419559e-17)
(10.84965 0.55554914 2.0788164e-17)
(10.892145 0.61956027 -5.3660657e-20)
(10.97349 0.61570414 -5.670028e-20)
(11.019881 0.68684828 -1.0257989e-17)
(11.110795 0.68346455 0)
(10.711206 0.67348187 -1.1429769e-17)
(10.741004 0.72880089 1.1429678e-17)
(10.807358 0.73190456 0)
(10.838067 0.7917662 0)
(10.909788 0.79691425 1.123789e-17)
(10.941375 0.86262998 -1.1237804e-17)
(11.019453 0.87047821 1.1129179e-17)
(11.052217 0.94360548 -5.5936693e-18)
(11.137997 0.95456789 -5.5353365e-18)
(10.723265 0.89503231 -1.2585347e-17)
(10.738899 0.94900189 1.2585059e-17)
(10.797769 0.96561962 0)
(10.811358 1.0240978 0)
(10.873651 1.0455356 0)
(10.885254 1.1103063 0)
(10.95228 1.1370298 0)
(10.962487 1.2098924 0)
(11.036551 1.242663 0)
(10.730688 1.1650802 -1.3939848e-17)
(10.735549 1.2079676 1.3874014e-17)
(10.781108 1.2335001 -1.3874084e-17)
(10.780272 1.2812205 1.3812654e-17)
(10.826424 1.3144369 -1.3812114e-17)
(10.819366 1.3690123 0)
(10.868006 1.4118322 0)
(10.854378 1.4771011 0)
(10.908421 1.5300708 0)
(10.692458 1.2484186 0)
(10.680084 1.2692303 -1.5748642e-17)
(10.691357 1.3013786 1.5745391e-17)
(10.66674 1.3295777 0)
(10.678876 1.3725728 1.5738372e-17)
(10.64447 1.4093494 -1.5739282e-17)
(10.658624 1.4665268 0)
(10.611227 1.516803 7.874669e-18)
(10.631339 1.5893279 -1.5751449e-17)
(10.63465 1.3799853 1.7777085e-17)
(10.590807 1.3843317 1.786732e-17)
(10.565028 1.4062645 -1.7870439e-17)
(10.502817 1.4249544 1.7988612e-17)
(10.47109 1.4600969 -3.6047973e-17)
(10.388604 1.498295 3.6185653e-17)
(10.353923 1.5474969 -3.6331065e-17)
(10.256152 1.6069279 1.8202371e-17)
(10.220146 1.6716465 0)
(10.519771 0.85280648 -2.1283264e-17)
(10.387138 0.82180565 2.128332e-17)
(10.29327 0.82015675 0)
(10.153845 0.80455058 0)
(10.052699 0.81911891 0)
(9.9055442 0.82127536 0)
(9.7952441 0.85661178 0)
(9.6375121 0.88032738 -1.1198167e-17)
(9.5182398 0.94159342 1.1198096e-17)
(9.3470937 0.99299185 1.1374617e-17)
(10.108522 1.755978 0)
(10.57282 1.6581563 7.8777249e-18)
(10.889334 1.6093968 0)
(11.045697 1.3264325 0)
(11.172671 1.0370016 0)
(11.159374 0.76043404 5.0337058e-18)
(11.194566 0.39726288 4.6354348e-18)
(11.075949 0.18220747 4.3595548e-18)
(9.2182134 1.0858221 -1.1374514e-17)
(10.073907 1.8383083 0)
(10.600939 1.7436544 0)
(10.952414 1.6722693 6.7939058e-18)
(11.128986 1.3659322 0)
(11.267809 1.0511511 -5.4376275e-18)
(11.264348 0.76426295 -1.0031494e-17)
(11.302193 0.38060248 -9.2345542e-18)
(11.177336 0.19045488 -8.6836163e-18)
(9.0319571 1.1709253 0)
(9.9509589 1.9522208 0)
(10.536125 1.840894 7.8749825e-18)
(10.929892 1.7684096 -6.7940103e-18)
(11.138148 1.4637382 0)
(11.305616 1.1448097 5.4375898e-18)
(11.315365 0.84256511 4.9977198e-18)
(11.367438 0.44164213 4.599159e-18)
(11.265237 0.20545875 4.3240606e-18)
(8.8926521 1.3048029 1.1647088e-17)
(9.9217135 2.0543847 0)
(10.572299 1.9377411 -1.5744576e-17)
(11.005555 1.8408448 0)
(11.233258 1.5094167 0)
(11.412059 1.1615372 -5.3614657e-18)
(11.434544 0.85392006 -4.91862e-18)
(11.490479 0.43207163 0)
(11.378873 0.21552813 -4.2450428e-18)
(8.6930059 1.4394124 -1.1647093e-17)
(9.7915058 2.2039174 -9.3502157e-18)
(10.505448 2.0666204 7.8694738e-18)
(10.982277 1.957294 0)
(11.244493 1.623516 0)
(11.454914 1.2683433 5.3614572e-18)
(11.490017 0.93313846 4.9187461e-18)
(11.560156 0.49363066 0)
(11.479807 0.23119864 4.2450422e-18)
(8.5486813 1.6290936 0)
(9.7736301 2.327749 9.3501691e-18)
(10.553412 2.1751473 -7.8460618e-18)
(11.072174 2.035947 0)
(11.35399 1.6740961 0)
(11.575258 1.2869011 -5.2736186e-18)
(11.626228 0.95616785 -4.8280438e-18)
(11.700338 0.49060141 0)
(11.606548 0.24373844 -4.1541122e-18)
(8.3451436 1.83687 0)
(9.6433781 2.5200253 0)
(10.490379 2.3396972 7.8460573e-18)
(11.056933 2.1791677 -3.3262132e-18)
(11.370314 1.8066973 -2.9346946e-18)
(11.625197 1.4085135 7.8859592e-18)
(11.688678 1.0330919 7.2172223e-18)
(11.775808 0.55256925 0)
(11.721558 0.25991914 6.2060369e-18)
(8.2132508 2.1055537 0)
(9.6472117 2.6655539 -4.6927106e-18)
(10.555376 2.4581715 0)
(11.160134 2.2609537 3.3256713e-18)
(11.495687 1.8592391 2.9340884e-18)
(11.760661 1.4272222 -2.6448537e-20)
(11.837272 1.0677046 -4.7509797e-18)
(11.934331 0.55892555 0)
(11.862084 0.27319692 -2.051925e-18)
(8.0376649 2.4219254 -5.9694233e-18)
(9.5283744 2.9141702 4.692237e-18)
(10.503474 2.6734424 0)
(11.160498 2.4422778 0)
(11.526089 2.0246245 0)
(11.824151 1.5727487 -5.1422385e-18)
(11.918417 1.1431931 2.9076729e-20)
(12.016376 0.61852525 0)
(11.990415 0.28927605 0)
(12.162214 0.30441979 0)
(12.191254 0.6332496 0)
(12.077937 1.1863256 -1.1290048e-19)
(11.96808 1.5727093 2.6831372e-18)
(11.666455 2.0523326 0)
(11.283711 2.5062036 -4.0934269e-19)
(10.605827 2.7766875 -2.8822837e-20)
(9.5862309 3.0676626 -3.8903029e-18)
(7.9692042 2.7772895 1.1121409e-17)
(12.32424 0.31464722 -9.7995307e-19)
(12.285316 0.67418598 -1.3275774e-19)
(12.183159 1.2373609 1.1734239e-18)
(12.058661 1.71184 -3.2766412e-21)
(11.73815 2.213927 -1.2264608e-18)
(11.323774 2.6913976 1.5867203e-18)
(10.616344 3.0134209 -4.8546209e-19)
(9.5649808 3.3735723 5.0615724e-18)
(8.0559159 3.2551602 -5.6587742e-18)
(12.489314 0.32262866 1.9625366e-18)
(12.480356 0.68939349 0)
(12.360097 1.2826389 2.2896901e-18)
(12.219263 1.7016263 -1.2444012e-18)
(11.910701 2.2279693 1.2415297e-18)
(11.495245 2.7391691 -3.00544e-18)
(10.809584 3.0966301 -2.3594713e-18)
(9.788677 3.4974983 1.1400084e-18)
(8.3789847 3.4546062 7.2804425e-20)
(12.66522 0.33038424 -9.8314795e-19)
(12.586438 0.72379448 -1.3140584e-19)
(12.489949 1.3313254 -1.0080736e-18)
(12.340642 1.8513505 1.4204101e-18)
(12.012158 2.4048702 5.2489248e-19)
(11.570214 2.9401902 1.6163068e-18)
(10.865131 3.3450727 1.9063929e-18)
(9.8253021 3.7920634 5.9484877e-19)
(8.4006419 3.8812145 -6.8104221e-19)
(12.852618 0.33850547 2.3804534e-19)
(12.805491 0.74093092 -2.5659227e-19)
(12.68023 1.3744996 -1.425994e-19)
(12.508236 1.830553 4.6337116e-19)
(12.209399 2.4010492 -5.3017704e-19)
(11.771518 2.9695563 -5.9466735e-19)
(11.091313 3.4085851 -4.9049785e-19)
(10.070453 3.8934971 5.5384063e-19)
(8.691427 4.0214272 -7.5185072e-19)
(13.04987 0.3465366 -2.4075904e-19)
(12.923451 0.77530859 2.5968289e-19)
(12.833932 1.4193779 -1.4160015e-19)
(12.663736 1.9818649 -1.6891821e-21)
(12.335175 2.5849144 -1.7236484e-19)
(11.87187 3.1781064 4.0425979e-19)
(11.173331 3.6616395 -4.9124786e-19)
(10.132924 4.1856497 5.5604202e-19)
(8.7509611 4.3935118 0)
(13.255006 0.353632 -2.3142883e-19)
(13.164841 0.79297896 -1.2799304e-19)
(13.0374 1.4563344 -1.3672457e-19)
(12.838625 1.9503784 -1.5645086e-19)
(12.546735 2.5633956 -1.728695e-19)
(12.088747 3.1883885 4.1207062e-19)
(11.411682 3.7035165 -9.5246342e-19)
(10.392985 4.2594099 1.1594294e-18)
(9.0593234 4.490253 -6.956114e-19)
(13.467957 0.35928569 6.8913131e-19)
(13.295863 0.82582462 4.9606124e-19)
(13.211843 1.495243 6.8323507e-19)
(13.020446 2.0979887 7.5469499e-19)
(12.698454 2.749733 5.2615427e-19)
(12.218875 3.4009934 -1.9539895e-19)
(11.526257 3.9574597 -4.9099276e-19)
(10.490087 4.5474493 -4.4599542e-20)
(9.1473352 4.8289537 -7.4213497e-19)
(13.688484 0.36306031 -1.3529851e-18)
(13.550923 0.84078773 -5.0224668e-19)
(13.428096 1.524112 -1.7602807e-18)
(13.204166 2.058634 -4.6258011e-19)
(12.92087 2.7072196 1.1789894e-18)
(12.451911 3.3875811 6.0257636e-19)
(11.780615 3.9736095 -2.814827e-18)
(10.767584 4.5949155 5.5898145e-19)
(9.4526614 4.8979283 1.4805995e-18)
(9.5590449 5.2145933 -1.477547e-18)
(10.895511 4.8794971 6.0519119e-19)
(11.92998 4.2256921 4.2168737e-18)
(12.615424 3.6005278 -5.9821007e-19)
(13.102909 2.8914838 3.0301316e-19)
(13.411402 2.1956213 8.7890224e-19)
(13.622325 1.5541055 1.2222225e-18)
(13.69779 0.87016229 -6.0496592e-20)
(13.916812 0.36470668 1.832559e-18)
(9.8621175 5.2594777 5.8676932e-18)
(11.187816 4.9023525 5.5735967e-19)
(12.198984 4.2136617 -6.0647285e-18)
(12.859827 3.5597777 -1.9082386e-19)
(13.331265 2.8251375 -1.1900196e-18)
(13.607434 2.1468261 -1.0507836e-18)
(13.850284 1.5724651 -2.2064247e-18)
(13.96406 0.88098907 0)
(14.151948 0.36412737 -8.8375575e-19)
(9.9887458 5.5618492 -7.531196e-18)
(11.34637 5.1845878 5.7005286e-18)
(12.3838 4.4605969 3.2812612e-18)
(13.062617 3.7660071 -1.8860956e-19)
(13.543897 2.9964595 2.6084563e-18)
(13.830007 2.2710443 4.1857925e-21)
(14.060546 1.5905153 3.2993139e-19)
(14.123034 0.90597262 1.7305874e-18)
(14.393218 0.36153434 1.65898e-18)
(10.291064 5.5838913 -1.499405e-18)
(11.654198 5.1820098 1.0167743e-18)
(12.66297 4.41756 -4.7811078e-19)
(13.308905 3.699402 0)
(13.781654 2.9114526 -2.6474965e-18)
(14.036499 2.2095038 0)
(14.298246 1.59443 1.9349888e-18)
(14.395915 0.91169615 -3.564442e-18)
(14.639157 0.3566374 -6.907124e-20)
(10.442475 5.8782099 -7.172759e-19)
(11.839892 5.455673 -4.5782455e-18)
(12.885301 4.654134 4.7301841e-19)
(13.548814 3.8901531 0)
(14.015425 3.0595383 -2.6651532e-18)
(14.273013 2.3177813 2.2020428e-18)
(14.51995 1.5993351 1.2560362e-19)
(14.566524 0.93050852 3.5930029e-18)
(14.888921 0.34916 -1.6295298e-18)
(10.749155 5.8749365 -6.7677265e-18)
(12.172126 5.436043 -3.8946771e-18)
(13.170027 4.5763578 -3.3565495e-20)
(13.796214 3.7946435 -3.7997886e-19)
(14.260958 2.9570392 -5.5297562e-20)
(14.48825 2.2395544 -4.3771132e-18)
(14.762232 1.5866655 1.2257785e-19)
(14.845237 0.92935709 -1.7856983e-18)
(15.14088 0.33901979 0)
(10.934591 6.1662869 4.6582349e-18)
(12.38412 5.6911849 5.6939244e-18)
(13.432852 4.7959239 -3.370485e-20)
(14.066417 3.9598041 -3.7247924e-19)
(14.50817 3.0761765 2.347573e-18)
(14.73404 2.330533 2.3191425e-18)
(14.989466 1.5779614 1.1657344e-19)
(15.021514 0.9421441 -1.0681736e-19)
(15.393917 0.32630363 0)
(11.251386 6.1327063 0)
(12.745178 5.6535192 -5.2945114e-19)
(13.717335 4.6789213 4.5136798e-19)
(14.319503 3.8408347 -5.3295611e-18)
(14.755184 2.9513605 -1.5262568e-19)
(14.95323 2.2332052 3.948781e-18)
(15.230824 1.5483991 -3.4354583e-18)
(15.302151 0.93338666 3.2180102e-18)
(15.64558 0.31071075 2.7695144e-18)
(11.485035 6.4249797 1.1259477e-17)
(12.979983 5.8815212 9.582098e-18)
(14.026987 4.8745935 -4.4176958e-19)
(14.605579 3.9716051 5.6187628e-18)
(15.010368 3.0412491 -1.4329204e-19)
(15.205142 2.3054447 -4.017071e-18)
(15.456745 1.5263848 3.7153103e-18)
(15.481725 0.93970514 -3.3631898e-18)
(15.894089 0.29412491 -1.5430232e-19)
(16.158002 0.27098259 -2.6319261e-18)
(15.761957 0.92282336 2.9036772e-18)
(15.694177 1.4807042 0)
(15.425273 2.186154 -2.3966277e-19)
(15.259976 2.8894007 4.4237685e-18)
(14.870003 3.8196436 4.8109922e-18)
(14.307607 4.7002874 0)
(13.394004 5.8147962 -4.4494036e-19)
(11.843909 6.3441267 -1.1002151e-17)
(16.386189 0.24391347 0)
(15.944438 0.91132193 -3.003575e-18)
(15.920896 1.436014 0)
(15.688868 2.2256918 -2.3223112e-19)
(15.532613 2.9321804 -8.0370387e-18)
(15.193984 3.8938994 -5.2501085e-18)
(14.697266 4.8464127 5.9287803e-18)
(13.721109 6.0127255 -7.4338253e-18)
(12.229014 6.6851603 9.0145377e-18)
(16.617708 0.21166154 0)
(16.220381 0.88255477 0)
(16.150127 1.3746752 -3.0019032e-18)
(15.902361 2.0831802 0)
(15.777228 2.7483538 4.1317707e-18)
(15.462447 3.69565 -4.5018963e-18)
(14.999742 4.6094667 -5.3905415e-18)
(14.199371 5.8841967 -4.1796656e-19)
(12.669888 6.5151253 -1.3103256e-18)
(16.843165 0.17840153 0)
(16.397511 0.86660056 0)
(16.368092 1.3207218 3.0642133e-18)
(16.157609 2.1042031 3.1113942e-18)
(16.039263 2.7597306 3.7653787e-18)
(15.782877 3.7226672 4.9053388e-18)
(15.395021 4.685363 0)
(14.556049 6.0053868 6.4096884e-18)
(13.178826 6.8387994 -1.0511005e-17)
(17.058043 0.14562759 3.4876431e-20)
(16.662839 0.8349907 -3.800729e-20)
(16.582393 1.247803 0)
(16.354204 1.9474071 -1.9933444e-19)
(16.261302 2.5545698 -7.7511843e-18)
(16.025681 3.488594 2.6712155e-19)
(15.680278 4.3985976 4.9861193e-18)
(15.020579 5.810242 -7.0964427e-18)
(13.657952 6.5751607 9.8193416e-18)
(17.261884 0.11273007 -3.2975027e-20)
(16.83145 0.81772949 3.5992733e-20)
(16.786657 1.1896969 0)
(16.591618 1.9553222 -3.4842092e-18)
(16.49967 2.5425335 4.1940745e-18)
(16.325525 3.4770295 -2.5827661e-19)
(16.054394 4.4075453 -5.1573079e-18)
(15.366982 5.8416482 0)
(14.321445 6.8227111 -9.7060465e-18)
(17.454401 0.079551949 3.1067131e-20)
(17.084481 0.78281638 2.196628e-18)
(16.982821 1.1136657 -8.4164684e-20)
(16.766557 1.7924409 2.8652829e-18)
(16.691239 2.3253264 3.6223372e-18)
(16.528719 3.2160892 0)
(16.312524 4.0791505 0)
(15.769995 5.5660572 -5.6944049e-18)
(14.889343 6.4643415 0)
(17.648727 0.037544749 0)
(17.241822 0.76405676 -2.276629e-18)
(17.171611 1.0567454 0)
(16.982712 1.7963157 -3.2273977e-18)
(16.897124 2.3038449 -3.2901115e-18)
(16.792168 3.1792342 3.7768384e-18)
(16.650712 4.0390864 0)
(16.04066 5.4985305 6.2842485e-18)
(15.705659 6.573733 -6.4116171e-18)
(17.753694 -0.013725851 0)
(17.477859 0.72618438 0)
(17.348201 0.98496488 -7.6885564e-20)
(17.132302 1.6351106 -9.4947021e-20)
(17.073307 2.0543945 2.0229104e-19)
(16.965438 2.8555157 -3.9000389e-18)
(16.932141 3.6104027 0)
(16.392303 5.0085048 0)
(16.287391 6.1111293 6.3160316e-18)
(17.948334 -0.01032471 -4.8985702e-20)
(17.615434 0.72173736 -6.6719629e-21)
(17.525934 0.9343444 2.0952701e-18)
(17.328727 1.653381 0)
(17.198732 2.1170617 0)
(17.131136 2.9146495 -1.9731746e-19)
(17.151459 3.7416839 -3.179486e-18)
(16.434078 5.175289 1.3409046e-19)
(16.84639 6.1392384 0)
(18.128653 -0.061332694 -4.3082939e-20)
(17.831188 0.73518725 -6.6086397e-21)
(17.69203 0.95905495 -1.9003366e-18)
(17.460718 1.6632654 0)
(17.374622 2.0966844 0)
(17.275932 2.9447143 1.7159538e-19)
(17.426538 3.8301475 8.5177548e-18)
(16.468201 5.3512477 -1.1593115e-19)
(16.119454 6.0381 5.4695896e-18)
(18.2665 -0.034491953 0)
(17.947169 0.73770741 2.7847746e-18)
(17.842966 0.91117736 0)
(17.649843 1.6722533 1.2945422e-19)
(17.491973 2.1563296 -1.4133788e-19)
(17.432975 2.9979248 -1.4887504e-19)
(17.608814 3.9772786 -9.7242142e-18)
(16.310959 5.4365433 9.8621645e-20)
(14.374744 6.1191505 -5.1399163e-18)
(18.40082 -0.064225664 1.7330838e-18)
(18.149339 0.73063176 -2.661708e-18)
(17.993977 0.93665618 2.8437224e-18)
(17.771116 1.6881166 3.4227623e-18)
(17.656545 2.1340407 -4.1607853e-18)
(17.570045 3.004228 4.4076431e-18)
(17.767299 4.0105829 4.5761902e-18)
(15.989778 5.5044358 5.4474143e-18)
(11.774628 7.2169698 0)
(18.522789 -0.055421329 -3.2472743e-18)
(18.254218 0.72746761 2.1380994e-18)
(18.118969 0.89328081 -2.7509307e-18)
(17.960377 1.6760756 -2.8735969e-19)
(17.772812 2.1781988 3.9924967e-18)
(17.720588 3.0261779 -4.8205858e-19)
(17.79419 4.1432292 0)
(15.442453 5.8916419 -5.2412099e-18)
(8.5754814 7.7966855 0)
(18.640721 -0.079508597 2.7871433e-18)
(18.445766 0.70353001 -2.0479643e-18)
(18.260763 0.91538451 2.2997153e-18)
(18.079161 1.6841053 -2.9949619e-18)
(17.921596 2.1495007 -1.0252305e-19)
(17.829006 3.0068609 -3.5887491e-18)
(17.707669 4.1406962 2.1960677e-18)
(14.3725 5.658708 3.8389765e-18)
(2.3986595 2.4752464 -5.118003e-18)
(18.745891 -0.089890486 -1.3099721e-18)
(18.541453 0.69649523 5.1605942e-20)
(18.364397 0.87559656 -2.1851434e-18)
(18.269694 1.6531976 8.0529446e-20)
(18.023515 2.1842931 -8.6873435e-20)
(17.911358 2.9858184 -2.8886895e-18)
(17.459804 4.1021008 -3.809834e-18)
(12.006934 5.1700472 -3.614342e-18)
(-0.16959125 1.8315229 4.8522135e-18)
(18.840519 -0.10036376 -1.8863403e-20)
(18.72635 0.65608683 2.0031259e-20)
(18.494725 0.89461841 1.7247825e-18)
(18.383537 1.6516718 1.9436188e-18)
(18.137434 2.1512323 -2.5093419e-18)
(17.919878 2.8997003 5.2374012e-18)
(17.009141 4.0695985 2.8182294e-18)
(9.7970324 4.8091484 2.6799474e-18)
(-0.34699176 2.9755763 -4.2601e-18)
(18.919051 -0.12437332 8.8196023e-19)
(18.815527 0.64123924 -2.1160104e-20)
(18.576971 0.85992195 -1.3979797e-19)
(18.565593 1.605122 -1.8841269e-18)
(18.203344 2.1743898 2.3587009e-18)
(17.839375 2.8582845 -2.3501966e-18)
(16.169724 4.0169855 -1.1508543e-18)
(7.1318402 3.6830219 -2.54039e-18)
(-1.0608304 3.3670246 4.0595981e-18)
(-1.5183387 3.4515153 6.4098831e-18)
(5.4187702 3.0059535 3.1232517e-20)
(15.433217 3.8877362 -3.1448882e-20)
(17.740115 2.7741939 2.6840198e-20)
(18.257139 2.1432167 0)
(18.663899 1.5995264 -2.6462122e-20)
(18.695928 0.87541949 -3.0131775e-18)
(18.993451 0.58158408 -9.8211586e-19)
(18.982727 -0.12482814 -1.6828925e-18)
(-1.7287305 3.5098381 -6.1996417e-18)
(3.5602499 1.9778389 0)
(14.857183 3.8335066 0)
(17.675068 2.6466719 -4.0386649e-18)
(18.30878 2.120721 0)
(18.814109 1.5201644 2.6026743e-18)
(18.761702 0.82522715 4.0372064e-18)
(19.074517 0.54786265 9.2532772e-19)
(19.026826 -0.16228592 -7.2570693e-19)
(-1.9468729 3.4715355 -3.3020192e-20)
(2.0688118 1.0250037 2.6599176e-20)
(13.96114 3.6171719 0)
(17.500615 2.5725537 3.9498958e-18)
(18.333951 2.0923651 0)
(18.899313 1.5107958 -2.5804697e-18)
(18.873791 0.83579501 -2.5139667e-18)
(19.235321 0.47318856 -1.9574754e-20)
(19.056031 -0.16062923 1.5132449e-18)
(-2.0138142 3.4768787 -1.1376168e-17)
(0.63995319 0.51471757 3.6647358e-18)
(13.097455 3.4492732 -1.8716297e-20)
(17.360571 2.4352351 0)
(18.351381 2.0735501 3.438801e-18)
(19.036918 1.4282717 0)
(18.93431 0.78547389 1.2567828e-20)
(19.302807 0.42504295 -1.6550457e-20)
(19.065268 -0.19705057 4.6637441e-21)
(-2.0432998 3.4540842 1.0946241e-17)
(0.043372592 0.41946607 -1.1425146e-20)
(11.929345 3.1267838 -1.3227502e-18)
(17.074481 2.3564377 1.5453312e-20)
(18.351573 2.0530815 -3.1887826e-19)
(19.115372 1.417979 0)
(19.046235 0.78854039 1.6605408e-18)
(19.441726 0.33564517 0)
(19.056178 -0.21739355 0)
(-2.0812907 3.4906969 -2.8887742e-20)
(0.31443353 1.4239636 -3.3600285e-18)
(11.086253 2.9266621 2.2086012e-18)