/*--------------------------------*- C++ -*----------------------------------*\
  =========                 |
  \\      /  F ield         | OpenFOAM: The Open Source CFD Toolbox
   \\    /   O peration     | Website:  https://openfoam.org
    \\  /    A nd           | Version:  11
     \\/     M anipulation  |
\*---------------------------------------------------------------------------*/
FoamFile
{
    format      ascii;
    class       volScalarField;
    location    "0.359";
    object      p;
}
// * * * * * * * * * * * * * * * * * * * * * * * * * * * * * * * * * * * * * //

dimensions      [0 2 -2 0 0 0 0];

internalField   nonuniform List<scalar> 
880
(
80.00000000000041
80.00000016274292
80.01340869140165
81.87786026945021
80.00000000017725
80.00000047821806
80.01664562340494
82.76070446636615
80.00000000090168
80.00000186647064
80.03082429863477
83.81874910943566
80.00000001199173
80.00000820276617
80.06368597210471
85.40295553460858
79.99999994472604
80.000000027098
80.00000608822685
80.00009430399029
80.0000378413007
80.00014525943092
80.00090976323584
80.00134361860934
80.14435174822781
80.2342212534537
80.38496564526561
80.53682862274971
88.33916278428146
91.38985196078113
93.99413902890691
95.22802694009248
80.00023355597915
80.00189924712745
80.00716815298222
80.02223199401851
80.01260337228575
80.05396449630216
80.10825670392708
80.22828457840514
81.26916306936688
81.90583804800882
82.71221312104008
83.76160388175447
96.3783819895918
97.94479826300635
98.26807112684772
97.50524269844347
90.9847465925056
87.50909848673064
85.83884776806546
84.74467312859264
85.68770494862069
86.3670514500907
86.76963714174182
86.80462192794951
80.63774212815284
81.12167724938641
81.63657590418447
82.02045831675785
80.07891707751803
80.19092483479918
80.3605507055163
80.59870617681759
80.87631739646926
81.15513978699948
81.43105640653343
81.63680603560464
82.30973011183556
82.47752757601656
82.56453201397318
82.57046754760471
86.44574671494307
85.9474684241801
85.29385009251666
84.6159781472563
83.58792083545747
82.90168846852728
82.50847177946547
82.08289811327496
82.08486098743468
84.14428645712194
82.51784400820469
81.76218334106872
87.71596807860418
83.86337015186395
82.3680183311492
81.7420452626296
120.4513380762099
85.25620872208593
82.18519431826277
81.48993552866565
158.2830632471551
93.03423789252398
82.66623870653673
81.39829296165996
81.36581793786144
83.38621802025753
102.7384882237754
175.0539237053412
80.86740682845067
84.73967092633032
113.6847335820562
174.2664765483869
81.07932343407855
87.87866514291487
128.308057802719
176.1427907732232
81.88247917627341
93.54485868237578
142.2110574593824
173.4316347824119
167.732638948951
149.9186482218213
102.1805668711882
83.65219417778215
160.7671300875095
151.189498999723
111.7627034053782
86.81430383419327
153.3714581237404
148.9298512194538
120.0700725470752
91.90221745308773
145.6468047739386
138.9204719362085
121.4202451291085
98.25701246173067
103.895615232404
117.3540156829807
126.5775879959356
136.6064510746926
103.0914265036088
109.2011745412828
113.4374818837592
123.6599621603814
100.7987575886158
101.4752090190466
100.6916426782456
107.3240218857445
97.81548055980302
95.21793423960899
89.18520269657004
88.31020779453054
95.44354059133425
89.3239830562885
78.73618083762483
66.40064204853928
91.66705447100168
83.95870886787161
69.94956007282138
43.06866780302538
88.78951098461182
81.54225276454726
63.27083800288536
26.39219102577867
86.34410547968368
80.46235140909273
59.03364145713089
14.83556810694257
15.66245020620357
60.60811838700148
79.5873197893951
84.16388255206573
24.80738195735548
61.39278452337106
78.99687998322318
82.69723783056168
27.35695192140655
61.07055672664269
78.14060734801177
81.70655708095393
25.85238678486936
60.46504539965497
77.53496242584423
81.16910622168429
31.2782154612458
63.08685695263544
77.20654227716174
80.23650157191216
36.96919198271828
65.62259145032942
77.11972271135086
79.68607080756908
43.60006299696284
68.85964458312837
77.31860736961215
79.66694532210511
51.42407125005199
71.10348236279739
77.70357853564248
79.7403233274397
53.25270514114734
58.95217818994776
73.30733364238102
79.26479045643651
51.9034966008448
60.1552158209357
73.53089251569463
79.25642321805176
49.46144123658386
61.87306042876098
74.02820017581531
79.25797853881095
47.1584471980745
63.83225976443887
74.74246198820295
79.31587712403592
51.4240712500535
71.1034823626761
77.70357853569109
79.74032332711786
43.60006299698417
68.85964458283719
77.3186073695221
79.66694532169224
36.96919198273314
65.62259145008264
77.11972271094913
79.68607080705516
31.278215461301
63.08685695242905
77.20654227703785
80.23650157159955
84.16388255219883
79.58731978947327
60.60811838704373
15.6624502059293
82.69723783053816
78.99687998320979
61.39278452338097
24.80738195710462
81.70655708094847
78.1406073480554
61.07055672622101
27.35695192130375
81.16910622157096
77.53496242602372
60.46504539948403
25.85238678489064
14.83556810694053
59.03364145699913
80.46235140902515
86.34410547977956
26.39219102568918
63.27083800288639
81.54225276473321
88.78951098463243
43.0686678029646
69.94956007299103
83.9587088679618
91.66705447120478
66.40064204858577
78.73618083752439
89.32398305609938
95.44354059152688
103.895615232637
117.3540156836037
126.577587996404
136.6064510747162
103.0914265034877
109.201174541212
113.4374818839233
123.6599621605449
100.7987575881617
101.4752090189646
100.6916426782288
107.3240218857983
97.81548055974106
95.21793423946755
89.18520269650794
88.31020779462338
145.6468047739663
138.9204719363717
121.4202451294836
98.25701246258714
153.3714581237699
148.9298512196465
120.0700725471722
91.90221745315841
160.7671300875582
151.1894989997942
111.7627034052391
86.8143038343252
167.7326389488474
149.9186482220577
102.1805668715272
83.65219417787182
81.36581793785827
83.3862180201879
102.7384882236496
175.0539237051283
80.86740682896443
84.73967092661437
113.6847335820543
174.2664765481668
81.07932343480297
87.87866514358493
128.3080578028917
176.1427907730471
81.88247917643237
93.54485868226553
142.2110574595563
173.4316347822977
81.39829296158547
81.48993552860847
81.74204526291602
81.76218334112656
82.66623870604758
82.18519431811897
82.36801833104835
82.51784400805877
93.03423789202732
85.25620872204365
83.86337015151129
84.14428645695887
158.2830632467583
120.4513380758336
87.71596807862016
82.08486098744102
81.63680603580725
82.57046754776596
84.61597814751927
82.08289811350996
81.43105640637039
82.56453201412204
85.29385009276844
82.50847177953126
81.15513978696958
82.47752757603639
85.94746842416275
82.9016884681003
80.87631739618705
82.3097301116324
86.44574671518762
83.58792083552815
80.07891707733687
80.63774212780935
85.68770494896179
90.98474659271663
80.19092483448456
81.12167724908431
86.367051450441
87.50909848676561
80.36055070569958
81.63657590397128
86.76963714180708
85.83884776760135
80.5987061765908
82.02045831655873
86.80462192831395
84.74467312821844
97.50524269837986
83.76160388184802
80.22828457825614
80.02223199430912
98.26807112679766
82.71221312115911
80.10825670368349
80.00716815295841
97.94479826316274
81.90583804795671
80.05396449560656
80.00189924685047
96.37838198960702
81.26916306915878
80.01260337202829
80.00023355638668
95.22802693990006
80.53682862286011
80.0013436186911
80.00009430441828
93.9941390284626
80.38496564520734
80.00090976298263
80.00000608846585
91.38985196029067
80.23422125336984
80.00014525924
80.00000002697971
88.33916278387956
80.14435174817228
80.0000378412455
79.99999994542746
80.00000000002807
80.00000016282101
80.01340869141997
81.87786026934481
80.00000000026191
80.00000047803917
80.01664562341493
82.76070446642207
80.00000000110964
80.00000186636946
80.03082429865906
83.8187491097442
80.00000001232823
80.0000082026159
80.06368597208061
85.40295553470841
83.51962503169709
85.08973468551083
87.63653847106835
92.77780836931407
85.08973468579461
87.14384861549469
90.98875535066148
98.68063089938073
87.63653847121205
90.98875535070191
97.30191953822057
106.8100453860442
92.77780836939053
98.68063089925121
106.8100453863101
117.1720598091059
127.9841381546743
119.015732620345
115.0910445706361
106.8550254497647
126.2707290216003
123.6364584169668
123.5948477369272
119.5202140216713
126.3131378922133
125.4873639315697
125.0433042699469
123.6318332863188
123.7313775116629
123.3241427078947
123.2372071143375
122.3861797037254
119.6707065210937
117.8532574009097
114.2497885146621
109.3411410533243
119.9369626161412
118.0366806965785
114.3849806436782
109.8057913000737
120.2727167630989
118.2185709601531
114.3673756381419
110.240479536036
120.4476344000257
118.1098471124373
114.5185891447509
108.5597017291078
82.83219541435925
71.90784800071103
70.60976226164361
70.99037021295399
75.82221410573199
69.03304307123369
69.66222457312114
70.38697739279381
69.99831043977562
68.89832896010988
70.23461143927516
70.93517465646003
60.73691450652662
66.6006847418362
69.24323875845427
70.20385757758203
70.93736733606869
71.30093583096411
72.11534520361735
73.05859173345618
70.48027532608656
70.85983760903406
71.74347127311439
72.93656573946798
70.9122371518786
71.14333173821257
71.880734984686
72.81553640130397
70.3046788201124
70.62708080162699
71.5614188655987
72.85498065608962
78.6459961634814
113.941900748738
164.9737028933024
181.4233231430719
81.32126698812047
121.4384377270003
162.4714315344269
173.2719912473155
83.44653134764988
125.2170985538844
161.2426436002517
171.967733172253
84.80845543794439
130.6346357467448
161.6018418779296
171.9320054555499
218.181316643307
209.3828917559921
201.8620599744751
190.5984357144539
219.3472106479123
212.1615098637137
203.9974220595101
192.435317583784
218.3423525946337
213.6922058501338
205.0873650770854
193.5465981532285
213.2199804649368
215.6164342433652
206.9999908611074
195.2760245323327
178.2240700354811
167.9575825382943
158.3027975786068
153.3848785567395
180.2367373816512
169.3848990255194
159.0034163693686
153.7576499319713
181.3818245445858
169.5950908982285
159.5592196267586
153.7261367087658
183.7848481721085
170.9842542065315
161.2098364252043
154.8283254404272
148.5594651406186
140.6515080867322
126.775743701644
105.8856681600278
149.249758461412
142.1725633335068
128.8952704405567
114.3624585885239
149.1933307822383
142.5972307282518
130.6846366684277
119.6700413612732
150.356223560256
144.9393272048455
134.0350895150331
134.5829805211377
64.62595299885058
16.55305240727685
2.692315770995446
1.281823728555028
49.95527838856307
10.39717312879982
2.243727990284034
1.465502737952372
34.74008668354558
6.57462684444921
1.965887102669333
1.62314345287225
19.55150088030977
3.063663596883664
1.728660266327867
1.816247324951984
1.928170787217714
4.166818432983765
6.794633193471308
10.67961859821017
2.739967752770529
5.097935818154616
7.80871876013781
11.95089824401808
3.204971779305283
5.481459862751493
8.651128924671193
12.65006068485459
3.759079265179121
6.205947919641697
10.0955678814678
13.79398969258386
12.51973959033956
18.94789211658145
26.03778798462674
34.74877020888374
12.1331166954104
17.88643125270926
24.72478377826537
33.23807878978307
12.44381538935573
16.35859216800096
22.88169387496649
32.24668960783819
11.70049451103482
14.47053863856446
19.06832807082474
30.30257453308863
35.05048868389756
33.22095836427781
32.55426875625292
33.17044504680158
31.87138215095646
31.78831842118852
32.24807005097104
32.35019536340693
31.01111260878359
32.66039479958592
32.99111958151381
33.02429316842331
29.22326575363045
31.45959507081525
31.77746505283161
32.50717059279655
32.9300610830862
33.24825821802033
33.51311211184011
33.64248505999537
32.98197589938192
32.94368617866466
32.85578418294448
32.96539578409953
32.92617024881942
33.40013282873184
33.84196668514424
34.10348501195353
34.74091905996959
35.79540218856852
36.54149618287705
36.55061253183467
33.64248505999745
32.96539578410359
34.10348501195647
36.55061253183882
33.51311211184273
32.85578418294507
33.84196668515828
36.5414961828987
33.24825821802457
32.94368617867182
33.40013282875137
35.79540218859706
32.93006108310141
32.98197589940014
32.92617024885212
34.74091906001093
33.17044504686645
32.55426875629283
33.22095836433657
35.0504886839252
32.35019536344191
32.24807005101938
31.78831842125492
31.87138215100123
33.02429316844925
32.99111958155426
32.66039479963268
31.01111260884081
32.50717059281997
31.77746505286024
31.45959507085615
29.22326575368122
30.30257453317508
19.06832807093226
14.47053863866537
11.70049451112058
32.2466896079158
22.88169387506649
16.35859216810754
12.44381538944757
33.23807878986055
24.72478377836757
17.88643125282278
12.13311669551454
34.7487702089461
26.03778798473722
18.94789211668843
12.5197395904638
10.67961859826516
6.79463319350226
4.166818432946887
1.928170787243746
11.95089824407485
7.808718760176643
5.09793581814199
2.739967752772095
12.6500606849185
8.65112892472234
5.481459862750746
3.204971779299528
13.79398969264609
10.0955678815286
6.205947919660861
3.759079265174652
1.281823728589871
2.692315770957224
16.5530524071685
64.62595299889266
1.46550273796658
2.243727990273367
10.3971731287623
49.95527838849026
1.623143452872219
1.965887102657064
6.57462684443819
34.74008668352983
1.81624732494676
1.728660266316006
3.063663596882552
19.55150088030182
105.8856681600248
126.775743701544
140.6515080866469
148.5594651405204
114.3624585884935
128.8952704404528
142.1725633333995
149.2497584613558
119.670041361199
130.6846366683165
142.5972307281603
149.1933307821876
134.5829805210657
134.0350895149047
144.9393272047716
150.3562235602334
153.3848785567226
158.3027975784071
167.9575825378567
178.224070034954
153.7576499319221
159.0034163691466
169.3848990247791
180.2367373810349
153.7261367087684
159.5592196265208
169.5950908975103
181.3818245440725
154.8283254403868
161.2098364250358
170.9842542061744
183.7848481716204
190.5984357140076
201.8620599740405
209.382891755732
218.1813166433054
192.4353175834266
203.9974220594088
212.1615098633955
219.3472106478857
193.5465981530521
205.0873650769204
213.6922058497888
218.3423525946146
195.2760245321859
206.999990861038
215.6164342430148
213.2199804649531
181.4233231430709
164.9737028930434
113.9419007487988
78.64599616376618
173.2719912472267
162.47143153425
121.4384377270374
81.32126698841928
171.9677331721642
161.2426436001049
125.2170985538743
83.44653134796492
171.9320054554157
161.6018418777873
130.6346357467314
84.80845543826817
73.05859173367769
72.11534520346474
71.30093583044905
70.93736733582539
72.9365657397243
71.74347127291223
70.85983760850836
70.48027532586514
72.81553640158157
71.8807349844093
71.14333173770477
70.91223715165765
72.85498065636372
71.56141886536919
70.62708080110019
70.3046788198845
70.99037021251002
70.60976226129847
71.90784800083917
82.83219541449539
70.38697739236487
69.66222457270607
69.03304307145314
75.82221410581892
70.93517465603217
70.23461143884469
68.89832896036511
69.99831043982479
70.20385757714891
69.2432387579389
66.60068474207532
60.73691450660596
109.3411410533289
114.2497885146625
117.8532574012119
119.6707065209888
109.8057913000061
114.3849806437427
118.0366806968527
119.9369626160326
110.2404795359812
114.3673756382632
118.2185709603568
120.272716762916
108.5597017289943
114.5185891448202
118.1098471126098
120.4476343998695
122.386179703078
123.6318332853808
119.5202140207204
106.8550254497167
123.2372071135974
125.0433042689077
123.5948477355343
115.0910445702582
123.3241427072284
125.4873639305058
123.6364584153741
119.0157326192416
123.7313775109812
126.3131378911802
126.2707290197264
127.9841381524893
54.11585891450805
71.27790921117573
77.56879554724411
79.76052529909941
50.85208775018541
69.9011723807769
76.9412835008654
79.6673804670597
48.25117501596676
68.24635866216076
76.32796809926617
79.55156314791422
46.41009211313907
65.94385146582511
75.5124091704748
79.42315181769041
79.26479045632095
73.30733364234769
58.95217818995159
53.25270514116949
79.25642321794419
73.53089251573461
60.15521582097042
51.90349660087502
79.25797853879787
74.0282001758488
61.87306042874565
49.46144123662779
79.31587712405585
74.74246198816127
63.8322597643912
47.15844719810819
79.42315181755933
79.55156314774511
79.66738046701622
79.76052529884088
75.5124091702871
76.32796809915261
76.94128350066372
77.56879554722344
65.94385146581965
68.24635866218013
69.90117238089749
71.2779092112885
46.41009211312298
48.25117501591799
50.85208775018062
54.11585891451937
)
;

boundaryField
{
    back
    {
        type            empty;
    }
    inlet
    {
        type            zeroGradient;
    }
    front
    {
        type            empty;
    }
    top
    {
        type            zeroGradient;
    }
    outlet
    {
        type            fixedValue;
        value           uniform 80;
    }
    bottom
    {
        type            zeroGradient;
    }
    wall
    {
        type            zeroGradient;
    }
}


// ************************************************************************* //
