/*--------------------------------*- C++ -*----------------------------------*\
  =========                 |
  \\      /  F ield         | OpenFOAM: The Open Source CFD Toolbox
   \\    /   O peration     | Website:  https://openfoam.org
    \\  /    A nd           | Version:  11
     \\/     M anipulation  |
\*---------------------------------------------------------------------------*/
FoamFile
{
    format      ascii;
    class       surfaceScalarField;
    location    "0.359";
    object      phi;
}
// * * * * * * * * * * * * * * * * * * * * * * * * * * * * * * * * * * * * * //

dimensions      [0 3 -1 0 0 0 0];

internalField   nonuniform List<scalar> 
1652
(
1.706212168242977
0.5337381654478541
-1.745270594710746e-13
1.172474003762049
0.5337381584701868
9.356959651540819e-13
0.6387445900032549
0.5335574459703241
6.581402089977928e-13
0.5291694159975779
-8.966383191477689e-12
0.1057108037919494
1.706212168247668
1.067476330876303
1.172474005811836
1.067476303007985
0.6387502964843454
1.067106266147269
1.053469647086319
0.1084999475890194
1.706212168244333
1.601214496297561
1.172474013648688
1.601214387450222
0.638806837207768
1.600475228358084
1.575036104698823
0.1089065567134619
1.706212168319211
2.134952661524924
1.172474043589978
2.134952230489439
0.6388941359122646
2.133495540185586
2.097344723741316
0.1052286318025095
2.651191214821594
1.723711780178396
3.167429763824385
1.723711779116281
3.683668091568152
1.723711850895133
1.723712858441563
4.199906978298218
2.651189466219405
1.207473398750874
3.167421589934658
1.207473280236899
3.683647102552439
1.207475960195822
1.207511747066249
4.199820872830116
2.6495837269269
0.6899969153340698
3.166043227168868
0.6888431519225108
3.682705049381247
0.6872933649521487
0.6887262322841103
4.194531270878318
2.650853704309029
0.1168487449467707
3.273900869015054
0.04173078750146114
3.912908392879499
0.01812955998298987
4.554383297277456
0.01129318041816785
4.164891515506942
0.03501635865755826
4.129861296298829
0.03500469838993181
4.094845631178205
0.03485885565666413
0.03478341442503219
4.059708665516932
4.164990185493259
0.06971421819357498
4.13035594892211
0.0689377861383505
4.096342985896101
0.06750354567066791
0.06568425280764478
4.062542844623946
4.174761416874145
0.0824328267175124
4.16018903847894
0.0741203556277194
4.152909380502384
0.06157618677828219
0.0530081547783286
4.147922477948814
4.602984709207755
0.006230737975102763
4.647480247230526
0.005266139850707729
4.680630137846689
0.006629331200339372
4.71287693293381
0.00774140267112472
4.670343503406459
0.1043988284474836
-0.06872319306106411
4.585724009296928
0.1015119934974766
-0.01838057978793659
4.503743327322932
0.09664707639021997
-0.008941007378651167
0.0878474092446776
4.431622654449345
-0.006796988794414122
4.220034637582327
0.01359557620361801
4.275103306720181
0.02649258217077005
4.314283838947856
0.03725051310210753
0.04539055048399815
4.338091649864978
4.068835684683939
0.001072019869226892
4.081299348160185
0.002960621748576253
4.098821928721597
0.005652035012515655
0.00994431969570575
4.118388666936196
4.059562426014633
4.059935167688624
4.061253684634467
4.064429143741043
4.069786227097397
-0.01553495882939082
4.077660164387414
-0.02161056810935758
4.087583629012959
-0.02800146283949956
-0.03208120009425119
4.096837952784306
4.13879326304323
-0.05367409302019771
4.158758452183431
-0.06000452715279692
4.17693820742802
-0.06319012338054325
-0.0615310623127383
4.190913846441629
4.34758292931688
-0.0786337820292155
4.34570841497837
-0.06822155574349731
4.333670687427834
-0.05401432533105061
-0.04806909763946859
4.319233355776519
4.365139943341656
-0.007521467235689916
4.316525882944068
-0.005962738407108037
4.273350276547192
-0.003547242174120113
4.244465923713956
-0.002876214328625559
0.04261955110331267
4.228820825763392
-0.01735112673452638
0.05771264469373694
4.308766867981171
0.03444065758124437
4.199778208006014
4.101680035495739
0.04037537188401896
4.249908186681492
-0.1454020647277652
0.04756006482708414
4.301685447072053
0.03364504515922651
4.206096617417
4.102676684612478
0.07793395686583349
3.986116475678379
-0.1402118041057127
0.04618286592652754
4.308942640652048
0.02806363732892736
4.211334176126964
4.097877017088793
0.1743801414653533
3.683370192914101
-0.04238639605764621
0.06560419248607791
4.316492310252239
0.02798945918962348
4.226282897215572
4.100445012521905
0.07037618284269853
3.979575621096044
0.1237031960608367
4.132166955774047
0.08046498537703817
4.217675111763401
3.561805932794994
0.1474052985423455
0.06635654717631989
3.876707021630803
0.08950039694265788
4.042472281191483
0.008786928110545267
4.095252439730329
3.435520743012393
0.1118033462784269
0.05293754124664274
3.784847638349574
0.01887210757674163
3.955327307063999
-0.06993189994495452
3.935269100204382
3.333640902824319
0.05846383076540163
0.02174307164316713
3.705325699539772
-0.08797032685062378
3.861069616222062
-0.1185097965731222
3.74589324849541
3.239645209176513
0.02714188544390128
0.1402413635268696
3.155385592402234
0.002362102752220707
0.1877133012805835
3.584409122722004
0.03361683305479346
3.734242592369898
3.641973654680664
0.1485783644007499
3.077947457641205
-0.006619814562759951
0.2557795178932719
3.473027662398051
0.102362842069999
3.584913252175404
3.591880472273969
0.1405538980601251
2.995563873021646
0.002413548952926559
0.294529721281692
3.346060033295365
0.1904085366495276
3.449881924364697
3.556946365010872
0.110117484365033
2.890693060211181
0.01568931349167102
0.2667072846416314
3.221175645250986
0.2505398920064531
3.304729116404831
3.514929417566641
-0.2198947219462449
3.463929024003465
-0.1874479322197964
3.230007569741422
-0.04690254145550732
3.10709896960064
2.789335470030984
0.04415960697232224
-0.1620769543239642
3.401926824822822
-0.1271332208758917
3.139626287536773
0.001597634723911612
3.005050526444702
2.707102365032862
0.06646344982216534
-0.1025511774238944
3.328362346086879
-0.05283956665228029
3.057110283618783
0.06929111226267004
2.911798644591644
2.641182655462827
0.1220034396779869
-0.03608885296167619
3.223697250945486
0.03383595680100215
2.966782357581133
0.1557392419880203
2.82001708253404
2.569319341969222
0.2296705005610206
-0.3469164985512813
3.454118660848937
-0.5765011864879899
3.185493004419669
-0.7153299949227712
3.000204052508771
2.63319079070926
-0.7690579319948607
-0.3003603109376189
3.658904300281647
-0.525769941609313
3.406942428022872
-0.6287192737018323
3.176944481601022
2.281473646752823
-0.2632411042936947
-0.273770895756028
3.843834956743152
-0.4821495900957653
3.621035912829616
-0.5140684577342475
3.331595253946818
1.802537189095739
-0.02969684677394055
-0.2406727741310732
4.010368238202557
-0.4395394533242576
3.827412677914108
-0.362758855090848
3.439648819268823
1.41958641504834
-0.01230364307394377
0.158074950122421
1.462764453488551
-0.01046083092912607
0.2076276886811768
3.530684240844311
0.104242373687767
3.937836044075609
4.062241221698091
0.1657106973391748
1.440458168491171
-0.007960259738328857
0.1877772849090935
3.62645550465588
0.09476358826244025
4.050613465957012
4.107276308682783
0.1503996894765687
1.343442475359622
-0.003386586865813054
0.1686641201740164
3.724005389135812
0.08930884787266097
4.159950642594961
4.149142738168978
0.1199014573764516
1.254087360032724
0.002219642471046661
0.1500862200506728
3.817305386990514
0.08908371804933984
4.257418821580737
4.195906569097103
-0.2361368642266451
1.570797843856784
-0.01565752510479435
-0.1844757495319008
3.985666372065483
-0.04683086950104975
4.197566515160727
4.097408337721104
-0.2650760748757851
1.929170540181612
0.006054575067019757
-0.1779153227093627
4.068992309216912
-0.03201204290076687
4.112937791941508
4.060013840559979
-0.2624459138338839
2.246594475231471
0.03369138704099185
-0.1342404229499732
4.102087884106856
-0.02056681430834639
4.067248934139514
4.056527285706197
-0.2320668046515839
0.08795511955353252
2.499148378250675
-0.1111850189991715
4.099229283464881
-0.01643501984270657
4.039765628266539
4.056701158215645
0.3370893862465799
-0.4391233650771098
-0.01288298027317343
5.60529400672749e-12
0.8932758880834841
-0.412621540951259
-2.948752353404416e-13
1.634150326030743
-0.4647828518442494
7.416289804496046e-13
-0.5171399758934228
-1.281952322074176e-11
0.3341471143537658
-0.8926724819413119
-0.0127933110107178
0.9071849139107356
-0.8648487307016066
1.635054468925029
-0.9425868845625014
-1.035838058859454
0.3307486393157243
-1.351973269881866
-0.01562691811074192
0.9269586994935032
-1.34266873787866
1.639108645161372
-1.45163263256199
-1.556798626900747
0.3242055711723177
-0.01609447326127739
-1.703800006793694
0.9570907344014541
-1.850652063334379
1.647733173862999
-1.983872455397569
-2.082337167082496
-0.2320668046504399
-2.246594475232127
0.08795511955352842
2.499148378248581
-0.1111850189978347
-4.102087884111982
4.099229283463445
-0.01643501983830631
-4.067248934138034
4.039765628263372
-4.056527285707154
4.056701158211339
-0.2624459138331256
-1.929170540185792
0.03369138704124409
-0.1342404229512197
-4.068992309224701
-0.02056681431084617
-4.112937791944375
-4.060013840563913
-0.2650760748767352
-1.570797843862279
0.006054575067254542
-0.1779153227136547
-3.985666372073133
-0.03201204290540782
-4.197566515162063
-4.097408337724291
-0.2361368642273627
-1.254087360035925
-0.01565752510459805
-0.1844757495359438
-3.817305387000799
-0.04683086950517579
-4.2574188215798
-4.195906569087112
-0.1042423736829163
4.062241221714676
-4.010368238227715
-0.207627688669277
3.937836044097499
-3.827412677944066
-0.158074950115896
3.530684240821259
-3.439648819239023
1.462764453466874
-1.419586415025553
-0.01046083092935667
-0.09476358825649067
4.107276308686685
-0.1877772848953502
4.050613465973115
-0.1657106973340428
3.626455504643452
1.440458168481227
-0.00796025973847336
-0.08930884786698351
4.149142738163467
-0.1686641201570958
4.159950642602496
-0.1503996894712706
3.724005389133395
1.343442475355933
-0.003386586865658993
-0.08908371804261667
-0.1500862200341627
-0.1199014573715528
0.002219642471058565
0.3627588550945912
-1.802537189082598
-0.01230364307392957
0.4395394533395188
-3.331595253932954
0.2406727741458699
-3.62103591285726
-3.843834956763083
0.5140684577383542
-2.281473646740734
-0.0296968467731876
0.4821495901104935
-3.17694448159644
0.2737708957673219
-3.406942428044133
-3.658904300296253
0.6287192737091114
-2.633190790704754
-0.2632411042925964
0.5257699416239134
-3.000204052506961
0.3003603109480123
-3.185493004432385
-3.454118660855003
0.7153299949297505
-2.569319341969064
-0.769057931996701
0.5765011864998235
-2.820017082535507
0.3469164985558497
-2.966782357586712
-3.223697250944961
-0.2198947219461598
3.463929024014976
-3.514929417582661
-0.1874479322125455
3.230007569756067
-3.304729116428037
-0.04690254145111838
3.107098969589347
-3.221175645234002
2.789335470020418
-2.890693060199035
0.04415960697244947
-0.1620769543176025
3.401926824829909
-0.1271332208675461
3.139626287545669
0.001597634728523811
3.005050526435711
2.70710236502674
0.0664634498236536
-0.1025511774215272
3.328362346089327
-0.05283956664395728
3.057110283625418
0.06929111226674795
2.911798644586601
2.64118265545944
0.1220034396784722
-0.03608885295763198
0.03383595680989038
0.1557392419916141
0.2296705005612524
0.1101174843678113
-2.995563873012172
0.01568931349203218
0.2667072846483646
-3.346060033285579
0.250539892008768
-3.449881924378961
-3.556946365022618
0.1405538980630607
-3.077947457634216
0.002413548952754363
0.2945297212898593
-3.473027662394401
0.1904085366532347
-3.584913252183901
-3.591880472280609
0.1485783644042569
-3.155385592397522
-0.006619814563536219
0.2557795179007071
-3.584409122723831
0.1023628420707807
-3.734242592372786
-3.641973654683158
0.140241363529033
-3.23964520917577
0.002362102751786943
0.1877133012880313
-3.745893248502609
0.03361683305814489
-3.861069616222859
-3.705325699537288
0.07037618284412772
3.979575621097266
-4.10044501251976
0.1237031960613285
4.132166955775334
-4.226282897213615
0.08046498537743152
4.217675111766851
-4.316492310254427
3.561805932798614
-3.68337019291798
0.1474052985423097
0.06635654717819073
3.876707021632546
0.08950039694452427
4.042472281193654
0.008786928110861902
4.095252439732763
3.435520743014107
0.1118033462774789
0.05293754124847694
3.784847638350971
0.01887210758117186
3.955327307068305
-0.06993189994414939
3.93526910021269
3.33364090282509
0.05846383076648076
0.02174307164621625
-0.08797032684839445
-0.1185097965716779
0.02714188544433094
-4.097877017088217
-0.02798945918881812
-4.102676684613799
-0.02806363732811368
-4.10168003549707
-0.03364504515741273
-0.03444065758132275
-4.096837952784973
-4.211334176128136
-0.06560419248853988
-4.206096617415623
-0.0461828659270625
-4.199778208000033
-0.04756006482750569
-0.05771264469368742
-4.190913846436702
-4.308942640654861
-0.1743801414647457
-4.301685447072527
-0.07793395686505866
-4.308766867980368
-0.04037537188458595
-0.04261955110320309
-4.319233355777694
-3.986116475683763
-0.04238639605775169
-4.249908186682266
-0.140211804106399
-4.228820825762251
-0.1454020647260584
-4.244465923714667
-0.0173511267342506
-0.03208120009279825
-4.08758362901275
-0.06153106231201905
-4.176938207422911
-0.04806909763850586
-4.333670687431518
-4.273350276548135
-0.002876214327843629
-0.02800146283997418
-4.077660164387135
-0.06319012337983843
-4.158758452177954
-0.05401432532904038
-4.345708414984584
-4.316525882942027
-0.003547242173205734
-0.02161056810820439
-4.069786227098857
-0.06000452715243526
-4.138793263036723
-0.06822155574245431
-4.347582929324977
-4.365139943340314
-0.0059627384073343
-0.0155349588266892
-4.06442914374593
-0.05367409302076931
-4.118388666928664
-0.07863378202880827
-4.338091649873209
-4.431622654450282
-0.007521467235398233
-0.001072019871064089
4.059562426012964
-4.05970866551269
-0.01359557620664703
4.068835684667103
-4.062542844604083
-0.1043988284508193
4.220034637596306
-4.147922477964768
4.670343503415881
-4.712876932945269
-0.06872319306040536
-0.002960621754763304
4.059935167688352
-0.02649258217494965
4.081299348145835
-0.10151199350086
4.275103306734558
4.58572400930434
-0.01838057978814497
-0.005652035014461654
4.061253684636436
-0.03725051310747601
4.098821928710068
-0.09664707639449838
4.314283838959382
4.503743327327279
-0.00894100737982309
-0.009944319699612625
-0.04539055048983837
-0.08784740924719953
-0.00679698879438656
-0.05300815478288634
-4.680630137854906
0.007741402671089692
-0.06568425282024681
-4.152909380509655
-0.03478341443025201
-4.096342985887256
-4.094845631177972
-0.06157618678397975
-4.647480247235874
0.006629331200179889
-0.06750354568356737
-4.160189038477772
-0.03485885565989799
-4.130355948926641
-4.129861296303726
-0.07412035563419517
-4.602984709205002
0.005266139850956697
-0.06893778615012641
-4.174761416865089
-0.03500469839045639
-4.164990185510534
-4.164891515510731
-0.08243282672203434
-4.554383297263854
0.006230737976073042
-0.06971421820613688
-4.19453127086264
-0.03501635866112074
-4.19982087285795
-4.199906978301526
-0.6887262322823308
-3.912908392850577
0.0112931804194194
-1.207511747058623
-3.682705049369866
-1.72371285844659
-3.683647102567687
-3.683668091568373
-0.6872933649500418
-3.273900868981285
0.0181295599848415
-1.207475960188403
-3.166043227164814
-1.72371185089653
-3.167421589947944
-3.167429763828226
-0.688843151922154
-2.650853704280435
0.04173078749900611
-1.207473280232988
-2.649583726927506
-1.72371177911667
-2.651189466228254
-2.651191214827737
-0.6899969153341166
-2.09734472372909
0.1168487449387395
-1.207473398750677
-2.133495540188712
-1.723711780189285
-2.134952230489219
-2.134952661529303
1.706212168246032
0.5337381654428928
1.172474003766655
0.5337381584745449
0.6387445900064712
0.5335574459742463
0.5291694159825917
0.1057108037956556
1.706212168248593
1.067476330870388
1.172474005812538
1.067476303008017
0.6387502964847499
1.067106266150853
1.053469647079299
0.1084999475914314
1.70621216824649
1.601214496294279
1.172474013648832
1.601214387450665
0.6388068372070456
1.600475228361987
1.575036104696995
0.1089065567126259
1.70621216832
1.172474043587653
0.6388941359093644
0.1052286318000788
0.1054759139411785
0.1054759139453621
0.1054646041962722
0.1079716262568922
0.1059216454555064
0.107828972819889
0.1026824492529134
0.1077855414585189
0.1079716262543356
0.105464604200572
0.1076776931043387
0.1076776931067308
0.1081682261015122
0.1066960642221668
0.09904265664340396
0.1111317141237479
0.1078289728208598
0.1059216454589788
0.1066960642228815
0.1081682261040597
0.1063685814998807
0.1063685815002798
0.09590043651375964
0.1089252354784367
0.1026824492566286
0.1077855414603218
0.09904265664689557
0.1111317141259136
0.09590043651798014
0.1089252354780991
0.09568067917873736
0.09568067918377704
-0.03916579128332542
0.1340454945077306
-0.06253622976583234
0.1313161541389188
-0.08852319657490759
0.1359939169246432
0.1348762287533523
-0.00568469787611553
0.1388653709044875
-0.0161776717733455
0.1408696386510086
-0.02706289901697873
0.1459010551446286
0.148436447087319
-0.0009930841388928746
0.1391925693708682
-0.00734937128966362
0.1465020760696716
-0.01314198889353496
0.1509091542570945
0.1525114045108118
-0.001217883162721201
0.1398097046330576
-0.006135057242982023
0.1507793262499592
-0.009219760970776536
0.1533115454222967
0.1538254980120493
0.1533070658268254
0.006170234794253215
0.153377054492425
0.004949456618608628
0.1526242265149027
0.007181856350808091
0.006669609964246925
0.1537789295996875
0.1535236318277253
0.005391717027737108
0.153841410387664
0.004325564705130625
0.1539196085212113
0.006913136133102571
0.003199269211396516
0.1574355441201664
0.1528839932635622
0.002725376317389783
0.1538665160714025
0.003031870511906121
0.1547090758400546
0.005883551436904999
-0.009752202176844638
0.1676877528113839
0.141983151821387
0.1446546709083406
0.1502920380751696
0.1404656750357475
0.1403044552585789
-0.05509999710862626
0.1310998176800787
-0.008869501630776211
0.1296766749245349
-0.006959974531967589
-0.006209926993796633
0.129662920128161
0.1446533399099907
-0.04222858222016912
0.1388153208520055
-0.002739012324745854
0.1356487394876968
-0.00320914068064912
-0.00392577344775813
0.1339650093443371
0.1511994349582331
-0.0256985329810904
0.1456057969492205
0.003131245411785694
0.1416438019478025
0.001325825859370577
8.750665569307037e-05
0.1382250598658598
0.1147588853498163
0.1181807389021054
0.1201098953419711
0.1208144784316197
0.1299271985894732
-0.006884040218345322
0.1308533870524827
-0.005827069398852081
0.1320225929384009
-0.003776226263835392
-0.003041399732411909
0.1331309044122022
0.132722361534208
-0.004748844390886575
0.1322523253832703
-0.004285819510047167
0.1322772815668335
-0.002837122095503825
-0.00253442408943827
0.1327031935189645
0.1355198014491667
-0.001149619107749827
0.1336148729110844
-0.001296747054080505
0.132556000400038
-0.0007921290301274586
-0.001118595164738945
0.1322020579132752
0.1205649384460486
0.1203358553162604
0.1204732481296331
0.1203691382564144
0.1377938686083366
-0.0246692558488901
0.1349559644774747
-0.1502723075464854
0.1108677812677418
-0.1232163903383121
-0.01109020847183184
0.08058255041015105
0.1322359526123275
-0.02815999477296741
0.1024744872933012
-0.1268936275776734
0.05619963629207007
-0.08165602236125424
-0.002650655617067288
0.04685260702358808
0.1240132839953943
-0.02430690141628766
0.05411077263005944
-0.06297958547210136
0.002631919680246383
-0.03533198730133302
-0.006658674020564526
0.004890795278609028
0.0910889141605257
0.02218866861500883
-0.01729135050679269
-0.02687476488630063
0.1047686512135653
0.1254804507948104
0.1177072224858374
0.1030389338424609
0.1246088711186621
0.05759320316945016
0.02673589312356872
0.1298618525810407
0.08618331914574369
0.08819480035424299
0.1121854199042303
0.08108083098790775
0.1233727640459661
0.05045252484657148
0.02492408523139511
0.129612657427187
0.05324295547698836
0.04167126847207825
0.0976944645757073
0.040566643754122
0.1175518120125724
0.03380079466302532
0.0201038453351744
0.1261666512016171
0.01608963158724022
0.0605319940313644
0.09671925906695283
0.1200183911643568
0.1351001481943096
0.003127917996703533
0.1400526378732014
-0.006439422851088894
0.1434926976965972
0.001336609463122751
0.01110734665271718
0.1477671480705368
0.1348052614852071
0.005087089074769291
0.1396007180041337
-0.002702811322910392
0.1424814970735814
0.001715671553567
0.006775287219779269
0.1464977010956963
0.1320390369835547
0.006220078177547328
0.1377529953592598
0.0001244063072958213
0.141736497628028
0.001432417147756215
0.003106685671514287
0.1452965953677051
0.1330906599872995
0.1388579503640161
0.1430096006764548
0.1462905867978907
0.1586591060374482
0.03178146199771403
0.1726504694428526
0.05120429059036913
0.1922525466532432
0.102340418802042
0.1805437814958982
0.2412431477020734
0.1566675275213845
0.01992658968732741
0.170453728886416
0.03609576179935114
0.1915013577925304
0.08114453771710767
0.1229296812112617
0.2492170348067685
0.1538879302886387
0.009763788989598177
0.1672265418317413
0.02140797657159166
0.1942608609843901
0.05345326376769355
0.0343056650776028
0.2830987999186419
0.1546644240280524
0.1746510082157138
0.2273570096107438
0.2615291317582397
0.1220071886262359
-0.649480312372105
0.01214822452659004
-0.1526679792671041
-0.002608494864176132
-0.01386811965846329
-0.009783817979761402
-0.003875751736833293
0.0846431256033871
-0.4845155075491023
0.001804343841496667
-0.06913398788709058
-0.004319977600516641
-0.006814615456978057
-0.006328877641159185
-0.006757938425657284
0.04503327352170157
-0.2463256117148357
-0.002598886395968236
-0.02081054747579877
-0.005886734867141112
-0.002585094270932457
-0.003324336942412983
-0.008055120528323223
0.01518171867556836
-0.004928397803102608
-0.006666248051009906
-0.009091432626924462
-0.005371202748549273
-0.007904984571061995
-0.006844904279384017
-0.005027484005444637
-0.008525291676186382
-0.0007953566184475645
0.003551347995139856
-0.009127009121403176
-0.008201858618616109
-0.005613440163928557
-0.009149558709220535
-0.002749590835972381
-0.009658554229547648
0.0007260940758373746
0.00317478737441515
-0.008471307551267579
-0.00969937832475349
-0.002880496664677728
-0.009477408862348546
-0.001537648558384914
-0.008702936695529474
0.0009404588728259416
0.002634562146473403
-0.007319893480111226
-0.01080135232402734
-0.01095588187064612
-0.009118135725408883
-0.005720536712411056
-0.008401703042958156
-0.01574570132999093
0.00199725192485135
-0.002786974940253914
0.02253735888877676
0.01471457867927305
0.07056280156612119
0.04248830635299557
-0.009481661930195706
-0.01394290274035141
-0.007004790781687208
-0.003636804163108201
0.008979394370755074
0.0001006431082462289
0.04779296585499591
0.03394219931873947
-0.01174447841241996
-0.008564367302955692
-0.01141959047833715
-0.002529443900115745
-0.003545645873884035
-0.006434281095709454
0.02563240940044266
0.0204102408370222
-0.01307658486883525
-0.01385262894866075
-0.01898435883101537
0.009087644612696941
0.04133285150971779
-0.006384299936867857
0.01067018015643168
0.04003711545951371
-0.007470607968440839
0.01129207399198474
0.03681899589307213
-0.01239840607216299
0.0170664537834531
-0.01699566499460121
0.0282403965132902
0.0254923276448809
0.03271402274934113
-0.00380997989531686
0.03083149255714896
-0.004815239097670995
0.02753929834114198
-0.008762813047234363
-0.01085349730928974
0.02115746007474949
0.01855418252131008
-0.001731238392525338
0.01645454906052805
-0.002251720598521152
0.01260533314996317
-0.004463973655904889
-0.005027279946771199
0.006864854181830728
0.006608108147620938
0.004613636044987691
0.0002886748462399905
-0.004425610195794134
-0.006428016508938809
0.00258812561503911
-0.006068151234446748
0.0007795443519512703
-0.003640651882089979
-0.0008828795574798293
-0.001879896306360682
-6.226269499975956e-14
0.003513873938548462
0.00602418780097878
0.001035453966400271
0.003652636429459878
-3.841070889719356e-05
0.0009317592644113859
-0.0009155772489281531
-2.621514116896151e-14
0.01674673383919826
0.01019878640494981
0.01136165645788213
0.00895355789236723
0.005697016303686804
0.006682602697583834
0.005089114535456678
1.754152378907747e-14
0.02179905953363034
0.01434472870939451
0.007705746151876303
5.658667978636345e-14
-0.00187989630636955
0.00364065188197716
-0.0009155772489311056
3.841070885509529e-05
0.005089114535458471
-0.005697016303672378
-0.007705746151756072
0.01288298027316357
-0.0008828795574883225
0.00606815123436355
0.0009317592644081385
-0.00103545396644926
0.006682602697634356
-0.01136165645788499
-0.01434472870935703
0.01279331101082283
0.0007795443519433287
0.00642801650888003
0.003652636429459632
-0.003513873938582095
0.008953557892407708
-0.01674673383924882
-0.02179905953367419
0.01562691811084161
0.002588125615043083
0.004425610195775656
0.006024187800979745
-0.006864854181840387
0.01019878640495986
-0.02115746007476963
-0.02824039651334992
0.01609447326127856
-0.03681899589306
-0.01699566499457976
0.02549232764487868
-0.04003711545951574
-0.01239840607220238
0.01706645378348618
-0.04133285150968396
-0.007470607968502116
0.01129207399202263
-0.00638429993695451
-0.04248830635301837
0.01067018015651625
-0.02753929834115861
-0.01085349730930465
-0.03083149255716938
-0.008762813047273749
-0.03271402274933172
-0.004815239097719269
-0.003809979895379706
-0.0339421993188313
-0.01260533314998211
-0.005027279946789937
-0.01645454906054997
-0.004463973655927097
-0.0185541825213499
-0.00225172059855349
-0.001731238392547102
-0.02041024083709961
-0.000288674846251398
-0.00461363604502691
-0.006608108147692936
-0.009087644612786806
0.01898435883094304
-0.0256324094005055
0.01385262894862643
0.006434281095667391
0.01307658486882561
0.002529443900058298
0.008564367302902262
0.005720536712440756
0.003545645873773401
-0.04779296585504628
0.011419590478279
-0.0001006431084236425
0.01174447841236759
0.003636804163015254
0.01394290274027319
0.00731989348010932
-0.008979394370892305
-0.07056280156615434
0.007004790781582282
-0.01471457867953527
0.009481661930095919
0.002786974940140047
0.01574570132981586
0.008471307551250822
-0.02253735888890355
-0.001997251924993095
0.008401703042862863
0.009127009121383346
0.008525291676193564
0.003551347995139145
0.006844904279460417
-0.0007953566183952175
0.005371202748599241
-0.005027484005572843
-0.00790498457111097
0.003875751736792147
0.009658554229546791
0.003174787374408607
0.009149558709256961
0.0007260940758567758
0.008201858618627914
-0.002749590836063048
-0.005613440163977013
0.006757938425663521
0.008702936695541456
0.002634562146488127
0.009477408862368624
0.0009404588728367386
0.009699378324761088
-0.001537648558431214
-0.002880496664710646
0.008055120528321595
0.009118135725445613
0.01095588187069024
0.010801352324052
0.00909143262692564
0.002608494864150471
-0.009783817979674203
-0.01214822452609172
-0.01386811965821873
-0.122007188625258
-0.1526679792664237
-0.6494803123727303
-0.2412431477021314
0.004319977600558977
-0.006328877641086104
-0.001804343841317902
-0.006814615456873825
-0.08464312560274775
-0.06913398788683708
-0.4845155075491133
-0.2492170348065378
0.005886734867169926
-0.003324336942401392
0.002598886396043264
-0.002585094270889129
-0.04503327352141315
-0.02081054747575995
-0.2463256117147894
-0.2830987999183632
0.006666248051015459
0.004928397803133473
-0.01518171867550122
-0.2615291317581298
-0.1922525466532025
0.1805437814960772
-0.1726504694429347
0.1023404188023928
-0.1586591060373372
0.0512042905914325
0.03178146199786935
-0.1477671480706602
-0.1915013577924493
0.1229296812114334
-0.1704537288862969
0.08114453771755825
-0.1566675275213011
0.03609576179998575
0.01992658968750272
-0.1464977010957694
-0.1942608609841841
0.03430566507762317
-0.1672265418315682
0.05345326376780324
-0.1538879302885279
0.02140797657214855
0.009763788989613165
-0.1452965953677551
-0.2273570096105031
-0.1746510082156124
-0.1546644240279583
-0.1462905867978869
-0.1434926976966138
0.01110734665273594
-0.1400526378729197
0.001336609462837091
-0.1351001481939275
-0.006439422851462484
0.00312791799659029
-0.1298618525808536
-0.1424814970735894
0.006775287219434101
-0.1396007180038518
0.001715671553592868
-0.1348052614848659
-0.00270281132211081
0.005087089075042184
-0.129612657426992
-0.1417364976279723
0.00310668567168304
-0.137752995358823
0.001432417147903098
-0.1320390369831772
0.0001244063072107782
0.006220078177545219
-0.1261666512015098
-0.1430096006764366
-0.1388579503639159
-0.1330906599871095
-0.1200183911640882
-0.1246088711187123
0.0267358931235413
-0.1177072224859203
0.05759320316905714
-0.1047686512136415
0.1030389338417483
0.1254804507952062
-0.08058255041042042
-0.1233727640462065
0.02492408523130463
-0.1121854199042673
0.0504525248455463
-0.08618331914593037
0.08108083098712626
0.08819480035457306
-0.04685260702380767
-0.1175518120126696
0.02010384533529774
-0.09769446457568662
0.03380079466273866
-0.05324295547721819
0.04056664375371788
0.04167126847229552
-0.004890795278747695
-0.09671925906664874
-0.06053199403107379
-0.0160896315873805
0.02687476488627472
-0.1108677812682049
-0.01109020847183001
-0.1349559644779309
-0.123216390338957
-0.1377938686085318
-0.1502723075454184
-0.02466925584855126
-0.1331309044124735
-0.0561996362924204
-0.002650655617011055
-0.1024744872939563
-0.08165602236167036
-0.132235952612593
-0.1268936275772223
-0.02815999477268466
-0.1327031935191725
-0.002631919680462849
-0.006658674020532107
-0.0541107726306716
-0.03533198730138365
-0.1240132839956659
-0.06297958547201554
-0.02430690141612543
-0.1322020579134163
0.01729135050669359
-0.02218866861523212
-0.09108891416065354
-0.1203691382563778
-0.1320225929384827
-0.003041399731745609
-0.130853387052294
-0.003776226263149163
-0.1299271985894793
-0.005827069399034102
-0.006884040218367693
-0.1296629201279985
-0.1322772815668515
-0.002534424088907639
-0.1322523253831094
-0.002837122094994787
-0.1327223615341066
-0.004285819510302824
-0.004748844390822127
-0.1339650093443147
-0.1325560003999112
-0.001118595164513542