/*--------------------------------*- C++ -*----------------------------------*\
  =========                 |
  \\      /  F ield         | OpenFOAM: The Open Source CFD Toolbox
   \\    /   O peration     | Website:  https://openfoam.org
    \\  /    A nd           | Version:  11
     \\/     M anipulation  |
\*---------------------------------------------------------------------------*/
FoamFile
{
    format      ascii;
    class       volScalarField;
    location    "0.359";
    object      T;
}
// * * * * * * * * * * * * * * * * * * * * * * * * * * * * * * * * * * * * * //

dimensions      [0 0 0 1 0 0 0];

internalField   nonuniform List<scalar> 
880
(
500.0000000000027
500.0000002902119
500.0239746568805
503.3364056790946
500.0000000004407
500.0000008517088
500.0297838381603
504.881536183387
500.0000000016356
500.0000033180123
500.0552145626674
506.7089869327784
500.000000021136
500.0000145435444
500.1145396364139
509.4205022147852
499.9999999007408
500.0000000741895
500.000010114779
500.00016358087
500.0000668787187
500.0002556370894
500.0016121777021
500.0023521847575
500.2629162789189
500.4340614521021
500.7177274599703
500.9590588076125
514.9089195640379
521.1026870951432
526.3631674323673
529.017908349024
500.0004091634713
500.0033785225831
500.0127866739257
500.0396904789366
500.0227537285974
500.098362082281
500.2001026758966
500.421154957781
502.4131118174284
503.6949223277277
505.2812542248999
507.2242616783834
531.2466089268927
533.8885636478481
534.384294926983
533.1591170552631
522.8372537300156
517.6378780139576
515.4450876622876
513.9713055255121
511.0403062676821
512.6562804397928
513.5705310202826
513.7008718209286
501.1753121026765
502.0570089235298
503.003796093459
503.7612773347545
500.1408402240149
500.3399532100869
500.6401749490834
501.0622261051927
501.5548714281076
502.0464021968143
502.5309980748636
502.8814404375858
504.3867761829335
504.7425176415427
504.944213303783
504.8943737106172
513.0621643259519
512.165183042616
510.9850147089597
509.7480394036307
512.2212884952793
511.0349295959679
510.2810339658355
509.5162036617135
508.9369483202262
508.8779723352861
504.7541357618073
503.087898874159
519.1441148838123
508.0377015371161
504.3825487501689
503.047920836632
571.1625012148164
510.4207249899765
503.9245143694707
502.5953008182636
620.2529715265007
523.8529795084668
504.7730897827005
502.4386741742316
502.3840923558094
506.0548128866254
539.6222561564674
637.3741983745451
501.5066411092427
508.5688674494818
556.2282422262933
635.1629885153947
501.8817777711578
514.4012388049414
576.5233007452141
636.1883757512348
503.3090811375869
524.7965497790672
594.6763295496153
633.4544559750833
628.3480985284514
604.7704079243482
539.719878638493
506.4589012560562
621.8486775786915
607.4521761209907
554.8983571608312
512.1176098978136
614.5347475310994
605.2951348060993
566.9181160698211
521.0878781171726
606.6639109456243
594.2772727960288
569.0356713880383
531.9963854923981
541.2064427892172
563.5864325618619
579.7782294734207
597.1614730450008
539.7567180841121
552.0358854802353
562.8468202267113
582.2125741785404
535.7704064220326
540.3047245847778
544.5297488820327
560.5838868471798
530.5841308649
529.8225203479215
525.3284236578215
530.4181142436228
526.7093477972128
520.4405870026449
508.5193553260153
495.5484906377675
520.5582378741398
511.2688608183433
491.9990218096211
459.8552043533408
515.7346455109985
506.0124421148437
478.0165073268792
425.0753919204371
511.56573748836
504.5807184777332
477.8013204194803
399.6634835275799
410.8921103363583
486.934792259975
503.2580281296806
507.7523909241672
478.14241042155
493.0953544775471
502.4043075667493
505.1550628595459
517.3509280897676
495.7832775607107
500.8780718675166
503.3460327560322
530.2759366554615
500.46073653666
500.2310722125336
502.2787358506993
539.0092446914131
504.3538203818632
498.9666775129987
500.3865026034674
533.7609882961017
504.3017977570946
497.662163750886
499.221294972347
525.6975080925001
503.4667422215578
497.2779711564941
499.1965005509801
517.6047676645954
499.0879322156448
497.0833661638883
499.406822779901
479.6863958528798
469.414507840842
488.9669139753257
498.6874065623717
474.1594642952841
471.3025678693751
489.4539614707332
498.6869641680332
465.1266172810198
473.4315271919095
490.3495458857986
498.7004520037285
459.4158717476694
476.2648875264889
491.3965946799032
498.7887836562099
517.6047676646666
499.0879322153183
497.0833661642993
499.4068227796399
525.6975080926247
503.4667422209333
497.2779711565214
499.1965005502814
533.7609882961408
504.3017977563608
497.6621637497325
499.2212949713977
539.009244691496
504.3538203811557
498.9666775127979
500.3865026028926
507.7523909243739
503.258028129962
486.9347922603791
410.8921103353924
505.1550628594579
502.4043075668222
493.0953544782276
478.1424104206824
503.3460327559676
500.8780718675855
495.7832775598839
517.3509280895472
502.278735850464
500.2310722128796
500.4607365359652
530.2759366558122
399.6634835289063
477.8013204192786
504.5807184777488
511.5657374885059
425.0753919205737
478.0165073268586
506.0124421153242
515.7346455109644
459.8552043535448
491.9990218100036
511.2688608184048
520.5582378742688
495.5484906380767
508.519355325831
520.440587002254
526.7093477973289
541.206442789224
563.5864325624536
579.7782294740845
597.1614730454409
539.7567180836594
552.0358854799306
562.8468202268961
582.2125741790827
535.770406421266
540.3047245845141
544.5297488819764
560.5838868475156
530.5841308646816
529.8225203475421
525.328423657645
530.4181142439739
606.6639109459572
594.2772727964152
569.035671388331
531.9963854933476
614.5347475315099
605.2951348064502
566.9181160699463
521.0878781170935
621.8486775791913
607.4521761212362
554.8983571605197
512.1176098977769
628.3480985288049
604.7704079247545
539.7198786389337
506.458901255987
502.384092355729
506.0548128865137
539.6222561563327
637.3741983744837
501.5066411100021
508.5688674499666
556.2282422264
635.1629885153716
501.8817777721974
514.4012388059521
576.5233007455475
636.1883757511521
503.3090811376536
524.7965497788707
594.6763295501303
633.454455975225
502.4386741740141
502.5953008181295
503.0479208371311
503.0878988742995
504.7730897819097
503.924514369241
504.3825487499911
504.7541357616023
523.8529795077183
510.4207249899025
508.0377015365635
508.877972335094
620.2529715261907
571.1625012144156
519.1441148838543
508.9369483200983
502.8814404380465
504.8943737109797
509.748039404087
509.5162036622273
502.5309980747503
504.944213304177
510.9850147094135
510.2810339660776
502.0464021968285
504.7425176417467
512.1651830426028
511.0349295953349
501.5548714276623
504.3867761827889
513.0621643262861
512.2212884954564
500.1408402235331
501.1753121022973
511.0403062683046
522.8372537304112
500.3399532094294
502.0570089231558
512.6562804404576
517.6378780141309
500.6401749493389
503.0037960933061
513.5705310207107
515.4450876615372
501.0622261047815
503.7612773346277
513.7008718214912
513.9713055250131
533.1591170553054
507.2242616785276
500.4211549576698
500.0396904793072
534.3842949270928
505.2812542250983
500.2001026755681
500.0127866737902
533.8885636482619
503.6949223277046
500.0983620810832
500.0033785219745
531.2466089270237
502.4131118172065
500.0227537282015
500.0004091641469
529.0179083487902
500.9590588078995
500.0023521850082
500.00016358167
526.3631674318776
500.7177274599736
500.0016121773632
500.0000101152461
521.1026870944847
500.4340614520125
500.0002556367097
500.0000000738634
514.9089195634779
500.2629162788578
500.0000668783999
499.9999999012774
500.0000000001753
500.0000002903358
500.0239746568208
503.3364056788813
500.0000000005271
500.0000008514291
500.029783838163
504.8815361834567
500.0000000018922
500.0000033178554
500.0552145627318
506.7089869332997
500.0000000218363
500.0000145433196
500.1145396364249
509.4205022150072
506.2177978375951
508.9182936075994
513.2370898554608
521.8807496987522
508.9182936081164
512.3752995823993
518.7416420242465
531.3157410865693
513.2370898557342
518.7416420243312
528.8647552958423
544.0608718762045
521.8807496988185
531.3157410864151
544.0608718767161
560.2459811451316
577.231578131059
564.2234295159158
557.3399902166027
544.934004365536
575.4449101629476
571.5337931383505
570.3189422827786
564.6147898933723
575.3845072109004
574.313297334243
573.7516350751818
572.0456577175444
571.9730952128588
571.5375397040207
571.6760079115105
570.9708133580936
567.8909843055861
565.5496802412154
560.4587658067588
553.2885901776001
567.5506638621222
565.1494323238062
560.2376583704252
553.9662816810611
567.5672271429264
564.9894455707238
559.9814155891841
554.5602840748139
567.629869906447
564.7324120435269
560.1843963428136
550.9730157061895
512.3855055482106
492.8152511447288
489.9580513899541
490.4579313544764
501.8313971912194
488.7133111901764
489.9796976688455
491.1057079637335
491.5848876895911
488.8825736976579
491.5690831759434
492.8467672895064
469.9294961919363
484.1293466145514
489.9115922683036
491.608201451882
490.8024448970555
491.8212318082525
493.3421724747884
494.8549058534804
491.0151853496506
491.4933451489549
492.8733174682905
494.8704682560303
492.3290096908694
492.3519535781167
493.2788325957229
494.7473410299059
491.2609788062359
491.4329637814547
492.7366732451295
494.851711375992
504.9635523761062
567.5106201617546
639.2233725210217
664.4943619635558
510.8518523824383
581.0076839981007
641.9009767534135
660.1952871376653
516.3146121222571
589.3480015808908
641.8715529598248
660.9008839461385
520.1091119433531
597.6274198610658
642.0969494186501
661.30506637141
694.2924865600966
681.4678860561336
670.1970482364812
656.937093486708
702.7419666077274
690.0306153122702
676.940825636343
662.6101428739958
708.7236230592157
697.4977999681944
683.0462490638403
668.0879289160127
706.6459579561921
701.3186414012069
687.2159242267624
671.8707692804662
643.7010886171603
633.0951578910981
623.2508524772422
618.9710748040831
648.8132600537834
637.225456435741
625.9932578569219
621.0685869209769
653.9677942525786
640.7416397163665
629.5662617089991
623.1845909004971
658.3769875824473
643.7721586535728
633.0473633116925
625.6120207324506
615.0660675577541
607.6531635676387
590.9896155939161
565.0154266391904
616.8372069293894
609.2340061368468
593.7890070504538
592.6598197261518
617.8275215045354
610.143122916554
602.7679032637553
620.4209573902195
619.7221541565555
613.9866097468392
616.3371909123787
603.9833473146728
522.5384791446367
460.2207876945957
422.2403281976173
424.2448685748935
512.0826833256705
421.9669982711984
305.3291084700216
252.6886937910739
468.7416264032013
368.0862146082607
252.1417923100635
231.8673046123689
368.0164409929541
282.5987946394236
227.8297424832542
239.6214326815872
374.5658692420254
404.2328563194625
471.1911293110193
522.9961232478196
306.4333885989518
380.5079108217136
441.867930281521
491.6955235775541
291.7302627219703
350.9650487293903
404.3627059285722
445.0440155324025
298.9645196911474
351.4156645874745
402.0271027511538
431.0346820522215
487.0260732020928
510.3150535830438
509.199958846181
509.5877584164392
435.7487336629845
473.9322906229692
492.6123035842495
510.4745463483101
407.3044202038371
432.9101810019239
470.5204552614995
514.1058990138677
392.4524615781945
408.2845792063395
445.0624047464012
513.0042967648515
491.7486291686762
470.5583462573141
459.3478572907566
459.6140542629356
495.1015781804305
485.9544826411112
481.9828736778616
475.8707938013842
504.1757549513066
507.3855023840139
501.6097881545002
488.6327082396671
503.5215749804574
508.6128657691466
498.7198831234884
484.1072181278035
465.9636777742418
450.6693165832301
442.281597157396
439.9440239536372
471.5617365147609
455.7250522960439
444.4502207569557
441.0909691382441
469.8040545355024
461.3439829100527
452.6763016682721
449.0618169977726
462.750574748807
460.2568454417465
455.5743393703067
452.4357196900268
439.9440239536018
441.0909691382067
449.0618169978
452.43571969012
442.2815971572344
444.4502207567934
452.6763016682658
455.5743393705582
450.6693165829239
455.7250522957839
461.3439829099967
460.2568454419373
465.9636777738908
471.5617365145079
469.804054535426
462.7505747489468
459.6140542631015
459.3478572907834
470.5583462576325
491.7486291689462
475.8707938013987
481.982873677957
485.9544826413562
495.1015781806572
488.6327082395581
501.6097881544925
507.3855023840375
504.1757549513704
484.1072181275775
498.7198831233962
508.6128657690888
503.5215749804263
513.0042967649637
445.0624047468363
408.2845792069496
392.4524615788027
514.1058990139754
470.5204552618885
432.910181002513
407.3044202044852
510.4745463484842
492.6123035845753
473.9322906235092
435.7487336638711
509.5877584165773
509.1999588463708
510.3150535833838
487.0260732028929
522.9961232476735
471.1911293109412
404.2328563180268
374.5658692503571
491.6955235775532
441.8679302817327
380.5079108210242
306.4333885991194
445.0440155326999
404.3627059290922
350.9650487291952
291.7302627216919
431.0346820526108
402.0271027517613
351.4156645878439
298.9645196910105
424.2448685958274
422.2403281994646
460.2207876946675
522.5384791451777
252.6886937940186
305.3291084701352
421.9669982712745
512.0826833257674
231.8673046124849
252.1417923096384
368.0862146087122
468.7416264035344
239.6214326816434
227.8297424827224
282.5987946399806
368.0164409933637
565.0154266395418
590.9896155943101
607.6531635681074
615.0660675581685
592.6598197265345
593.7890070505822
609.2340061371058
616.837206929689
620.4209573904753
602.7679032637664
610.1431229165336
617.8275215047573
603.9833473149877
616.3371909123098
613.9866097467307
619.7221541567369
618.9710748045961
623.2508524775968
633.0951578911605
643.7010886170308
621.068586921421
625.9932578571216
637.2254564353491
648.8132600533983
623.1845909008103
629.5662617090927
640.7416397159525
653.9677942522902
625.6120207327758
633.0473633118795
643.7721586534466
658.376987582121
656.9370934865055
670.1970482362245
681.4678860558423
694.2924865600112
662.6101428737182
676.9408256361854
690.0306153119494
702.741966607605
668.0879289157978
683.046249063456
697.4977999677635
708.7236230590444
671.8707692803159
687.2159242264776
701.3186414008068
706.6459579560179
664.4943619635432
639.2233725207733
567.5106201617153
504.9635523765749
660.1952871375288
641.9009767531284
581.0076839979964
510.8518523829981
660.9008839459037
641.871552959494
589.3480015806841
516.3146121228359
661.3050663710525
642.0969494183051
597.6274198608456
520.1091119439205
494.8549058541318
493.3421724748293
491.8212318075292
490.8024448967891
494.8704682566796
492.8733174680593
491.4933451479917
491.0151853492369
494.7473410305483
493.2788325952717
492.3519535771253
492.3290096903395
494.8517113766228
492.7366732447579
491.4329637803978
491.2609788056619
490.4579313536937
489.9580513893237
492.8152511451018
512.385505548577
491.1057079629815
489.9796976680133
488.7133111906962
501.8313971915091
492.8467672887356
491.5690831749777
488.882573698104
491.5848876898049
491.6082014510832
489.9115922671331
484.1293466149235
469.9294961921473
553.2885901778502
560.4587658070168
565.5496802417761
567.890984305493
553.9662816811085
560.2376583706094
565.1494323242877
567.5506638619739
554.5602840747797
559.9814155893596
564.9894455710886
567.5672271426779
550.9730157060275
560.1843963428585
564.7324120437646
567.6298699062127
570.9708133571899
572.0456577164424
564.6147898925108
544.9340043656622
571.6760079105048
573.7516350737567
570.3189422811325
557.3399902160628
571.5375397029329
574.3132973325171
571.5337931356172
564.2234295139968
571.9730952119088
575.3845072090747
575.4449101595035
577.2315781274124
505.0746531561469
497.232580046313
496.8170578999023
499.4871090130791
485.4280223701747
492.0210786208219
495.3981338908851
499.3483101482891
470.3988246765832
486.3929882015479
493.9871815759246
499.1512952538326
460.1248777557562
480.4361800050181
492.5082614621096
498.9451248042811
498.6874065619539
488.966913975297
469.4145078407975
479.68639585297
498.6869641676943
489.4539614709116
471.3025678693149
474.1594642956357
498.7004520037597
490.3495458861487
473.4315271916925
465.1266172813094
498.7887836563683
491.3965946800785
476.264887526288
459.4158717477906
498.9451248041764
499.1512952536305
499.3483101486401
499.487109013209
492.5082614619023
493.987181575726
495.398133890613
496.8170579000965
480.4361800051017
486.3929882018571
492.0210786213606
497.2325800466828
460.1248777555801
470.398824676334
485.4280223701838
505.0746531562797
)
;

boundaryField
{
    back
    {
        type            empty;
    }
    inlet
    {
        type            zeroGradient;
    }
    front
    {
        type            empty;
    }
    top
    {
        type            zeroGradient;
    }
    outlet
    {
        type            fixedValue;
        value           uniform 500;
    }
    bottom
    {
        type            zeroGradient;
    }
    wall
    {
        type            zeroGradient;
    }
}


// ************************************************************************* //
