/*--------------------------------*- C++ -*----------------------------------*\
  =========                 |
  \\      /  F ield         | OpenFOAM: The Open Source CFD Toolbox
   \\    /   O peration     | Website:  https://openfoam.org
    \\  /    A nd           | Version:  11
     \\/     M anipulation  |
\*---------------------------------------------------------------------------*/
FoamFile
{
    format      ascii;
    class       surfaceScalarField;
    location    "18";
    object      phi;
}
// * * * * * * * * * * * * * * * * * * * * * * * * * * * * * * * * * * * * * //

dimensions      [0 3 -1 0 0 0 0];

internalField   nonuniform List<scalar> 
10792
(
0.069652213
-0.042268812
-0.070161636
0.042778234
0.069037172
-0.040137764
0.040752805
0.068431791
-0.037960489
0.03856587
0.067682916
-0.035702736
0.036451611
0.066894802
-0.033283735
0.034071849
0.066019909
-0.031067931
0.031942823
0.065219978
-0.028457889
0.029257821
0.064431133
-0.026298071
0.027086915
0.063600321
-0.02350848
0.024339292
0.062838298
-0.021151466
0.021913489
0.062153582
-0.018414833
0.019099549
0.061418063
-0.015904901
0.01664042
0.060851322
-0.013083107
0.013649848
0.060277699
-0.010558132
0.011131755
0.059778341
-0.0076287065
0.0081280634
0.059339734
-0.0049056372
0.0053442444
0.058988385
-0.0020850517
0.0024364
0.058977728
0.00073892681
-0.0007282703
0.0036383484
0.058864391
-0.0035250118
0.073875379
-0.04166205
-0.074482141
0.073311195
-0.03957358
0.072549024
-0.037198318
0.07170207
-0.034855782
0.070958206
-0.032539871
0.070107095
-0.030216819
0.069445533
-0.027796327
0.068607944
-0.025460482
0.067775795
-0.022676331
0.067083646
-0.020459317
0.06627683
-0.017608017
0.065617269
-0.01524534
0.065013225
-0.012479063
0.064389105
-0.0099340128
0.063935485
-0.0071750859
0.06357774
-0.0045478926
0.063313494
-0.0018208064
0.063146185
0.00090623581
0.0037639029
0.06302063
0.078481465
-0.041153692
-0.078989823
0.077880926
-0.038973041
0.077139775
-0.036457167
0.076488191
-0.034204198
0.075760899
-0.031812578
0.075035294
-0.029491215
0.074276385
-0.027037418
0.073286849
-0.024470947
0.0725543
-0.021943782
0.071701413
-0.01960643
0.07092742
-0.016834024
0.070259833
-0.014577753
0.069543364
-0.011762595
0.069022459
-0.0094131075
0.068528586
-0.0066812137
0.068208056
-0.0042273623
0.067848624
-0.0014613751
0.067724584
0.0010302763
0.003897599
0.067590887
0.083384792
-0.04057387
-0.083964614
0.082676799
-0.038265047
0.081989883
-0.035770251
0.081287851
-0.033502166
0.080538869
-0.031063596
0.079691201
-0.028643546
0.078701168
-0.026047385
0.077906951
-0.02367673
0.07716132
-0.021198151
0.076305409
-0.018750518
0.075673815
-0.016202431
0.074921366
-0.013825303
0.074357103
-0.011198332
0.073825303
-0.0088813077
0.07336093
-0.0062168409
0.07302651
-0.0038929424
0.072707026
-0.0011418914
0.072594713
0.0011425891
0.0039943462
0.072497965
0.088501885
-0.039872109
-0.089203646
0.087848144
-0.037611306
0.087207196
-0.035129303
0.08652228
-0.03281725
0.085686511
-0.030227828
0.0848464
-0.027803435
0.084093989
-0.025294974
0.083377935
-0.022960676
0.082543435
-0.02036365
0.081772814
-0.017979898
0.081077192
-0.015506808
0.080377787
-0.013125898
0.079787973
-0.010608518
0.079158089
-0.0082514237
0.078734989
-0.005793741
0.078336643
-0.0034945969
0.07810896
-0.00091420879
0.077893732
0.0013578168
0.0040264558
0.077861623
0.094264286
-0.039221396
-0.094915
0.093535855
-0.036882876
0.092708329
-0.034301776
0.091891647
-0.032000568
0.091046159
-0.02938234
0.090326047
-0.027083322
0.089504665
-0.024473592
0.08864909
-0.022105101
0.087845999
-0.019560559
0.087105187
-0.017239086
0.086402431
-0.014804052
0.085700072
-0.012423539
0.085074685
-0.0099831314
0.084508544
-0.0076852832
0.084061109
-0.005346306
0.083657064
-0.0030905522
0.083421824
-0.00067896907
0.083240932
0.0015387087
0.0040294386
0.083237949
0.10010594
-0.038415795
-0.10091154
0.099356498
-0.036133439
0.098657876
-0.033603154
0.097900447
-0.031243139
0.097211434
-0.028693327
0.096424701
-0.026296589
0.095541293
-0.023590184
0.094776617
-0.021340425
0.093993642
-0.018777584
0.093277172
-0.016522616
0.092521254
-0.014048133
0.091862651
-0.011764936
0.091238992
-0.0093594732
0.090645884
-0.0070921753
0.09018166
-0.0048820822
0.089773282
-0.0026821745
0.089568694
-0.0004743805
0.089346583
0.001760819
0.0039736133
0.089402409
0.10685255
-0.037668122
-0.10760023
0.10599981
-0.035280694
0.10514282
-0.03274616
0.10426985
-0.03037017
0.10336164
-0.027785118
0.10251202
-0.025446968
0.1017582
-0.02283637
0.10095467
-0.020536891
0.10008859
-0.017911503
0.099316517
-0.015750547
0.098511719
-0.013243335
0.097849903
-0.01110312
0.097173721
-0.008683292
0.096662994
-0.0065814485
0.096193945
-0.0044130337
0.095832319
-0.002320548
0.095645888
-0.00028794976
0.095518608
0.0018880993
0.0038973896
0.095594831
0.11360219
-0.03693967
-0.11433064
0.11277033
-0.034448831
0.11196552
-0.031941357
0.11116923
-0.029573875
0.1103924
-0.027008288
0.1095701
-0.024624668
0.10874487
-0.022011138
0.10788014
-0.01967216
0.10709402
-0.017125385
0.1063015
-0.014958023
0.10553664
-0.012478477
0.10486012
-0.0104266
0.10422949
-0.0080526608
0.10378335
-0.0061353097
0.10329138
-0.003921068
0.10301653
-0.0020456966
0.10272309
5.4891178e-06
0.10259642
0.0020147656
0.0039112832
0.10258253
0.12146634
-0.035940949
-0.12246506
0.12042542
-0.033407907
0.11954584
-0.031061777
0.11856385
-0.028591883
0.11763455
-0.02607899
0.11663389
-0.023624012
0.11570864
-0.021085885
0.11481047
-0.018773989
0.11398656
-0.016301474
0.11318347
-0.014154936
0.11247405
-0.011769051
0.11180234
-0.0097548915
0.11119021
-0.0074405377
0.11066638
-0.005611478
0.11019477
-0.0034494594
0.10993129
-0.0017822095
0.10965853
0.00027824666
0.10970002
0.0019732756
0.0039349326
0.10967637
0.12925581
-0.034897264
-0.1302995
0.12823665
-0.032388745
0.1272518
-0.030076927
0.1262491
-0.027589178
0.12537787
-0.025207767
0.12450905
-0.022755188
0.12373777
-0.020314605
0.12288801
-0.017924231
0.12217408
-0.01558754
0.12139041
-0.013371271
0.1206911
-0.011069742
0.11992383
-0.0089876236
0.11931031
-0.0068270176
0.11870394
-0.005005107
0.11827016
-0.0030156745
0.1179564
-0.0014684505
0.1177598
0.00047484711
0.11776783
0.001965243
0.0038636923
0.11783907
0.13825132
-0.033639747
-0.13950884
0.13712891
-0.031266337
0.13599961
-0.02894762
0.13492098
-0.02651055
0.13386115
-0.024147934
0.13279393
-0.021687969
0.13184325
-0.019363928
0.13091031
-0.01699129
0.13012999
-0.014807223
0.12932221
-0.012563495
0.12864135
-0.010388877
0.12796115
-0.0083074282
0.1273866
-0.00625246
0.12677467
-0.0043931846
0.1263892
-0.0026301977
0.12595582
-0.0010350717
0.12584266
0.00058800268
0.12576915
0.0020387545
0.0036916034
0.12594124
0.14732912
-0.03239559
-0.14857327
0.14625774
-0.030194959
0.14510061
-0.027790488
0.1441302
-0.025540141
0.14312329
-0.023141022
0.14216746
-0.020732143
0.14114832
-0.018344791
0.14014064
-0.015983608
0.13924592
-0.013912498
0.13837159
-0.011689168
0.13769569
-0.0097129798
0.13705611
-0.0076678507
0.13651387
-0.0057102131
0.13600759
-0.003886911
0.13566789
-0.0022904969
0.13531032
-0.00067750169
0.1351975
0.0007008277
0.13511439
0.0021218631
0.0035129378
0.13529305
0.15767455
-0.031030858
-0.15903928
0.15634695
-0.028867365
0.15494525
-0.026388784
0.15368097
-0.024275864
0.15250386
-0.021963915
0.15158849
-0.019816764
0.15068002
-0.017436324
0.14982692
-0.01513051
0.14889895
-0.012984525
0.14805903
-0.01084925
0.14728969
-0.0089436354
0.14660997
-0.0069881317
0.14601741
-0.005117652
0.14550264
-0.0033721431
0.14510954
-0.0018973964
0.14477633
-0.00034429984
0.1446526
0.00082456385
0.1445825
0.0021919611
0.0033312895
0.14476415
0.16839128
-0.029960726
-0.16946141
0.16718955
-0.02766563
0.16600745
-0.025206685
0.16472384
-0.022992262
0.16338649
-0.020626564
0.16212105
-0.018551315
0.16097637
-0.016291645
0.16004313
-0.014197273
0.15914152
-0.012082918
0.15835071
-0.01005844
0.15752773
-0.0081206549
0.15680565
-0.0062660542
0.15616437
-0.0044763645
0.15570132
-0.0029091016
0.15529458
-0.0014906574
0.15503665
-8.63664e-05
0.15491034
0.00095087569
0.15486439
0.0022379091
0.0031862352
0.15500945
0.1797437
-0.028380357
-0.18132407
0.17815486
-0.026076787
0.17704277
-0.024094594
0.17588872
-0.02183822
0.17481357
-0.019551411
0.17357089
-0.017308636
0.17239053
-0.015111286
0.17130521
-0.013111951
0.17028607
-0.011063779
0.16940935
-0.0091817186
0.16860087
-0.0073121719
0.16792503
-0.0055902201
0.16732369
-0.0038750235
0.16686783
-0.0024532433
0.16650818
-0.0011310061
0.16631035
0.00011146721
0.1661878
0.0010734209
0.16625509
0.0021706177
0.0030211146
0.16642021
0.19240442
-0.026875285
-0.1939095
0.19081724
-0.024489603
0.18934212
-0.022619477
0.1878465
-0.020342598
0.18667983
-0.018384744
0.18543847
-0.016067274
0.1843807
-0.014053518
0.1832076
-0.011938848
0.18222542
-0.010081599
0.18127964
-0.0082359443
0.180445
-0.0064775237
0.17968305
-0.004828273
0.17903169
-0.0032236659
0.17849324
-0.001914789
0.17807023
-0.00070799823
0.17786465
0.00031704901
0.17772242
0.0012156502
0.17780105
0.0020919811
0.0028390592
0.17798311
0.20529449
-0.025205761
-0.20696401
0.20385374
-0.023048852
0.20237716
-0.021142899
0.20095743
-0.018922868
0.19960296
-0.017030273
0.1983229
-0.014787217
0.19720586
-0.012936479
0.19608485
-0.010817834
0.1951458
-0.0091425471
0.1941814
-0.0072715504
0.19339398
-0.0056901042
0.19265174
-0.0040860323
0.19210414
-0.0026760613
0.19160269
-0.001413337
0.19127917
-0.00038447971
0.1910636
0.00053261915
0.19096979
0.0013094606
0.19104993
0.002011832
0.0025996069
0.19128939
0.21930995
-0.023317658
-0.22119805
0.21766146
-0.021400367
0.21605439
-0.019535829
0.2146774
-0.017545879
0.21328986
-0.015642732
0.2120874
-0.013584754
0.21084279
-0.011691864
0.20979742
-0.0097724678
0.20878314
-0.0081282659
0.20784626
-0.0063346769
0.2070484
-0.004892244
0.20627401
-0.0033116419
0.20567587
-0.0020779157
0.20510402
-0.00084148991
0.20474231
-2.2765968e-05
0.20447142
0.00080350909
0.2043779
0.0014029816
0.20443817
0.0019515592
0.0023853051
0.20465247
0.23492573
-0.02158053
-0.23666286
0.23319351
-0.019668149
0.23147874
-0.017821059
0.22987178
-0.015938918
0.22835067
-0.014121619
0.2269868
-0.012220881
0.22569392
-0.01039899
0.22461014
-0.0086886853
0.22355551
-0.0070736319
0.22271446
-0.0054936361
0.22188889
-0.0040666694
0.22124744
-0.0026701901
0.22070551
-0.0015359908
0.22029058
-0.00042655896
0.21993114
0.00033667797
0.21971031
0.0010243329
0.2196556
0.0014576913
0.21977586
0.0018313001
0.0021217648
0.2200394
0.25064726
-0.019667245
-0.25256054
0.24894156
-0.017962455
0.24735417
-0.016233667
0.24582153
-0.014406274
0.24434325
-0.012643337
0.24294021
-0.010817844
0.24164341
-0.0091021864
0.24044726
-0.0074925393
0.23935322
-0.0059795946
0.23843249
-0.004572903
0.2375754
-0.0032095856
0.23689103
-0.0019858123
0.2362616
-0.00090656109
0.23585509
-2.004802e-05
0.23547256
0.00071920252
0.23530668
0.0011902108
0.23522019
0.0015441836
0.23536271
0.0016887815
0.0018387981
0.23564568
0.26846403
-0.017371794
-0.27075948
0.26637518
-0.015873604
0.26447456
-0.014333048
0.2627901
-0.012721816
0.26126885
-0.011122084
0.25986604
-0.009415039
0.25863473
-0.0078708675
0.25747643
-0.0063342422
0.25644766
-0.0049508227
0.25557245
-0.003697696
0.25488681
-0.002523944
0.25432741
-0.001426419
0.25388356
-0.00046270313
0.25348515
0.0003783537
0.25319568
0.0010086781
0.2530034
0.0013824887
0.25293501
0.001612576
0.25301758
0.0016062108
0.001609045
0.25324733
0.28743041
-0.015009212
-0.28979299
0.28518456
-0.013627755
0.28311001
-0.012258496
0.28122129
-0.010833097
0.27953111
-0.0094319025
0.2780582
-0.0079421313
0.27672597
-0.006538642
0.27557371
-0.0051819813
0.27451718
-0.0038942866
0.27361732
-0.0027978365
0.27286181
-0.001768435
0.2723
-0.00086461238
0.2719858
-0.0001485047
0.27177913
0.00058502665
0.2717126
0.001075205
0.27165477
0.0014403251
0.27171353
0.0015538072
0.27180901
0.0015107323
0.0013870441
0.27203101
0.30792498
-0.012071735
-0.31086246
0.30537389
-0.011076669
0.30307761
-0.0099622106
0.30107387
-0.0088293587
0.29928196
-0.0076399981
0.29773775
-0.0063979169
0.29644262
-0.0052435129
0.29530879
-0.0040481545
0.29441826
-0.0030037533
0.29362219
-0.0020017709
0.29297876
-0.0011250018
0.29245442
-0.00034027288
0.2920234
0.00028251197
0.29183314
0.00077529095
0.29175404
0.0011543008
0.291819
0.0013753721
0.29194088
0.0014319193
0.29211341
0.0013382081
0.0011263783
0.29237407
0.3310985
-0.0085557598
-0.33461448
0.32791496
-0.0078931261
0.32506765
-0.0071149031
0.32258321
-0.0063449151
0.32041202
-0.0054688095
0.3185629
-0.0045488017
0.317038
-0.0037186144
0.31580707
-0.0028172243
0.31488367
-0.0020803456
0.31419344
-0.001311544
0.31374872
-0.00068027949
0.31356384
-0.00015540061
0.31352405
0.00032230619
0.3135944
0.00070494495
0.31373536
0.0010133357
0.31394348
0.0011672537
0.31417189
0.001203507
0.31442887
0.0010812267
0.00086427891
0.31469097
0.35607215
-0.0045607894
-0.36006712
0.35238825
-0.0042092344
0.34910838
-0.0038350282
0.34619474
-0.0034312782
0.34368751
-0.0029615828
0.34162199
-0.0024832787
0.33991049
-0.0020071096
0.33862888
-0.0015356146
0.33765904
-0.0011105072
0.33703922
-0.00069172497
0.33668391
-0.00032497455
0.33652479
3.7202714e-06
0.33661274
0.00023436033
0.33687113
0.00044655693
0.33727133
0.00061312926
0.33766139
0.00077719638
0.33808488
0.00078001612
0.33847303
0.00069307649
0.00058519143
0.33875212
0.38392437
-0.38848516
0.37971513
0.3758801
0.37244883
0.36948724
0.36700396
0.36499685
0.36346124
0.36235073
0.36165901
0.36133403
0.36133775
0.36157211
0.36201867
0.3626318
0.363409
0.36418901
0.36488209
0.36546728
0.05880025
0.0067102265
-0.006646085
0.058842754
0.0096135277
-0.009656032
0.059146625
0.012546543
-0.012850415
0.059538408
0.015447045
-0.015838828
0.060194233
0.018548228
-0.019204054
0.06100514
0.021470343
-0.02228125
0.062057213
0.024538745
-0.025590818
0.063229759
0.027771067
-0.028943613
0.064636266
0.030743815
-0.032150323
0.06617659
0.034012856
-0.03555318
0.06788683
0.037187755
-0.038897995
0.069741221
0.040261687
-0.042116079
0.071720633
0.043665425
-0.045644838
0.073982142
0.046507142
-0.048768651
0.076427572
0.049974741
-0.052420172
0.079296355
0.05294139
-0.055810173
0.08246924
0.056328738
-0.059501623
0.08595846
0.059559991
-0.063049211
0.06279948
0.089876468
-0.066717488
0.062928929
0.0068019272
0.06302083
0.0095216266
0.063431881
0.012135492
0.064004779
0.014874147
0.064885664
0.017667342
0.065855573
0.020500434
0.067085665
0.023308653
0.068454534
0.026402197
0.070035581
0.029162769
0.071760004
0.032288433
0.07375845
0.035189308
0.075838014
0.038182123
0.078166675
0.041336764
0.080656454
0.044017363
0.083537437
0.047093758
0.086702371
0.049776456
0.0904858
0.052545309
0.094432108
0.055613682
0.057771397
0.099460192
0.067514156
0.0068786585
0.067627785
0.0094079972
0.068033878
0.011729399
0.068680774
0.014227251
0.069544991
0.016803125
0.070641498
0.019403927
0.071937246
0.022012906
0.07350119
0.024838253
0.075238387
0.027425572
0.077172447
0.030354372
0.079512575
0.032849179
0.0818391
0.035855598
0.084705612
0.038470251
0.087557046
0.041165928
0.091073067
0.043577737
0.094674049
0.046175474
0.099105802
0.048113556
0.10384939
0.050870095
0.052076344
0.10954444
0.072521215
0.0068554083
0.07266693
0.0092622822
0.073239619
0.01115671
0.073910416
0.013556454
0.074927777
0.015785763
0.076076892
0.018254812
0.077538459
0.020551339
0.079162678
0.023214034
0.08109421
0.025494039
0.083234895
0.028213686
0.085766409
0.030317666
0.08844081
0.033181196
0.091705247
0.035205814
0.095064456
0.037806719
0.099044987
0.039597207
0.10330149
0.041918965
0.10823313
0.04318192
0.1137437
0.045359526
0.045860845
0.1199592
0.077775377
0.0069416543
0.077949979
0.0090876799
0.078521641
0.010585048
0.079195468
0.012882627
0.080317753
0.014663477
0.081546381
0.017026184
0.083173066
0.018924653
0.084992507
0.021394593
0.087132295
0.023354251
0.089495692
0.025850288
0.092189145
0.027624211
0.095168404
0.030201937
0.098626178
0.03174804
0.10238209
0.034050804
0.1067253
0.035254004
0.11143583
0.037208435
0.11667408
0.037943669
0.12254996
0.039483646
0.039460538
0.12895026
0.083186518
0.0069930857
0.083580887
0.0086933102
0.084116388
0.010049547
0.085035045
0.01196397
0.086205945
0.013492577
0.087672584
0.015559544
0.089412527
0.01718471
0.091471298
0.019335821
0.093699914
0.021125634
0.096355026
0.023195175
0.099200722
0.024778515
0.10255922
0.02684344
0.10620611
0.028101152
0.11030566
0.029951249
0.11484492
0.030714745
0.11971399
0.03233936
0.12509951
0.032558157
0.1307605
0.03382265
0.033370122
0.13685092
0.08936333
0.0070321649
0.089827937
0.008228703
0.090371737
0.0095057464
0.091419428
0.010916278
0.092548126
0.012363879
0.094234753
0.013872916
0.096010411
0.015409052
0.098290004
0.017056228
0.10069304
0.018722597
0.10360646
0.020281753
0.10666255
0.021722424
0.11026059
0.023245406
0.11403567
0.024326069
0.11839055
0.025596362
0.12283103
0.026274265
0.12782235
0.027348048
0.13276689
0.027613615
0.13800487
0.028584665
0.02822755
0.14314745
0.095651002
0.0069759942
0.096164746
0.0077149587
0.096747121
0.0089233714
0.097926113
0.009737286
0.09920779
0.011082202
0.10109152
0.011989183
0.10300576
0.013494814
0.10548567
0.014576315
0.10800415
0.016204116
0.11115493
0.017130971
0.11427726
0.018600099
0.11812467
0.019397994
0.12187275
0.02057799
0.12620104
0.021268073
0.13044325
0.022032049
0.13506345
0.022727853
0.13928906
0.023388006
0.14381575
0.02405797
0.024296717
0.14774659
0.10268425
0.006874279
0.1031886
0.0072106074
0.10395264
0.0081593244
0.10522575
0.0084641815
0.10663424
0.0096737064
0.10855507
0.010068351
0.11053889
0.011510998
0.11311087
0.012004332
0.11576607
0.013548915
0.119059
0.013838045
0.12227224
0.015386858
0.12619544
0.015474788
0.12973391
0.017039526
0.13388671
0.017115264
0.13744163
0.018477134
0.14140812
0.018761363
0.14466129
0.020134831
0.14794457
0.02077469
0.021852671
0.15038862
0.11000536
0.0065452869
0.11035028
0.0068656875
0.11138807
0.007121532
0.1126207
0.0072315525
0.11433162
0.0079627827
0.11630567
0.0080943058
0.11854564
0.0092710228
0.12115542
0.0093945521
0.12399269
0.01071165
0.12722719
0.010603543
0.1304854
0.012128639
0.13406853
0.011891667
0.13732132
0.013786727
0.14105628
0.013380306
0.14382344
0.015709977
0.14693133
0.015653473
0.14894831
0.018117852
0.15100811
0.018714891
0.021213374
0.15164741
0.11817601
0.006208346
0.11854962
0.0064920807
0.1197836
0.0058875458
0.1208951
0.0061200544
0.12284469
0.0060131917
0.12465372
0.0062852786
0.12708609
0.0068386464
0.12960372
0.0068769276
0.13259868
0.0077166865
0.13551447
0.0076877563
0.1385969
0.0090462001
0.14154281
0.0089457574
0.14442756
0.010901978
0.14703421
0.010773656
0.14896612
0.013778064
0.15071317
0.013906423
0.15117531
0.017655719
0.15167007
0.018220126
0.022715813
0.15016763
0.12621137
0.0059382146
0.12689321
0.0058102451
0.12810842
0.0046723336
0.12936916
0.0048593071
0.13145434
0.0039280113
0.13323542
0.0045042052
0.13585592
0.0042181409
0.13826903
0.004463818
0.14121669
0.0047690294
0.14384762
0.0050568158
0.14673062
0.006163203
0.14907366
0.0066027217
0.151343
0.008632632
0.15280009
0.0093165654
0.15389835
0.012679801
0.15393947
0.013865307
0.15291522
0.018679965
0.1511624
0.019972951
0.026323639
0.14755457
0.13545876
0.0057725042
0.13638455
0.0048844628
0.13734921
0.003707674
0.13883219
0.0033763224
0.14068656
0.0020736424
0.14262104
0.0025697239
0.14523189
0.0016072885
0.14737948
0.0023162224
0.15017874
0.0019697718
0.1522861
0.0029494529
0.15456149
0.0038878163
0.15605507
0.0051091428
0.15735604
0.0073316618
0.1575524
0.0091201984
0.15728602
0.012946185
0.15580898
0.015342347
0.15357515
0.020913798
0.14998269
0.023565411
0.031081241
0.14522509
0.14506726
0.0054693972
0.14606564
0.0038860744
0.14697998
0.0027933317
0.14873165
0.0016246561
0.15034235
0.00046293872
0.1525188
0.00039327172
0.15471383
-0.00058773738
0.15676654
0.00026351082
0.15913287
-0.00039655655
0.16066557
0.0014167503
0.162581
0.0019723818
0.16313164
0.0045585062
0.16335926
0.0071040384
0.16210276
0.010376702
0.16052078
0.014528163
0.15748326
0.018379868
0.15409302
0.024304036
0.14935369
0.028304743
0.036579726
0.1438552
0.15542668
0.0050521598
0.15636164
0.0029511138
0.15740763
0.0017473413
0.15915065
-0.00011836003
0.16062155
-0.0010079653
0.16285762
-0.0018428009
0.16456893
-0.0022990439
0.16660781
-0.0017753699
0.16810879
-0.0018975385
0.16933105
0.00019449396
0.17024269
0.0010607377
0.16961801
0.0051831818
0.16895984
0.0077622126
0.16667468
0.012661863
0.16415558
0.017047261
0.15985828
0.022677163
0.15554487
0.02861745
0.14951474
0.03433487
0.042954883
0.14313959
0.1669566
0.0045157748
0.16776972
0.0021379944
0.16889467
0.00062238372
0.17044671
-0.0016704
0.17192643
-0.0024876866
0.17395837
-0.0038747326
0.17535054
-0.0036912144
0.17716009
-0.0035849283
0.17786595
-0.0026033924
0.17849088
-0.00043043616
0.17774227
0.0018093405
0.1764563
0.0064691551
0.17471528
0.0095032276
0.17145138
0.015925768
0.16808644
0.020412201
0.16299799
0.02776561
0.15816763
0.03344781
0.15161646
0.040886044
0.049188476
0.14538287
0.17853882
0.0039600601
0.17932862
0.0013482011
0.18064179
-0.00069078934
0.18197976
-0.0030083665
0.18341401
-0.0039219452
0.18497639
-0.0054371093
0.18612981
-0.0048446389
0.18739387
-0.004848984
0.18740935
-0.0026188704
0.18739025
-0.00041134001
0.18581105
0.0033885451
0.18431499
0.0079652071
0.18116995
0.012648268
0.17739867
0.019697051
0.17311105
0.024699823
0.16776488
0.033111781
0.16311847
0.038094214
0.15742652
0.046577993
0.052233251
0.15438175
0.19186914
0.0033803079
0.19267801
0.00053933305
0.19398246
-0.0019952392
0.19506014
-0.0040860554
0.19629756
-0.0051593631
0.19722942
-0.0063689706
0.19799031
-0.0056055263
0.19831807
-0.0051767414
0.19768205
-0.0019828499
0.19681395
0.00045675557
0.19466421
0.0055382883
0.19249094
0.010138472
0.18853753
0.016601676
0.18512894
0.023105642
0.18073756
0.029091207
0.17721856
0.036630782
0.17460133
0.040711443
0.17343788
0.047741442
0.048140487
0.17753065
0.20518829
0.0028444858
0.20599563
-0.00026801071
0.20698677
-0.0029863721
0.2079667
-0.0050659929
0.20919794
-0.0063906007
0.20972591
-0.006896938
0.21011205
-0.0059916618
0.20958679
-0.0046514843
0.20875013
-0.0011461934
0.2072533
0.0019535929
0.20466726
0.0081243251
0.201744
0.013061726
0.1979826
0.020363083
0.19539205
0.025696188
0.19250906
0.031974201
0.19248276
0.036657078
0.19383469
0.039359511
0.19972584
0.041850295
0.038026041
0.20984029
0.22054719
0.0023367023
0.22121032
-0.00093114738
0.22197377
-0.0037498206
0.22278925
-0.0058814754
0.22348579
-0.0070871355
0.22367509
-0.0070862389
0.22368356
-0.0060001363
0.22259696
-0.0035648761
0.22142653
2.4237559e-05
0.21905153
0.0043285905
0.21654065
0.010635207
0.21380472
0.015797649
0.21167461
0.022493197
0.21090446
0.026466333
0.2114078
0.031470865
0.21545222
0.032612656
0.22140846
0.033403268
0.23200972
0.031249038
0.027157184
0.24287858
0.23628117
0.0017012027
0.23691274
-0.0015627154
0.23751254
-0.004349618
0.23796959
-0.0063385255
0.23808266
-0.0072002062
0.23781759
-0.00682117
0.23702788
-0.0052104239
0.23571812
-0.0022551183
0.2342197
0.0015226657
0.23150359
0.0070446983
0.22970587
0.012432927
0.22791401
0.017589507
0.2281129
0.022294311
0.22986123
0.024718002
0.2341528
0.02717929
0.24095244
0.025813019
0.24940775
0.024947958
0.25966289
0.020993895
0.019878866
0.26694121
0.25384746
0.0011010774
0.25426739
-0.0019826528
0.25466123
-0.0047434577
0.25479517
-0.006472467
0.2546503
-0.0070553346
0.25416165
-0.0063325177
0.25322277
-0.0042715395
0.25197004
-0.0010023873
0.25003286
0.0034598426
0.24830523
0.0087723314
0.24760252
0.013135635
0.24780078
0.017391251
0.25046961
0.019625479
0.25430949
0.020878123
0.26065138
0.0208374
0.26787709
0.01858731
0.27565638
0.017168668
0.28185739
0.014792885
0.017603641
0.28413261
0.27250495
0.00062713862
0.27268185
-0.0021595482
0.27262964
-0.0046912481
0.27222221
-0.0060650374
0.27144458
-0.0062777026
0.27013455
-0.0050224889
0.26869423
-0.0028312236
0.26726445
0.00042739873
0.26582075
0.0049035416
0.26554375
0.0090493288
0.26619242
0.012486972
0.26890959
0.014674084
0.27315821
0.015376851
0.27849468
0.015541661
0.28525991
0.014072167
0.29103251
0.012814713
0.29547522
0.012725954
0.29688306
0.013385041
0.019219831
0.29526687
0.2926407
0.000360513
0.29283471
-0.002353553
0.29262681
-0.0044833556
0.29218299
-0.0056212177
0.2915105
-0.0056052107
0.290548
-0.0040599841
0.28938815
-0.0016713737
0.28822291
0.001592638
0.2878992
0.005227251
0.28874808
0.0082004513
0.29089151
0.010343546
0.2943034
0.011262186
0.29832757
0.011352687
0.30341183
0.0104574
0.30804505
0.0094389427
0.31075393
0.010105835
0.31177556
0.01170433
0.31024449
0.014916104
0.021196367
0.30826796
0.31495968
9.1801805e-05
0.31447539
-0.0018692555
0.31348393
-0.0034919013
0.31205031
-0.0041875985
0.3101757
-0.0037305945
0.30854094
-0.002425226
0.3074099
-0.0005403362
0.30706408
0.0019384578
0.3079088
0.0043825379
0.31007423
0.0060350236
0.31364274
0.0067750326
0.31802678
0.0068781465
0.32275205
0.0066274199
0.32711125
0.0060981954
0.32960013
0.0069500637
0.33097415
0.0087318143
0.33139059
0.011287891
0.33163164
0.014675059
0.017992842
0.33483516
0.33899821
-0.00015428821
0.33838053
-0.0012515738
0.33717443
-0.0022857988
0.33587586
-0.0028890293
0.33471089
-0.0025656222
0.33393766
-0.0016519994
0.33373844
-0.00034111664
0.33469556
0.00098133508
0.33664915
0.0024289539
0.3393308
0.0033533769
0.34220431
0.0039015182
0.34520116
0.0038813024
0.34750602
0.0043225579
0.3490879
0.0045163186
0.34999405
0.0060439142
0.35213629
0.006589569
0.35508081
0.0083433668
0.36096296
0.0087929157
0.0087772943
0.37017851
0.36531299
0.36406142
0.36177562
0.35888659
0.35632097
0.35466897
0.35432785
0.35530919
0.35773814
0.36109152
0.36499304
0.36887434
0.3731969
0.37771322
0.38375713
0.3903467
0.39869007
0.40748298
0.41626028
0.087958092
0.072266378
-0.070348003
0.086130178
0.07612121
-0.074293296
0.084643691
0.079465509
-0.077979021
0.083339741
0.083475369
-0.08217142
0.082521063
0.087278408
-0.086459729
0.082348608
0.090858015
-0.090685561
0.082522178
0.094842047
-0.095015617
0.083714287
0.098273141
-0.09946525
0.084244604
0.10257618
-0.1031065
0.084438102
0.10451071
-0.10470421
0.082845575
0.10549068
-0.10389815
0.079852584
0.10476316
-0.10177017
0.075842075
0.10164604
-0.097635534
0.070148963
0.095399611
-0.0897065
0.0618623
0.086841187
-0.078554524
0.05045663
0.074992695
-0.063587025
0.035184946
0.060393512
-0.045121828
0.017008971
0.044925289
-0.026749314
0.030071307
-0.0029920325
-0.010070303
0.097863412
0.073863158
0.09678929
0.077195332
0.095999207
0.080255591
0.095848616
0.08362596
0.096030574
0.08709645
0.097113559
0.08977503
0.098635716
0.09331989
0.1008768
0.096032059
0.1038933
0.099559679
0.10698514
0.10141887
0.1097906
0.10268522
0.11159768
0.10295609
0.11155177
0.10169196
0.10963629
0.097315086
0.10551018
0.090967295
0.098319876
0.082183003
0.087281076
0.071432312
0.07224684
0.059959525
0.047556507
0.05476164
0.10805609
0.075351503
0.10736227
0.07788916
0.10683551
0.080782347
0.10718086
0.083280606
0.10775918
0.086518139
0.10918975
0.088344456
0.11165527
0.090854368
0.11398136
0.093705966
0.11815522
0.095385828
0.12240472
0.097169364
0.12666326
0.098426681
0.13044498
0.099174363
0.13395173
0.098185205
0.13556199
0.095704827
0.13466702
0.091862268
0.1308484
0.086001615
0.12386232
0.078418395
0.11324033
0.070581515
0.061712581
0.099084257
0.1185341
0.076776605
0.11769095
0.07873231
0.11720307
0.081270221
0.11743635
0.083047329
0.11814744
0.085807046
0.11937932
0.087112578
0.12149392
0.088739773
0.12404848
0.091151401
0.12743246
0.092001848
0.13138686
0.093214964
0.13592818
0.093885358
0.14034166
0.094760881
0.14446473
0.094062137
0.14710022
0.093069336
0.14806388
0.090898613
0.14677308
0.087292415
0.14268775
0.08250372
0.13628676
0.076982505
0.07181407
0.12618528
0.12770778
0.078019094
0.12655866
0.079881426
0.12615728
0.081671597
0.12610605
0.08309856
0.1266288
0.085284299
0.1276593
0.086082073
0.12914836
0.087250718
0.13148054
0.088819217
0.1337555
0.089726884
0.13706219
0.089908275
0.14069905
0.090248504
0.14432606
0.091133866
0.14790913
0.090479065
0.15142521
0.089553258
0.15414405
0.08817978
0.15483561
0.086600846
0.15262559
0.084713748
0.14831132
0.081296772
0.078224478
0.14190091
0.13524452
0.079625495
0.13405612
0.081069823
0.13341237
0.082315347
0.13266005
0.083850879
0.13284321
0.08510114
0.13343021
0.085495068
0.13404916
0.086631775
0.13573093
0.087137445
0.13736097
0.088096838
0.13987572
0.087393535
0.14275645
0.087367766
0.14601264
0.087877676
0.14923417
0.087257536
0.15230091
0.086486515
0.1547015
0.085779196
0.15651971
0.084782629
0.15713217
0.084101297
0.15533212
0.08309682
0.082092631
0.15146397
0.14111184
0.081661098
0.13935145
0.082830214
0.13792803
0.083738765
0.13694408
0.084834834
0.13656649
0.085478727
0.13637474
0.085686816
0.13661137
0.086395145
0.13751965
0.086229168
0.13907457
0.086541917
0.14135698
0.085111127
0.14354802
0.085176721
0.14612657
0.085299131
0.14895226
0.084431841
0.15236796
0.08307082
0.15535546
0.08279169
0.15737058
0.082767512
0.15800277
0.083469112
0.1571432
0.083956382
0.084364345
0.15487149
0.14525381
0.084153876
0.14270943
0.085374592
0.14071815
0.085730042
0.13899113
0.086561858
0.13810405
0.086365803
0.13737158
0.086419287
0.13715591
0.086610813
0.13769044
0.085694647
0.13906262
0.085169735
0.14010967
0.08406408
0.14174277
0.083543616
0.1452795
0.081762398
0.14920674
0.080504605
0.15300344
0.079274114
0.15546096
0.080334173
0.15826964
0.079958834
0.16084948
0.080889269
0.16355197
0.0812539
0.083145857
0.16477045
0.14685645
0.087686041
0.14402578
0.088205264
0.14113521
0.088620615
0.13893636
0.088760705
0.13702626
0.088275902
0.13541733
0.088028216
0.13504564
0.086982508
0.13488004
0.085860244
0.13550237
0.084547408
0.13721394
0.082352505
0.14072164
0.080035916
0.14439955
0.078084487
0.14780423
0.07709993
0.15251662
0.074561723
0.15944892
0.073401872
0.16807065
0.071337103
0.17644899
0.072510927
0.1836461
0.074056788
0.078129794
0.18866217
0.14709496
0.092238481
0.14305821
0.092242016
0.13907526
0.092603569
0.13598477
0.091851198
0.13281958
0.091441084
0.13072542
0.090122381
0.12883792
0.088870006
0.12781891
0.086879255