/*--------------------------------*- C++ -*----------------------------------*\
  =========                 |
  \\      /  F ield         | OpenFOAM: The Open Source CFD Toolbox
   \\    /   O peration     | Website:  https://openfoam.org
    \\  /    A nd           | Version:  11
     \\/     M anipulation  |
\*---------------------------------------------------------------------------*/
FoamFile
{
    format      ascii;
    class       surfaceScalarField;
    location    "0.1";
    object      phi;
}
// * * * * * * * * * * * * * * * * * * * * * * * * * * * * * * * * * * * * * //

dimensions      [0 3 -1 0 0 0 0];

internalField   nonuniform List<scalar> 
8667
(
15.884437
1.893343
-2.3811137e-06
13.985407
1.8990288
1.6529788e-06
12.073978
1.9114288
-2.1554351e-07
10.173539
1.9004368
2.1028586e-06
8.2489224
1.9246304
-1.3579761e-05
6.361456
1.8875037
-3.7353146e-05
4.4505082
1.9110085
-6.0702009e-05
2.6070914
1.8434698
-5.3054586e-05
1.8099973
-9.2414873e-05
0.79718651
15.886075
3.7850463
13.983121
3.8019822
12.073817
3.8207337
10.164252
3.8100016
8.2510333
3.837849
6.3488015
3.7897355
4.4521153
3.8076948
2.6059266
3.6896585
3.640593
0.77533088
15.886017
5.6768072
13.984608
5.7033909
12.073221
5.7321206
10.16023
5.7229932
8.2413134
5.7567655
6.3426706
5.6883783
4.4452482
5.7051172
2.5956898
5.5392169
5.4811044
0.75517846
15.8863
7.5682856
13.984927
7.6047639
12.074553
7.6424937
10.159193
7.6383537
8.2390085
7.6769499
6.3324543
7.5949325
4.4286604
7.6089111
2.5813215
7.3865558
7.3280123
0.73441361
15.886496
9.4595659
13.985351
9.5059088
12.076791
9.5510532
10.158845
9.5562998
8.2385873
9.5972078
6.3275506
9.5059693
4.4164981
9.5199635
2.5652577
9.2377963
9.1717643
0.72150567
15.886225
11.351118
13.988253
11.403882
12.081099
11.458206
10.161451
11.475948
8.2395327
11.519126
6.3196569
11.425845
4.4028989
11.436722
2.5433334
11.097362
11.012861
0.70223721
15.887123
13.241773
13.992535
13.29847
12.086
13.364741
10.164606
13.397342
8.2409671
13.442765
6.3154402
13.351372
4.3896741
13.362488
2.5233132
12.963723
12.857092
0.6790817
15.888089
15.131462
13.996352
15.190207
12.091921
15.269172
10.171486
15.317778
8.2446276
15.369623
6.3130477
15.282952
4.3779879
15.297547
2.4980318
14.843679
14.697373
0.65775105
15.889839
17.019401
14.000957
17.07909
12.095886
17.174243
10.176346
17.237318
8.2490188
17.29695
6.3114027
17.220568
4.3665417
17.242408
2.472529
16.737691
16.550136
0.61976574
18.845005
15.952174
20.66824
15.954543
22.48902
15.957005
24.307454
15.959346
26.120424
15.96479
27.928229
15.969975
29.727996
15.978013
31.51957
15.986206
15.994255
33.303095
18.905895
14.125369
20.728422
14.132015
22.545089
14.140338
24.359755
14.14468
26.175142
14.149404
27.996654
14.148463
29.828265
14.146402
31.6676
14.146871
14.143386
33.518469
19.018687
12.280925
20.865972
12.28473
22.71337
12.29294
24.55983
12.29822
26.401462
12.307772
28.226243
12.323682
30.034325
12.338319
31.826707
12.354489
12.361689
33.608403
19.103751
10.414492
20.964384
10.424097
22.822974
10.43435
24.672853
10.44834
26.52181
10.458815
28.370351
10.475142
30.227376
10.481295
32.083845
10.49802
10.508907
33.936627
19.175805
8.5356369
21.057695
8.5422069
22.944326
8.5477194
24.835041
8.5576242
26.730225
8.5636316
28.631013
8.574353
30.526421
8.585887
32.419592
8.6048489
8.6268887
34.30161
19.116622
6.6395829
21.025545
6.6332839
22.941083
6.6321816
24.866319
6.6323878
26.788666
6.6412844
28.720755
6.642264
30.646818
6.6598245
32.588697
6.6629701
6.6912403
34.524345
19.153363
4.728628
21.087329
4.6993183
23.031794
4.6877164
25.011595
4.652587
27.003065
4.6498139
29.021668
4.6236617
31.045967
4.6355247
33.088485
4.6204521
4.6411681
35.138558
18.626108
2.840211
20.579742
2.7456842
22.572197
2.6952617
24.612714
2.6120705
26.672818
2.5897093
28.755764
2.540716
30.846918
2.5443704
32.951412
2.5159586
2.5332516
35.059328
18.46304
0.92730683
20.568973
0.63975125
22.835434
0.42880094
25.166699
0.2808056
27.518078
0.23833032
29.865689
0.19310484
32.245291
0.16476824
34.596892
0.16435823
36.968914
0.16122909
33.18297
0.12012512
33.062228
0.12074167
32.941483
0.1207446
32.816954
0.12452942
32.687612
0.12934168
32.55223
0.13538237
32.409785
0.14244532
32.261022
0.14876279
0.16327137
32.09775
33.437642
0.20095274
33.36461
0.19377334
33.295711
0.18964417
33.232948
0.18729234
33.178759
0.18353069
33.134211
0.17992998
33.097885
0.17877105
33.076795
0.16985349
0.16505436
33.075012
33.521975
0.28738119
33.435919
0.27982958
33.347873
0.27769034
33.26427
0.27089523
33.180626
0.26717479
33.10271
0.25784525
33.028661
0.25282077
32.958704
0.23980997
0.23178374
32.891975
33.88274
0.34126841
33.835
0.32757008
33.79245
0.32023984
33.757
0.30634568
33.724829
0.2993457
33.703642
0.27903225
33.694555
0.26190737
33.697439
0.23692596
0.22402323
33.7052
34.245363
0.39751546
34.195142
0.3777903
34.150657
0.36472571
34.113744
0.34325818
34.083796
0.32929381
34.060687
0.30214102
34.04434
0.27825492
34.036052
0.24521406
0.22838638
34.031688
34.505999
0.41586177
34.4974
0.38638874
34.498025
0.36410124
34.503005
0.33827831
34.515994
0.31630479
34.531231
0.28690387
34.542745
0.26674096
34.547918
0.2400405
0.22398494
34.55232
35.142762
0.4116577
35.146979
0.38217194
35.150016
0.36106342
35.150254
0.33804025
35.146554
0.3200053
35.137992
0.29546552
35.123507
0.28122634
35.096408
0.26713983
0.26209738
35.058295
35.15245
0.31853615
35.235893
0.29872912
35.325443
0.27151273
35.402078
0.26140509
35.477839
0.24424457
35.52777
0.24553515
35.564459
0.24453722
35.564798
0.26680086
0.29390047
35.532995
37.153936
0.1335138
37.300106
0.15255914
37.408286
0.1633335
37.46714
0.20255029
37.473247
0.23813808
37.416096
0.30268616
37.300373
0.36026051
37.107798
0.4593753
36.882645
0.51905325
36.731232
0.68600864
-0.5345954
36.436594
0.65323385
-0.35859588
36.058052
0.62510797
-0.24656589
35.663711
0.59787457
-0.20353364
35.265394
0.58195045
-0.18363334
34.870894
0.56083279
-0.16633231
34.469353
0.54350176
-0.14196072
34.061059
0.5273882
-0.11909439
0.51876933
33.646645
-0.10435591
35.593591
0.62541217
35.610342
0.63648282
35.590059
0.64539108
35.539514
0.64841969
35.470704
0.65076028
35.383113
0.64842348
35.274021
0.65259435
35.144247
0.65716189
0.66655501
34.996461
35.12267
0.56103746
35.177595
0.58155721
35.215583
0.60740379
35.240845
0.62315731
35.2473
0.64430496
35.235946
0.6597782
35.210231
0.67830941
35.176582
0.69081099
0.70805077
35.135086
34.678955
0.4344027
34.801289
0.45922312
34.910698
0.49799449
35.010113
0.52374239
35.090326
0.56409206
35.162921
0.58718277
35.221541
0.61968957
35.275323
0.6370291
0.66792918
35.315445
34.151806
0.31428473
34.274057
0.33697202
34.391678
0.38037392
34.501733
0.41368722
34.601037
0.46478786
34.690814
0.49740633
34.759695
0.55080824
34.813582
0.58314198
0.62746298
34.854049
33.859151
0.16033337
34.024949
0.17117374
34.209139
0.19618379
34.394516
0.22831045
34.581754
0.27755028
34.753278
0.32588254
34.91367
0.39041552
35.056557
0.44025483
0.49258805
35.191432
32.967344
0.084964059
33.048252
0.090265569
33.13462
0.10981585
33.210236
0.15269495
33.272068
0.21571761
33.312168
0.28578265
33.348865
0.35371842
33.385922
0.4031979
0.43438724
33.444123
33.218477
-0.058501047
33.416852
-0.10811013
33.672158
-0.14548999
33.97227
-0.14741693
34.299601
-0.11161286
34.615184
-0.029800681
34.837661
0.1312417
34.952579
0.28827974
0.39302387
34.993942
32.039249
31.931139
31.785649
31.638232
31.526619
31.496819
31.62806
31.91634
32.309364
32.754374
-0.44500966
33.203866
-0.44949185
33.636684
-0.43281805
34.042674
-0.40599062
34.4151
-0.37242573
34.756805
-0.34170491
35.072132
-0.31532707
35.372991
-0.30085895
-0.28609162
35.659083
34.983601
-0.43466865
34.947917
-0.41380753
34.902362
-0.38726298
34.862112
-0.36574124
34.83387
-0.34418341
34.831164
-0.33899848
34.855128
-0.33929164
34.908954
-0.35468521
-0.37174996
34.994613
33.529355
-0.51990046
33.66208
-0.54653307
33.829896
-0.55507839
34.038517
-0.57436231
34.274309
-0.57997554
34.540604
-0.60529359
34.821509
-0.62019628
35.114499
-0.64767569
-0.67077532
35.413525
35.313524
-0.64199198
35.433232
-0.66624086
35.544411
-0.66625717
35.65313
-0.68308191
35.75891
-0.68575513
35.857347
-0.7037307
35.9551
-0.71794927
36.046187
-0.73876246
-0.76733485
36.142746
34.897717
-0.68565997
34.946111
-0.7146352
35.013504
-0.73365009
35.086191
-0.75576922
35.177045
-0.77660883
35.266208
-0.79289419
35.366854
-0.81859527
35.464177
-0.83608569
-0.87441571
35.571258
35.350219
-0.72043462
35.374694
-0.73911021
35.395895
-0.75485048
35.412097
-0.77197203
35.42555
-0.79006112
35.441857
-0.80920188
35.456647
-0.83338468
35.482514
-0.86195313
-0.89839846
35.506497
35.08462
-0.66996899
35.028337
-0.68282667
34.964064
-0.69057783
34.89919
-0.70709762
34.827634
-0.71850507
34.762235
-0.74380372
34.691411
-0.76256026
34.632248
-0.8027905
-0.8314404
34.56529
34.837328
-0.51083538
34.666439
-0.51193824
34.48952
-0.51365885
34.304848
-0.52242574
34.112055
-0.52571153
33.905546
-0.53729522
33.680267
-0.53728055
33.437861
-0.56038441
-0.57331663
33.179737
33.254968
-0.11915851
32.877512
-0.13448148
32.511063
-0.14721054
32.123409
-0.13477141
31.738124
-0.140427
31.34011
-0.13928123
30.978215
-0.17538547
30.614377
-0.19654637
30.290875
-0.24981453
0.61429233
29.951525
-0.27494169
0.87895977
32.915069
0.93490058
34.509349
0.90241281
35.538985
0.79376451
35.679907
0.69346245
36.243048
0.39408127
35.712906
0.28256551
35.106129
35.941648
0.65041654
29.661202
-0.36009395
0.91534181
32.650144
0.98159557
34.443096
0.95373401
35.566846
0.83446842
35.799172
0.72221529
36.355301
0.42030716
36.014814
0.27420583
35.25223
36.215854
0.7231686
29.315867
-0.37783367
0.97735714
32.395956
1.025878
34.394575
0.99054809
35.602176
0.86911951
35.920601
0.74964078
36.47478
0.45371114
36.310744
0.28013996
35.425801
36.495994
0.78217315
28.979644
-0.44595011
1.0245066
32.153622
1.0855227
34.333559
1.0511118
35.636587
0.91462154
36.057091
0.78237216
36.607029
0.49085807
36.602258
0.2821567
35.634502
36.778151
0.8737831
28.542041
-0.43618026
1.1133401
31.914065
1.1571599
34.289739
1.0974859
35.696261
0.95614706
36.19843
0.81378305
36.749393
0.53171322
36.884328
0.30191873
35.864297
37.080069
0.95582896
28.132741
-0.54652881
1.1683601
31.701534
1.2202233
34.237876
1.1704121
35.746072
1.011209
36.357633
0.85086336
36.909739
0.57151555
37.163675
0.30799309
36.127819
37.388062
1.0694184
27.609467
-0.54614427
1.2842193
31.486733
1.3232089
34.198886
1.2284504
35.840831
1.0561689
36.529914
0.88727728
37.078631
0.6106929
37.44026
0.33253113
36.405981
37.720593
1.1665789
27.126952
-0.68406385
1.3512851
31.302027
1.3848608
34.165311
1.3001516
35.92554
1.1255267
36.704539
0.92514959
37.279008
0.64554864
37.719861
0.34106472
36.710465
38.061658
1.3078666
26.612382
-0.79329657
1.4886508
31.121243
1.510739
34.143222
1.3725976
36.063681
1.1728792
36.904258
0.9638288
37.488058
0.6849938
37.998696
0.36952274
37.025936
38.431181
-0.0016782939
38.432859
0.058987426
36.96527
0.12305888
37.934624
0.25833445
37.352783
0.37434516
36.788247
0.53030208
35.907725
0.68581202
33.987712
0.87549638
30.931558
26.811041
0.67683746
-0.0027946643
38.435654
0.053877383
36.908598
0.12671348
37.861788
0.25801029
37.221486
0.34103004
36.705227
0.44897518
35.799779
0.54473284
33.891955
0.65634147
30.81995
26.876573
0.59080878
-0.0034222117
38.439076
0.028153961
36.877022
0.081448712
37.808493
0.19868134
37.104253
0.28012972
36.623779
0.39654808
35.683361
0.5077181
33.780785
0.63051072
30.697157
26.895293
0.61179117
-0.00027188588
38.439348
0.039769392
36.836981
0.095681959
37.752581
0.20005781
36.999877
0.26775236
36.556084
0.34056394
35.610549
0.38131995
33.740029
0.44430165
30.634175
26.901726
0.43786825
-0.0012399982
38.440588
0.019950354
36.815791
0.065637463
37.706894
0.15106839
36.914446
0.21249502
36.494658
0.30699773
35.516047
0.37913632
33.66789
0.45595494
30.557357
26.889582
0.46809923
0.0070439987
38.433544
0.03227007
36.790565
0.081628207
37.657536
0.16217643
36.833898
0.19804794
36.458786
0.24686213
35.467233
0.26931229
33.64544
0.29802573
30.528643
26.873807
0.31380041
0.0090936366
38.42445
0.027779191
36.771879
0.066148548
37.619166
0.1345016
36.765545
0.18530561
36.407982
0.25060738
35.401931
0.29141841
33.604629
0.32214983
30.497912
26.803366
0.39259109
0.022129347
38.402321
0.04882865
36.74518
0.10121993
37.566775
0.15070313
36.716062
0.16389836
36.394787
0.1882784
35.377551
0.18750224
33.605405
0.19054796
30.494866
26.71821
0.27570372
0.031906594
38.370414
0.0511441
36.725942
0.097353527
37.520565
0.15850746
36.654908
0.1893997
36.363895
0.21417469
35.352776
0.23572759
33.583852
0.24447419
30.486119
26.589726
0.37295837
-0.11851318
26.445425
0.26281442
-0.14098564
30.508592
-0.1722289
33.615095
-0.17666248
35.357209
-0.17222789
36.35946
-0.14313701
36.625817
-0.086656795
37.464085
-0.050212436
36.689498
38.320202
-0.18636465
26.294495
0.33729455
-0.20701851
30.529246
-0.21788096
33.625958
-0.23498115
35.37431
-0.22030931
36.344788
-0.16971838
36.575226
-0.10375074
37.398118
-0.064962693
36.65071
38.255239
-0.080389929
26.127266
0.24761889
-0.13528766
30.584144
-0.20381561
33.694486
-0.24040962
35.410904
-0.23766216
36.342041
-0.21400673
36.551571
-0.14520904
37.32932
-0.090290762
36.595792
38.164949
-0.1703794
26.002905
0.29474063
-0.23460725
30.648371
-0.29165
33.751529
-0.33188377
35.451137
-0.32265433
36.332811
-0.27803076
36.506947
-0.1837042
37.234993
-0.11300828
36.525096
38.05194
-0.080345391
25.809811
0.27343928
-0.18404395
30.75207
-0.30309585
33.870581
-0.37059655
35.518638
-0.36435259
36.326568
-0.3289086
36.471503
-0.23314513
37.13923
-0.14674415
36.438695
37.905196
-0.19738714
25.741827
0.26537101
-0.32395086
30.878634
-0.43239084
33.979021
-0.49200598
35.578253
-0.47197133
36.306533
-0.41884267
36.418374
-0.290977
37.011364
-0.1757664
36.323484
37.72943
-0.13427945
25.582227
0.29387954
-0.30629761
31.050652
-0.46675007
34.139473
-0.5542557
35.665759
-0.54128426
36.293561
-0.48707966
36.36417
-0.3508113
36.875096
-0.21594731
36.18862
37.513482
-0.28241408
25.613969
0.25067253
-0.4875034
31.255741
-0.64526975
34.297239
-0.70862058
35.72911
-0.66839509
36.253336
-0.58966424
36.285439
-0.42088089
36.706313
-0.25119865
36.018938
37.262284
-0.24870902
25.554812
0.30786615
-0.51140373
31.518436
-0.71312621
34.498962
-0.7964226
35.812406
-0.75650609
36.213419
-0.67319343
36.202126
-0.49285251
36.525972
-0.29715433
35.82324
36.965129
0.46288487
36.502245
0.82084873
35.465276
1.1625819
36.184238
1.385863
35.978845
1.5444983
36.054784
1.5325273
35.824377
1.3062397
34.725249
0.8476119
31.977064
25.982481
0.4199424
0.51059049
35.991654
0.90145308
35.074413
1.2616293
35.824062
1.5120679
35.728407
1.6979782
35.868874
1.7017298
35.820626
1.4506937
34.976285
0.88770538
32.540052
26.310468
0.55971826
0.55208357
35.439571
0.99357943
34.632917
1.4049511
35.412691
1.6971453
35.436212
1.9378879
35.628131
2.0092102
35.749303
1.8242426
35.161253
1.2579324
33.106362
27.092326
0.47607449
0.57835126
34.861219
1.061745
34.149524
1.5009266
34.973509
1.8298257
35.107313
2.1056683
35.352289
2.2141538
35.640818
2.0475278
35.327879
1.4019235
33.751966
27.784633
0.70961678
0.63243365
34.228786
1.155764
33.626193
1.6468867
34.482386
2.0187003
34.7355
2.3472998
35.023689
2.5264842
35.461633
2.485631
35.368732
1.8939091
34.343688
29.091497
0.5870451
0.65416517
33.57462
1.2111402
33.069218
1.7327576
33.960769
2.1413074
34.32695
2.504077
34.660919
2.7321385
35.233572
2.7578366
35.343034
2.2375585
34.863966
30.504625
0.82443024
0.69816891
32.876452
1.3007104
32.466677
1.8665207
33.394959
2.3206152
33.872856
2.7368876
34.244647
3.0538708
34.916589
3.2185946
35.17831
2.8751747
35.207386
32.397931
0.98186927
0.71528081
32.161171
1.3385679
31.84339
1.9302089
32.803318
2.4286228
33.374442
2.8717137
33.801556
3.2279521
34.56035
3.4686256
34.937637
3.3366748
35.339337
33.979978
1.7546274
0.76690286
31.394268
1.4280798
31.182213
2.0522583
32.179139
2.6199418
32.806758
3.1101429
33.311355
3.5563438
34.114149
3.9766787
34.517302
4.1609376
35.155078
34.953345
3.18757
-0.79254064
32.186809
-1.7291177
32.11879
-2.8208061
33.270827
-3.9926806
33.978633
-5.3549482
34.673623
-6.8729154
35.632117
-8.58582
36.230207
-10.428201
36.997459
35.801226
-11.276082
-0.74692397
32.933733
-1.6436192
33.015485
-2.7341819
34.36139
-3.9041545
35.148605
-5.3463326
36.115801
-6.9358013
37.221585
-8.7890116
38.083417
-10.457529
38.665977
34.853478
-9.5097808
-0.72895046
33.662683
-1.6058542
33.892389
-2.6849093
35.440445
-3.8552824
36.318978
-5.3173232
37.577842
-6.9615103
38.865772
-8.8387074
39.960614
-10.096539
39.923808
28.958832
-4.2018932
-0.6857506
34.348434
-1.5213486
34.727987
-2.58059
36.499687
-3.745772
37.48416
-5.2847617
39.116831
-7.0115068
40.592518
-8.8156243
41.764731
-9.8283104
40.936494
19.908272
-0.77775038
-0.66374142
35.012175
-1.4790581
35.543303
-2.5263513
37.54698
-3.6822979
38.640107
-5.2300022
40.664536
-6.9860346
42.34855
-8.779859
43.558556
-9.1539586
41.310594
10.911984
-0.15767014
-0.62137548
35.63355
-1.3867316
36.30866
-2.4098922
38.57014
-3.5577944
39.788009
-5.1529397
42.259681
-6.9718001
44.167411
-8.7296481
45.316404
-8.5599619
41.140908
2.4186911
-0.066669327
-0.59779285
36.231343
-1.3462255
37.057092
-2.3494605
39.573375
-3.4745631
40.913112
-5.0974709
43.882589
-6.9087259
45.978666
-8.4872507
46.894929
-5.885551
38.539208
-4.1251406
0.65828067
-0.56528668
36.79663
-1.2678551
37.759661
-2.2414927
40.547013
-3.353836
42.025455
-4.9867862
45.515539
-6.7816977
47.773577
-8.0633499
48.176581
-4.2036557
34.679514
-9.2637468
0.93495056
-0.54162426
37.338254
-1.2249374
38.442974
-2.171276
41.493352
-3.2615355
43.115715
-4.9044705
47.158474
-6.6041607
49.473267
-7.3632405
48.935661
-3.3593368
30.67561
-14.015879
1.3927957
1.495568
-16.472517
0.96106964
3.6864635
28.484715
3.1811395
49.440985
2.1544387
50.499968
1.2070057
48.105907
0.68134891
43.641371
0.26519281
41.909508
0.076281797
38.631885
37.414536
1.3201068
-18.847839
1.0552153
3.4567306
26.348091
3.014776
49.882939
2.0368574
51.477886
1.1277585
49.015006
0.6375883
44.131542
0.24583017
42.301266
0.071305698
38.806409
37.485842
1.0761078
-21.117601
1.1936541
3.2710607
24.153138
2.9142382
50.239762
1.9378508
52.454274
1.0331186
49.919738
0.56486485
44.599795
0.19279023
42.67334
0.051555977
38.947643
37.537398
0.9065145
-23.255004
1.2308886
3.0397663
22.019886
2.7437308
50.535797
1.8202217
53.377783
0.96276669
50.777193
0.5332944
45.029268
0.17646729
43.030168
0.047897192
39.076214
37.585295
0.69594011
-24.976437
1.0254927
2.8591527
19.856674
2.6470723
50.747878
1.7288528
54.296003
0.87888729
51.627159
0.46202189
45.446133
0.12662404
43.365565
0.035430434
39.167407
37.620725
0.57823179
-25.636505
0.081836575
2.6185089
17.816397
2.4746004
50.891786
1.61237
55.158233
0.80996072
52.429568
0.43245106
45.823643
0.11519816
43.682818
0.041124012
39.241481
37.661849
0.42665681
-26.185601
0.12243855
2.4337965
15.809257
2.3767647
50.948818
1.5209938
56.014004
0.74995864
53.200603
0.38083976
46.192762
0.080672165
43.982986
0.049967054
39.272186
37.711816
0.29732311
-26.332982
-0.14994168
2.1799714
13.926609
2.2011247
50.927665
1.4048035
56.810325
0.68704874
53.918358
0.35537159
46.524439
0.0595896
44.278768
0.05300143
39.278775
37.764818
0.10005082
-26.019189
-0.41384414
1.9319018
12.094758
2.0753604
50.784206
1.3042527
57.581433
0.62131735
54.601293
0.30605782
46.839698
0.024726086
44.5601
0.052465392
39.251035
37.817283
1.1322343
-26.393799
-0.75762449
-1.5880418
14.815034
-3.6456596
52.841824
-4.2795309
58.215304
-3.8471841
54.168946
-2.827483
45.819997
-2.1122091
43.844826
-0.761356
37.900182
37.055927
0.74590439
-26.29038
-0.8493233
-2.2910805
17.852019
-4.2678985
54.818642
-4.7491522
58.696558
-3.9199293
53.339724
-2.8254204
44.725488
-2.0263525
43.045758
-0.60527341
36.479103
36.450654
0.46609997
-25.520569
-1.2359106
-2.8214361
21.139555
-4.6042542
56.60146
-4.7372745
58.829578
-3.7565568
52.359006
-2.5659686
43.5349
-1.7204027
42.200192
-0.33085726
35.089558
36.119797
0.16173256
-23.306496
-2.3758059
-3.242364
24.543651
-4.9771976
58.336294
-4.8947513
58.747132
-3.6142293
51.078484
-2.3780915
42.298762
-1.4153952
41.237496
-0.11188234
33.786045
36.007914
-0.091927086
-20.187018
-3.0275502
-3.5982103
28.049934
-5.1143333
59.852417
-4.637522
58.27032
-3.2287562
49.669718
-2.0105661
41.080572
-1.0247968
40.251727
-0.065927452
32.827176
35.941987
-0.50942184
-16.498203
-3.1793939
-3.9099252
31.450438
-5.3394088
61.2819
-4.6334494
57.564361
-2.9746921
48.010961
-1.8308818
39.936762
-0.73803443
39.158879
0.15334742
31.935794
36.095334
-0.99538379
-12.435059
-3.0677601
-4.2495303
34.704584
-5.341664
62.374034
-4.1092109
56.331908
-2.4718543
46.373604
-1.453627
38.918534
-0.3220617
38.027314
0.068017788
31.545714
36.163352
-1.2678901
-8.8790032
-2.2881653
-4.3961542
37.832848
-5.4395561
63.417436
-3.9860539
54.878406
-2.2692195
44.65677
-1.2782644
37.927579
-0.12328605
36.872336
0.19555936
31.226869
36.358911
-2.1422081
-0.81812013
-5.918675
-4.7856325
40.476273
-5.2873639
63.919167
-3.3018323
52.892874
-1.7542618
43.1092
-1.0583103
37.231628
-0.09078654
35.904812
-0.50373683
31.639819
35.855174
-1.3199601
0.81635546
0.50286495
0.00073974391
-0.13751486
-1.1814375
-0.0010077513
3.0710113
-3.2091463
0.00062021535
6.149688
-3.0797335
0.0010568089
8.9292556
-2.779572
4.378995e-06
11.283144
-2.3542574
0.00036897293
13.498533
-2.2154579
6.893618e-05
15.535623
-2.0372909
0.00020068786
-2.098102
0.00027437333
-1.3174358
1.6296896
0.50410163
-0.12530241
-2.3735709
3.0884321
-6.4228808
6.1744655
-6.1657669
8.9514576
-5.5565641
11.297836
-4.7006355
13.510681
-4.428303
15.545193
-4.0718033
-4.1948048
-1.3194975
2.4427012
0.50648592
-0.11782611
-3.5752423
3.1158747
-9.6565816
6.2193256
-9.2692178
8.9941614
-8.3313999
11.326788
-7.0332621
13.532857
-6.6343725
15.56406
-6.1030063
-6.2908602
-1.3318478
3.264374
0.51017494
-0.12746511
-4.7796249
3.1491783
-12.933225
6.2797092
-12.399749
9.0539523
-11.105643
11.36847
-9.3477799
13.56428
-8.8301823
15.592121
-8.1308471
-8.3865357
-1.3581746
4.105144
0.51740462
-0.15581949
-5.9819801
3.191739
-16.280783
6.3585994
-15.566609
9.128819
-13.875863
11.420221
-11.639182
13.605843
-11.015805
15.629679
-10.154683
-10.480475
-1.3961538
4.9737926
0.52750522
-0.20012083
-7.1780131
3.2426191
-19.723523
6.4617986
-18.785789
9.2196768
-16.633741
11.480959
-13.900464
13.659587
-13.194432
15.674648
-12.169744
-12.567881
-1.4381044
5.8660231
0.54587395
-0.22892649
-8.387191
3.3102299
-23.26268
6.5850023
-22.060561
9.3265232
-19.375262
11.558133
-16.132074
13.729902
-15.366201
15.71757
-14.157413
-14.636383
-1.4614446
6.7840598
0.54340786
-0.21301775
-9.6356179
3.4251202
-26.900818
6.7245053
-25.359946
9.4422583
-22.093015
11.658158
-18.347974
13.811142
-17.519185
15.744474
-16.090745
-16.688753
-1.4821992
0.54745887
7.7188001
-0.15395495
-10.963862
3.5900889
-30.644862
6.896878
-28.666735
9.5625741
-24.758711
11.757802
-20.543201
13.875105
-19.636488
15.763404
-17.979044
-18.768252
-2.1422662
8.8806627
-0.81827728
-5.9201192
-4.7857184
-37.834623
40.478075
-5.2872608
-63.41523
63.916773
-3.301973
-54.877406
52.892118
-1.7544225
-44.657963
43.110412
-1.0582469
-37.927804
37.231628
-0.090737748
-36.87197
35.904461
-0.50375397
-31.22677
31.639786
-36.359258
35.855504
-1.2682229
12.436943
-2.288057
-4.3962596
-34.706586
-5.439359
-62.37213
-3.986085
-56.33068
-2.269509
-46.374539
-1.2783744
-38.918939
-0.12326452
-38.02708
0.1955529
-31.545587
-36.163705
-0.99537379
16.499819
-3.0675028
-4.2497252
-31.452234
-5.3414831
-61.280372
-4.1091462
-57.563017
-2.4721004
-48.011585
-1.4537553
-39.937284
-0.32204623
-39.158789
0.068015368
-31.935649
-36.09569
-0.50946114
20.188408
-3.179128
-3.910045
-28.05165
-5.3391593
-59.851258
-4.6332015
-58.268975
-2.9746512
-49.670135
-1.830929
-41.081006
-0.737948
-40.25177
0.15335184
-32.826948
-35.942338
-0.091934934
23.307606
-3.027263
-3.5984275
-24.545158
-5.114072
-58.335613
-4.637172
-58.745875
-3.2287279
-51.078579
-2.0106769
-42.299057
-1.0246989
-41.237748
-0.065891522
-33.785756
-36.008229
0.16189573
25.521663
-2.3759529
-3.2424949
-21.140767
-4.9768944
-56.601214
-4.8944047
-58.828364
-3.6141436
-52.35884
-2.3782035
-43.534997
-1.4153264
-42.200625
-0.11186711
-35.089215
-36.120096
0.46652605
26.291741
-1.2366032
-2.8215832
-17.852658
-4.6039526
-54.818844
-4.7368751
-58.695442
-3.7562503
-53.339465
-2.5659435
-44.725304
-1.7203848
-43.046184
-0.33084788
-36.478752
-36.450944
0.74654633
26.396121
-0.85092686
-2.2910912
-14.815021
-4.2674614
-52.842474
-4.7488065
-58.214097
-3.9196765
-54.168595
-2.8252491
-45.819731
-2.0262913
-43.845142
-0.60526695
-37.899776
-37.056211
1.1329768
26.02201
-0.75886498
-1.5882306
-12.093813
-3.64517
-50.785534
-4.2790382
-57.580229
-3.8468999
-54.600733
-2.8273634
-46.839268
-2.1121444
-44.56036
-0.76135993
-39.250561
-37.817571
-0.076304683
37.414581
-37.338276
-0.26520558
38.631471
-38.44257
-0.68140279
41.909473
-41.493276
-1.2070483
43.640771
-43.115125
-2.1544566
48.105532
-47.158124
-3.1809872
50.499455
-49.472925
-3.6862196
49.442755
-48.937522
-1.4955682
28.481364
-30.672016
-16.470502
14.014497
0.96043689
-0.071344064
37.485925
-0.24586088
38.805988
-0.63763965
42.301252
-1.1277742
44.130905
-2.0368097
49.014568
-3.0145904
51.477236
-3.4565052
49.884669
-1.3202377
26.345097
-18.845194
1.0544543
-0.051590332
37.537515
-0.1928039
38.947202
-0.56493055
42.673379
-1.033174
44.599149
-1.9378118
49.919206
-2.9140655
52.45349
-3.2708877
50.241492
-1.07619
24.150399
-21.114332
1.1929473
-0.047914084
37.585429
-0.17647079
39.075758
-0.53332726
43.030235
-0.96278215
45.028604
-1.8202109
50.776635
-2.7436252
53.376904
-3.0396399
50.537507
-0.90672069
22.01748
-23.251254
1.230202
-0.035455998
37.620885
-0.12665895
39.166961
-0.46211827
43.365694
-0.8789488
45.445434
-1.7288709
51.626557
-2.6470129
54.295046
-2.8591109
50.749605
-0.69618637
19.854556
-24.972539
1.0250984
-0.041175339
37.662061
-0.1152349
39.241021
-0.43251576
43.682975
-0.81008011
45.822999
-1.612465
52.428942
-2.4745983
55.157179
-2.6185033
50.893511
-0.57854036
17.814592
-25.636184
0.085104164
-0.049995957
37.712057
-0.080698731
39.271724
-0.38090541
43.983182
-0.75008811
46.192181
-1.5211254
53.199979
-2.3768145
56.012868
-2.4338036
50.950501
-0.42691148
15.8077
-26.188522
0.12542648
-0.053028979
37.765086
-0.059609773
39.278304
-0.35543248
44.279005
-0.68716947
46.523918
-1.4049389
53.917749
-2.2012263
56.809156
-2.1799389
50.929214
-0.29753867
13.925299
-26.33611
-0.14995006
-0.05248546
-0.024741892
-0.30609758
-0.62144681
-1.3044314
-2.075504
-1.931824
-0.10033802
-0.41443847
3.3585073
9.2627047
1.3932852
7.362904
-34.676412
6.6039873
-48.178605
4.9045048
-47.773442
3.2615982
-45.515217
2.1713492
-42.024876
1.2249706
-40.546897
0.54164845
-37.759248
-36.796628
4.2027746
4.1238952
0.93603487
8.0631783
-38.536816
6.7814623
-46.896889
4.9865878
-45.978568
3.3537971
-43.882427
2.2414801
-40.912559
1.2678505
-39.573268
0.56531045
-37.056708
-36.231317
5.8855092
-2.4201597
0.65854567
8.4871729
-41.13848
6.9084029
-45.318119
5.0971556
-44.16732
3.4745008
-42.259772
2.3494394
-39.787498
1.346225
-38.570053
0.59782186
-36.308305
-35.633495
8.5593408
-10.91317
-0.06633024
8.7296499
-41.308789
6.9718373
-43.560306
5.1529015
-42.348385
3.5577816
-40.664652
2.4098697
-38.639586
1.3867278
-37.546912
0.62138405
-35.542961
-35.012111
9.1535362
-19.909185
-0.15752167
8.7800084
-40.935261
6.9859471
-41.766245
5.2297232
-40.592161
3.6822204
-39.117149
2.5263069
-37.483672
1.4790552
-36.49966
0.66376396
-34.72767
-34.348347
9.8281217
-28.959308
-0.77799897
8.8157751
-39.922914
7.0114627
-39.961933
5.2847043
-38.865402
3.745741
-37.578186
2.5805356
-36.318467
1.5213075
-35.440432
0.68573716
-33.8921
-33.66261
10.096646
-34.853819
-4.2021344
8.8390899
-38.665358
6.9614292
-38.084272
5.3171339
-37.221107
3.8552027
-36.116255
2.6848697
-35.148134
1.6058494
-34.361411
0.72893733
-33.015187
-32.933673
10.457644
-35.801758
-9.5097058
8.7891402
-36.996854
6.9356154
-36.230747
5.3462385
-35.63173
3.904113
-34.674129
2.7341178
-33.978139
1.6435793
-33.270873
0.74689861
-32.118507
-32.186774
10.428323
-34.953802
-11.276279
8.585854
-35.154385
6.8728236
-34.517717
5.3548457
-34.113752
3.9926176
-33.311901
2.8207442
-32.806265
1.7290783
-32.179207
0.79250666
-31.181935
-31.394268
0.46289114
36.502333
-36.965224
0.82087641
35.465078
-35.823063
1.1626138
36.184444
-36.526181
1.3858271
35.97866
-36.201873
1.5444779
36.055171
-36.213821
1.5327007
35.823573
-35.811796
1.3065509
34.72562
-34.49947
0.84830618
31.975487
-31.517242
25.985148
-25.557168
0.42032597
0.51059894
35.991734
0.90148147
35.074195
1.2617136
35.824211
1.5122065
35.728167
1.6980219
35.869355
1.7017214
35.819874
1.4507434
34.976598
0.88799256
32.538238
26.31354
0.55960082
0.55209092
35.439643
0.99357637
34.63271
1.4049455
35.412842
1.6971327
35.43598
1.9378582
35.62863
2.0092018
35.74853
1.8243141
35.161485
1.2581471
33.104405
27.095266
0.47642113
0.57837683
34.861266
1.0617641
34.149322
1.5010083
34.973598
1.8299548
35.107033
2.1057042
35.35288
2.2141214
35.640113
2.0474889
35.328118
1.4018588
33.750035
27.787192
0.70993253
0.63242091
34.228845
1.1557804
33.625963
1.6468892
34.482489
2.0187484
34.735174
2.3473413
35.024287
2.5264571
35.460997
2.4856195
35.368956
1.8937838
34.341871
29.093677
0.58729912
0.65415603
33.574689
1.2111826
33.068936
1.7328071
33.960865
2.1413961
34.326585
2.5041479
34.661536
2.7321066
35.233039
2.7577862
35.343276
2.2373093
34.862348
30.505785
0.82520108
0.69816977
32.876519
1.3007302
32.466376
1.8665478
33.395047
2.3207143
33.872418
2.7370197
34.24523
3.0538973
34.916161
3.2185674
35.178606
2.8747577
35.206157
32.398434
0.98210854
0.71531094
32.161208
1.3386024
31.843084
1.9302523
32.803397
2.4286709
33.374
2.8717821
33.802119
3.2279806
34.559963
3.4686204
34.937966
3.336329
35.338449
33.980334
1.754429
0.76694069
1.42809
2.0522803
2.6200146
3.1102327
3.5564429
3.9766924
4.1607562
3.1872887
-0.24926414
-25.615367
0.30746291
-0.51168939
-31.254817
-0.71338833
-34.297771
-0.79656353
-35.728621
-0.75663683
-36.253748
-0.67325106
-36.285259
-0.49289892
-36.706533
-0.29716293
-36.018799
-37.262387