/*--------------------------------*- C++ -*----------------------------------*\
  =========                 |
  \\      /  F ield         | OpenFOAM: The Open Source CFD Toolbox
   \\    /   O peration     | Website:  https://openfoam.org
    \\  /    A nd           | Version:  11
     \\/     M anipulation  |
\*---------------------------------------------------------------------------*/
FoamFile
{
    format      ascii;
    class       volScalarField;
    location    "0.1605";
    object      p;
}
// * * * * * * * * * * * * * * * * * * * * * * * * * * * * * * * * * * * * * //

dimensions      [0 2 -2 0 0 0 0];

internalField   nonuniform List<scalar> 
880
(
80
80
80.00000000529283
80.00097074889516
80
80
80.0000000279493
80.00380882700101
80
79.99999999999999
80.00000021389378
80.0181361952795
80
80
80.00000339523292
80.05699893613274
80
80.00000000000001
79.99999999999994
79.99999999924746
80.00000000003904
79.9999999966879
80.00000013804733
79.99999638078572
79.99996935170147
80.00009432543645
80.04209532967378
79.94917391004556
81.60539522121515
85.12106330871336
87.66620645975627
88.66801903155802
80.00000812260708
80.00011351838711
80.0001755525751
80.00017519063383
80.00030952056839
80.00073558211542
80.00255975785686
80.0027000006509
80.11408164113371
80.22710152325048
80.39502959001558
80.53316096777401
89.96777892251217
91.62411830954642
93.25765991389696
95.28000547023562
94.59838771644807
91.64221769819936
89.05434720912399
87.88733791648416
80.98931106917367
81.97082215326259
82.40878817505174
82.49764511855039
80.00825871032305
80.03035240065471
80.06294086247867
80.08661010728952
80.00052418356259
80.00165853313179
80.0042095664687
80.00586049725278
80.00571680123284
80.00465195275741
80.00288484389887
80.00123171054345
80.09163332558447
80.08305820433399
80.0677363145377
80.04606340347095
82.31545275990501
82.0101934347625
81.65251072524177
81.24761443189722
87.44584810648924
86.73520865774007
85.70107135673072
84.60184504148994
83.50193305061569
80.81161553293832
80.02232713649876
80.00027721321355
82.48886047989212
80.40684847182612
80.00615947071712
80.00002353678947
81.15637862294771
80.0911210711099
80.00055509557755
79.99998728955183
84.48280339416608
80.05851628765365
80.00011825493753
80.00003870259859
79.99993761837587
79.99999982630759
80.19661051199887
105.6382737799639
80.0000602823514
80.00397932471842
80.98692085316978
124.922628479149
80.00043069615485
80.01012791661599
82.09577682334037
135.9646648187427
80.0016702040764
80.03186938561478
83.73880814471418
145.6836064215157
152.4847943225726
85.82927577153637
80.05741996368383
80.00333377835102
159.8197438926753
88.40629197482518
80.11726648921864
80.00747539669725
167.0460733015617
91.72510106294037
80.1952581806013
80.01057432965743
176.2049954592117
95.46297292485835
80.30496353061567
80.0187566295874
80.02562561073151
80.4667124744727
100.327337717016
183.4569306735561
80.04165660984845
80.71939239384315
104.6025867365403
182.9365524736883
80.10163863019646
80.87455025261828
102.0953711604307
164.300672252253
79.97916323900938
80.53806845438442
94.84641856290328
135.8355727487705
80.11573211461332
81.32664293519242
91.72002474947462
101.5788219245551
80.15448210843709
81.25098360552681
83.78993281329255
68.58353155409401
80.07501086761116
80.62911093383117
80.63029326358638
49.10728708337814
80.00526453537491
80.22334709142756
78.24806745151454
41.85756539078258
42.42355568207208
76.62137100467061
79.88590005353238
79.99651398680707
42.05453340376499
75.14025263845741
79.71874262669094
79.99284559921973
41.78121326169916
74.11494235343496
79.66824309548051
79.99452572160843
39.38766971105616
72.91761330584302
79.63549085152422
79.99620283477614
43.95877849952268
74.41813221156536
79.8096149030626
79.99863411764254
47.26781224639751
76.30729048854822
79.92912078309647
79.99963022962652
50.42710096773818
77.63220292501956
79.97030754917573
79.9998762484587
55.48388604336244
79.07948800180269
79.99489274193571
79.99995645096536
69.90809724410944
78.44920426472873
79.92164701356592
79.99895252577257
68.91058276458379
78.50443014729829
79.92420091067301
79.99894356372906
67.76121189083037
78.51827723030485
79.92908687385669
79.99895640603606
67.82354302680734
78.6597887673023
79.93649693606243
79.99898244603044
55.48388604311786
79.07948800141759
79.99489274131426
79.9999564517133
50.42710096742174
77.63220292475532
79.9703075469339
79.9998762479261
47.2678122459068
76.30729048878331
79.92912078282463
79.99963023026334
43.95877849955038
74.41813221265203
79.80961490299175
79.99863411706316
79.99651398826079
79.88590005482932
76.62137100475471
42.42355568208228
79.99284559984767
79.71874262737701
75.14025263904018
42.05453340399323
79.99452572003197
79.66824309691714
74.11494235336396
41.78121326173985
79.99620283502678
79.63549085215611
72.91761330785266
39.38766971088724
41.85756538954895
78.24806745030462
80.22334709054768
80.00526453502145
49.10728708240353
80.63029326246694
80.62911093304575
80.07501086524499
68.58353155413546
83.7899328122044
81.25098360571005
80.15448210683088
101.5788219247413
91.72002474921959
81.32664293400057
80.11573211760269
80.02562561019114
80.46671247765353
100.3273377169515
183.4569306744127
80.0416566101125
80.71939239482327
104.6025867363785
182.9365524735439
80.10163862572971
80.8745502520641
102.095371159363
164.3006722522429
79.97916324772947
80.53806845417326
94.84641856195992
135.8355727486965
176.2049954620257
95.46297292485383
80.30496353043769
80.01875662969961
167.0460733062762
91.72510106925274
80.19525818539422
80.01057433003051
159.8197438926794
88.40629197378618
80.1172664896749
80.00747539625324
152.4847943222064
85.82927576882742
80.05741996222842
80.00333377783977
79.99993762007969
79.9999998266904
80.19661051206114
105.6382737784607
80.00006028214368
80.00397932420357
80.98692085354432
124.9226284781441
80.00043069522599
80.01012791572013
82.09577682404914
135.9646648207284
80.00167020292973
80.03186938670495
83.73880814533248
145.6836064222181
80.000038701344
79.99998729027308
80.00002353663237
80.00027721283641
80.00011825326635
80.00055509630369
80.00615947216187
80.02232713552401
80.05851628803684
80.09112107154391
80.40684847064863
80.81161553269163
84.4828033941277
81.1563786230647
82.48886047965449
83.50193305073616
80.00123170897652
80.04606340350335
81.24761443293352
84.60184504220101
80.00288484355676
80.06773631422013
81.65251072675444
85.70107135713539
80.00465195386813
80.08305820439689
82.01019343418736
86.73520865753075
80.00571680153898
80.09163332569622
82.31545276058992
87.44584810625878
80.00052418204751
80.00825870897074
80.98931106953786
94.5983877163477
80.00165853160634
80.03035240057334
81.97082215291597
91.64221769724087
80.00420956578175
80.06294086399815
82.40878817473221
89.05434720871033
80.00586049672651
80.08661010836205
82.49764511856165
87.88733791573621
95.28000547091541
80.53316097102081
80.00269999972924
80.00017518980792
93.25765991423997
80.39502959388209
80.0025597572895
80.00017554759039
91.62411831043735
80.22710152460783
80.00073558206319
80.0001135232651
89.96777892073243
80.11408163695906
80.0003095205191
80.00000812314362
88.66801903083353
79.94917390771589
79.9999963807704
79.99999999980358
87.66620645918445
80.04209532873628
80.00000013808963
79.99999999999999
85.12106330881952
80.00009432505892
79.99999999670852
79.99999999999999
81.60539522104609
79.99996935117062
80.00000000004033
79.99999999999989
80
79.99999999999997
80.00000000569497
80.00097075403775
80.00000000000003
80.00000000000001
80.00000002812288
80.00380882931115
80
80
80.00000021391989
80.01813619740406
80
80
80.00000339422969
80.05699893422332
80.00278493878182
80.01020237396024
80.03438676419961
80.34653432297894
80.01020238302887
80.01636711023666
80.05854628461296
81.1889852305622
80.03438676731632
80.05854628408369
80.51426866056249
86.56546503532864
80.34653426292266
81.18898511374084
86.56546497225756
105.2457679075379
135.1018055226021
114.5306302122232
103.034315440109
91.38163795867096
130.1996817255342
125.6020547552164
123.6060311521316
114.7350582103617
127.950951075407
126.5464691064715
126.0539033639694
122.0804519501439
127.7804580351539
126.837973958431
126.7216355778031
124.2107685691851
125.2473139090721
124.8662721483301
125.1452978850735
126.2584905025291
126.9301121127858
125.6712230687881
125.7745766038045
126.9015409489562
127.3072684599356
126.177811485258
126.0509410446907
126.827932696712
127.6740642676064
126.4813998650534
126.1551233786042
123.5488290932222
105.1566533782784
83.75493464909908
76.99472604126798
78.08074208482981
95.75144575854993
76.7939325758102
75.0761249095716
77.62748071564887
86.3246137161039
74.19667882884744
75.80502707088665
78.43977913194647
68.87713397997921
69.50278954591906
74.71579716528943
77.72248932631872
79.95206708065481
81.25965839817218
81.67469688204852
81.79394976507177
79.82154749377364
80.95046079188076
81.36943361073054
81.48159707221249
80.30985730427969
81.04627832996169
81.40786268364003
81.54713837162799
79.57272494218478
80.46634233804792
81.12446700357486
81.39120234104784
81.82982851533968
81.64218539422716
81.96814704872517
116.5272739977402
81.5409809607762
81.58357502536178
82.63231957413849
131.8033649809066
81.59430419900148
81.74176397887486
83.4392784789908
139.2657631911677
81.31705527245749
81.662665812528
84.7709765175258
144.9339690713824
212.9859140760217
222.9553126399448
221.2179414981666
219.7063471657918
230.4484244833925
228.9271444008501
223.7318767317181
220.8716766794757
226.7335406374286
225.5359313267815
223.7897311662518
221.9828147189594
234.9318154687552
229.0914182433287
225.7513435810555
222.6441507373441
213.9115963292186
209.9478015132557
208.2724478615967
210.6759430245999
214.7260411710501
210.4514703133969
208.3114627720078
210.187298178696
215.655217711823
210.6732181348882
208.5308346965928
210.0647731948809
217.4948136530272
211.380221877107
208.5988994546562
209.7242397256194
211.9757179157613
207.823512598315
191.1501885530802
159.5618866453443
211.4479840205546
208.4449381065789
191.6086615740393
170.5370861030731
211.4850797567532
208.9352818407632
194.7472646248608
180.392939545115
211.1628400019763
209.5875971123957
198.2473895008449
200.5977512841725
93.56061273620327
18.53329379163013
3.028910885979569
4.210991767260934
74.4702360209257
10.85854374616816
3.715326746733806
4.332826716247739
50.87959215546215
5.498414953890759
3.168950449736653
4.843247960336952
28.04657627168481
1.98160716797083
3.512314425553939
5.127733100284904
6.853125279048845
9.343269823871701
11.53844391399096
11.35887637090094
6.762951756883072
9.735718899126898
11.81340469346417
11.79136662600522
7.457729871226988
10.37037466965415
12.03829941896193
12.69821977116244
7.864900975528957
10.99765080216029
12.7041954182727
14.06447253172192
20.09968895264727
23.95778012803244
27.06454276869697
32.20617655268982
19.35483632771172
23.23652593051246
25.39558648406012
30.94591956241497
17.75498782618837
22.14369402792647
24.36963958993199
29.23550687384665
15.9385547660098
20.54557147021587
22.7389845177634
29.5531522798751
23.05523317352354
13.80469112173294
12.58838076823698
13.05041476665047
21.33866599561353
14.92672106843274
16.01488398877772
13.51208036183385
17.41351788303392
16.71884979696058
15.78212659785827
13.3541350678064
13.8948474342784
16.08649588629165
15.07675642013367
14.12249202503165
13.26472147097107
12.82383496415727
12.89695362487523
13.04787397395288
11.75436246049667
10.96634622188918
10.96345925679273
11.01672137070079
11.67417689513785
11.68151719893879
11.41067371305336
11.38797661067199
16.00782646007766
16.76252580275865
16.00019602664281
15.80032968959954
13.04787397395414
11.01672137070364
11.38797661067999
15.80032968967929
12.8969536248696
10.96345925678636
11.41067371307525
16.00019602664304
12.82383496414686
10.96634622189538
11.6815171989618
16.76252580269057
13.26472147096294
11.75436246050721
11.67417689517421
16.00782646002132
13.0504147666039
12.58838076815879
13.80469112161456
23.05523317323803
13.51208036182277
16.01488398876089
14.92672106842859
21.33866599543678
13.35413506781373
15.78212659785618
16.71884979693771
17.41351788295977
14.12249202503888
15.07675642014184
16.08649588626843
13.89484743423412
29.55315227971389
22.73898451749305
20.5455714697523
15.93855476571159
29.23550687371474
24.36963958977733
22.14369402752141
17.7549878258691
30.94591956224976
25.39558648395113
23.23652593017505
19.35483632745228
32.2061765524837
27.06454276859116
23.9577801277231
20.09968895239836
11.35887637069528
11.53844391397487
9.343269823894277
6.853125279002917
11.79136662581066
11.81340469339406
9.735718899138789
6.762951756867785
12.69821977097999
12.03829941886208
10.37037466963451
7.457729871226115
14.06447253148273
12.70419541814042
10.99765080211816
7.864900975508839
4.210991767198029
3.028910885887921
18.53329379139611
93.56061273594916
4.332826716215868
3.715326746644114
10.85854374601862
74.47023602051068
4.843247960293766
3.168950449639679
5.498414953831084
50.87959215531434
5.127733100255593
3.512314425484664
1.9816071679186
28.04657627162992
159.5618866451586
191.1501885536423
207.8235125991795
211.975717918008
170.5370861029921
191.608661574577
208.444938107717
211.4479840230429
180.3929395451255
194.747264625536
208.9352818422547
211.4850797592555
200.5977512844562
198.2473895018918
209.5875971141395
211.1628400045495
210.6759430275888
208.2724478629832
209.9478015133536
213.9115963290936
210.1872981816362
208.3114627732742
210.451470313515
214.726041170886
210.0647731975852
208.5308346977232
210.6732181348438
215.6552177116361
209.7242397283499
208.5988994557225
211.3802218769577
217.4948136528345
219.7063471666765
221.2179414997804
222.9553126392937
212.9859140740175
220.8716766806844
223.7318767332962
228.9271444006811
230.4484244825137
221.9828147201459
223.7897311676371
225.5359313267785
226.7335406377505
222.6441507383011
225.7513435826777
229.091418243132
234.9318154690995
116.5272739956353
81.96814704825839
81.64218539458238
81.82982851601012
131.8033649785673
82.63231957337818
81.58357502593481
81.54098096166399
139.2657631888241
83.43927847817865
81.74176397997051
81.59430419990787
144.933969069634
84.7709765162348
81.66266581390948
81.31705527366881
81.79394976561211
81.67469688250334
81.25965839798856
79.95206708028363
81.48159707260862
81.36943361113985
80.9504607916661
79.82154749331508
81.54713837186968
81.40786268394295
81.04627832981025
80.30985730378336
81.39120234136286
81.12446700398124
80.46634233783801
79.5727249417732
78.08074208402219
76.99472604068268
83.75493464862565
105.1566533787058
77.62748071470686
75.07612490894951
76.79393257537619
95.75144575923962
78.43977913090188
75.80502707041052
74.19667882843065
86.32461371695238
77.72248932514766
74.71579716470698
69.50278954522504
68.87713398065569
126.2584905027272
125.1452978843805
124.8662721496061
125.2473139089045
126.9015409489008
125.7745766032968
125.6712230701131
126.9301121118809
126.827932696389
126.0509410442235
126.1778114866649
127.3072684595642
123.5488290935298
126.1551233782726
126.4813998663132
127.6740642663961
124.2107685692832
122.0804519470687
114.735058208177
91.38163798003364
126.7216355768171
126.0539033603565
123.6060311475514
103.034315429163
126.8379739584928
126.5464691037217
125.6020547421208
114.5306301693668
127.7804580357315
127.9509510744088
130.1996817116006
135.1018054889392
57.06599694071296
78.62764545317305
79.97563814865461
79.9998572743592
56.73056972829283
78.53270483778408
79.97226664077982
79.99979085545657
60.14934469619069
78.64946907242518
79.9685315648243
79.99970544187335
64.45784458186581
78.68722551357209
79.9555402136366
79.99941459416651
79.99895252606234
79.92164701473304
78.44920426346049
69.90809724424254
79.99894356423461
79.92420091175231
78.50443014632604
68.91058276359806
79.9989564048749
79.92908687435941
78.51827723044191
67.76121189002924
79.99898244342958
79.93649693698376
78.65978876587931
67.8235430262789
79.99941459254185
79.99970544029512
79.99979085208825
79.99985727117286
79.95554021438521
79.96853156492701
79.97226664057077
79.97563814793591
78.68722551302889
78.64946907072844
78.53270483843498
78.62764545289502
64.45784458133129
60.14934469510141
56.73056972790971
57.06599694130078
)
;

boundaryField
{
    back
    {
        type            empty;
    }
    inlet
    {
        type            zeroGradient;
    }
    front
    {
        type            empty;
    }
    top
    {
        type            zeroGradient;
    }
    outlet
    {
        type            fixedValue;
        value           uniform 80;
    }
    bottom
    {
        type            zeroGradient;
    }
    wall
    {
        type            zeroGradient;
    }
}


// ************************************************************************* //
