/*--------------------------------*- C++ -*----------------------------------*\
  =========                 |
  \\      /  F ield         | OpenFOAM: The Open Source CFD Toolbox
   \\    /   O peration     | Website:  https://openfoam.org
    \\  /    A nd           | Version:  11
     \\/     M anipulation  |
\*---------------------------------------------------------------------------*/
FoamFile
{
    format      ascii;
    class       surfaceScalarField;
    location    "0.1605";
    object      phi;
}
// * * * * * * * * * * * * * * * * * * * * * * * * * * * * * * * * * * * * * //

dimensions      [0 3 -1 0 0 0 0];

internalField   nonuniform List<scalar> 
1652
(
2.843686947071611
0.8895636090847481
0
1.954123337988149
0.8895636090834618
-2.220446049250313e-16
1.064559728966351
0.8895636084594536
-1.297850715786808e-12
0.8895490592483899
-1.370192848071383e-11
0.1749976911621075
2.843686947076741
1.779127218162428
1.954123337998014
1.779127218162188
1.064559729220107
1.779127214475577
1.779033552168514
0.1750283263882191
2.843686947090741
2.668690827246526
1.954123338008367
2.668690827244562
1.064559731190635
2.668690798913901
2.668328660470075
0.1751701028741588
2.843686947092868
3.558254436328659
1.954123338013008
3.558254436324805
1.064559758459874
3.558254021771719
3.556261043282231
0.1754960372382146
4.418652025448565
2.872852967045247
5.279049614570425
2.872852967043177
6.13944720371824
2.872852967042768
2.872852966871378
6.999844793613988
4.418652025170283
2.012455377934111
5.27904962698597
2.012455377819902
6.139446812808353
2.012455381953587
2.012455253822283
6.999851026038516
4.41865251855479
1.152060258772223
5.279049939867057
1.152051482399389
6.139731224811473
1.151919714582623
1.152762310828953
6.999070849028197
4.437535527184759
0.2491200540833246
5.431501494327896
0.1079973922159184
6.473746266859489
0.04245316404629762
7.52589179310221
0.03255942322359984
6.941512637169306
0.0583319762532597
6.883171588379901
0.05833081246715055
6.824845344616866
0.05831463919555169
0.05831535601343563
6.766513649889977
6.941520619229348
0.1166402992646792
6.883238460694642
0.1165761427977596
6.825021676425905
0.1164368030037166
0.1163566127801955
6.766848842022215
6.946435635362507
0.1650855255112301
6.897932788547529
0.1593286206578191
6.85302276057662
0.1542931436004227
0.1481307492027383
6.809767319112831
7.612866848775531
0.01843197458472834
7.692277713236193
0.01207455993024098
7.751769766442957
0.01379812145881809
7.808623543619717
0.00507585904715202
7.868728181340575
0.05990996450065733
-0.173076885165489
7.764310557730596
0.1171906102969683
-0.05503330143621021
7.649991704608079
0.1013425047350859
-0.01192877115098145
0.08464318077578642
7.577606430818599
-0.009276980877572671
6.845185914146624
0.0009596806114663403
6.921598766470387
0.003641527197319805
6.968230579663736
0.007451596612948586
0.009385780514855835
6.981455227112909
6.767304423482404
5.04356246260329e-05
6.769008651078795
0.0001757705107918728
6.7719707915633
0.0004598689493958696
0.0007151219467752545
6.774223954547677
6.766516639268264
6.766530212220086
6.766531620166131
6.766519352435618
6.766469255341264
-0.0007276699070210002
6.766434010061052
-0.0006701675410248908
6.766426127909352
-0.000522686976022313
-0.0003239136895482053
6.76645173160564
6.774547855907801
-0.008724236407493535
6.773971759957162
-0.007460496038329212
6.772378777498607
-0.005793512143720148
-0.003909868560477148
6.770011983129371
6.971671010074643
-0.06753902062592593
6.948010902880725
-0.0509402645056099
6.913258828805441
-0.03775575566872524
-0.02780205228955723
6.871396576808401
7.508513567913355
-0.007258654583365887
7.415774220922666
-0.003895211423870448
7.309558975885765
-0.0006355068870504965
7.196467934985505
-8.686509641736562e-05
0.02005354250795899
7.081112441889349
-0.001308025609889019
0.002094539838128129
6.827110726255943
0.0001395627000132516
6.767788277216527
6.766490451194326
0.01397623406166099
6.966947104975547
-0.001466319116695314
0.0007472479427009793
6.789386488045443
3.465793059687083e-05
6.766713561867137
6.766512226353553
0.002754429271965952
6.885555065431946
-0.003342459830117495
8.552894414837198e-05
6.77068415927871
2.603935410516733e-06
6.766535273416056
6.766518914380379
0.003740004541348374
6.946341279275192
-0.1748165225376414
3.022268919783411e-05
6.769390194657269
1.826937484850077e-06
6.766517603523068
6.766511394916562
0.1555523409333656
6.610959518451006
0.3110538280892049
6.611001724442971
0.4516521971118767
6.621039202851768
7.004307596506629
0.1249137121112472
0.1555416204220095
6.455407983402959
0.3107635319486447
6.455568834356843
0.4209524714408659
6.482964191396158
6.906593434972244
0.1462221145222192
0.1554950143977345
6.299875891252103
0.3099832953979383
6.300406262071835
0.3781278808854237
6.351216202102475
6.802343068125247
0.103328624176983
0.155401085095483
6.144341503349782
0.3085298515417481
6.145376964628244
0.3265155755515204
6.225545304704815
6.635218764828332
0.07886671044415527
-0.2624366906284048
6.393335427129692
0.04300144207514822
-0.3055941285045785
6.09956738992756
-0.1551700027356875
5.990880923985552
5.988861830378208
-0.1861195795430803
6.132464980672976
0.0182109922428545
-0.3010231083303555
5.986392322075115
-0.1547507943627455
5.837388325601356
5.833394723049651
-0.1035588581611162
5.848203863194947
-7.862580070461256e-06
-0.2940906241067748
5.862551911814899
-0.1542810481367587
5.683145737361246
5.677934519008448
-0.005242350858475575
5.555703104160532
-0.004401744851011968
-0.283870163249907
5.733547092964172
-0.1532372114944941
5.530636731037087
5.522643138391553
0.1961938677812443
5.323466831631477
0.3581062546281034
5.332779878392841
0.003275549844564463
5.54978371380001
5.306782586710546
0.01872367039949774
0.1939371704751811
5.124803965223854
0.3370912177754748
5.135952997639265
-0.01930404533865837
5.304893656512673
5.037517083968794
0.05847145085961736
0.1925264865146762
4.920068964908884
0.3377488640413535
4.93519006655459
0.1332473335873159
5.070778548626846
4.902666239454148
0.1765755667358119
0.1950701754415745
4.728169470726222
0.3579388931839342
4.735072940695733
0.3127740249518614
4.811269968028442
4.788264862094363
0.355806244342766
-0.3465799067398314
5.064744341792488
-0.7624373307857216
5.08545054540203
-1.303678641591122
5.189925282108958
4.868762432302829
-1.422466847343504
-0.3499698046550015
5.399472812484007
-0.7599947652472174
5.441740225644166
-1.073577250304361
5.479398126305601
4.28904232494884
-0.4420113762246025
-0.3439764814228941
5.733365583605736
-0.6997218658520544
5.765455369795123
-0.9522970719497326
5.763633235458449
3.58553859487232
-0.05034508198992738
-0.3368636546901939
6.067613849509398
-0.6685654924253792
6.080393504251874
-0.7989869437645468
5.966144624279787
3.16512843893461
-0.03700680836967291
0.3397136560878715
3.096873193386013
-0.01733533535382913
0.3372338553941915
6.043444391606512
0.1747302002075075
6.239439880399249
6.241901181251174
0.297941580823876
3.041622381719987
-0.01171202581998484
0.3313195559120743
6.09600432504242
0.1745572279292259
6.404936179078044
6.416655162999569
0.2823657256834787
2.954568555818753
-0.004592160088146904
0.3301163146604872
6.146656922158533
0.1746140117166816
6.577234141163317
6.591464267697538
0.2586747622457339
2.872774186427414
0.008401464083690469
0.3270811909336649
6.210419794966638
0.1746126623949372
6.749419317805947
6.766414486797002
-0.2126809186295721
3.254177503751412
0.08452622330056771
-0.02388204819913842
6.330806193985359
-0.0003614824927875571
6.758127511538364
6.766483112803111
-0.1539640055806328
3.583284816828911
0.1182508218087393
-0.01126362631684374
6.489447516876929
-0.0001156012587955058
6.76354533874605
6.766508006350032
-0.1106912127645207
4.034160122405392
0.1159216202017179
-0.005244142735153945
6.637096835669333
-4.127261112474301e-05
6.76608807809652
6.766515251497585
-0.08426293028919007
0.1204270356546513
4.556366470954927
-0.002271866785222842
6.68193661959068
-1.462075018698883e-05
6.764926871597046
6.766515653232362
0.9961920872143655
-0.9016644481216249
-0.006244232497957542
9.978373682884012e-11
1.970362959723133
-0.8689029786043148
8.141665119865138e-11
2.857915966191921
-0.874279141626102
8.038547605337953e-11
-0.8749686608895728
-6.512745898135108e-11
0.9945416466352706
-1.716234166200481
-0.007984490871234137
1.97128304373068
-1.733836304868071
2.857929500934505
-1.748495737562727
-1.749936906933933
0.9846860264153063
-2.42153357387898
-0.01617729758581046
1.97141092203978
-2.601306198983104
2.857948404624318
-2.623342116428268
-2.624910865260105
0.9840707402960056
-0.03268585712011533
-3.02635403316448
1.972928041344313
-3.468087340850711
2.858002998487147
-3.498902150643869
-3.499904823554586
-0.0842629302898904
-4.034160122420702
0.120427035653186
4.556366470981875
-0.002271866798732036
-6.63709683569199
6.681936619601984
-1.462081267011861e-05
-6.766088078107948
6.764926871639737
-6.76651525154198
6.766515653348663
-0.1106912127726131
-3.583284816853657
0.1159216202039766
-0.00524414274870022
-6.489447516892093
-4.127257677244422e-05
-6.763545338776706
-6.766508006286447
-0.1539640055999512
-3.254177503748531
0.118250821806566
-0.01126362634878464
-6.330806193960909
-0.0001156012716883037
-6.758127511542505
-6.76648311283237
-0.2126809186296519
-2.872774186413837
0.0845262232986877
-0.02388204817952788
-6.210419794959242
-0.0003614824849886844
-6.749419317795186
-6.766414486782051
-0.1747302002114113
6.241901181296009
-6.067613849569892
-0.3372338553899719
6.239439880431202
-6.080393504291975
-0.3397136560809063
6.043444391558183
-5.966144624227656
3.096873193358314
-3.165128438890715
-0.01733533535407583
-0.1745572278957598
6.416655163043758
-0.3313195558942898
6.404936179103776
-0.2979415808190543
6.096004325008503
3.041622381694126
-0.01171202581922323
-0.1746140117147787
6.59146426764321
-0.3301163146407786
6.577234141178862
-0.2823657256775873
6.146656922144405
2.954568555801552
-0.004592160087393861
-0.1746126623862189
-0.3270811909098091
-0.2586747622365396
0.008401464082181523
0.7989869437652113
-3.585538594825135
-0.03700680836967593
0.6685654924526434
-5.7636332354295
0.3368636547063368
-5.765455369876346
-5.733365583624067
0.952297071955039
-4.289042324920272
-0.05034508198863716
0.6997218658734561
-5.479398126289373
0.3439764814314895
-5.441740225725486
-5.399472812470822
1.073577250317753
-4.868762432296011
-0.4420113762225265
0.7599947652740341
-5.189925282116399
0.3499698046647695
-5.085450545444822
-5.064744341775342
1.303678641606365
-4.788264862094472
-1.422466847348288
0.7624373308025844
-4.811269967996598
0.3465799067195581
-4.735072940663094
-4.728169470838733
0.1961938677968439
5.32346683164934
-5.522643138409284
0.3581062546695767
5.332779878413125
-5.53063673100141
0.003275549845163317
5.549783713724016
-5.733547092858034
5.306782586666871
-5.555703104126845
0.01872367040119682
0.1939371704678668
5.124803965256922
0.3370912177711483
5.135952997609142
-0.01930404531783769
5.304893656457228
5.037517083956128
0.05847145086367878
0.1925264865152089
4.920068965500421
0.3377488640574714
4.935190066535885
0.1332473335970478
5.070778548594443
4.902666239451164
0.176575566739115
0.1950701754567182
0.3579388932087405
0.3127740249516581
0.3558062443442018
-0.005242350830575115
-5.848203863232172
-0.004401744844478084
-0.2838701631878763
-5.862551911916902
-0.1532372114546501
-5.683145737403361
-5.67793451901729
-0.1035588581898464
-6.132464980667903
-7.862580705952915e-06
-0.2940906241417797
-5.986392322159661
-0.1542810481542296
-5.837388325816717
-5.833394723080968
-0.1861195795332115
-6.393335427065635
0.01821099224533052
-0.3010231082643888
-6.099567389809968
-0.1547507943222117
-5.99088092392636
-5.988861830397362
-0.2624366905686835
-6.635218764812457
0.04300144207674528
-0.3055941285040864
-6.225545304664043
-0.1551700027357051
-6.145376964630745
-6.144341503366133
0.1555523409364542
6.61095951854257
-6.766511395008922
0.3110538280894957
6.611001724427951
-6.766517603496502
0.4516521971190877
6.621039202854098
-6.769390194664313
7.004307596485557
-6.94634127926545
0.1249137121051203
0.1555416204258514
6.455407983420816
0.3107635319517768
6.455568834370263
0.4209524714381364
6.482964191389515
6.90659343499543
0.146222114525376
0.1554950144064615
6.299875891253039
0.3099832954122315
6.300406262080875
0.37812788088497
6.351216202143682
6.802343068174307
0.103328624182181
0.155401085085329
0.3085298515203862
0.3265155755607295
0.07886671044823945
-6.766518914359158
-1.826940705829116e-06
-6.766512226356176
-2.603935162714954e-06
-6.766490451193728
-3.465792964696401e-05
-0.0001395626968725416
-6.766451731609863
-6.766535273388882
-3.022269143770906e-05
-6.766713561888563
-8.552894390878585e-05
-6.767788277217248
-0.0007472479355531414
-0.002094539839058607
-6.770011983136299
-6.770684159287893
-0.00374000454215534
-6.789386488037412
-0.002754429269729186
-6.827110726228955
-0.01397623407680959
-0.02005354250800395
-6.871396576800549
-6.885555065426626
-0.174816522524821
-6.966947104967121
-0.003342459829885791
-7.081112441880058
-0.001466319123492432
-7.196467934994295
-0.001308025605335106
-0.0003239136968341549
-6.766426127901197
-0.003909868568896413
-6.772378777491245
-0.02780205228592336
-6.913258828833404
-7.309558975903006
-8.686509494842953e-05
-0.0005226869776715493
-6.766434010057037
-0.005793512146875401
-6.773971759960269
-0.03775575565444533
-6.948010902887141
-7.415774220933339
-0.0006355068836178535
-0.0006701675414533259
-6.766469255350945
-0.007460496042027476
-6.774547855918914
-0.05094026451091871
-6.971671010079542
-7.508513567926004
-0.003895211425217315
-0.0007276699100000616
-6.766519352424711
-0.008724236416540965
-6.774223954564261
-0.06753902061877631
-6.981455227113893
-7.577606430833456
-0.007258654581872692
-5.043564001050438e-05
6.766516639262023
-6.766513649909366
-0.0009596806324791984
6.767304423463379
-6.766848842000798
-0.0599099645155588
6.845185914152331
-6.809767319271535
7.86872818136389
-7.808623543662224
-0.1730768851655532
-0.0001757705173512925
6.766530212226088
-0.003641527202070116
6.769008651084615
-0.1171906103109904
6.921598766414575
7.764310557744917
-0.05503330144195762
-0.0004598689490908914
6.766531620170237
-0.007451596608850086
6.771970791576169
-0.1013425047469877
6.968230579625937
7.649991704625836
-0.01192877115305374
-0.0007151219519091478
-0.00938578052181116
-0.08464318078104754
-0.0092769808792873
-0.1481307492171909
-7.751769766472194
0.005075859054367471
-0.1163566127932423
-6.853022760838559
-0.05831535601748983
-6.825021676425203
-6.824845344635923
-0.1542931436349527
-7.692277713230336
0.01379812146208259
-0.1164368030171771
-6.897932788743706
-0.05831463920158753
-6.883238460671941
-6.883171587625759
-0.1593286206904294
-7.612866848715812
0.01207455994159978
-0.1165761428230407
-6.94643563540013
-0.05833081245270044
-6.941520619271697
-6.941512637162719
-0.1650855254928014
-7.525891793020074
0.01843197457680501
-0.1166402992871206
-6.999070848749068
-0.05833197625850828
-6.999851026112299
-6.999844793615374
-1.152762310772858
-6.473746266845538
0.03255942323636896
-2.01245525380412
-6.139731224650199
-2.872852966876787
-6.139446812827074
-6.139447203713235
-1.151919714612383
-5.431501494294756
0.04245316407209621
-2.012455381940966
-5.279049939854983
-2.872852967042537
-5.279049627001871
-5.279049614567321
-1.152051482399676
-4.437535527112617
0.1079973922280668
-2.012455377812198
-4.418652518546427
-2.872852967044603
-4.41865202517662
-4.418652025446894
-1.152060258769425
-3.556261043139192
0.2491200539502997
-2.012455377929439
-3.558254021777307
-2.87285296704692
-3.558254436324805
-3.55825443632866
2.843686947076677
0.8895636090796828
1.954123337995112
0.8895636090815646
1.064559728972476
0.8895636084623182
0.8895490592811262
0.1749976911711895
2.843686947077599
1.7791272181565
1.954123337999196
1.779127218159969
1.06455972922087
1.779127214480457
1.779033552221883
0.1750283263528121
2.843686947089469
2.668690827241873
1.95412333800662
2.668690827242821
1.064559731188298
2.668690798926537
2.668328660461565
0.1751701027561672
2.843686947088214
1.954123338006611
1.064559758452428
0.1754960374368434
0.174996427745232
0.1749964277151562
0.1749877254798194
0.1750300902653341
0.1749879019751505
0.175152461510925
0.175501223840212
0.1748725211563679
0.1750300903725384
0.1749877253924976
0.1750237832286669
0.1750237830578446
0.1750269546014266
0.1751163621633892
0.1746296204170415
0.1756962048150634
0.1751524616420061
0.1749879018709799
0.1751163622980479
0.1750269544246323
0.1750626145882514
0.1750626146846397
0.1718847343746989
0.1772669626607047
0.1755012235363129
0.1748725210675383
0.1746296200389189
0.1756962046413603
0.1718847340662315
0.1772669629432752
0.1715266077574108
0.1715266077630668
-0.07311296910495779
0.2433622029531797
-0.1350187051461639
0.2375323142835483
-0.2011167165182294
0.2400904495819481
0.2213778580059485
-0.01239011032881732
0.2542293223485433
-0.03208472341581292
0.2557470721769334
-0.06065431158969781
0.2666058335963704
0.2665170917947384
-0.004085551658372988
0.2568239816281626
-0.0164642258421549
0.2665142679415853
-0.02768858428562226
0.2761774349027681
0.2792653048373254
-0.00707331236375186
0.2615565414028653
-0.01787044359805523
0.2747315548275271
-0.02544252476041464
0.281336675003329
0.2835726405895271
0.2856464818103119
0.01496542063870487
0.2871901440719959
0.009815493473291914
0.2893362641492137
0.01144030422769199
0.004612873255486372
0.2901084838823609
0.2846202474352976
0.01032602761564277
0.2870427317269879
0.006856339191525063
0.2907038808262521
0.007809385058074436
-0.001883771640098231
0.2980863966801142
0.2804045971440525
0.0037808405060763
0.285305807926323
0.001511981934338602
0.2904056892060687
0.002669625508145701
-0.02785373706026018
0.3171221372563397
0.2652128592437782
0.2661687275992054
0.2685694246832007
0.2428026538477927
0.2681032757121012
-0.1495017035996424
0.2419261422171317
-0.02735002789578733
0.2357315547487986
-0.003368595786363282
-0.007242689424116433
0.2370888139649451
0.2621557555372052
-0.112067898360778
0.2441392251518758
-0.008191024996664131
0.2415483062845155
0.001713724974892805
-0.005231501117296256
0.2431017506656506
0.2684854899068294
-0.06208618312346142
0.2533266238050715
0.007976108575611818
0.2485673924189108
0.008554214561379891
0.0001532140723816133
0.2469380977765508
0.1812544702651384
0.1900040912686947
0.2005812005456159
0.2045533551472038
0.2412077125255203
-0.007686486726225128
0.243325229336309
-0.003539650803852934
0.2435110825254948
0.0004582945342164191
0.001430342678106489
0.2429332809749596
0.2437269347799078
-0.004445430066973899
0.2443557437568853
-0.00130712465500693
0.2440012130927187
0.002252249396774875
0.003158982388725251
0.2431719753089973
0.2460403809553667
0.0004847114254687979
0.2452142161751436
0.002655234378825921
0.2446343050196559
0.004808971888738633
0.004794648777729782
0.2439726244886634
0.2089560943294858
0.2147193047879874
0.2215744337678643
0.2268826846690327
0.2416178940464077
0.000291041623297239
0.2404300344316778
-0.0001754227663646746
0.2402679814384671
-0.004928471453992389
-0.1893430714242262
0.2455105652554898
0.2420605683619015
0.001939384267115263
0.2415223391542538
0.0008411270479408706
0.242265560695518
-0.008054055165224006
-0.1699750916773745
0.2133466762726617
0.2430842741227198
0.003702396349370696
0.2425964740811379
0.001934388004869392
0.242608990274546
-0.01038945111827466
-0.1061533780277559
0.1685687624008627
0.2308782324691102
0.2338460213732629
0.2203586957555997
0.1026101238569085
0.2646746120248762
0.09484830718636617
0.2669697642881864
0.1348664424234829
0.2697853343096417
0.09453471299793259
0.0664525363982662
0.2770880885113269
0.240211142915431
0.06014640778924707
0.2615699594669229
0.1061964339160255
0.2693602218853248
0.08163418213419815
0.05373832633000042
0.2786030263954562
0.1977617342149347
0.02285698265429914
0.2359103485435761
0.05970415709059007
0.2600742670926318
0.05210835137564729
0.03583820914388258
0.2758885903829919
0.119051302143884
0.1716225544410296
0.2187214107120057
0.252720673286204
0.2770043171943702
0.03381534461342739
0.2767913338010786
0.01327421774267623
0.277254405082437
-0.001636448530957346
-0.00391536134705972
0.2796641952848219
0.279350232990796
0.02571714309909745
0.2787501726317018
0.009812147119252601
0.278630217756213
-0.001750460803246812
-0.003173624100468175
0.2817972655020877
0.2789051600303478
0.01721740123087179
0.2793158787390747
0.006129707092899506
0.279942308308746
-0.001440192673635265
-0.002013407559370961
0.2834264244915619
0.2650270943179291
0.2672608013066009
0.2668575476051892
0.2697858314738273
0.2939060606923715
0.01418374025385694
0.3173418769681769
0.04433562019743764
0.3529433107938514
0.1498747075700922
0.2889593778238936
0.4240209902044871
0.2975657847778227
0.008951742173613386
0.3192837704687731
0.03348554710902818
0.3567823000048996
0.1213514142035591
0.1915107007001716
0.4579351949493378
0.2983600887097964
0.004474313347674008
0.3202408818567242
0.02437035623679473
0.3640713255449354
0.08756881598436239
0.04248283386699803
0.5206198802445262
0.2848333907732392
0.3226967816634142
0.4234064967228205
0.4766302915491382
0.2155015289074192
-1.208391822699259
0.0215811950614541
-0.2468683596969986
0.003419782498115908
-0.02788137751197618
-0.02669068342332848
-0.001464428015189644
0.1514649364661091
-0.8988122487427365
0.01004273194348363
-0.1045904985760144
0.001092512235909726
-0.0142114291098882
-0.01553690763309482
-0.004756128920728436
0.07666182585720496
-0.4522863737796338
0.003251775974578703
-0.03002628092658624
-0.00286468255844912
-0.004192098943392595
-0.007182386988007494
-0.005428202318398095
0.02640678711291901
-0.002069146220151848
-0.0029238065734779
-0.004760301569406294
-2.414826030827655e-05
-0.01523518335295606
0.0006283830810462007
-0.009716104304049619
-4.402508153120849e-05
-0.002583517267245629
0.004821333125294106
0.00388007719452749
-0.004236462295640606
-0.01218452497629323
-0.003742188577153444
-0.008168791864244261
-0.003155442925992482
-0.002487167997172933
0.002798118277737252
-0.001487530934862667
-0.006065925098966697
-0.007054255299721916
-0.005284995212182651
-0.005831904389509007
-0.004736410377379058
-0.001882384011807174
0.002494676103086041
-0.005690297794712681
-0.006749038548813176
-0.007100387236390095
-0.007435445490689373
-0.006607026427761047
0.04321369212477735
0.0471052853268492
0.07862543630337851
0.08805064965472685
0.1108715219081205
0.09319345615116587
0.1054890446723589
0.1406749513825546
0.02291001458560899
0.0210992764345912
0.05863490965995416
0.05414174708761973
0.09173072448145955
0.0655517349963935
0.07895942854626192
0.1288977727952723
0.006495490836980755
0.005125601922767217
0.03647836244879793
0.02207490796094752
0.06900815822562223
0.03509475007798345
0.04743782193528387
0.1076462159188799
-0.006410411127497583
0.009971657747607471
0.04358068845740933
0.09535624390028856
0.1118928530676226
-0.1208666310584379
0.1583427335248077
0.08330178953304811
-0.08768816333391402
0.1134785833255311
0.0643803094865807
-0.07974960293794091
0.09717041216624377
-0.05868037915013859
0.03813438847036609
0.08620161496833169
0.0984816660611869
-0.08538329305688577
0.06998630046975564
-0.0661460057671822
0.04399718531138778
-0.0522270732366051
-0.02850553792670427
0.01786582710375767
0.0773029258093068
-0.05333806399995539
0.04713758830642283
-0.03635857000104424
0.01943115990641013
-0.0196301709513287
-0.009345931433193979
0.001920624219143081
0.04370774558706594
0.01228335116461525
-0.002571387119049806
-0.008556410084144671
-0.01068123730548078
0.002328993620410832
-0.01012616295917154
-0.0009996103965508041
-0.006318810797097119
-0.003212483918030943
-0.004876887306146686
-7.642497745763421e-14
-0.005700888130334057
0.008232570231165024
-0.007000089700731453
-0.0004315345877648515
-0.004004271220883357
-0.004765710672198255
-0.006417435544670197
1.491515244644859e-14
0.007536819295866453
0.01759342742208569
0.002410054223038832
0.004474254239232476
0.0006203094954050289
-0.00129791437162444
-0.002421573253376351
1.133294846855648e-13
0.02304123143848476
0.01183520102888975
0.004787469444724662
4.100123018879742e-13
-0.004876887306175786
0.006318810796987435
-0.006417435544704992
0.004004271220925525
-0.002421573253532556
-0.0006203094950321224
-0.004787469443325677
0.006244232497111969
-0.003212483918016549
0.01012616295919832
-0.004765710672234915
0.00700008970076469
-0.001297914371661924
-0.002410054222604419
-0.01183520102818469
0.007984490871812362
-0.0009996103965799613
0.01068123730554747
-0.0004315345878271523
0.005700888130424069
0.004474254239224968
-0.007536819295576341
-0.023041231438061
0.016177297586095
0.002328993620362093
0.008556410084250801
0.008232570231062398
-0.001920624218957306
0.01759342742201335
-0.01786582710347933
-0.03813438846989177
0.0326858571200723
-0.06438030948602701
-0.05868037915003328
0.08620161496819219
-0.08330178953241148
-0.07974960293776637
0.09717041216599899
-0.1118928530669432
-0.08768816333375765
0.1134785833252918
-0.1208666310579453
-0.1406749513819567
0.1583427335242339
-0.04399718531116699
-0.02850553792657982
-0.06998630046944211
-0.05222707323649651
-0.09848166606071528
-0.06614600576702372
-0.08538329305652571
-0.1288977727947885
-0.01943115990623036
-0.009345931433143641
-0.04713758830618518
-0.01963017095128359
-0.0773029258089447
-0.03635857000094724
-0.05333806399968241
-0.1076462159183973
0.002571387119144286
-0.01228335116448498
-0.04370774558676116
-0.09535624389966472
-0.04358068845686646
-0.04743782193510719
-0.00997165774716241
-0.03509475007779488
0.006410411127170935
-0.02207490796002569
-0.005125601922928311
0.006607026427553422
-0.06900815822523233
-0.07895942854593066
-0.03647836244776326
-0.06555173499679709
-0.006495490836783104
-0.05414174708579511
-0.02109927643450268
0.005690297794588253
-0.09173072448133264
-0.1054890446715501
-0.05863490965890025
-0.09319345615272633
-0.02291001458489761
-0.0880506496524585
-0.0471052853258857
0.001487530934731029
-0.1108715219078745
-0.07862543630253198
-0.04321369212371053
-0.003880077194242857
4.402508114242226e-05
0.004821333124509455
-0.0006283830810092667
-0.002583517266930471
2.414826049814897e-05
-0.00971610430335941
-0.0152351833529108
0.001464428015266789
0.003155442925690652
0.002798118277251606
0.003742188577085149
-0.002487167997060988
0.004236462295841386
-0.008168791863697782
-0.01218452497621102
0.004756128920951422
0.004736410377152811
0.002494676102910702
0.005284995212098749
-0.001882384011782284
0.006065925099098554
-0.00583190438916413
-0.007054255299753634
0.005428202318756989
0.007435445490389058
0.007100387236168395
0.006749038548960865
0.00476030156964217
-0.003419782497835413
-0.0266906834235056
-0.02158119506053978
-0.027881377511984
-0.2155015289058385
-0.2468683596953922
-1.208391822702246
-0.424020990204735
-0.001092512235799569
-0.01553690763327033
-0.01004273194328337
-0.01421142910994778
-0.1514649364650229
-0.1045904985752729
-0.8988122487446976
-0.4579351949496077
0.002864682558604674
-0.007182386988115502
-0.003251775974436984
-0.004192098943549796
-0.07666182585659947
-0.03002628092628314
-0.4522863737806038
-0.5206198802455169
0.002923806573651139
0.002069146220200604
-0.02640678711266348
-0.4766302915503002
-0.3529433107948354
0.2889593778257505
-0.3173418769689176
0.1498747075729693
-0.2939060606945536
0.04433562020188486
0.01418374025625901
-0.279664195287966
-0.3567823000057505
0.1915107007015117
-0.319283770469922
0.1213514142061505
-0.2975657847798075
0.0334855471127723
0.008951742176728561
-0.2817972655051082
-0.3640713255463242
0.04248283386727592
-0.3202408818576798
0.08756881598464095
-0.298360088711801
0.02437035623988704
0.00447431334995263
-0.2834264244941993
-0.4234064967255166
-0.3226967816684278
-0.2848333907777049
-0.2697858314775068
-0.2772544050835603
-0.003915361342523682
-0.2767913338009828
-0.001636448531465051
-0.2770043171929189
0.01327421774418125
0.03381534461778979
-0.2770880885102147
-0.2786302177573768
-0.003173624097736027
-0.2787501726319779
-0.001750460803279563
-0.2793502329898228
0.009812147121064596
0.02571714310485418
-0.2786030263944859
-0.2799423083102353
-0.002013407558036584
-0.2793158787394991
-0.001440192673551999
-0.2789051600296644
0.006129707095088199
0.01721740123621751
-0.2758885903818979
-0.2668575476080083
-0.2672608013086771
-0.2650270943161169
-0.2527206732799163
-0.2697853343110445
0.06645253640104576
-0.2669697642887907
0.09453471300131333
-0.2646746120253927
0.1348664424265559
0.09484830717850745
-0.2455105652556724
-0.2693602218863428
0.0537383263312613
-0.261569959467467
0.08163418213675044
-0.2402111429147803
0.1061964339173295
0.06014640778075608
-0.2133466762737157
-0.2600742670927677
0.03583820914277813
-0.23591034854276
0.05210835137681602
-0.197761734212082
0.05970415709095445
0.02285698264588609
-0.1685687623999474
-0.2187214107102426
-0.1716225544389734
-0.1190513021421173
-0.1026101238630711
-0.2402679814363338
-0.1893430714129652
-0.2404300344305054
-0.004928471452639693
-0.2416178940478367
-0.0001754227704922062
0.0002910416265530791
-0.242933280975258
-0.2422655606941096
-0.1699750916711525
-0.2415223391548455
-0.008054055161338614
-0.2420605683635701
0.0008411270467475473
0.001939384269139144
-0.24317197530952
-0.2426089902734037
-0.106153378024776
-0.2425964740826437
-0.01038945111260187
-0.2430842741243035
0.001934388004865562
0.003702396349941461
-0.2439726244892053
-0.2203586957614571
-0.2338460213755813
-0.2308782324712703
-0.2268826846703719
-0.2435110825264043
0.001430342680371566
-0.2433252293368503
0.0004582945368600821
-0.2412077125259105
-0.0035396508046866
-0.00768648672524691
-0.2370888139643042
-0.2440012130933355
0.003158982390848275
-0.2443557437572545
0.002252249398701944
-0.2437269347800113
-0.001307124655395508
-0.00444543006644732
-0.2431017506649017
-0.2446343050199065
0.004794648778835564
-0.2452142161755129
0.004808971890585823
-0.2460403809550833
0.002655234378208138
0.0004847114259368124