/*--------------------------------*- C++ -*----------------------------------*\
  =========                 |
  \\      /  F ield         | OpenFOAM: The Open Source CFD Toolbox
   \\    /   O peration     | Website:  https://openfoam.org
    \\  /    A nd           | Version:  11
     \\/     M anipulation  |
\*---------------------------------------------------------------------------*/
FoamFile
{
    format      ascii;
    class       volScalarField;
    location    "2.6";
    object      p;
}
// * * * * * * * * * * * * * * * * * * * * * * * * * * * * * * * * * * * * * //

dimensions      [0 2 -2 0 0 0 0];

internalField   nonuniform List<scalar> 
5472
(
99.297516
96.918771
94.54508
92.189825
89.868173
87.575724
85.35715
83.228848
81.186054
79.242347
77.426149
75.72526
74.138399
72.734007
71.451446
70.372642
69.483176
68.767716
68.301755
100.05703
97.855018
95.632817
93.417955
91.215856
89.011285
86.855498
84.793646
82.796533
80.89363
79.09052
77.395882
75.823526
74.41798
73.132337
72.053369
71.130428
70.385288
69.836165
100.7477
98.730709
96.66939
94.591658
92.491594
90.393023
88.331846
86.321983
84.378493
82.517391
80.732115
79.047395
77.488704
76.071316
74.807021
73.715231
72.781675
72.027192
71.463512
101.40117
99.554687
97.652386
95.709438
93.705841
91.718585
89.752096
87.80961
85.923145
84.088516
82.334298
80.672178
79.125657
77.697323
76.434113
75.343507
74.413585
73.655703
73.094793
101.95194
100.27316
98.539154
96.731207
94.851866
92.962992
91.07806
89.220911
87.396258
85.608424
83.881764
82.24369
80.721457
79.312523
78.047685
76.947366
76.019605
75.269974
74.702601
102.49372
100.93353
99.326565
97.651587
95.897276
94.124421
92.332672
90.560351
88.796981
87.0741
85.393186
83.759359
82.251085
80.872398
79.633685
78.544041
77.615061
76.871509
76.326124
102.93908
101.54653
100.05831
98.483956
96.866775
95.210927
93.507407
91.816635
90.121265
88.46078
86.82498
85.241819
83.758627
82.377869
81.152865
80.085413
79.174144
78.431328
77.852405
103.31993
102.03075
100.67067
99.232209
97.743877
96.198432
94.607238
93.012032
91.396326
89.783142
88.17904
86.649033
85.210006
83.868112
82.659181
81.594357
80.689502
79.971979
79.450428
103.67046
102.48947
101.24683
99.916528
98.530039
97.085788
95.60399
94.101001
92.570704
91.029095
89.493687
88.009532
86.58437
85.279769
84.10427
83.062682
82.172125
81.441392
80.903302
103.9345
102.89015
101.77237
100.54413
99.254216
97.913641
96.544349
95.119868
93.66003
92.184251
90.724903
89.294496
87.922498
86.653628
85.488326
84.474294
83.604357
82.904625
82.390503
104.1926
103.25081
102.21872
101.09426
99.906074
98.659903
97.392391
96.067065
94.697216
93.285741
91.882213
90.496467
89.18337
87.955094
86.822377
85.828358
84.974389
84.291628
83.793101
104.42111
103.57159
102.62547
101.59628
100.4879
99.335262
98.155578
96.916211
95.631682
94.304767
92.976342
91.654731
90.393361
89.196779
88.105512
87.136057
86.308652
85.63973
85.144203
104.63835
103.84235
102.97356
102.05568
101.03789
99.979357
98.871857
97.714662
96.495612
95.231953
93.972037
92.719814
91.513577
90.368686
89.320229
88.370431
87.57356
86.927883
86.462737
104.79974
104.08099
103.29889
102.42768
101.51268
100.55447
99.508724
98.444674
97.306631
96.12462
94.918738
93.727541
92.572441
91.476492
90.46102
89.545632
88.771964
88.136119
87.685291
104.95746
104.30028
103.58207
102.78473
101.94866
101.04882
100.09004
99.085037
98.024157
96.92365
95.785425
94.67041
93.557903
92.515683
91.536818
90.661436
89.917696
89.310575
88.882428
105.0812
104.49518
103.84361
103.11716
102.3364
101.50499
100.63152
99.692179
98.698742
97.645844
96.582535
95.520529
94.472803
93.482363
92.537927
91.699361
90.972581
90.399369
89.988169
105.18503
104.66928
104.07574
103.40003
102.68014
101.91343
101.10869
100.23819
99.31086
98.325445
97.325607
96.31463
95.328732
94.376103
93.478919
92.671475
91.978142
91.424463
91.025664
105.3083
104.83732
104.28599
103.66567
102.99722
102.29464
101.54851
100.72749
99.855543
98.932687
97.995628
97.044637
96.112802
95.204813
94.346283
93.566256
92.91038
92.381614
92.000744
105.42019
104.98354
104.48029
103.91584
103.28632
102.63618
101.94035
101.17906
100.36124
99.494727
98.606652
97.708655
96.825081
95.96384
95.144143
94.395356
93.763534
93.25802
92.901103
105.52483
105.12908
104.66927
104.14422
103.56796
102.9563
102.29601
101.58698
100.81658
100.00219
99.16388
98.314983
97.470408
96.650078
95.869941
95.161519
94.547975
94.048763
93.703354
105.63423
105.26983
104.83963
104.35573
103.82696
103.25462
102.6335
101.9654
101.23921
100.47005
99.67844
98.868825
98.058745
97.271116
96.520737
95.854328
95.286963
94.825759
94.481548
105.73661
105.4136
105.01977
104.56839
104.07443
103.53368
102.94712
102.31132
101.62236
100.89726
100.14184
99.369558
98.591498
97.822532
97.086244
96.412158
95.835953
95.392045
95.074265
105.83145
105.54773
105.19601
104.78411
104.32223
103.81052
103.25459
102.64474
101.98536
101.29188
100.56332
99.825595
99.090662
98.371496
97.697746
97.072382
96.517309
96.07334
95.770266
105.9266
105.67909
105.36634
104.99406
104.56915
104.095
103.56588
102.97721
102.33577
101.64633
100.91886
100.17
99.417059
98.679398
97.985287
97.360381
96.83343
96.40733
96.098703
106.02402
105.81357
105.54262
105.20491
104.8115
104.37473
103.88731
103.34748
102.75498
102.11338
101.43504
100.72862
100.0042
99.288921
98.598609
97.949391
97.389748
96.964272
96.643668
106.10861
105.94971
105.72526
105.42805
105.05489
104.61476
104.11083
103.54704
102.92744
102.25971
101.55484
100.82615
100.08715
99.362208
98.670933
98.049163
97.519584
97.085823
96.788399
106.14557
106.09139
105.96348
105.76628
105.49637
105.15133
104.72765
104.2257
103.65176
103.0053
102.29807
101.54699
100.76184
99.972243
99.191722
98.46801
97.837395
97.339331
97.025736
67.88284
67.661866
67.616453
67.74074
68.15538
68.621227
69.23249
69.991259
70.784439
71.728502
72.722332
73.780129
74.922853
76.126459
77.366164
78.642164
79.900642
81.12144
82.285052
69.381236
69.256303
69.277605
69.528666
69.963989
70.556781
71.345472
72.198116
73.209161
74.321439
75.526017
76.806004
78.152759
79.539608
80.952561
82.408362
83.80274
85.174991
86.43191
71.068466
70.903614
70.980033
71.308365
71.807492
72.55023
73.430392
74.440718
75.631979
76.903441
78.303511
79.749414
81.259465
82.7907
84.364919
85.929619
87.474634
88.970413
90.399977
72.698686
72.548846
72.670676
73.052044
73.661984
74.510211
75.511121
76.677537
78.014988
79.441088
80.977386
82.558842
84.182296
85.842576
87.514894
89.184187
90.832165
92.445803
94.011404
74.29193
74.160821
74.329436
74.805556
75.492144
76.439378
77.571218
78.884644
80.343922
81.887087
83.530742
85.210754
86.932931
88.682422
90.42622
92.167935
93.881626
95.575662
97.199739
75.957667
75.791875
76.002968
76.532567
77.316116
78.371329
79.607667
81.051586
82.590608
84.248365
85.968441
87.744334
89.53664
91.336376
93.132033
94.907588
96.651067
98.350008
99.951148
77.432076
77.35561
77.642279
78.226488
79.096466
80.23907
81.595769
83.127424
84.752236
86.503115
88.289668
90.131726
91.949613
93.781913
95.588589
97.345683
99.04517
100.66907
102.14654
79.065301
78.961305
79.267825
79.900316
80.860595
82.102358
83.532924
85.131069
86.840801
88.64853
90.487225
92.344827
94.177792
96.005552
97.761541
99.450197
101.0436
102.51053
103.80991
80.511412
80.463618
80.821271
81.510445
82.571965
83.862395
85.37865
87.048189
88.821623
90.668698
92.519588
94.375764
96.190427
97.951125
99.617954
101.19186
102.61001
103.90204
105.00704
81.99935
81.973546
82.355098
83.114251
84.230694
85.571197
87.162436
88.866497
90.696672
92.536646
94.390725
96.21588
97.961439
99.633436
101.17761
102.59262
103.84367
104.95893
105.86934
83.426222
83.419401
83.838651
84.660044
85.804451
87.214013
88.850497
90.593255
92.431896
94.249932
96.089161
97.826789
99.496472
101.0466
102.44273
103.70687
104.80351
105.75103
106.52331
84.781662
84.806554
85.274515
86.135658
87.31033
88.777396
90.439277
92.213227
94.030261
95.82747
97.594634
99.240134
100.81098
102.20879
103.46989
104.5727
105.52986
106.34257
107.01007
86.11135
86.159712
86.654842
87.533978
88.745992
90.267034
91.937779
93.701345
95.475736
97.225169
98.903031
100.45885
101.9003
103.1585
104.28449
105.21328
106.03617
106.67871
107.17189
87.353468
87.44038
87.946158
88.857543
90.120327
91.654917
93.312809
95.064237
96.789661
98.469757
100.04219
101.48466
102.77959
103.89463
104.85287
105.59764
106.22055
106.58341
106.79613
88.562269
88.653159
89.167264
90.117589
91.411552
92.936607
94.583017
96.292656
97.951833
99.546622
101.00579
102.32175
103.4598
104.41232
105.15811
105.69573
106.05588
106.17858
106.13227
89.686658
89.784125
90.327395
91.312418
92.609304
94.111205
95.737895
97.392447
98.97439
100.46167
101.7932
102.96653
103.93564
104.70173
105.23815
105.59085
105.75936
105.77318
105.66606
90.742356
90.841334
91.427518
92.416967
93.703733
95.193921
96.78789
98.366959
99.860815
101.23447
102.43734
103.456
104.25144
104.84108
105.23071
105.4741
105.57711
105.63029
105.68043
91.719355
91.845408
92.448181
93.419453
94.703949
96.177625
97.712961
99.207343
100.60984
101.86397
102.93382
103.80774
104.46055
104.92618
105.25378
105.48226
105.64533
105.82305
106.04701
92.629933
92.779802
93.373403
94.352626
95.641866
97.079386
98.544548
99.963759
101.27331
102.40239
103.34605
104.09567
104.64302
105.04357
105.37574
105.66071
105.93233
106.25868
106.63351
93.454334
93.607077
94.197213
95.187694
96.446827
97.81805
99.258826
100.60801
101.82185
102.84756
103.70325
104.37666
104.88545
105.29607
105.66775
106.05753
106.43202
106.83163
107.18426
94.222268
94.390954
94.984415
95.98341
97.218866
98.585942
99.938785
101.20429
102.3172
103.25622
104.02168
104.63327
105.11783
105.55288
105.97409
106.46362
106.93745
107.36615
107.65202
94.866822
95.025877
95.635826
96.621059
97.845593
99.163217
100.49275
101.7092
102.78218
103.68897
104.4304
105.04462
105.5652
106.04129
106.57338
107.05035
107.53292
107.7823
107.6462
95.491308
95.668825
96.294667
97.299947
98.511537
99.836648
101.08255
102.21965
103.22431
104.04316
104.71255
105.2782
105.82772
106.37383
106.91404
107.1876
107.41299
107.1398
106.42282
95.921448
96.108181
96.740675
97.735319
98.968569
100.23251
101.50396
102.66852
103.68158
104.54877
105.30512
105.94907
106.49229
106.97397
107.21874
107.04559
106.58713
105.5068
104.13928
96.39047
96.588097
97.292012
98.374371
99.630573
100.9503
102.17763
103.26116
104.18034
104.93684
105.51871
106.02306
106.37507
106.58307
106.41495
105.82558
104.79405
103.50827
102.22086
96.595043
96.815996
97.521194
98.575911
99.842737
101.14811
102.43998
103.58526
104.5803
105.42706
106.11705
106.61676
106.78238
106.54554
105.86863
104.75885
103.48452
102.35632
101.49271
96.806797
97.110806
97.993159
99.272489
100.70583
102.12444
103.40033
104.47842
105.31083
105.90085
106.20621
106.17486
105.7774
105.00249
103.98812
102.87253
102.00141
101.43847
101.13881
83.346484
84.357156
85.259672
85.97731
86.612265
87.095549
87.265749
87.379992
87.219248
86.422873
85.314941
84.027723
81.870009
78.768582
75.679642
72.229608
68.075209
64.11685
60.445296
87.628764
88.668644
89.584484
90.342556
91.001073
91.575423
91.94981
92.09482
91.927668
91.35697
90.286043
88.520327
86.034096
82.874997
78.833651
73.654959
68.114195
62.302176
56.071518
91.744179
92.858266
93.850295
94.580496
95.298539
95.985866
96.415708
96.697825
96.598253
95.907477
94.640972
92.795459
89.941415
85.709319
80.326985
73.894007
66.355555
57.160435
46.676848
95.453635
96.679867
97.619748
98.407856
99.196522
99.914075
100.50639
100.80346
100.61876
100.03511
98.710548
96.485425
92.905483
87.846477
81.430484
73.536911
63.653865
51.780243
38.811829
98.704972
99.903116
100.79527
101.5874
102.38895
103.20704
103.8125
104.13613
104.16516
103.58308
102.15037
99.503128
95.282378
89.852357
83.432067
75.676616
66.149843
55.042072
42.208069
101.41828
102.48565
103.29757
104.06763
104.9093
105.71892
106.36628
106.7792
106.76314
106.15544
104.77854
101.80668
97.372859
92.346252
86.305699
79.509641
71.737261
63.0796
53.945551
103.45225
104.39373
105.12892
105.82852
106.61195
107.33773
107.88375
108.17534
108.13936
107.81491
106.64929
103.83033
100.044
95.645215
90.556208
84.989682
78.954924
72.747096
66.779991
104.92577
105.69831
106.28397
106.85544
107.49332
108.0097
108.40592
108.63009
108.71434
108.50187
107.88077
105.92357
102.90964
99.144737
94.806347
90.297629
85.732638
81.273038
77.383374
105.91106
106.54356
107.01594
107.48335
107.94906
108.2793
108.58615
108.81407
108.92684
108.59224
107.89677
106.20897
103.68356
100.62907
97.179127
93.612946
90.383804
87.598643
85.322853
106.64784
107.1618
107.53014
107.93517
108.27346
108.40888
108.28088
108.22608
108.14699
107.60896
106.2791
104.22411
101.65825
98.889969
96.265911
93.727978
91.429543
89.569372
88.370158
107.20552
107.58765
107.85925
108.08403
108.05957
107.65094
107.02654
106.96884
105.98307
104.39615
102.28313
99.688426
96.958642
94.270034
92.034984
90.450219
89.404689
88.770735
88.442029
107.58551
107.87833
108.16879
108.29867
108.17238
107.38246
105.95622
104.10385
101.87669
99.224427
96.215545
92.913061
89.644926
86.959759
85.237847
84.373501
84.400064
85.300508
86.65703
107.50826
107.74922
108.0656
108.14823
107.96159
107.13578
105.17613
101.98251
97.809991
93.404898
88.777238
84.086601
79.70788
76.109788
73.95699
73.460412
74.602906
77.078256
80.240041
106.76791
106.93718
107.13386
107.13654
106.87004
106.24483
104.99755
102.58358
97.69679
90.774267
82.843177
74.344192
66.125062
58.695806
53.524531
52.140586
54.687653
60.29169
67.512859
105.81335
105.76237
105.67374
105.32728
104.54096
103.2839
101.23162
98.048818
93.130712
86.524316
78.756749
70.438658
62.559996
56.407099
53.030082
53.297933
57.212148
63.803105
71.092825
105.40074
105.28901
105.12073
104.70363
103.94445
102.88473
101.3826
99.204686
96.189995
92.273248
87.619335
82.67347
77.751968
73.677172
71.07247
70.439978
72.037292
75.566603
80.060357
105.65881
105.6352
105.48295
105.1199
104.61493
103.97845
103.13319
101.89498
100.2893
98.25877
95.787528
92.975706
89.970791
87.242506
85.010022
83.762991
83.762783
84.940399
87.026636
106.28217
106.34816
106.20718
105.9302
105.62737
105.21428
104.64992
103.86192
102.89372
101.62651
99.989516
97.973144
95.769269
93.58264
91.553853
89.908748
88.897898
88.704611
89.201006
107.14454
107.29761
107.14295
107.01542
106.86975
106.53483
106.01179
105.28445
104.38517
103.21444
101.71362
99.872974
97.926039
95.859911
93.700828
91.624097
89.704947
88.204113
87.547662
107.95602
108.0648
108.12317
108.40709
108.39961
107.70349
106.55445
105.55644
104.62649
103.43565
101.69962
99.381581
96.427933
92.772186
88.715342
84.441491
80.522354
77.701389
76.35512
108.26032
108.22787
108.16816
107.82288
107.00121
106.93274
107.43085
107.33074
106.26447
104.14562
101.44859
98.259896
94.128163
88.877781
83.010156
76.903443
71.586374
68.132679
67.057521
107.46991
107.5791
107.52299
107.52846
106.68382
105.17698
104.06167
103.23005
102.08559
100.51453
98.60739
96.25411
93.440167
90.081075
86.398111
82.793045
79.699328
77.804676
77.345303
105.10993
105.43229
105.15855
104.51461
103.36242
100.82845
97.848113
96.048923
95.29774
94.929731
94.444989
93.582822
92.589426
91.476809
90.336998
89.370641
88.868444
89.090406
90.088391
102.53921
102.66745
102.28517
101.58504
100.60652
98.835669
96.586951
93.757055
90.339106
87.293727
85.116366
84.663155
85.754487
87.893151
90.272374
92.15269
93.836592
95.363464
96.163557
101.20628
100.87855
100.3308
99.44176
98.181361
96.203078
93.529301
90.447316
87.462529
85.596479
85.370743
86.635776
88.457237
90.3322
92.499004
94.583989
96.224192
97.607417
99.118009
100.92987
100.57526
100.2277
99.761052
99.196853
98.430981
97.42425
96.421441
95.184043
93.766478
92.696113
92.351993
92.874779
94.104327
95.903401
97.901358
99.676693
101.06968
102.06618
101.17078
100.94419
100.6781
100.44433
100.22782
99.992569
99.703981
99.350744
99.141503
99.332319
99.738518
100.19079
100.77655
101.62839
102.78123
104.1552
105.1277
105.77851
105.6399
57.543553
56.09578
56.833897
60.03651
66.278654
75.15563
85.860931
97.120878
107.66745
116.12409
121.84217
124.00427
122.44251
120.14131
117.70244
115.3306
113.13467
111.06326
109.12785
50.467091
46.35257
44.813542
45.83143
49.719579
57.769672
69.132471
81.389469
93.237293
103.32133
110.61979
115.10844
116.30674
116.16678
114.92512
113.5673
112.03309
110.57207
109.10028
35.946073
26.782545
20.872414
19.304254
22.729402
31.394957
44.008105
57.733806
72.956718
87.357712
96.671165
102.89992
107.37101
109.64244
110.53238
110.56255
110.08754
109.38957
108.55737
25.289702
12.286372
2.2626783
-2.6891757
-0.97369752
7.6003108
25.5632
41.567595
56.484322
69.692821
81.418071
90.83871
97.711816
102.00543
104.69204
106.18445
106.91619
107.14611
107.11494
29.65707
18.219098
9.5616838
5.1494214
6.0552891
12.696759
24.316912
38.281913
52.558356
65.399457
76.338308
85.121332
91.689809
96.427168
99.722766
101.99133
103.46046
104.38365
105.01899
45.090577
37.611606
32.556319
30.701777
32.41467
37.363544
45.074719
54.145033
63.489276
72.1234
79.698118
85.963885
90.831138
94.674751
97.583082
99.715919
101.22788
102.29819
103.18772
61.370615
57.170334
54.775266
54.695484
56.972718
60.63229
65.212392
70.628347
76.012443
81.070502
85.577491
89.493903
92.775557
95.469921
97.693116
99.411031
100.64801
101.54758
102.31731
74.255831
72.297785
71.633176
71.890911
72.915538
75.324979
78.431752
81.801362
85.159483
88.261403
90.986248
93.427196
95.529925
97.344104
98.882559
100.18065
101.13941
101.81676
102.35675
83.702678
82.605747
82.043709
82.313103
83.47579
85.098246
87.11875
89.212855
91.349329
93.403418
95.124034
96.694309
98.101397
99.318215
100.39668
101.32313
102.06021
102.53799
102.89812
87.995502
88.061093
88.395057
89.084864
90.253843
91.559729
92.97539
94.429216
95.828161
97.191237
98.378601
99.384062
100.3014
101.09785
101.81148
102.47357
103.04213
103.39534
103.57495
88.739935
89.783287
91.141013
92.472027
93.906128
95.45001
96.783548
97.960132
99.073323
100.07203
100.89902
101.58672
102.17066
102.65715
103.12418
103.55797
103.95039
104.23538
104.31043
88.250149
90.272135
92.445711
94.410509
96.162652
97.910147
99.428713
100.47327
101.34106
102.1397
102.76611
103.25334
103.65031
103.95698
104.22171
104.50398
104.75578
104.92497
104.95867
83.670364
87.490733
91.275768
94.37729
96.823852
98.947735
100.82604
102.05852
102.83687
103.45466
103.96555
104.33776
104.6145
104.82434
104.98951
105.16258
105.33601
105.44058
105.43431
74.757126
81.577218
87.669855
92.445988
95.862242
98.481752
100.70802
102.23044
103.19067
103.86003
104.39213
104.76314
105.05746
105.26896
105.43022
105.55046
105.668
105.75024
105.75165
78.14118
84.431334
89.749571
93.811566
96.743384
98.967474
100.88703
102.28358
103.14663
103.89159
104.46412
104.8973
105.19808
105.39779
105.5845
105.7043
105.79449
105.84067
105.85643
84.863476
89.441565
93.423183
96.565976
98.891938
100.584
101.77715
102.94735
103.731
104.35443
104.7937
105.17037
105.46165
105.62128
105.75892
105.85943
105.91841
105.93144
105.91474
89.716388
92.693634
95.63415
98.222191
100.31123
101.92503
102.98396
103.62997
104.45482
105.20581
105.58552
105.79895
105.91688
106.00663
106.03334
106.06364
106.06817
106.0299
105.9531
90.423823
92.287271
94.580806
96.974311
99.16403
101.07322
102.55599
103.92604
105.25332
105.39006
105.78054
106.06923
106.17817
106.23572
106.22583
106.19315
106.16757
106.11473
106.02267
87.752379
88.776859
90.668602
93.117719
95.740746
98.287225
100.73571
103.23468
105.02395
105.57737
106.07807
106.23183
106.29987
106.28255
106.23428
106.1518
106.07312
105.9954
105.91399
76.523098
78.524807
81.617677
85.352854
90.184769
95.873963
100.82113
103.87796
105.33497
105.72763
105.99624
106.06379
106.06037
106.00479
105.94803
105.88332
105.79868
105.71941
105.6739
68.496477
73.288708
78.961821
84.71963
90.294435
94.903826
98.870389
101.91517
103.66077
104.45796
104.87697
105.12259
105.24099
105.26814
105.29554
105.32179
105.2718
105.20649
105.23224
78.465644
81.125503
84.925711
89.161663
93.17496
96.748975
99.578184
101.56736
102.75282
103.45801
103.99413
104.30985
104.52443
104.67304
104.73198
104.79825
104.80438
104.75625
104.78595
91.784527
93.47338
95.214697
97.168269
98.890506
100.41167
101.58381
102.38709
102.96451
103.43613
103.81154
104.09905
104.30816
104.44103
104.52323
104.5469
104.53647
104.52175
104.54546
96.637979
97.635332
98.734541
99.910072
100.9897
101.85388
102.58218
103.15793
103.58578
103.90287
104.0898
104.19061
104.22747
104.17685
104.10164
104.07434
103.99166
103.88925
103.90961
100.25673
100.93804
101.43127
101.80424
102.11979
102.34909
102.79295
103.15488
103.19331
103.13791
103.17713
103.30877
103.52494
103.65297
103.5521
103.38367
103.2745
103.18182
103.14206
102.39316
102.08149
102.01754
101.95593
101.96116
102.02453
102.09265
102.21738
102.45796
102.69921
102.79135
102.57353
102.09081
101.49295
101.29562
101.698
102.01202
102.16361
102.15179
104.52504
102.86245
101.53693
100.23178
98.974264
97.945108
97.153356
96.754564
96.742926
97.016101
97.529147
98.430718
99.541828
100.60973
101.27736
101.50055
101.53405
101.22772
100.55191
107.36196
105.7003
104.11651
102.59566
101.16517
99.797624
98.5445
97.365736
96.257095
95.227126
94.290376
93.454786
92.720131
92.083528
91.4977
91.018853
90.652712
90.410907
90.273838
107.75528
106.40991
105.06327
103.71416
102.39596
101.1081
99.886809
98.710354
97.597273
96.548062
95.553042
94.643439
93.818169
93.105002
92.480045
91.970343
91.603351
91.34693
91.225511
107.68568
106.75545
105.73457
104.66378
103.51384
102.33912
101.16393
100.0175
98.899698
97.83616
96.794548
95.815294
94.91961
94.124054
93.463959
92.906035
92.515113
92.266557
92.151197
106.90134
106.48798
105.84906
105.08195
104.19083
103.22336
102.176
101.11359
100.01872
98.952383
97.909141
96.900997
95.975891
95.124594
94.412624
93.844232
93.409916
93.170098
93.074284
105.47236
105.61992
105.48619
105.07843
104.489
103.72162
102.8586
101.91174
100.92642
99.90104
98.890861
97.894168
96.958703
96.099499
95.342871
94.764546
94.312203
94.053991
93.989705
104.00639
104.55026
104.81507
104.75375
104.48749
103.98554
103.34389
102.5439
101.68824
100.73302
99.776781
98.812133
97.882661
97.021897
96.255171
95.640218
95.200568
94.927472
94.882269
103.10624
103.69787
104.12761
104.35508
104.33075
104.09581
103.6577
103.03286
102.29779
101.43917
100.5644
99.657421
98.746227
97.884406
97.129648
96.495407
96.053625
95.793386
95.752822
102.89997
103.33714
103.70889
103.99882
104.12607
104.07714
103.82918
103.38638
102.79635
102.05596
101.26265
100.40753
99.552674
98.699997
97.955189
97.329552
96.870751
96.632988
96.611421
103.18151
103.39642
103.63564
103.84996
103.99882
104.04823
103.91957
103.63414
103.17787
102.56322
101.86818
101.07464
100.27802
99.460866
98.720098
98.126386
97.671504
97.45006
97.430961
103.69208
103.75319
103.8298
103.92782
104.01829
104.06048
103.99925
103.82654
103.48144
102.995
102.38913
101.68333
100.92588
100.17884
99.44464
98.871076
98.413404
98.226057
98.230067
104.27139
104.21942
104.1902
104.17051
104.17801
104.18512
104.12985
104.00501
103.7345
103.34969
102.82067
102.22628
101.52126
100.83108
100.13143
99.571306
99.13613
98.954227
99.010348
104.86834
104.74061
104.61422
104.51747
104.44245
104.39544
104.30225
104.1907
103.96607
103.65835
103.21294
102.69448
102.06289
101.42684
100.78239
100.23029
99.836427
99.631188
99.739149
105.33471
105.20922
105.05288
104.90642
104.76629
104.66015
104.53096
104.40198
104.19534
103.93528
103.55946
103.1047
102.5452
101.95289
101.38175
100.84116
100.49699
100.30388
100.43287
105.66417
105.57652
105.43246
105.2694
105.09334
104.94483
104.78617
104.63888
104.44131
104.20605
103.87451
103.46947
102.99662
102.42945
101.9188
101.41984
101.10106
100.94584
101.06565
105.80641
105.79319
105.70913
105.57619
105.40047
105.23052
105.0535
104.88816
104.68502
104.45229
104.17542
103.79746
103.38417
102.87541
102.39664
101.9576
101.65442
101.5429
101.67263
105.87955
105.89421
105.8539
105.77565
105.63536
105.47739
105.29915
105.11102
104.92543
104.69303
104.44987
104.1165
103.726
103.28091
102.83306
102.45061
102.17504
102.08882
102.23744
105.8954
105.92606
105.91635
105.88596
105.79947
105.66813
105.51862
105.33675
105.1586
104.93684
104.68833
104.40505
104.04119
103.64045
103.23083
102.88783
102.64758
102.59034
102.75789
105.94662
105.95855
105.94177
105.9266
105.88941
105.79052
105.66695
105.49161
105.29712
105.09175
104.86839
104.62065
104.32106
103.95821
103.58259
103.28072
103.08049
103.04754
103.23801
105.88201
105.89307
105.89686
105.8945
105.90071
105.86329
105.78506
105.67979
105.52781
105.34619
105.11598
104.85804
104.57355
104.25205
103.9091
103.62803
103.4626
103.47228
103.67927
105.71909
105.7617
105.80547
105.8335
105.86889
105.87883
105.82924
105.72205
105.57665
105.40788
105.22278
105.01182
104.758
104.4746
104.17638
103.92817
103.79458
103.83654
104.06601
105.3943
105.52905
105.61921
105.67106
105.71967
105.77139
105.80495
105.79339
105.72662
105.60831
105.43937
105.23288
104.98819
104.7128
104.43559
104.23458
104.09585
104.16692
104.43637
104.97826
105.2167
105.39207
105.5248
105.64141
105.71835
105.75954
105.76032
105.69714
105.58931
105.44409
105.27394
105.08017
104.85485
104.60722
104.42241
104.35388
104.4319
104.72358
104.64653
104.807
104.96477
105.19104
105.34322
105.47041
105.59374
105.70066
105.74356
105.71853
105.62725
105.48681
105.28337
105.04393
104.82373
104.62746
104.59739
104.6896
105.00978
104.14244
104.52451
104.81249
105.0467
105.2142
105.38187
105.52373
105.61649
105.66496
105.64945
105.55668
105.45098
105.30491
105.09764
104.90453
104.74148
104.73527
104.88754
105.19211
103.3488
103.82546
104.15756
104.49811
104.74358
104.96539
105.1925
105.39677
105.55316
105.64204
105.66737
105.59015
105.48619
105.28548
105.05493
104.8814
104.85217
105.05271
105.38414
102.62996
103.53683
103.86731
104.29386
104.70801
104.9842
105.17991
105.37004
105.51992
105.60315
105.60079
105.53923
105.43587
105.30022
105.09602
104.93252
104.89278
105.13379
105.49327
100.97632
101.72533
102.64193
103.21639
103.64318
104.18023
104.58207
104.92802
105.1895
105.44491
105.58546
105.62374
105.555
105.4415
105.22036
105.00052
104.93309
105.12794
105.56987
90.289443
90.464504
90.801311
91.248082
91.798847
92.532074
93.386139
94.40514
95.545258
96.773267
98.150272
99.58816
101.11232
102.69626
104.35893
106.05686
107.74912
109.50844
111.271
91.264963
91.440412
91.756625
92.253607
92.869481
93.634514
94.507223
95.519057
96.64885
97.864673
99.219114
100.62883
102.10065
103.63227
105.19945
106.79081
108.38716
110.01191
111.61767
92.220247
92.426204
92.776579
93.278384
93.921866
94.699954
95.602262
96.60352
97.728661
98.935567
100.24796
101.63375
103.06099
104.52178
105.98941
107.49362
108.99133
110.44852
111.8831
93.170326
93.404373
93.783822
94.297584
94.951261
95.732514
96.646223
97.656225
98.766703
99.972699
101.24564
102.58871
103.97193
105.37102
106.74936
108.12204
109.48385
110.82952
112.15984
94.10299
94.355002
94.74874
95.277346
95.95846
96.741111
97.653655
98.670541
99.764156
100.95497
102.18962
103.48506
104.81037
106.13817
107.42032
108.65155
109.8934
111.13706
112.33524
95.02272
95.287134
95.707535
96.255528
96.942039
97.746676
98.639202
99.644097
100.72343
101.86708
103.06448
104.30026
105.56341
106.81267
108.0063
109.1415
110.26469
111.40275
112.49496
95.927618
96.211219
96.629903
97.203778
97.880053
98.680293
99.580312
100.54827
101.61014
102.7228
103.89146
105.07624
106.2637
107.42437
108.51541
109.57281
110.60011
111.5807
112.53288
96.800296
97.103344
97.536127
98.099103
98.792331
99.580115
100.47873
101.4349
102.4734
103.53966
104.65292
105.79591
106.88719
107.95371
108.9595
109.90437
110.80953
111.69597
112.57932
97.652223
97.952631
98.411161
98.974708
99.666327
100.45378
101.33508
102.26764
103.25619
104.28337
105.32707
106.39908
107.42842
108.4126
109.31767
110.17972
111.00967
111.81525
112.60649
98.480927
98.795111
99.246416
99.825392
100.49878
101.26546
102.11917
103.04207
103.98962
104.96463
105.94783
106.96784
107.92557
108.81456
109.65883
110.42415
111.15001
111.87009
112.55581
99.262385
99.586869
100.03249
100.60464
101.26469
102.03643
102.86495
103.75119
104.66504
105.60566
106.53527
107.45757
108.34319
109.15692
109.90938
110.59882
111.24579
111.88327
112.50823
100.0104
100.35011
100.79441
101.37042
102.02002
102.76038
103.56841
104.42921
105.30101
106.16535
107.0267
107.88313
108.69439
109.44019
110.13486
110.7604
111.33523
111.89338
112.43345
100.71201
101.06278
101.5045
102.06308
102.71059
103.43397
104.2126
105.01818
105.84133
106.66415
107.47082
108.26254
109.02202
109.70078
110.30817
110.86545
111.37675
111.85792
112.32873
101.36881
101.72906
102.17979
102.72212
103.35027
104.04685
104.7964
105.5723
106.35332
107.12736
107.8892
108.61093
109.27875
109.88369
110.44321
110.94733
111.38907
111.81479
112.2287
102.00237
102.35885
102.80674
103.33812
103.95019
104.62798
105.34876
106.0898
106.82019
107.52818
108.21495
108.87158
109.49075
110.05271
110.55875
111.00933
111.39783
111.76523
112.1346
102.57975
102.93828
103.3842
103.90174
104.49228
105.13921
105.82123
106.52305
107.21086
107.87326
108.51565
109.12539
109.69624
110.21195
110.65752
111.0477
111.39112
111.69988
112.00209
103.11349
103.47441
103.9142
104.42304
104.99533
105.62008
106.27232
106.93755
107.58314
108.18848
108.77435
109.32884
109.84258
110.30033
110.71205
111.06171
111.35274
111.63781
111.91976
103.60487
103.96795
104.40698
104.90096
105.45608
106.04972
106.66043
107.28131
107.88854
108.46319
108.99826
109.50631
109.98372
110.41471
110.78174
111.07912
111.34255
111.59102
111.81748
104.0519
104.41286
104.84326
105.32574
105.85596
106.42193
107.00858
107.60194
108.17716
108.71619
109.20437
109.66311
110.08874
110.47176
110.80359
111.07974
111.32054
111.5297
111.72622
104.45023
104.81108
105.23373
105.71445
106.22917
106.77836
107.33671
107.89015
108.42229
108.91792
109.37011
109.78727
110.18662
110.54947
110.86005
111.11354
111.32453
111.50448
111.68137
104.81608
105.17901
105.59281
106.06065
106.56387
107.08079
107.61176
108.13353
108.63535
109.10401
109.53325
109.92834
110.29292
110.61613
110.89253
111.12189
111.30895
111.46941
111.62732