/*--------------------------------*- C++ -*----------------------------------*\
  =========                 |
  \\      /  F ield         | OpenFOAM: The Open Source CFD Toolbox
   \\    /   O peration     | Website:  https://openfoam.org
    \\  /    A nd           | Version:  11
     \\/     M anipulation  |
\*---------------------------------------------------------------------------*/
FoamFile
{
    format      ascii;
    class       volScalarField;
    location    "0.3592354";
    object      p;
}
// * * * * * * * * * * * * * * * * * * * * * * * * * * * * * * * * * * * * * //

dimensions      [0 2 -2 0 0 0 0];

internalField   nonuniform List<scalar> 
880
(
80.0000000000004
80.00000016385775
80.01345661347679
81.88034252355787
80.00000000017729
80.0000004813165
80.01669043682378
82.76389054705551
80.00000000090172
80.00000187777135
80.03089492904415
83.82258035243733
80.0000000120275
80.00000824568356
80.06380932900775
85.40754662340281
79.9999999446778
80.00000002780087
80.00000611599725
80.0000943555082
80.00003799632923
80.0001460634047
80.00091099818903
80.00134649375539
80.14459805925027
80.23457363265629
80.38548793822812
80.53778661025014
88.34436367712836
91.39559410352317
94.00065770195702
95.23497223945408
80.00023343521495
80.00190270716716
80.00718964706739
80.02228092644643
80.01262418673434
80.05407596508296
80.10847699971974
80.22875621764157
81.27049603417038
81.90766440865053
82.71481787912047
83.76512211471535
96.38507286659386
97.95088042864121
98.27348757851448
97.50849440324353
90.98665496919428
87.50957118967115
85.83751552290683
84.74258867237472
85.69174339503591
86.37141273986903
86.77396689992621
86.8085912880192
80.63879852165451
81.12353890699632
81.6390016650608
82.02323327806191
80.07908821988531
80.19128773625651
80.3611586737568
80.59965782494928
80.87775450181027
81.15708508876202
81.43362136767983
81.64004567101445
82.31285606121705
82.48081179916502
82.56760741838094
82.57334837243718
86.44906389708221
85.94968103382548
85.29454973684058
84.61630444981222
83.58709890228457
82.89854697829463
82.50698941437788
82.0791389901423
82.0834466933473
84.14366024776294
82.52050421406601
81.76636779532089
87.74223094816594
83.86378075076389
82.36950242461467
81.74665902046611
120.556878066076
85.26202996723785
82.18750864896454
81.49456241105871
158.3474810218494
93.05754845625064
82.67018348641098
81.4018647542903
81.37294355122852
83.3932125529512
102.7712786443948
175.0764993148672
80.8726917983775
84.75156327749664
113.7341051590075
174.2793915388781
81.08510659197164
87.90146126710562
128.3724332314561
176.1372737012618
81.89136296920134
93.58548387144633
142.270772747465
173.4128102079174
167.7074674516919
149.9506860369983
102.239671185578
83.66777418701831
160.7384146618482
151.1909435781738
111.8297368155734
86.84019051481845
153.3431773792034
148.9209120260559
120.1254987317344
91.94267395788584
145.6347084968386
138.9087910684106
121.4587228451832
98.31231115156938
103.9488125424943
117.3638587875536
126.5676399165296
136.6078135685825
103.1375357632706
109.2148301413835
113.4276037761598
123.6649376065374
100.8366486843432
101.4842647495532
100.6813350903507
107.3274248742693
97.8465090679195
95.2240867548871
89.1751264833144
88.30752416557279
95.46831717120436
89.32755812841152
78.72374307230012
66.39564972328891
91.68566437538156
83.9608271643454
69.93166549901862
43.06377519987142
88.80543281440588
81.54220872360196
63.23959953900359
26.39392936329598
86.3564735611822
80.46176755404979
58.99107532869371
14.84810907482417
15.60571368464475
60.56914228432694
79.58678702430703
84.17248664857193
24.76320161380138
61.3649739574126
78.99418303183592
82.70509836826373
27.33969029145924
61.04520470476331
78.13599712104264
81.71383125436269
25.83947799881158
60.43855408136201
77.52979918596007
81.17535762787868
31.26908980144633
63.06653129415128
77.20209410429288
80.23975219755722
36.95815537862271
65.60886387329472
77.11657036667094
79.68640227247329
43.59638907371932
68.84970279451395
77.31448841830056
79.66585446329105
51.42002115983314
71.09838118572323
77.69928592361151
79.73914694287784
53.28214589452779
58.94015115464208
73.28917371705114
79.26093209193293
51.93652449053747
60.14528472605885
73.51429698374325
79.25271014312213
49.49658154122378
61.86259711392326
74.01486710131225
79.25460888920193
47.174579163188
63.82101305476949
74.73204592312152
79.31312236192548
51.42002115983361
71.09838118565987
77.6992859236029
79.7391469425536
43.59638907376324
68.84970279420379
77.31448841817381
79.66585446279406
36.95815537862872
65.60886387308945
77.11657036626906
79.68640227196022
31.26908980149926
63.06653129389225
77.2020941041918
80.23975219726266
84.17248664879459
79.58678702436718
60.56914228430325
15.60571368437297
82.70509836822613
78.99418303180266
61.36497395733383
24.76320161353732
81.71383125439642
78.13599712111753
61.0452047043311
27.33969029139715
81.17535762791604
77.52979918621611
60.4385540812472
25.83947799880496
14.84810907484911
58.99107532861333
80.46176755403202
86.35647356127718
26.3939293631807
63.23959953903746
81.54220872369942
88.8054328144385
43.06377519979857
69.93166549925623
83.96082716438198
91.68566437565876
66.3956497233977
78.72374307211412
89.32755812805861
95.46831717138602
103.9488125427318
117.3638587882093
126.5676399170312
136.6078135685213
103.1375357631529
109.2148301412379
113.4276037763906
123.6649376066012
100.8366486838903
101.4842647494253
100.681335090332
107.3274248743274
97.8465090678034
95.22408675468347
89.17512648320674
88.30752416574299
145.6347084968344
138.9087910685685
121.458722845564
98.31231115238903
153.3431773791223
148.9209120261416
120.1254987319034
91.94267395798762
160.7384146618826
151.1909435780823
111.8297368153854
86.84019051508436
167.7074674514195
149.950686037325
102.2396711859411
83.66777418704652
81.37294355115526
83.39321255298064
102.7712786443012
175.0764993145816
80.8726917988627
84.75156327765974
113.7341051590016
174.2793915384856
81.08510659271928
87.90146126777546
128.3724332314868
176.1372737011153
81.8913629693179
93.58548387136257
142.2707727475746
173.4128102076919
81.40186475430239
81.49456241098163
81.7466590208308
81.76636779538372
82.67018348601211
82.18750864871532
82.36950242471354
82.52050421402905
93.05754845579617
85.26202996725307
83.86378075046802
84.14366024765083
158.3474810213593
120.5568780656985
87.74223094826785
82.08344669335473
81.64004567128316
82.57334837255468
84.61630444998472
82.07913899028087
81.43362136739773
82.56760741857074
85.29454973699637
82.50698941445235
81.15708508875419
82.48081179919573
85.94968103376698
82.89854697794514
80.87775450154494
82.31285606099897
86.44906389737842
83.58709890235401
80.07908821975442
80.63879852140251
85.6917433952658
90.98665496940961
80.19128773598554
81.12353890659598
86.37141274014711
87.50957118958902
80.36115867406593
81.63900166464738
86.77396689995362
85.83751552237457
80.59965782473904
82.02323327795027
86.80859128830224
84.74258867210568
97.50849440315388
83.76512211480222
80.2287562174714
80.02228092679563
98.27348757847626
82.71481787921023
80.1084769995857
80.00718964703698
97.95088042870739
81.90766440853676
80.05407596436328
80.00190270693912
96.38507286656869
81.27049603395434
80.0126241864933
80.00023343554523
95.23497223931791
80.5377866103353
80.00134649380614
80.00009435596381
94.00065770151205
80.3854879382212
80.00091099795033
80.00000611628406
91.39559410311524
80.23457363261213
80.0001460632047
80.0000000276608
88.34436367679088
80.1445980591279
80.00003799621099
79.99999994537085
80.00000000002807
80.00000016396199
80.01345661348259
81.88034252343046
80.00000000026193
80.00000048100623
80.01669043680701
82.76389054702939
80.00000000110963
80.00000187755403
80.03089492910036
83.82258035271443
80.00000001233936
80.00000824560617
80.06380932905817
85.40754662353389
83.52398113936037
85.09526715827481
87.64367246161116
92.78681231358836
85.09526715856556
87.15058959146982
90.99715709526825
98.69101516098819
87.64367246173856
90.99715709526792
97.3119203599488
106.8207806932226
92.78681231365979
98.69101516077025
106.8207806935458
117.1819429409373
127.9923857908861
119.0251553719271
115.1013112246482
106.8655461089513
126.2796684481958
123.6456111870494
123.6040330768564
119.530080355363
126.3198109926124
125.4943115004975
125.0506498762797
123.6401072512705
123.7373391614639
123.3302551830929
123.2434526589491
122.3928566852787
119.6767791874126
117.8559355259606
114.2518111054283
109.3401064049549
119.9428987058831
118.0398001535869
114.3867918310235
109.8050889936142
120.2785851436438
118.2215707014525
114.3689885848724
110.2398995699668
120.4533651239834
118.1133079240927
114.5207680414387
108.5601454890714
82.83050578165475
71.90504237946325
70.6049268359879
70.98548897881176
75.82087199154059
69.03043910407389
69.65707549273304
70.38173474980684
69.99731575034663
68.89584509330885
70.22944506728642
70.92989266682429
60.73660907657474
66.59797339691811
69.23782261239735
70.19843515563548
70.93008264976378
71.29236533153752
72.10774047968229
73.05116384770943
70.47276766739601
70.85096008214651
71.73555021174997
72.92904632139357
70.90451305480563
71.13423795987855
71.8725309337331
72.80677732978172
70.29692390890314
70.61809989354778
71.55370223954701
72.84658033868787
78.67355090869385
114.0347258856191
165.0702871467382
181.4274453985865
81.36332022409111
121.5213984662947
162.5390611665254
173.2945354983343
83.49437313428648
125.2961598927263
161.3137552466399
171.9957912220662
84.86354168668699
130.7121242097736
161.6591059042104
171.9728492425783
218.1626380572876
209.3376431198205
201.7907861587721
190.5376841360015
219.3305584881284
212.1166722676011
203.9477918900536
192.3782210608536
218.3263792669498
213.6473271198231
205.0482324002801
193.4988976825838
213.2096021070946
215.5722485664313
206.9711154264145
195.2369106579258
178.148582275506
167.8957609767727
158.2746966924473
153.3866606790816
180.1469444469313
169.2802748342006
158.9648437324479
153.7599976954252
181.2954371030678
169.4893157922592
159.5126187750924
153.7252927136757
183.7017545764228
170.9144527677357
161.1740101312311
154.8235171423861
148.5697596113043
140.6581863916821
126.7741791004124
105.8850758654727
149.2635576450766
142.1818602730333
128.893948053455
114.3599998310245
149.2079040833685
142.6097325434004
130.6897805580684
119.6674776921297
150.3700575849028
144.9548752324295
134.0436786843694
134.5834628280891
64.62303493823427
16.54900349063416
2.690618599428419
1.283618023298711
49.95164126087026
10.39447309225594
2.242195175090173
1.464417418315703
34.73868629819071
6.571956044756795
1.963434753216289
1.620816527002456
19.55113815082307
3.061006587551109
1.726204128761867
1.813274080162589
1.92925873654705
4.153542096415044
6.785775426326953
10.67160603553413
2.736368241723608
5.087912582172482
7.800730540254522
11.94484112296632
3.199576403321943
5.473004407395386
8.646016643875921
12.64696380219462
3.753881589671055
6.199489037572858
10.09296189528311
13.79309763729017
12.51726527039224
18.94029660873043
26.03305008380865
34.74107697377402
12.12982289987215
17.87733559007348
24.72002244494972
33.23101017891224
12.44053171336573
16.35110053099789
22.87553646163142
32.23958937834227
11.6954903793172
14.460801821622
19.06072350018114
30.28218844888019
35.03389251275056
33.20775560494865
32.54790293796044
33.17743897391679
31.86524438840402
31.78646887237306
32.24761169958666
32.35377278096186
31.01256006220623
32.65718298113616
32.98671989119063
33.0224830118259
29.23681505878683
31.45587532143653
31.77609732560731
32.50251404959633
32.92045357291298
33.23139221085025
33.49139931252505
33.61795222576697
32.97862965309145
32.93623139491033
32.84475168658601
32.95095005839129
32.92856338566092
33.39768367152433
33.836324682335
34.09497056301671
34.75147353330882
35.80221017007232
36.54012944358794
36.54221711553524
33.61795222576886
32.95095005837537
34.09497056303557
36.54221711553979
33.49139931254736
32.84475168658309
33.8363246823443
36.54012944359652
33.23139221082828
32.93623139492559
33.39768367155949
35.80221017010886
32.92045357296546
32.97862965307483
32.9285633856779
34.75147353335256
33.17743897401172
32.54790293797793
33.2077556050091
35.03389251278618
32.3537727809861
32.24761169963482
31.78646887242775
31.86524438844458
33.02248301186561
32.98671989126137
32.65718298118499
31.01256006226323
32.50251404960752
31.77609732563617
31.45587532147356
29.23681505883757
30.2821884489746
19.06072350030447
14.46080182172313
11.69549037940293
32.23958937842006
22.87553646171717
16.35110053110468
12.44053171348029
33.23101017899037
24.7200224450627
17.87733559018702
12.12982289997068
34.74107697383666
26.0330500839193
18.94029660881799
12.51726527053392
10.6716060355938
6.78577542635399
4.15354209637664
1.92925873657485
11.94484112302383
7.80073054030013
5.087912582161297
2.736368241726232
12.6469638022581
8.646016643937369
5.473004407394121
3.199576403317833
13.79309763735268
10.09296189533577
6.199489037587176
3.753881589666589
1.283618023336211
2.690618599391001
16.54900349052608
64.62303493828075
1.464417418331209
2.242195175077115
10.39447309220541
49.95164126082307
1.620816527002152
1.963434753206106
6.571956044749109
34.73868629821621
1.81327408015975
1.726204128751262
3.061006587551389
19.55113815081287
105.8850758655312
126.7741791003625
140.6581863914568
148.5697596112624
114.3599998309347
128.8939480533434
142.1818602729359
149.2635576448721
119.6674776920644
130.6897805578947
142.6097325434103
149.2079040833177
134.5834628281511
134.0436786841935
144.9548752324974
150.3700575847547
153.3866606790141
158.2746966921516
167.8957609765226
178.14858227495
153.7599976953292
158.9648437323913
169.2802748333609
180.1469444462879
153.7252927138236
159.5126187747464
169.4893157914983
181.2954371024775
154.823517142301
161.1740101310502
170.9144527673344
183.7017545760199
190.5376841356161
201.7907861584135
209.3376431195502
218.1626380573358
192.3782210605935
203.9477918898385
212.1166722672067
219.3305584881679
193.4988976824245
205.0482323999837
213.647327119543
218.326379266913
195.236910657837
206.9711154262536
215.5722485659512
213.2096021073185
181.4274453985889
165.0702871464791
114.0347258856819
78.67355090897682
173.2945354982499
162.5390611663514
121.5213984663349
81.36332022438992
171.9957912219758
161.3137552464927
125.296159892716
83.494373134599
171.9728492422863
161.6591059040676
130.7121242097603
84.86354168701044
73.05116384793121
72.10774047942687
71.29236533102311
70.93008264940644
72.92904632164893
71.73555021163951
70.8509600816204
70.47276766717451
72.8067773300607
71.87253093357347
71.1342379593726
70.90451305458413
72.8465803389622
71.55370223931973
70.61809989302314
70.29692390855956
70.98548897836848
70.60492683564436
71.90504237958973
82.83050578179206
70.3817347493779
69.6570754923158
69.03043910429345
75.82087199162739
70.92989266639616
70.22944506685504
68.89584509356391
69.9973157503961
70.1984351552007
69.23782261188335
66.59797339715909
60.73660907665467
109.3401064049893
114.2518111054491
117.8559355262577
119.6767791872904
109.8050889936035
114.3867918312875
118.0398001538044
119.9428987056723
110.2398995699692
114.368988584856
118.2215707014936
120.2785851434809
108.5601454890387
114.5207680416853
118.1133079244105
120.4533651238233
122.3928566846781
123.6401072503707
119.5300803545041
106.8655461089243
123.2434526581146
125.0506498753091
123.6040330755222
115.1013112241875
123.3302551824444
125.4943114994172
123.6456111855241
119.0251553708573
123.7373391607116
126.3198109916883
126.2796684462893
127.9923857887324
54.09196911042161
71.27155356256618
77.56392444134221
79.75944451347586
50.81864366674378
69.8947025292143
76.93570972265525
79.66604115356255
48.222083570044
68.23888389893662
76.32178552773929
79.54990287063632
46.39901766363343
65.93402843642782
75.50440737183055
79.42096994727538
79.2609320918576
73.28917371706031
58.94015115464099
53.28214589459328
79.25271014298268
73.51429698375176
60.14528472606458
51.93652449056574
79.25460888917172
74.01486710142203
61.86259711388526
49.49658154128688
79.31312236186764
74.73204592307907
63.82101305475251
47.17457916324236
79.42096994711264
79.54990287053199
79.66604115346564
79.75944451322687
75.50440737158075
76.32178552762662
76.93570972233942
77.56392444118718
65.93402843647682
68.23888389892754
69.89470252935598
71.27155356273362
46.39901766361409
48.22208356998529
50.81864366674115
54.09196911046038
)
;

boundaryField
{
    back
    {
        type            empty;
    }
    inlet
    {
        type            zeroGradient;
    }
    front
    {
        type            empty;
    }
    top
    {
        type            zeroGradient;
    }
    outlet
    {
        type            fixedValue;
        value           uniform 80;
    }
    bottom
    {
        type            zeroGradient;
    }
    wall
    {
        type            zeroGradient;
    }
}


// ************************************************************************* //
