/*--------------------------------*- C++ -*----------------------------------*\
  =========                 |
  \\      /  F ield         | OpenFOAM: The Open Source CFD Toolbox
   \\    /   O peration     | Website:  https://openfoam.org
    \\  /    A nd           | Version:  11
     \\/     M anipulation  |
\*---------------------------------------------------------------------------*/
FoamFile
{
    format      ascii;
    class       surfaceScalarField;
    location    "0.3592354";
    object      phi;
}
// * * * * * * * * * * * * * * * * * * * * * * * * * * * * * * * * * * * * * //

dimensions      [0 3 -1 0 0 0 0];

internalField   nonuniform List<scalar> 
1652
(
1.706212168242977
0.5337381654478366
-1.763034163104749e-13
1.172474003768352
0.5337381584214522
9.350298313393068e-13
0.6387445851166996
0.5335571568621289
6.52145004664817e-13
0.529169519081115
-8.919975869048358e-12
0.1057111314522812
1.706212168247671
1.067476330876202
1.172474005829452
1.067476302840935
0.6387502467823684
1.067105513216146
1.053469950053508
0.1085008236856541
1.706212168244341
1.601214496297509
1.172474013702252
1.601214386897865
0.6388068708925191
1.600473909014923
1.575038102959001
0.1089061416354264
1.706212168319533
2.134952661525114
1.172474043756089
2.134952228744936
0.6388942751278007
2.133493294394188
2.097351271183294
0.1052259273932626
2.65119121481703
1.723711780177984
3.16742976378239
1.723711779125773
3.683668090061438
1.723711851207238
1.723712858917232
4.199906971691597
2.651189460812361
1.207473399359739
3.167421594005894
1.207473287048242
3.68364704879426
1.207475968288782
1.207511807650404
4.199820706499528
2.649581380482933
0.6899955004104006
3.166040575895781
0.6888415173679895
3.682702449079676
0.6872903551923583
0.6887247683466902
4.194525773090199
2.6508743735353
0.1168379525239414
3.273931857875609
0.04172465758683391
3.912954840110559
0.01811968910814132
4.554446115126424
0.01129149559153442
4.164891487072695
0.03501639661437561
4.129861134827372
0.03500481557349699
4.094845356392533
0.03485880950123521
0.03478328265040409
4.059708004022315
4.164989935044026
0.06971402281309924
4.130355906057047
0.06893657025956079
4.096344151248036
0.06750055123777798
0.06567964290717104
4.062546322933078
4.174765233252931
0.08242256643981311
4.160204097763733
0.07410501486715315
4.152940493156344
0.06155661240328564
0.05298193029568887
4.147974509940901
4.60305583018236
0.006229216930495718
4.647546982537765
0.005264149894236736
4.680683542142299
0.006631558164443496
4.712916680515259
0.00774120609554918
4.670365268127905
0.104417421045814
-0.06872496080006599
4.585724724299562
0.1015334674595247
-0.01838187557064613
4.503680791229271
0.09666903183502901
-0.008941763991023255
0.08785838707344157
4.431572981854134
-0.006796811105675649
4.220095983629158
0.01360735926398482
4.275162691284901
0.02651431045913566
4.314339516035925
0.03726902594886428
0.04540978079958424
4.338142223152259
4.068844718389401
0.001073222243331284
4.081319650952959
0.002963593774876205
4.09885457258184
0.005655597048360717
0.009950098926137518
4.118433112795238
4.059561403972824
4.05993464600674
4.061254171248784
4.064432362095838
4.069795786117803
-0.01554487123186088
4.077679408057785
-0.02162140454275341
4.08762328985662
-0.02801773326375179
-0.03210784308515013
4.096916649506104
4.138847160632021
-0.0536957897515567
4.158816994901835
-0.06003517589737267
4.176997057818389
-0.06321976230777671
-0.06156500143486443
4.190974332519353
4.347633447598438
-0.07864931630334199
4.345713628353217
-0.06822779376830373
4.333663798405293
-0.05402386444458462
-0.04809052239334305
4.319208438541677
4.365060244078925
-0.007518761505504734
4.316426173461517
-0.005960760364917883
4.273216943095864
-0.003535298689795463
4.244285670896314
-0.002871896853528566
0.04263133041237716
4.228676047334065
-0.01747888667756761
0.05775030219300986
4.30873082323261
0.03447574064078374
4.199831675538741
4.101808077599856
0.04041890815123789
4.249426518837465
-0.1456616060742542
0.04760705802423959
4.301616065741056
0.03368321351249393
4.206143837831263
4.102831785783303
0.07818068423556762
3.985011835088856
-0.1400067183094127
0.04627104426672635
4.308885770132192
0.0281004720037128
4.21143364099033
4.09803313813965
0.1746593116401799
3.682280999106035
-0.04233695131409843
0.06565756554447755
4.316411579694379
0.02803742547307309
4.226444515825566
4.100476396825545
0.07033252320078454
3.979812906293698
0.1235573144705824
4.132433520128103
0.08028029035384354
4.217519976963144
3.56089784741693
0.1473568873638964
0.06627806928703517
3.876832210754506
0.0892550723068668
4.042790343324509
0.008556478055024352
4.094879099599119
3.434671988531182
0.1118000198011476
0.05279902815160087
3.784937557307617
0.01845540497890197
3.955717280677057
-0.07013622603200076
3.934672427691015
3.332940997169532
0.05847367665788161
0.02149141430247636
3.705441668260508
-0.08848979173493265
3.86147177362067
-0.1185517446165737
3.745432220382743
3.239259174914109
0.02716033427431641
0.1401545102700851
3.155193517931409
0.002273191500727911
0.1880834765212114
3.584088698433042
0.03402438861664892
3.734482485611809
3.642163964611855
0.1485183707413663
3.077804211930286
-0.006619719792935408
0.2559934536030036
3.47252544179938
0.102882002503356
3.58491610881942
3.592146748762929
0.1404625435344726
2.995521052406969
0.002474772317387242
0.2945969861282198
3.346349872921171
0.1909880488208093
3.450090008468905
3.557356198141279
0.1099868526772959
2.890870063576265
0.01568642783387397
0.2666319705086656
3.221599222493842
0.251094367584625
3.304260086512746
3.515468400087999
-0.2198607996911435
3.464401752672446
-0.1874178668141183
3.2300117947286
-0.04683176050311655
3.10724338299046
2.789608794074738
0.04415748133162689
-0.1620751154951443
3.4024295896854
-0.1271064791120543
3.139807197099493
0.001551707581849082
3.004998134337213
2.707305730812275
0.06647358888364252
-0.1025101754907531
3.328921171675963
-0.05274371623275542
3.057280008599839
0.06928486862237127
2.911616297745643
2.641311285853996
0.1219617200644434
-0.03597206270348563
3.224299685522654
0.03387139084273294
2.96705162357713
0.1556893597134314
2.81984312466184
2.569307948257679
0.2296407115083268
-0.3468349063575878
3.454808584736481
-0.5764961921349684
3.18579144044284
-0.7153241993127835
3.000045435963924
2.633114396284014
-0.7690706904139913
-0.3002097897805751
3.659645996290358
-0.5257818711664205
3.407274610732268
-0.628698406625215
3.176613033172125
2.281263797332009
-0.2632237462495686
-0.2736593159038512
3.844639298980409
-0.4821409879529471
3.621427390856812
-0.5140377595594567
3.331028040634603
1.803003829307847
-0.02966585033270794
-0.2402618916853276
4.011163158750868
-0.4394781425038499
3.827810879450799
-0.363066717652093
3.438909768893031
1.417740532139593
-0.01228135630784837
0.1576836320231404
1.459292450036911
-0.0104779623172512
0.2075845794582113
3.529874746468466
0.104212177700063
3.93819177587576
4.062971459952227
0.1656298014588101
1.439680937428871
-0.007978784597109023
0.1877445381753413
3.625680359404012
0.09472399720760294
4.050907781457344
4.108044083510345
0.1503823400885825
1.34331815909437
-0.003393823552499592
0.1686300336815309
3.723216974212919
0.08924809934825972
4.160211342336986
4.149919255663485
0.1199112404987333
1.254280508497148
0.002203022720426009
0.1500459062323519
3.816534262912005
0.08903453161902808
4.257713657875112
4.196620927652585
-0.2359537982831394
1.570206501830203
-0.01567242847135583
-0.1845872025449744
3.985442853825224
-0.04698139576010663
4.197993838869046
4.097715667858155
-0.2649901665430125
1.927856811071492
0.005974428407906074
-0.1781042192965931
4.069002629876819
-0.03211374616884166
4.113301221963036
4.060050572348999
-0.2623651404405141
2.245165154552739
0.03358789469733051
-0.1344442308264002
4.102205610064264
-0.02063043218281702
4.06747455004589
4.056535924836752
-0.2321302523372555
0.08786645166160155
2.498263314588225
-0.1113828020930839
4.099522476142024
-0.01648741061724635
4.039832048092142
4.056691433104739
0.3370439574468495
-0.4386206308854756
-0.01287177532963628
5.608846720406291e-12
0.8928706287102951
-0.4130629040431661
-3.26405569239796e-13
1.633811965292474
-0.4646883582893824
7.509548538564559e-13
-0.5171014592646705
-1.277866701343555e-11
0.3341162861067755
-0.8918427491926733
-0.01277421314482303
0.9068230200566509
-0.8655118145451448
1.634737652758718
-0.9425094554842617
-1.035759662360983
0.3307524520184961
-1.351364839523602
-0.01558057182415276
0.9266041637399368
-1.343375569756243
1.638844638234547
-1.451593759882914
-1.556744114473106
0.3240822241582992
-0.01607264528648554
-1.703816919129986
0.9567825946508863
-1.851423833420559
1.64752791348287
-1.983871163525114
-2.082286014468764
-0.2321302523370403
-2.245165154554474
0.08786645166152265
2.498263314585362
-0.1113828020905852
-4.102205610068115
4.099522476141033
-0.0164874106131554
-4.067474550044631
4.039832048089719
-4.056535924836036
4.056691433100418
-0.2623651404396364
-1.927856811075155
0.03358789469771233
-0.1344442308280276
-4.06900262988588
-0.02063043218509431
-4.113301221965996
-4.060050572353114
-0.2649901665442732
-1.5702065018361
0.00597442840813521
-0.1781042193005561
-3.985442853832147
-0.03211374617348128
-4.197993838870562
-4.097715667859644
-0.2359537982835179
-1.25428050849965
-0.01567242847117357
-0.1845872025496422
-3.816534262923027
-0.04698139576418625
-4.2577136578746
-4.196620927644906
-0.104212177695012
4.062971459970299
-4.011163158775569
-0.2075845794464989
3.938191775897761
-3.827810879481055
-0.1576836320166931
3.52987474644546
-3.438909768863252
1.459292450008623
-1.41774053211738
-0.01047796231747882
-0.09472399720165781
4.108044083514338
-0.1877445381614613
4.050907781473353
-0.1656298014537426
3.625680359391525
1.439680937418649
-0.007978784597220193
-0.08924809934258038
4.149919255657601
-0.1686300336645472
4.160211342344498
-0.150382340083374
3.723216974210444
1.343318159091657
-0.003393823552261036
-0.08903453161219194
-0.150045906216067
-0.1199112404937512
0.00220302272037972
0.3630667176558779
-1.803003829294667
-0.01228135630784957
0.4394781425190604
-3.331028040620788
0.2402618917002182
-3.621427390883798
-3.844639299000475
0.51403775956355
-2.281263797319813
-0.0296658503319584
0.4821409879678722
-3.176613033167498
0.2736593159148995
-3.407274610753813
-3.659645996304935
0.6286984066324828
-2.633114396279636
-0.2632237462484273
0.5257818711812391
-3.000045435961801
0.3002097897907215
-3.185791440455072
-3.454808584742407
0.7153241993197644
-2.569307948257787
-0.7690706904158459
0.5764961921469094
-2.819843124663051
0.3468349063617145
-2.967051623582972
-3.224299685522085
-0.2198607996913775
3.464401752683539
-3.515468400103631
-0.1874178668070003
3.23001179474397
-3.304260086535661
-0.04683176049837245
3.107243382979054
-3.221599222476947
2.789608794064161
-2.890870063564638
0.04415748133039521
-0.1620751154880148
3.402429589692478
-0.1271064791038592
3.139807197108107
0.001551707587322926
3.004998134328467
2.707305730805551
0.06647358888486454
-0.1025101754883405
3.328921171678469
-0.05274371622470031
3.057280008606308
0.069284868626452
2.911616297740354
2.641311285850545
0.1219617200646923
-0.0359720626994231
0.03387139085183022
0.1556893597167679
0.2296407115085723
0.1099868526801212
-2.995521052396411
0.01568642783417007
0.2666319705153656
-3.346349872911021
0.251094367587148
-3.450090008483353
-3.557356198153202
0.1404625435374102
-3.077804211925078
0.002474772317280105
0.2945969861356915
-3.472525441795799
0.1909880488250312
-3.584916108827135
-3.592146748770264
0.1485183707446067
-3.1551935179248
-0.006619719794212719
0.2559934536097302
-3.584088698435676
0.102882002503385
-3.734482485615211
-3.642163964614011
0.140154510271721
-3.239259174913392
0.0022731914997286
0.1880834765296193
-3.745432220386056
0.03402438862030832
-3.861471773621381
-3.705441668258337
0.07033252320199623
3.979812906294498
-4.100476396823785
0.1235573144718562
4.132433520129291
-4.226444515823641
0.08028029035478057
4.217519976966642
-4.316411579696561
3.560897847422364
-3.682280999108386
0.1473568873634213
0.06627806928903646
3.876832210755801
0.08925507230797847
4.042790343326676
0.008556478056684913
4.094879099602085
3.434671988529118
0.1118000197994038
0.05279902815347715
3.784937557309374
0.0184554049840332
3.955717280681239
-0.07013622603183578
3.934672427699098
3.332940997171692
0.0584736766582783
0.02149141430538315
-0.08848979173212268
-0.1185517446146346
0.02716033427439379
-4.09803313813911
-0.02803742547226296
-4.102831785785191
-0.02810047200267074
-4.101808077601326
-0.03368321351113857
-0.03447574064127812
-4.096916649507124
-4.211433640991479
-0.06565756554691415
-4.206143837829875
-0.04627104426756662
-4.199831675532951
-0.04760705802413984
-0.05775030219245758
-4.190974332514604
-4.30888577013503
-0.1746593116387725
-4.301616065742
-0.07818068423401242
-4.308730823231804
-0.04041890815207244
-0.04263133041217115
-4.319208438542869
-3.985011835095038
-0.04233695131426335
-4.249426518838463
-0.1400067183102099
-4.228676047332983
-0.1456616060722437
-4.244285670897121
-0.0174788866774076
-0.03210784308332737
-4.087623289855951
-0.06156500143415566
-4.176997057813357
-0.04809052239235445
-4.33366379840923
-4.273216943097028
-0.002871896852995909
-0.02801773326490054
-4.077679408057691
-0.06321976230607518
-4.158816994896472
-0.05402386444272644
-4.345713628359507
-4.316426173459923
-0.003535298687902505
-0.02162140454150618
-4.069795786119307
-0.06003517589678387
-4.138847160625514
-0.06822779376746024
-4.347633447606758
-4.365060244077951
-0.005960760364603523
-0.01554487122899195
-4.064432362100999
-0.05369578975252715
-4.118433112787795
-0.07864931630286376
-4.338142223161245
-4.4315729818552
-0.007518761504820337
-0.001073222245230432
4.059561403971744
-4.059708004018323
-0.01360735926604939
4.068844718373037
-4.062546322912304
-0.1044174210496769
4.220095983643684
-4.147974509957562
4.670365268137478
-4.71291668052602
-0.06872496079939633
-0.002963593779985119
4.059934646006483
-0.02651431046413982
4.081319650938959
-0.1015334674628816
4.275162691299305
4.58572472430685
-0.01838187557116019
-0.00565559704995644
4.061254171251035
-0.03726902595602016
4.098854572569954
-0.09666903183928832
4.314339516047824
4.503680791233674
-0.008941763992387719
-0.00995009892961296
-0.04540978080458741
-0.08785838707611554
-0.006796811105372863
-0.05298193030039139
-4.680683542150708
0.007741206095349562
-0.06567964291944678
-4.152940493163641
-0.03478328265568553
-4.096344151239867
-4.094845356392104
-0.06155661240842403
-4.647546982542717
0.006631558164275464
-0.06750055125088422
-4.160204097762535
-0.03485880950440279
-4.130355906061111
-4.129861134832784
-0.0741050148736741
-4.603055830179792
0.005264149894154413
-0.06893657027137617
-4.174765233244617
-0.03500481557405999
-4.164989935061827
-4.164891487075234
-0.08242256644434981
-4.554446115112979
0.006229216931360637
-0.06971402282567768
-4.194525773074366
-0.035016396617913
-4.19982070652703
-4.199906971696375
-0.6887247683447918
-3.912954840079867
0.01129149559268766
-1.207511807642712
-3.682702449068771
-1.723712858922649
-3.683647048809901
-3.683668090061933
-0.6872903551903323
-3.27393185784297
0.01811968910975131
-1.207475968281378
-3.166040575891533
-1.723711851208788
-3.167421594018855
-3.167429763786054
-0.688841517367588
-2.650874373506976
0.04172465758443017
-1.207473287044296
-2.649581380482418
-1.723711779126108
-2.651189460820714
-2.651191214823136
-0.6899955004103909
-2.097351271171365
0.1168379525165292
-1.207473399359575
-2.133493294398901
-1.723711780188848
-2.134952228746132
-2.134952661529119
1.706212168246033
0.5337381654428743
1.172474003772968
0.5337381584281033
0.6387445851199187
0.53355715686626
0.5291695190661139
0.105711131455916
1.706212168248594
1.067476330870286
1.172474005829697
1.06747630284027
0.6387502467828
1.067105513219019
1.053469950045848
0.1085008236879022
1.706212168246497
1.601214496294722
1.172474013702137
1.601214386895609
0.6388068708917979
1.600473909018292
1.575038102957148
0.1089061416344282
1.706212168319974
1.172474043753697
0.6388942751248914
0.1052259273907784
0.1054762294599134
0.1054762294640551
0.1054653858719939
0.1079721185347533
0.1059225072147846
0.1078287818452443
0.1026793303239247
0.1077871334904185
0.1079721185322182
0.1054653858763225
0.1076782081321896
0.1076782081346066
0.1081688360103662
0.1066957006145796
0.0990395336085278
0.1111325144479345
0.1078287818462128
0.1059225072182296
0.1066957006152379
0.1081688360129534
0.1063680746837352
0.1063680746840656
0.0958978113053426
0.1089243941400501
0.1026793303277541
0.1077871334922197
0.0990395336118073
0.1111325144499688
0.09589781130960839
0.1089243941397436
0.0956781902961274
0.09567819030112377
-0.03916483845455393
0.1340425065846154
-0.06253206626658658
0.1313125831553324
-0.08851467776667438
0.1359908750612314
0.1348760681601646
-0.005682182606617181
0.1388609712385143
-0.01617535078443927
0.1408669471705564
-0.02705990029308158
0.1458977692846368
0.1484336285621268
-0.0009897601891309393
0.1391852505620113
-0.007344070886055432
0.1464985379032329
-0.01313445092921312
0.1509051948686495
0.1525076926438337
-0.001218712556860846
0.1398031914028198
-0.006135057582710879
0.1507758305855939
-0.009219361665128989
0.1533082483965735
0.153821569981788
0.1533031484190814
0.006169578742475312
0.1533721228743488
0.004948547432042649
0.1526201254303825
0.007183182385003262
0.00666956123394391
0.1537745126106906
0.1535206952203631
0.00539147635389331
0.1538379878511429
0.004325676099303843
0.153916171670584
0.006914470182244836
0.003199575275389555
0.1574316534078917
0.1528814297708905
0.002725279053743146
0.1538629525811104
0.00303349471291986
0.1547047924202697
0.005885395422943973
-0.009752645559748419
0.167684042036183
0.1419776706766396
0.1446515754397147
0.1502910820862073
0.1404652928328339
0.1402989363076064
-0.05510088532203805
0.1310928267787307
-0.008870374180442175
0.1296688269535965
-0.006961198525920892
-0.006209411868748432
0.1296551484127305
0.1446496453921963
-0.04222970370909407
0.1388103125447781
-0.00273982765008679
0.1356410443434901
-0.003209402276583784
-0.00392513520097823
0.1339573240311456
0.1511964836750855
-0.02570024960104814
0.1456023292018839
0.003129672138359768
0.1416373205127366
0.001326776716130296
8.870065986021913e-05
0.1382176161530723
0.1147562788084739
0.1181759463093777
0.1201040922721169
0.1208094204757681
0.1299201410684572
-0.006882555084798209
0.1308442252803838
-0.005824236786496406
0.1320144651335717
-0.003767148117596347
-0.003038516761331267
0.1331208186033391
0.1327150132403881
-0.004747783409349393
0.1322449167349898
-0.004284434469288168
0.1322701443397927
-0.002830389104836656
-0.00252821565847125
0.1326951639788367
0.1355128981128375
-0.001149130939294446
0.1336079098166967
-0.001296575231315794
0.1325487773579024
-0.0007878657550212942
-0.0011155244386373
0.1321949114728364
0.1205604784850262
0.1203303433631278
0.1204691754794356
0.120365285639652
0.1377886141027361
-0.02482750606716314
0.1348831239108242
-0.1504987225374447
0.1107603646906984
-0.1229676562956511
-0.01104236331813041
0.08051184526357796
0.1322030240211463
-0.02831518282475029
0.1023260712455783
-0.1270264130173658
0.0561088132204768
-0.08144882888273958
-0.002616827255352061
0.04679708939654689
0.1239358687215573
-0.02441085203744567
0.05391401204556068
-0.06299646492131189
0.002564861925901024
-0.03524115576091208
-0.006634973038500525
0.004849514425552509
0.09095721031846596
0.02205399224649451
-0.01732363762108044
-0.02687790121996515
0.104743192077672
0.1254183076877075
0.1177022517784814
0.1030276340638605
0.1245920063959388
0.05756196330662933
0.0267533649126076
0.1298441406861382
0.08613685398224966
0.08814345227091946
0.1121677900111687
0.08104253968845732
0.1233711014177032
0.05040409768050824
0.02496173886183595
0.1295954556694318
0.05318318217281551
0.04164892061489645
0.0976455515697715
0.04052021837094877
0.1175439642019179
0.03378409246661807
0.02014541183987073
0.1261443692809261
0.01606366934651768
0.06047055860512475
0.09669654941899303
0.1200202585046958
0.1350667738890456
0.003068520551041232
0.1400250729860595
-0.006417431296474319
0.1434898355414948
0.001381299164869954
0.0111215019370261
0.1477709401324017
0.13477645770404
0.005054905723023806
0.1395688619925736
-0.00260372026639788
0.1424688943590643
0.00175457276887625
0.006794916825458741
0.1464998170009867
0.131989904689673
0.006205304185811999
0.137697368907727
0.0001345139671101725
0.1417127290919612
0.001461366661126506
0.003119669905770617
0.1452932789948721
0.1330968360613033
0.1388413993620764
0.1429868392305972
0.1462795941559976
0.1586638109179591
0.03178749933973157
0.1726590934534037
0.05121745285403445
0.1922476092373188
0.1023174863200574
0.1805136905243869
0.2412400013798391
0.1566728327542732
0.01993614793267307
0.1704611525002931
0.0361092128378061
0.1914989201517983
0.08113537668266746
0.1229081503206235
0.2492074057167816
0.1538903047722469
0.009770534277266152
0.1672302361245224
0.02141992344459887
0.1942631514330054
0.05345214731130077
0.03428855491998395
0.2830991278682544
0.1546647490602994
0.1746624682934224
0.2273711684608128
0.2615308723797928
0.1220014767210904
-0.6494854247036317
0.01214931489340405
-0.1526510426419681
-0.002597197572157059
-0.01384708764291083
-0.009765825971227989
-0.00386083779149307
0.08463899604500112
-0.4845210635884246
0.001807016464337534
-0.06912187859763025
-0.004315358292583105
-0.006799097593219964
-0.006316678371943321
-0.006748347088504089
0.04503313773813158
-0.2463298131663706
-0.002596061572609151
-0.02080260247252739
-0.005881524070091986
-0.002576921218524781
-0.003320609828421961
-0.00804583939003407
0.01517958616228277
-0.004926166837360419
-0.00665954833914506
-0.009082524605060337
-0.005367110160022589
-0.00789959573031928
-0.006842759888811079
-0.005047231232172981
-0.008519365820961137
-0.0008104292994418408
0.003538207343257917
-0.009128782106177489
-0.008192640293267344
-0.00561132367454289
-0.009147320632238182
-0.002763069619734628
-0.009653922647284782
0.0007067358663377411
0.003168545449505927
-0.008476709102743552
-0.009688857981193552
-0.002882223984422913
-0.009469083948801018
-0.001545587976172245
-0.008702839942050074
0.0009291353338827107
0.002634953846235862
-0.00732881469728049
-0.01079242114731478
-0.01094992741767243
-0.009120747183511899
-0.005723258719341373
-0.008421156012851408
-0.01576911756504754
0.001943382494878663
-0.002849183080153486
0.02247403453301256
0.01462081551020371
0.07047443344559094
0.0424369885808512
-0.009508954579598959
-0.01396195843759688
-0.00705352563359575
-0.003681582103478756
0.008909335249057161
4.10406396157692e-05
0.04770617728777234
0.03388620137243967
-0.01176748103867667
-0.008575037035401453
-0.01145433335212766
-0.002555738790116314
-0.003607077778934077
-0.006445948408839067
0.02557384612846206
0.02032713776032032
-0.01309190981691504
-0.01388648692713264
-0.01901282349692274
0.008976490972941578
0.04129087165108885
-0.006356938895780102
0.01063502992914065
0.0399997076454509
-0.007445561049699977
0.01126615390237029
0.03677261036351445
-0.01237335235885343
0.01704063679676341
-0.01696928569999443
0.02818017445059021
0.02546642089406376
0.03266488322694376
-0.003784007376542949
0.03078366679087158
-0.004784309774468982
0.02748599028280379
-0.008732383215721014
-0.01083093303716588
0.02110019756175553
0.01849794869788618
-0.001709305593123413
0.01641366308081955
-0.002220853936120336
0.01257229326812346
-0.004437156360469052
-0.005015234755258322
0.006838000681067789
0.006533601341933461
0.004582958184627499
0.0002902031240616387
-0.004408850633600241
-0.006411207543497693
0.002584422003672596
-0.00605632093993197
0.0007784047657903199
-0.003634297180256131
-0.0008802669375520683
-0.001874253750516808
-6.22973894692791e-14
0.003495968541093887
0.006009789782469754
0.001028017717845726
0.003639568274962708
-4.023436016052651e-05
0.0009232798374974142
-0.0009164556449442821
-2.629146900190449e-14
0.01669148996666612
0.01018033957318378
0.01132047215630931
0.008928277414232317
0.005680877970764081
0.006652729949693001
0.005073076395528123
1.693090112553364e-14
0.02174030363277538
0.01431353156827977
0.007707608018764675
5.648953527170875e-14
-0.00187425375050836
0.00363429718012253
-0.0009164556449591903
4.023436006951597e-05
0.005073076395564247
-0.005680877970697537
-0.007707608018633495
0.01287177532959457
-0.0008802669375401161
0.006056320939931491
0.0009232798374942917
-0.001028017717906095
0.006652729949748474
-0.01132047215636513
-0.01431353156828557
0.01277421314491796
0.0007784047657513372
0.00641120754332257
0.003639568274961993
-0.003495968541051171
0.008928277414286305
-0.01669148996667484
-0.02174030363279623
0.01558057182421276
0.002584422003742575
0.004408850633665216
0.00600978978246931
-0.006838000681135853
0.01018033957319575
-0.02110019756178054
-0.02818017445072614
0.01607264528648352
-0.03677261036343654
-0.01696928569988899
0.02546642089416943
-0.03999970764546992
-0.01237335235889386
0.01704063679674048
-0.04129087165106696
-0.007445561049730653
0.01126615390242446
-0.006356938895849672
-0.04243698858087763
0.01063502992923818
-0.02748599028282606
-0.01083093303718927
-0.03078366679086793
-0.008732383215764153
-0.03266488322694567
-0.004784309774513454
-0.003784007376608743
-0.03388620137254062
-0.01257229326815668
-0.005015234755242667
-0.01641366308082426
-0.00443715636044471
-0.01849794869794841
-0.002220853936135848
-0.001709305593143744
-0.02032713776039981
-0.0002902031241128131
-0.004582958184662651
-0.006533601342018344
-0.008976490973049242
0.01901282349682388
-0.02557384612850112
0.0138864869271084
0.006445948408977858
0.0130919098169026
0.002555738790058437
0.008575037035269739
0.005723258719368072
0.003607077778855827
-0.04770617728782973
0.01145433335206587
-4.10406398463764e-05
0.01176748103859376
0.003681582103384935
0.0139619584376292
0.007328814697284976
-0.008909335249218921
-0.07047443344562432
0.00705352563350068
-0.01462081551044198
0.009508954579505725
0.002849183080122664
0.01576911756478588
0.008476709102724642
-0.02247403453316279
-0.001943382494984981
0.008421156012710922
0.009128782106164267
0.008519365820971302
0.003538207343264075
0.006842759888887484
-0.0008104292994058071
0.005367110160074766
-0.005047231232307641
-0.007899595730366263
0.003860837791449155
0.009653922647281165
0.00316854544949835
0.009147320632275857
0.0007067358663459221
0.008192640293278751
-0.002763069619825191
-0.00561132367459153
0.006748347088509797
0.008702839942039048
0.002634953846248948
0.009469083948825476
0.000929135333940706
0.009688857981200939
-0.001545587976211495
-0.002882223984451831
0.008045839390033211
0.009120747183556103
0.01094992741771461
0.01079242114733928
0.009082524605061374
0.002597197572129767
-0.009765825971139511
-0.01214931489290187
-0.01384708764265877
-0.1220014767201131
-0.1526510426412846
-0.6494854247042401
-0.2412400013796446
0.004315358292625854
-0.006316678371867303
-0.001807016464157719
-0.006799097593119494
-0.08463899604434853
-0.06912187859737318
-0.4845210635884086
-0.2492074057162534
0.005881524070121
-0.003320609828412524
0.002596061572686303
-0.002576921218479375
-0.04503313773784542
-0.02080260247247132
-0.2463298131663197
-0.283099127867951
0.006659548339150797
0.004926166837391723
-0.01517958616221392
-0.2615308723799019
-0.1922476092373286
0.1805136905250068
-0.1726590934533715
0.1023174863205897
-0.1586638109179491
0.05121745285494872
0.03178749934030056
-0.1477709401324863
-0.1914989201517285
0.1229081503205947
-0.170461152500234
0.08113537668331755
-0.1566728327541373
0.03610921283857804
0.01993614793218168
-0.1464998170010351
-0.1942631514327528
0.03428855491974941
-0.1672302361244196
0.05345214731138342
-0.1538903047720802
0.0214199234452862
0.009770534277812604
-0.1452932789949712
-0.2273711684604826
-0.174662468293562
-0.1546647490601352
-0.1462795941560373
-0.1434898355414966
0.01112150193706241
-0.1400250729859173
0.001381299164580185
-0.1350667738885459
-0.006417431295922649
0.003068520550949971
-0.1298441406860297
-0.142468894359127
0.006794916824342301
-0.1395688619921507
0.001754572771125229
-0.1347764577037298
-0.002603720265797027
0.005054905723520409
-0.1295954556692967
-0.1417127290918114
0.003119669906684108
-0.1376973689073446
0.001461366660896801
-0.1319899046892611
0.0001345139669901574
0.006205304185087135
-0.1261443692809039
-0.1429868392305799
-0.1388413993619452
-0.1330968360611661
-0.1200202585044293
-0.1245920063960123
0.02675336491251978
-0.1177022517785335
0.05756196330632768
-0.1047431920777984
0.1030276340632387
0.1254183076879617
-0.08051184526381203
-0.1233711014178002
0.02496173886194009
-0.112167790011177
0.05040409767950549
-0.08613685398253572
0.08104253968704866
0.08814345227172782
-0.04679708939671795
-0.1175439642018693
0.02014541183980112
-0.09764555156988473
0.03378409246613945
-0.05318318217301067
0.04052021837145026
0.04164892061405112
-0.004849514425886742
-0.09669654941861747
-0.06047055860480882
-0.0160636693467352
0.02687790122027141
-0.1107603646911643
-0.01104236331815278
-0.1348831239112796
-0.1229676562962982
-0.1377886141029321
-0.1504987225363851
-0.02482750606682277
-0.133120818603615
-0.0561088132208287
-0.002616827255910892
-0.1023260712462291
-0.08144882888315474
-0.1322030240214099
-0.1270264130169118
-0.0283151828244633
-0.1326951639790368
-0.002564861926115769
-0.006634973038351255
-0.05391401204616936
-0.03524115576095294
-0.1239358687218332
-0.06299646492123345
-0.02441085203728754
-0.1321949114729768
0.0173236376210386
-0.02205399224660376
-0.09095721031859658
-0.1203652856396173
-0.1320144651336472
-0.003038516760659471
-0.1308442252801993
-0.003767148117242658
-0.1299201410684568
-0.005824236786670933
-0.006882555085033909
-0.1296551484125708
-0.132270144339845
-0.002528215657943395
-0.1322449167348433
-0.002830389104366421
-0.1327150132402906
-0.004284434469546045
-0.004747783409280143
-0.1339573240311241
-0.1325487773577811
-0.001115524438404875