/*--------------------------------*- C++ -*----------------------------------*\
  =========                 |
  \\      /  F ield         | OpenFOAM: The Open Source CFD Toolbox
   \\    /   O peration     | Website:  https://openfoam.org
    \\  /    A nd           | Version:  11
     \\/     M anipulation  |
\*---------------------------------------------------------------------------*/
FoamFile
{
    format      ascii;
    class       volScalarField;
    location    "0.3";
    object      p;
}
// * * * * * * * * * * * * * * * * * * * * * * * * * * * * * * * * * * * * * //

dimensions      [0 2 -2 0 0 0 0];

internalField   nonuniform List<scalar> 
4455
(
3559.8591
3569.9344
3589.5194
3621.5382
3664.2602
3722.0366
3791.7311
3899.9796
3965.9823
3554.7674
3565.4848
3586.8858
3620.1181
3666.4481
3727.253
3807.6289
3919.4862
4037.4324
3544.4978
3556.9874
3580.5273
3616.0413
3664.6743
3728.928
3813.3611
3935.3028
4062.9963
3529.4623
3544.7026
3570.7702
3608.863
3659.2627
3727.422
3816.3822
3949.2066
4092.996
3510.6133
3528.9975
3557.894
3598.4893
3650.7999
3722.3557
3818.002
3962.5077
4134.9908
3488.7884
3510.4139
3542.2698
3585.1425
3639.5204
3714.4225
3816.9071
3975.8095
4175.2058
3464.873
3489.6397
3524.3095
3568.9066
3625.0491
3703.4534
3812.6049
3988.2807
4216.674
3439.8217
3467.2118
3504.2122
3550.3437
3608.104
3689.7545
3804.5542
3998.8008
4258.774
3414.3585
3443.7811
3482.5638
3530.0816
3589.1051
3673.8817
3793.8536
4006.8429
4303.7292
3389.1526
3364.9201
3342.3915
3322.0095
3304.0754
3288.8405
3276.5585
3267.4187
3261.6619
3419.7898
3395.6924
3372.3263
3349.9973
3329.0452
3309.9745
3293.1703
3278.9853
3267.361
3459.571
3435.4341
3411.0463
3386.7434
3362.9904
3340.1604
3318.3902
3297.6172
3277.666
3507.7741
3483.2376
3457.6182
3431.3067
3404.7877
3378.3941
3352.4313
3327.1942
3302.4555
3567.6524
3543.0399
3516.9019
3489.6464
3461.4003
3432.4582
3403.2811
3374.4947
3345.5018
3655.4831
3633.0283
3608.2104
3581.3267
3552.1447
3521.2248
3489.0891
3456.8589
3424.5575
3781.0363
3764.3061
3745.3409
3723.0829
3695.0961
3661.8699
3624.3137
3584.6364
3543.7822
4014.9784
4012.2589
3997.824
3972.3622
3937.2112
3895.5976
3850.1398
3801.8122
3750.3433
4364.3355
4405.2425
4397.1363
4340.3083
4256.0297
4157.9731
4053.6097
3946.7876
3839.3649
3260.3073
3258.4069
3254.5542
3249.4369
3242.6784
3234.9058
3225.2322
3214.3742
3201.2034
3260.6199
3253.9047
3245.4321
3235.2222
3222.8963
3209.2692
3193.9965
3176.4068
3156.4749
3263.6584
3253.3102
3242.2571
3229.6785
3216.8207
3202.3424
3185.8407
3168.2909
3149.1858
3283.9779
3271.1228
3259.2278
3246.8084
3233.1156
3217.831
3200.6638
3181.6367
3160.7633
3322.2097
3307.3413
3294.5689
3282.0509
3268.4752
3252.9491
3234.8786
3214.1734
3191.4389
3397.9099
3381.0162
3366.8004
3352.451
3336.2653
3317.7357
3296.6993
3273.2993
3248.0641
3510.0956
3488.9664
3471.7516
3454.0135
3433.3224
3409.6852
3383.4995
3354.6214
3324.3161
3701.0578
3655.7418
3609.1648
3561.2278
3511.4102
3460.0527
3408.4516
3357.717
3309.6116
3744.8733
3660.9024
3576.904
3494.4501
3414.2549
3336.5336
3262.3798
3192.8765
3132.933
3095.8791
3063.0596
3048.4152
3063.9842
3109.079
3177.7377
3258.5515
3346.0129
3437.0839
3269.0901
3234.3346
3204.6708
3182.0325
3166.8806
3159.4005
3160.9967
3171.6657
3189.335
3295.3167
3268.047
3241.475
3216.455
3193.859
3174.2633
3157.7482
3144.2615
3133.8588
3221.9605
3196.156
3170.1182
3143.8014
3117.351
3091.1182
3065.1453
3039.5165
3014.3696
3167.7019
3143.2248
3117.2596
3089.9222
3061.5468
3032.5207
3002.8992
2972.6123
2941.3664
3138.1663
3113.8721
3087.521
3059.3572
3029.631
2998.3656
2965.3154
2930.1918
2892.8948
3127.8108
3104.6734
3080.6316
3054.5787
3026.1795
2996.1047
2963.9934
2929.0947
2891.5791
3134.9307
3111.4722
3085.7366
3057.9086
3028.3617
2996.6122
2962.2822
2925.1743
2885.4834
3183.9817
3163.5016
3141.8744
3118.8013
3094.297
3067.5546
3038.2959
3005.7236
2970.408
2931.3036
2888.683
2842.5471
2791.8788
2737.6135
2678.6147
2615.1795
2546.9616
2471.785
2843.0157
2797.3231
2747.7992
2694.8487
2638.2901
2578.2273
2514.2514
2445.6598
2371.9923
2851.7367
2809.1852
2763.7444
2715.2467
2663.6996
2608.9154
2550.3255
2488.0323
2421.7074
2853.6402
2812.3422
2768.9887
2723.3969
2675.4589
2624.8053
2571.4716
2515.0101
2455.1184
2909.0202
2875.4585
2840.8554
2805.0863
2768.1281
2729.6368
2689.7192
2647.6376
2603.0329
2989.7076
2965.3298
2941.3429
2917.7684
2894.8242
2871.875
2848.7431
2824.5633
2798.9949
3127.0959
3123.6575
3123.1181
3124.7298
3128.4298
3133.6343
3140.0302
3146.5758
3152.9775
3213.6235
3243.7351
3279.2113
3319.4064
3364.0128
3412.2524
3463.653
3517.3014
3572.5327
3530.8213
3626.6672
3724.691
3824.4381
3926.5946
4031.0245
4138.45
4248.3779
4361.3872
4476.9273
3628.4306
3157.9517
2770.8691
2554.9449
2390.9433
2350.1491
2293.8061
2392.2003
4594.4312
3683.9535
3161.0961
2739.9128
2503.2203
2322.319
2273.1078
2209.5251
2305.1037
4713.0003
3737.6146
3161.1999
2704.7023
2446.8415
2248.3712
2191.0731
2119.4771
2210.5935
4832.0424
3787.8669
3157.1942
2664.7281
2385.5573
2168.6883
2103.1175
2022.9386
2110.1543
4948.3296
3832.5748
3147.5633
2618.1945
2317.9918
2082.4725
2007.9964
1919.7012
1999.603
5059.7207
3869.6826
3130.8173
2564.3142
2243.6561
1987.9276
1905.8983
1808.9302
1881.2937
5156.849
3896.0926
3104.8321
2501.4516
2161.6022
1886.2463
1796.6673
1690.3744
1755.7665
5236.0766
3908.7741
3067.4534
2428.4531
2071.1636
1777.0302
1680.1539
1563.4181
1618.7965
5273.6017
3900.4219
3014.7333
2343.5914
1970.5976
1657.9474
1553.239
1427.9154
1474.9837
1328.2853
1285.492
1411.7952
1526.97
1853.9074
2241.4339
2938.6607
3859.1072
5259.178
1178.1344
1132.3132
1258.0013
1382.3759
1715.365
2113.2375
2817.9661
3741.1012
5031.3102
1005.0529
965.38768
1090.5398
1224.6108
1554.7284
1957.1139
2655.2765
3559.0047
4757.5379
809.37387
788.1352
908.09182
1052.1299
1376.6056
1779.7768
2464.4628
3350.1012
4502.1706
596.38618
599.12365
713.60924
864.42882
1181.4298
1584.77
2256.4329
3130.1472
4253.9853
373.7646
397.38796
507.58301
664.13973
970.84942
1375.4743
2035.7514
2901.374
4004.3078
137.6478
182.51133
288.55024
450.81671
746.73574
1151.6035
1801.4496
2660.0813
3747.4918
-111.74314
-41.035585
57.6544
224.84215
509.85871
913.24949
1552.7236
2404.3519
3483.7345
-376.01233
-274.00695
-184.61326
-13.648576
259.40505
658.73869
1287.5328
2132.375
3212.1303
2933.3761
1844.7193
1006.085
388.74105
-4.1493133
-263.35284
-440.06255
-515.29184
-649.57332
2648.8907
1541.1972
707.55022
102.20038
-281.37973
-523.54125
-705.45961
-765.84477
-932.82987
2359.2265
1222.0045
393.04311
-199.92831
-570.57294
-795.65167
-979.71599
-1027.3654
-1222.2652
2061.2173
886.34474
62.012951
-516.85935
-871.75796
-1077.646
-1262.3111
-1297.4132
-1520.9332
1753.1382
533.50098
-284.70586
-846.70619
-1184.2145
-1370.9087
-1549.4346
-1573.3718
-1823.9145
1431.3172
162.41029
-647.55405
-1190.2089
-1506.5633
-1671.0088
-1839.9225
-1854.6528
-2131.3476
1094.0706
-227.89887
-1024.8254
-1544.2402
-1835.4664
-1975.915
-2132.4779
-2140.6849
-2429.1273
738.60787
-637.02261
-1416.8481
-1908.6693
-2170.4605
-2285.3848
-2424.8297
-2428.1384
-2707.7337
363.69005
-1067.0344
-1820.5388
-2279.9936
-2507.5856
-2596.0766
-2712.4839
-2711.5161
-2984.0786
-3269.6365
-2990.6052
-3000.5451
-2911.2765
-2854.2579
-2670.7707
-2257.6351
-1548.3847
-74.010704
-3536.141
-3261.3783
-3286.6546
-3222.1597
-3206.9261
-3078.7919
-2725.3871
-2099.2905
-610.8142
-3783.6775
-3520.478
-3563.9079
-3524.9744
-3552.1584
-3486.3245
-3198.9333
-2672.7651
-1205.4075
-4003.1273
-3762.6885
-3826.5284
-3812.6569
-3883.0178
-3884.7426
-3665.6144
-3248.8361
-1855.1425
-4200.1227
-3984.1868
-4071.8772
-4084.044
-4196.5416
-4272.0111
-4120.1076
-3816.1088
-2570.2951
-4367.2585
-4184.2605
-4296.0279
-4336.1027
-4486.8708
-4641.455
-4557.2736
-4348.7799
-3368.5394
-4509.3417
-4361.677
-4492.9229
-4563.3985
-4750.0404
-4988.0426
-4975.9157
-4824.171
-4287.5718
-4621.0253
-4515.612
-4659.7532
-4762.1484
-4981.8283
-5305.6507
-5379.6125
-5206.8754
-5317.3337
-4714.6732
-4645.6728
-4800.39
-4935.0601
-5176.1625
-5585.4916
-5773.5577
-5461.9376
-6319.9313
-4772.4024
-4752.8621
-4915.6112
-5093.2842
-5355.7709
-5862.4095
-6271.2915
-5688.2315
-7169.372
-4800.0837
-4841.3253
-5012.3727
-5260.6544
-5548.1691
-6165.7262
-6872.5368
-5932.9132
-7694.1496
-4794.5725
-4918.5368
-5093.1209
-5438.8622
-5760.9878
-6480.9037
-7487.4724
-6258.0818
-7620.8164
-4759.5981
-4989.9498
-5157.0516
-5621.8071
-5996.2401
-6806.7127
-8081.8402
-6704.1184
-6447.1228
-4708.0993
-5050.5213
-5204.924
-5803.5277
-6242.8765
-7140.5073
-8671.1885
-7311.3625
-6166.3557
-4637.6592
-5093.4969
-5233.7145
-5973.8651
-6492.2142
-7485.0358
-9295.2378
-7889.8975
-6939.5761
-4541.026
-5112.192
-5245.5263
-6122.7852
-6738.7665
-7847.752
-9953.817
-8094.8701
-7046.5706
-4421.5688
-5107.3917
-5239.8716
-6243.1727
-6979.6791
-8221.9621
-10550.848
-8452.7219
-7204.1119
-4282.8576
-5078.9479
-5216.0971
-6334.3753
-7206.6312
-8595.4198
-11048.159
-9051.9056
-7340.0268
-7437.8568
-9475.9408
-11299.964
-8916.452
-7397.0116
-6389.3163
-5177.2027
-5025.726
-4131.8852
-7489.9854
-9818.6479
-11464.5
-9180.3144
-7542.5754
-6414.7432
-5126.9348
-4947.5993
-3973.4499
-7515.1497
-10092.214
-11629.054
-9428.6701
-7657.4396
-6412.1106
-5059.479
-4846.5403
-3803.8839
-7526.2333
-10229.568
-11762.478
-9665.7371
-7742.4521
-6383.1242
-4975.2364
-4726.2536
-3627.6321
-7549.2839
-10305.884
-11904.98
-9894.2428
-7802.4108
-6330.4815
-4877.3089
-4591.6682
-3446.5787
-7598.2489
-10446.761
-12068.055
-10110.363
-7841.1188
-6256.261
-4768.9671
-4444.5249
-3265.3657
-7670.0754
-10634.525
-12283.109
-10310.807
-7860.102
-6164.1071
-4653.0604
-4286.3574
-3083.6264
-7843.9055
-10824.877
-12516.666
-10489.744
-7858.3938
-6056.444
-4529.4608
-4116.5065
-2904.0412
-7931.8811
-11028.534
-12780.227
-10647.836
-7827.6354
-5930.4338
-4398.3889
-3933.179
-2699.7594
-7994.7267
-11358.463
-13099.023
-10644.518
-7680.8224
-5663.4084
-4150.418
-3603.1847
-2358.5876
-7993.0804
-11944.288
-13704.323
-10550.144
-7317.957
-5229.9647
-3746.93
-3142.5864
-1959.918
-8034.0124
-12530.82
-14047.388
-10259.335
-6802.7344
-4718.2809
-3300.8776
-2692.0081
-1607.2841
-8173.2748
-13124.566
-14177.519
-9783.9611
-6163.1803
-4172.4494
-2856.8285
-2256.1155
-1300.1007
-8449.6256
-13587.067
-14148.61
-9169.6357
-5489.9305
-3634.6949
-2445.7674
-1858.795
-1034.612
-8831.7041
-14067.889
-14017.516
-8449.0541
-4811.1735
-3132.122
-2073.8499
-1501.3503
-818.17555
-9269.7449
-14189.185
-13778.017
-7639.5419
-4160.4719
-2680.2359
-1743.0828
-1184.5682
-651.5656
-9741.1119
-14708.875
-13427.428
-6758.5032
-3551.5956
-2282.8061
-1451.1127
-914.78433
-531.21711
-10131.543
-14549.192
-12901.664
-5845.0863
-3018.4373
-1949.0172
-1202.2424
-691.02097
-451.1359
-8727.7376
-14014.184
-11110.658
-4298.661
-1181.7028
-37.717012
403.90613
419.51742
305.69388
-8730.7235
-14074.238
-11145.048
-4357.334
-1207.7152
-77.52424
374.54252
381.38593
288.24793
-8744.7323
-14207.301
-11170.17
-4472.3266
-1247.8396
-152.99902
320.33001
312.31036
255.97743
-8761.562
-14327.993
-11292.121
-4641.7324
-1311.4226
-251.49813
247.3974
227.37425
216.63161
-8782.4972
-14426.511
-11476.704
-4851.1778
-1399.1526
-368.39849
156.13981
136.7812
176.12516
-8813.7829
-14541.321
-11647.092
-5088.2106
-1510.8828
-496.47915
48.254512
40.736726
136.69616
-8853.7206
-14655.845
-11800.136
-5314.0707
-1640.0014
-630.2863
-71.235746
-62.029028
101.3078
-8898.044
-14748.181
-11929.882
-5497.4713
-1776.5586
-763.92493
-195.55978
-145.10309
58.652627
-8937.5275
-14813.706
-12011.433
-5628.6437
-1913.5001
-895.21423
-321.37763
-184.55576
-14.31149
-10131.63
-14550.247
-12902.834
-5844.6683
-3018.3623
-1948.9598
-1202.2283
-691.00629
-451.10097
-9741.2221
-14710.281
-13428.513
-6758.2219
-3551.4975
-2282.7517
-1451.096
-914.77109
-531.18418
-9269.78
-14190.198
-13779.079
-7639.418
-4160.3723
-2680.1743
-1743.0579
-1184.5478
-651.53347
-8831.7056
-14069.101
-14018.577
-8449.0683
-4811.0781
-3132.0442
-2073.8187
-1501.3226
-818.14388
-8449.6218
-13588.1
-14149.689
-9169.756
-5489.8755
-3634.6115
-2445.7263
-1858.7594
-1034.5792
-8173.3158
-13125.604
-14178.606
-9784.1791
-6163.1843
-4172.3823
-2856.7849
-2256.0736
-1300.0671
-8034.1192
-12531.777
-14048.483
-10259.63
-6802.8181
-4718.2299
-3300.8428
-2691.9643
-1607.2502
-7993.2513
-11945.202
-13705.396
-10550.496
-7318.1137
-5229.9428
-3746.9084
-3142.5465
-1959.8831
-7994.9937
-11359.338
-13100.051
-10644.905
-7681.0348
-5663.4218
-4150.414
-3603.1546
-2358.5548
-4131.9268
-5025.7836
-5177.3065
-6389.5136
-7397.2892
-8916.8535
-11300.897
-9476.6564
-7437.9812
-3973.481
-4947.6472
-5127.0249
-6414.9292
-7542.8551
-9180.7173
-11465.468
-9819.3997
-7490.124
-3803.9033
-4846.5769
-5059.5534
-6412.2802
-7657.7184
-9429.0672
-11630.05
-10093.004
-7515.3007
-3627.6403
-4726.2792
-4975.2957
-6383.2781
-7742.729
-9666.1276
-11763.485
-10230.425
-7526.3953
-3446.5784
-4591.6835
-4877.3548
-6330.6182
-7802.6829
-9894.6295
-11905.987
-10306.738
-7549.459
-3265.3585
-4444.5307
-4769.0021
-6256.3759
-7841.3864
-10110.749
-12069.059
-10447.605
-7598.4417
-3083.6136
-4286.3535
-4653.0862
-6164.2012
-7860.3666
-10311.195
-12284.114
-10635.373
-7670.27
-2904.0222
-4116.4928
-4529.4779
-6056.5182
-7858.6483
-10490.137
-12517.68
-10825.728
-7844.141
-2699.7338
-3933.1582
-4398.3976
-5930.4842
-7827.8753
-10648.232
-12781.255
-11029.394
-7932.2172
-7340.1387
-9052.5637
-11049.041
-8595.8112
-7206.9053
-6334.5792
-5216.2149
-5079.0141
-4282.9112
-7204.2198
-8453.3194
-10551.66
-8222.3416
-6979.9518
-6243.3853
-5239.9947
-5107.47
-4421.6385
-7046.6536
-8095.4031
-9954.5621
-7848.1197
-6739.0398
-6123.0098
-5245.6475
-5112.2914
-4541.1125
-6939.6548
-7890.4919
-9295.9221
-7485.3957
-6492.4799
-5974.0914
-5233.8514
-5093.6124
-4637.7563
-6166.4057
-7311.9514
-8671.8033
-7140.8595
-6243.1355
-5803.7522
-5205.0785
-5050.6463
-4708.2084
-6447.1123
-6704.669
-8082.3905
-6807.0561
-5996.4952
-5622.0316
-5157.2162
-4990.0926
-4759.71
-7620.7858
-6258.6156
-7487.9634
-6481.2344
-5761.2406
-5439.0859
-5093.2974
-4918.6911
-4794.6915
-7694.1786
-5933.4198
-6872.9905
-6166.0472
-5548.4217
-5260.8803
-5012.5618
-4841.4911
-4800.2162
-7169.4375
-5688.6903
-6271.7193
-5862.7321
-5356.0303
-5093.5159
-4915.8071
-4753.0388
-4772.5495
-3269.8405
-2990.8073
-3000.7439
-2911.4864
-2854.4654
-2670.9759
-2257.8187
-1548.5226
-74.116291
-3536.3509
-3261.5837
-3286.8607
-3222.3797
-3207.1477
-3079.0205
-2725.587
-2099.433
-610.91906
-3783.8865
-3520.6843
-3564.1196
-3525.2014
-3552.3905
-3486.5662
-3199.1569
-2672.9234
-1205.5089
-4003.3329
-3762.8979
-3826.7447
-3812.8823
-3883.2571
-3884.9969
-3665.8611
-3249.0161
-1855.2365
-4200.3244
-3984.4004
-4072.0998
-4084.2822
-4196.7928
-4272.2848
-4120.3766
-3816.3136
-2570.3809
-4367.4533
-4184.4722
-4296.2513
-4336.3468
-4487.1327
-4641.7456
-4557.5661
-4349.0238
-3368.6169
-4509.5285
-4361.8826
-4493.1414
-4563.634
-4750.3073
-4988.3466
-4976.2352
-4824.4565
-4287.6357
-4621.2036
-4515.8103
-4659.9681
-4762.3898
-4982.098
-5305.97
-5379.9667
-5207.2113
-5317.3873
-4714.8365
-4645.8604
-4800.5964
-4935.3058
-5176.4306
-5585.8176
-5773.9523
-5462.3363
-6319.9804
363.59111
-1067.1586
-1820.7103
-2280.1843
-2507.7844
-2596.2801
-2712.6746
-2711.7152
-2984.2799
738.51431
-637.13291
-1417.0099
-1908.8543
-2170.6523
-2285.5824
-2425.0199
-2428.3336
-2707.9474
1093.9812
-228.00624
-1024.9752
-1544.4161
-1835.6485
-1976.105
-2132.6677
-2140.873
-2429.3404
1431.233
162.30329
-647.69277
-1190.3729
-1506.7386
-1671.1872
-1840.108
-1854.8374
-2131.5408
1753.0575
533.39729
-284.83597
-846.86204
-1184.3861
-1371.0827
-1549.6157
-1573.551
-1824.0943
2061.1413
886.24387
61.891111
-517.01091
-871.92065
-1077.8147
-1262.4869
-1297.5854
-1521.1042
2359.1529
1221.9065
392.92795
-200.07464
-570.73131
-795.81353
-979.88747
-1027.5363
-1222.4323
2648.818
1541.1004
707.44066
102.05894
-281.53602
-523.70059
-705.62354
-766.01009
-932.99357
2933.3052
1844.6262
1005.984
388.60476
-4.3024596
-263.50885
-440.21828
-515.45192
-649.73205
1328.1745
1285.378
1411.6867
1526.8523
1853.8002
2241.3277
2938.5769
3859.0267
5259.1434
1178.0163
1132.195
1257.8839
1382.2567
1715.2564
2113.1286
2817.8802
3741.0223
5031.2723
1004.9284
965.26504
1090.4164
1224.4865
1554.618
1957.0066
2655.1863
3558.922
4757.4967
809.24661
788.00802
907.97355
1052.0052
1376.4887
1779.6672
2464.3737
3350.0158
4502.1255
596.26131
598.99115
713.4883
864.30132
1181.3114
1584.6574
2256.3451
3130.0604
4253.9343
373.63821
397.24933
507.44729
664.00446
970.72499
1375.3609
2035.6656
2901.2858
4004.2527
137.51557
182.36951
288.41194
450.67622
746.60032
1151.4806
1801.3636
2659.9941
3747.4352
-111.88484
-41.181135
57.515242
224.69975
509.71978
913.11853
1552.6331
2404.2664
3483.6738
-376.16463
-274.16153
-184.76149
-13.795872
259.26066
658.60327
1287.4406
2132.288
3212.0636
1474.876
1618.6915
1755.6642
1881.1926
1999.5048
2110.0597
2210.501
2305.0116
2392.1093
1427.8055
1563.3114
1690.2688
1808.8258
1919.5984
2022.8381
2119.379
2209.4285
2293.7107
1553.1291
1680.043
1796.5634
1905.7946
2007.8925
2103.018
2190.9759
2273.0108
2350.0531
1657.8361
1776.9258
1886.1355
1987.8141
2082.3653
2168.5852
2248.27
2322.2184
2390.8427
1970.494
2071.0602
2161.4988
2243.5531
2317.8893
2385.4557
2446.741
2503.1202
2554.8442
2343.4872
2428.3496
2501.3484
2564.2118
2618.0925
2664.6259
2704.5993
2739.8087
2770.7647
3014.6462
3067.3656
3104.7438
3130.7271
3147.4718
3157.1011
3161.1038
3160.9977
3157.8531
3900.3378
3908.6895
3896.0069
3869.5965
3832.4859
3787.7746
3737.5213
3683.8581
3628.3327
5273.5647
5236.0399
5156.8091
5059.6775
4948.2815
4831.9914
4712.9408
4594.3626
4476.865
2471.6962
2371.8984
2421.6125
2455.0181
2602.9317
2798.8912
3152.8787
3572.4323
4361.322
2546.8752
2445.5674
2487.9378
2514.9104
2647.5364
2824.4603
3146.4761
3517.1989
4248.2936
2615.0952
2514.1595
2550.233
2571.3734
2689.619
2848.6406
3139.9288
3463.5477
4138.3651
2678.5324
2578.1374
2608.8255
2624.7086
2729.5377
2871.7713
3133.5309
3412.1425
4030.9489
2737.5328
2638.2047
2663.6097
2675.3628
2768.0299
2894.7188
3128.3244
3363.8998
3926.5091
2791.7985
2694.7634
2715.1564
2723.3016
2804.9893
2917.6617
3124.6215
3319.2907
3824.3378
2842.4682
2747.7144
2763.658
2768.8952
2840.7595
2941.2355
3123.0089
3279.0921
3724.5923
2888.606
2797.242
2809.1019
2812.2505
2875.3628
2965.2228
3123.5486
3243.6151
3626.5668
2931.2269
2842.9351
2851.6524
2853.5491
2908.9248
2989.6027
3126.9875
3213.5028
3530.7096
3183.9164
3134.8607
3127.7381
3138.0913
3167.6195
3221.8692
3295.2126
3268.9648
3095.7373
3163.4351
3111.4008
3104.5984
3113.796
3143.1414
3196.0639
3267.9425
3234.2046
3062.9155
3141.8066
3085.664
3080.5595
3087.4419
3117.175
3170.0247
3241.3728
3204.5433
3048.2777
3118.7325
3057.836
3054.504
3059.2758
3089.8358
3143.7066
3216.3509
3181.9049
3063.8515
3094.2272
3028.2885
3026.1
3029.5487
3061.4582
3117.2562
3193.7524
3166.7503
3108.9443
3067.4839
2996.5364
2996.0258
2998.282
3032.4299
3091.022
3174.1577
3159.2724
3177.6081
3038.2246
2962.2037
2963.9151
2965.2289
3002.8071
3065.0461
3157.6443
3160.8704
3258.4278
3005.651
2925.0946
2929.0124
2930.1021
2972.5191
3039.4154
3144.1572
3171.5409
3345.8936
2970.333
2885.4028
2891.4939
2892.8036
2941.2719
3014.267
3133.7521
3189.2121
3436.9677
3132.7898
3309.4894
3324.2159
3247.9738
3191.3582
3160.6878
3149.1148
3156.4034
3201.139
3192.7349
3357.5907
3354.5214
3273.2102
3214.0955
3181.5618
3168.218
3176.3336
3214.311
3262.2351
3408.3266
3383.3998
3296.6121
3234.8034
3200.5914
3185.7718
3193.9262
3225.1699
3336.3726
3459.9318
3409.5885
3317.6513
3252.8759
3217.7611
3202.2727
3209.2034
3234.844
3414.1015
3511.2875
3433.2295
3336.1835
3268.4031
3233.0471
3216.7506
3222.8279
3242.6172
3494.3179
3561.1043
3453.9235
3352.371
3281.9796
3246.7402
3229.6122
3235.1534
3249.3765
3576.7641
3609.0474
3471.6645
3366.723
3294.4993
3259.1605
3242.1921
3245.3697
3254.4943
3660.753
3655.6283
3488.8839
3380.942
3307.2742
3271.0576
3253.2465
3253.8461
3258.3469
3744.7391
3700.9445
3510.017
3397.8383
3322.1445
3283.9146
3263.5954
3260.5616
3260.2469
3839.2403
3750.2324
3543.7055
3424.4881
3345.4382
3302.3938
3277.6043
3267.3001
3261.6016
3946.6566
3801.706
3584.5612
3456.7921
3374.4332
3327.1342
3297.5562
3278.924
3267.3586
4053.4756
3850.0374
3624.2414
3489.0248
3403.2216
3352.3726
3318.3297
3293.1097
3276.4989
4157.8328
3895.4993
3661.8012
3521.1633
3432.4009
3378.3368
3340.1011
3309.9148
3288.7817
4255.8863
3937.1175
3695.0314
3552.0863
3461.3456
3404.732
3362.9324
3328.9869
3304.0179
4340.1686
3972.2749
3723.0233
3581.2716
3489.5943
3431.2528
3386.6871
3349.9414
3321.9537
4397.0101
3997.745
3745.2867
3608.1588
3516.8524
3457.5662
3410.9925
3372.2736
3342.3374
4405.1465
4012.1896
3764.2569
3632.9805
3542.9934
3483.1882
3435.3839
3395.6425
3364.8679
4364.2746
4014.9202
3780.9919
3655.4395
3567.6094
3507.7283
3459.5242
3419.7428
3389.1032
3559.8559
3569.932
3589.5169
3621.535
3664.2574
3722.0345
3791.7292
3899.9785
3965.9807
3554.758
3565.4762
3586.8776
3620.1091
3666.4399
3727.2456
3807.622
3919.4808
4037.4283
3544.4826
3556.9728
3580.5132
3616.0268
3664.6611
3728.9158
3813.3488
3935.2928
4062.992
3529.4412
3544.6826
3570.7504
3608.843
3659.2446
3727.4048
3816.3648
3949.1917
4092.9861
3510.5864
3528.9722
3557.8688
3598.4639
3650.7766
3722.3337
3817.9804
3962.4875
4134.9772
3488.7561
3510.3835
3542.2392
3585.1124
3639.4927
3714.3959
3816.8808
3975.7831
4175.1865
3464.8354
3489.6045
3524.2742
3568.8724
3625.0171
3703.422
3812.5739
3988.2474
4216.6502
3439.7795
3467.1726
3504.1735
3550.3047
3608.0676
3689.7188
3804.5185
3998.76
4258.7431
3414.3126
3443.7377
3482.5207
3530.0389
3589.0654
3673.8421
3793.8136
4006.7943
4303.6877
4245.3456
4311.5307
4377.0786
4454.6659
4544.7125
4644.3617
4752.3048
4865.3088
4974.0486
4311.5332
4372.1398
4440.4741
4521.1604
4613.7801
4714.6526
4822.1832
4933.0999
5038.7613
4377.0877
4440.4776
4512.9525
4596.4234
4690.2678
4791.1937
4897.8317
5007.2296
5112.3441
4454.6774
4521.1692
4596.4278
4681.0078
4774.5075
4874.5595
4979.8674
5089.1569
5197.0809
4544.7277
4613.7937
4690.2794
4774.5147
4866.2026
4964.8449
5069.4369
5179.5603
5293.5135
4644.3839
4714.6756
4791.2156
4874.5788
4964.8567
5062.6175
5167.7964
5281.59
5403.2657
4752.3433
4822.2236
4897.8734
4979.9073
5069.4722
5167.819
5274.6186
5394.9051
5527.8099
4865.3772
4933.1708
5007.3034
5089.2318
5179.6342
5281.6549
5394.9636
5521.3905
5660.0917
4974.1614
5038.8769
5112.4641
5197.2061
5293.6434
5403.3989
5527.9447
5660.1925
5840.1456
6229.7825
5910.2073
5776.4376
5603.8332
5466.7863
5345.9081
5243.5508
5157.6697
5086.7819
5322.5027
5412.9235
5414.6451
5390.7025
5350.6759
5290.6453
5222.0164
5149.2405
5081.1321
4900.6596
4965.0214
4983.6492
5006.4771
5015.2507
5009.9688
4994.6721
4966.859
4925.8723
4661.6336
4690.3253
4693.1054
4710.531
4718.587
4723.7038
4724.3313
4720.5868
4703.6328
4482.6306
4499.9135
4498.2103
4504.2349
4504.469
4504.1587
4504.8265
4506.3455
4499.7953
4330.285
4342.4824
4337.405
4343.9022
4340.0741
4338.6691
4334.1807
4331.8357
4325.2854
4192.1098
4196.1472
4192.5514
4193.491
4189.7192
4185.9981
4181.8989
4178.1487
4172.8915
4057.3947
4056.9089
4050.3754
4051.062
4044.9538
4043.5008
4037.9825
4034.8258
4029.8717
3925.4186
3918.9899
3912.1867
3907.0306
3900.5476
3894.9324
3889.6432
3884.684
3878.6093
3733.9363
3590.5238
3434.3051
3254.4926
3051.2686
2795.6398
2505.3939
2163.1264
1926.6183
3740.5535
3597.0235
3439.2213
3257.039
3045.9454
2788.676
2483.7727
2146.3521
1854.3909
3744.6898
3600.3643
3439.4765
3254.645
3035.9422
2773.6209
2455.1347
2107.8866
1760.3991
3751.9054
3604.8253
3444.151
3254.7374
3033.2031
2761.0771
2430.9975
2053.2156
1649.0532
3756.3358
3610.4169
3446.5622
3257.8177
3031.5562
2753.9398
2409.3122
1998.0025
1532.7014
3765.4593
3617.1302
3453.8199
3262.6368
3035.2716
2750.7585
2395.031
1945.1261
1417.0064
3770.0494
3624.548
3459.1386
3271.6237
3040.3852
2758.2407
2388.1741
1912.8612
1320.0414
3779.0582
3630.7817
3467.153
3275.7155
3049.2068
2758.2954
2390.344
1880.9035
1287.7414
3790.677
3644.9087
3480.6582
3294.819
3067.576
2788.139
2412.1474
1910.7303
1186.3068
1960.2472
2162.2682
2477.1237
2737.8718
2908.9724
3039.0693
3165.4628
3298.2721
3429.27
1850.8814
2066.8268
2435.4186
2718.6374
2894.0532
3026.9143
3158.0927
3293.7194
3427.7569
1716.7978
1970.0939
2405.9245
2706.5291
2880.0155
3015.8134
3150.3839
3288.663
3424.5812
1556.4146
1867.3304
2373.7717
2690.0042
2867.4547
3009.6279
3151.4185
3291.5735
3429.2235
1357.7258
1766.9827
2335.3468
2658.9747
2835.9941
2986.2917
3134.3544
3279.6572
3419.7972
1070.1168
1716.3774
2356.4966
2669.997
2847.4858
2998.5948
3147.7632
3291.3299
3430.2143
651.06089
1527.6204
2288.3755
2611.6374
2802.0705
2967.6973
3126.3893
3275.7354
3417.6911
303.65173
1608.076
2353.8075
2636.9689
2824.4183
2987.4314
3141.9347
3288.1151
3427.8088
-855.98792
1418.2556
2314.8423
2594.4072
2798.7699
2971.2662
3131.3804
3279.3322
3420.9971
3556.9482
3679.0575
3800.8056
3923.0658
4051.913
4185.784
4329.9667
4481.0941
4645.1967
3557.0419
3681.2956
3803.891
3927.8172
4057.1778
4192.7597
4336.9652
4490.1564
4654.8016
3555.5226
3681.2819
3805.2324
3930.7771
4061.0575
4198.2589
4343.418
4498.5683
4664.2795
3559.6125
3686.5483
3810.2041
3937.0718
4067.2399
4205.7565
4351.1566
4508.1057
4674.5871
3552.8584
3681.6072
3807.3523
3935.8781
4067.5272
4207.1865
4354.004
4512.3192
4680.6124
3561.4513
3690.0638
3815.07
3943.7524
4074.4889
4214.5626
4361.1592
4520.4109
4688.9697
3551.5441
3682.1165
3809.2624
3939.197
4071.8431
4212.7819
4361.0277
4521.0771
4691.2468
3560.5703
3690.1449
3816.6689
3946.0703
4078.2146
4218.7501
4366.6746
4526.6784
4696.8832
3554.7914
3685.6395
3812.7756
3943.0574
4075.4901
4216.8051
4365.143
4525.9171
4696.3448
4818.1188
5007.312
5208.2329
5428.4176
5660.4066
5911.3172
6168.5266
6437.303
6622.485
4830.9529
5021.8869
5227.7157
5452.3256
5693.4918
5954.3451
6227.1822
6508.5403
6713.0888
4843.1685
5036.3111
5246.6648
5475.8642
5725.6389
5996.7185
6283.7731
6575.9649
6804.1662
4855.8905
5050.7791
5265.3338
5497.8377
5755.3911
6033.4411
6333.8824
6637.8279
6891.6901
4864.184
5061.1315
5278.905
5515.0615
5778.3738
6064.0107
6377.4585
6695.017
6976.9457
4873.8551
5071.9222
5292.1446
5530.8495
5798.9388
6090.7428
6415.7914
6747.6456
7059.3033
4877.3162
5077.286
5299.5094
5540.3697
5813.038
6108.2414
6445.857
6789.4653
7139.85
4883.277
5083.7151
5306.7937
5549.077
5823.8908
6121.9583
6469.0448
6823.0536
7230.5696
4883.5527
5084.29
5308.545
5551.0998
5827.6646
6127.3283
6478.9358
6841.9957
7241.9654
6716.681
6043.0567
5673.2887
5353.0933
5029.6971
4711.9664
4401.8708
4098.1109
3799.2922
6832.4456
6125.0867
5747.5859
5417.6881
5087.6476
4760.984
4446.4594
4138.2763
3838.1944
6942.8974
6198.6668
5818.4243
5478.4323
5144.0181
4810.2198
4491.862
4180.8318
3879.4374
7052.7299
6269.7146
5885.7442
5531.454
5194.7921
4852.2046
4534.2042
4217.8491
3918.5988
7165.8299
6347.868
5958.711
5594.3615
5251.5779
4905.8952
4582.3796
4265.9312
3962.9197
7282.1666
6413.1225
6015.4412
5639.2421
5296.1788
4939.2423
4619.4293
4292.3624
3994.9173
7401.9447
6512.1355
6089.5588
5705.9983
5356.2908
5001.79
4674.9073
4350.9643
4048.2294
7484.4629
6546.774
6122.7769
5727.8322
5380.497
5015.856
4692.5749
4361.4461
4062.7797
7700.2068
6699.5911
6222.4073
5814.6331
5461.7603
5094.3127
4766.2994
4432.8979
4131.5468
3501.8191
3202.6869
2900.288
2593.3306
2279.7283
1958.1237
1627.0949
1286.284
935.66399
3537.783
3238.4728
2934.4701
2627.6214
2312.8597
1992.0475
1660.8087
1320.1326
968.04215
3578.1616
3278.2476
2974.7419
2667.9493
2354.3319
2034.2728
1704.9318
1365.5259
1016.4623
3612.3239
3315.9682
3007.4724
2705.3265
2387.3752
2072.2443
1739.3043
1405.26
1052.3692
3658.0831
3358.7929
3052.5693
2748.0051
2432.9995
2116.0404
1785.9854
1451.5823
1101.5216
3681.7537
3388.5334
3075.4049
2777.1442
2456.5422
2145.7973
1811.2019
1483.065
1128.2688
3738.6818
3441.7278
3132.0583
2831.3096
2513.8968
2202.0669
1869.7321
1543.2987
1188.7631
3747.9173
3455.04
3141.1217
2844.2262
2523.6703
2215.1846
1880.8774
1556.9994
1201.7945
3816.175
3522.5626
3208.917
2912.4689
2592.7502
2285.4546
1952.3325
1632.8712
1273.784
532.30071
60.563931
-432.39713
-956.37753
-1502.8281
-2053.7449
-2609.6122
-3274.4574
-4139.8963
567.96103
105.35368
-373.99132
-883.90633
-1411.6435
-1936.6645
-2457.9269
-3074.5199
-3887.0432
620.13958
169.67945
-297.75052
-793.21958
-1307.7533
-1825.8561
-2341.0662
-2940.7449
-3708.1169
668.21317
225.90342
-223.91985
-709.68818
-1208.2534
-1721.562
-2208.9167
-2746.4453
-3446.9809
720.34678
286.9772
-148.27963
-624.10204
-1109.0093
-1617.8205
-2069.0857
-2551.2587
-3031.9613
762.37945
339.19093
-82.272531
-544.52941
-1023.1968
-1523.8759
-1976.7018
-2343.7941
-2679.347
825.73265
414.48112
12.875587
-436.2836
-895.68044
-1401.2725
-1845.6703
-2303.2137
-1523.1104
850.93014
447.74038
50.644467
-382.7569
-843.4546
-1344.0807
-1875.4328
-2187.9288
-2276.7016
934.37781
549.09514
180.69748
-231.71028
-649.93632
-1124.2594
-1594.0102
-2632.4616
759.0077
-5707.718
-6997.0086
-7140.359
-7189.1375
-7328.026
-7221.0407
-7080.9029
-7037.0504
-6996.2197
-5547.2098
-7010.7782
-7064.5444
-7109.0032
-7159.7724
-7139.3689
-7053.4899
-7015.9085
-6964.4248
-5500.6224
-7118.1277
-6989.5919
-7097.1286
-7229.4788
-7134.8457
-7035.7115
-6990.0857
-6931.9235
-5624.164
-7290.4306
-6912.4444
-7094.0015
-7127.967
-7096.5986
-7019.2906
-6962.8373
-6898.9466
-5888.4405
-7408.2502
-6782.8161
-7105.0799
-7163.125
-7081.287
-7000.1469
-6935.6948
-6863.8348
-5839.3143
-7235.7043
-6755.932
-7146.9128
-7118.3881
-7056.3246
-6982.4827
-6908.7093
-6833.7731
-5163.7329
-6812.6585
-6872.0497
-7137.1581
-7117.9066
-7035.41
-6964.2829
-6885.5807
-6808.3677
-5628.7741
-7957.2066
-6851.8199
-7193.9471
-7102.7231
-7021.7766
-6952.0947
-6868.1642
-6791.7572
-13063.01
-6165.2311
-7013.3799
-7178.7434
-7068.0259
-7002.3673
-6934.9118
-6854.7019
-6782.1931
-7024.271
-7115.2399
-7309.8453
-7627.7553
-8109.4965
-8731.6171
-9365.233
-11109.661
-10762.144
-6969.9328
-7049.6671
-7240.6107
-7575.5365
-8080.2844
-8768.7974
-9469.016
-11189.213
-10700.321
-6935.9748
-7008.4768
-7220.9409
-7586.0167
-8131.7425
-8901.2564
-9740.0716
-11018.432
-10687.102