/*--------------------------------*- C++ -*----------------------------------*\
  =========                 |
  \\      /  F ield         | OpenFOAM: The Open Source CFD Toolbox
   \\    /   O peration     | Website:  https://openfoam.org
    \\  /    A nd           | Version:  11
     \\/     M anipulation  |
\*---------------------------------------------------------------------------*/
FoamFile
{
    format      ascii;
    class       volVectorField;
    location    "0.3";
    object      U;
}
// * * * * * * * * * * * * * * * * * * * * * * * * * * * * * * * * * * * * * //

dimensions      [0 1 -1 0 0 0 0];

internalField   nonuniform List<vector> 
4455
(
(9.9763111 -0.0022112514 0)
(10.003683 -0.0032355063 -1.5977785e-19)
(9.995521 -0.0010798626 5.4837141e-19)
(9.9514313 -0.0095892431 1.1910909e-21)
(9.8698995 -0.010145628 5.1487903e-19)
(9.805862 -0.041161792 -1.9349405e-18)
(9.6931004 -0.034664584 8.5990181e-19)
(9.5995119 -0.06171277 0)
(9.5562864 0.028488673 -5.1444869e-18)
(9.9756394 0.0012286822 -1.0471903e-18)
(10.006409 0.012293144 1.0174025e-18)
(10.003104 0.023217338 -1.2500147e-18)
(9.9664516 0.049117709 2.0829243e-18)
(9.9188425 0.073056066 -3.9883153e-18)
(9.853165 0.063460661 4.338263e-18)
(9.7186441 0.090059325 -4.1105229e-19)
(9.5795696 0.048311762 5.9960961e-19)
(9.5067998 0.038495054 2.2344841e-17)
(9.9713672 0.0015471027 -1.0965931e-18)
(9.9985495 0.011881415 1.380637e-18)
(9.9891169 0.025918819 1.2231507e-18)
(9.9429917 0.045411226 -1.2176019e-18)
(9.8916093 0.070841538 5.3203934e-18)
(9.8272989 0.045835079 -2.9876028e-18)
(9.7003733 0.076296556 3.8645714e-19)
(9.556697 0.0011883694 -8.4322034e-18)
(9.4403476 0.053766525 -1.5783856e-17)
(9.9713884 0.0060434715 2.0491007e-21)
(9.9998706 0.021182737 -1.5264009e-19)
(9.9900029 0.040700537 2.9055856e-18)
(9.9415447 0.072442069 3.9675918e-19)
(9.8957657 0.10537976 -8.9613975e-22)
(9.8291734 0.084891681 -5.7530685e-19)
(9.6983528 0.12084866 6.3407736e-18)
(9.5485353 0.024331682 1.6864788e-17)
(9.3862054 0.11027915 1.3074798e-17)
(9.9700613 0.0093759767 2.1217775e-18)
(10.002081 0.031004133 -2.3663801e-18)
(9.9907642 0.056582904 3.0113145e-18)
(9.9412657 0.10096669 1.1960478e-21)
(9.8972866 0.14410961 -3.6520591e-18)
(9.8288862 0.12447406 -1.1145669e-18)
(9.6907812 0.17377584 -5.0008819e-18)
(9.5435484 0.064587923 -7.937409e-18)
(9.3467528 0.1354056 -3.8571218e-17)
(9.9696099 0.011151994 0)
(10.004419 0.036217674 0)
(9.9897543 0.063878507 -5.2476934e-18)
(9.9382549 0.11491596 -6.0360096e-18)
(9.8903819 0.1617022 0)
(9.8180556 0.14273702 -8.0713305e-18)
(9.6720243 0.1981339 -6.8229158e-19)
(9.5045206 0.080938973 -4.7119845e-19)
(9.3075072 0.19501599 4.7593504e-17)
(9.9692738 0.013087112 0)
(10.009615 0.046039695 -1.4245555e-19)
(9.9939678 0.079177203 1.6044003e-19)
(9.9475751 0.14091826 5.9001468e-18)
(9.9003524 0.19406042 -4.3277316e-19)
(9.8271908 0.17165048 1.7190215e-17)
(9.6803347 0.2354279 0)
(9.4957299 0.10569706 0)
(9.250075 0.22503957 2.1795493e-17)
(9.9686685 0.012367275 4.0217591e-18)
(10.013827 0.046976912 0)
(9.9952576 0.085344838 0)
(9.9514818 0.1562394 0)
(9.9039822 0.21795113 0)
(9.8248069 0.20208389 -8.584045e-18)
(9.6776162 0.28546873 -9.1539275e-18)
(9.4800661 0.14954025 1.3091996e-17)
(9.2138566 0.31519714 1.2003222e-19)
(9.9688839 0.010874339 -3.9620001e-18)
(10.020801 0.051957269 -1.3726527e-19)
(10.002369 0.094237808 -1.5480544e-19)
(9.9635432 0.17070837 3.512751e-19)
(9.9142526 0.23649446 1.3493964e-17)
(9.8337781 0.21929167 1.5154012e-17)
(9.6804748 0.30774543 2.916206e-17)
(9.4590465 0.17494343 -1.2860127e-17)
(9.1463861 0.34677242 -3.7556317e-17)
(9.9673738 0.0069269599 0)
(9.9656703 -0.0016397012 7.3895895e-18)
(9.9628515 -0.010572536 -7.3294355e-18)
(9.9559247 -0.024656636 7.0468885e-18)
(9.9536939 -0.036268572 -6.8879622e-18)
(9.9406828 -0.053936737 1.3828871e-17)
(9.9405662 -0.067836715 -1.3426055e-17)
(9.9234986 -0.09476414 0)
(9.9474244 -0.088570224 0)
(10.028457 0.053074026 0)
(10.040555 0.050702322 1.2741416e-19)
(10.054273 0.050688339 0)
(10.062638 0.043792206 3.6222168e-19)
(10.077155 0.047172924 7.3861944e-18)
(10.082911 0.047500732 -2.2048889e-17)
(10.100956 0.058629644 1.4271611e-17)
(10.113386 0.06948927 -2.185898e-19)
(10.1085 0.084838694 1.3722763e-17)
(10.004694 0.099911677 9.2242024e-18)
(10.01015 0.10086267 -1.8180082e-17)
(10.016983 0.10486866 1.7350879e-17)
(10.016721 0.10408189 -5.366413e-19)
(10.014553 0.10998469 -8.1908261e-18)
(10.004287 0.10685692 -2.4934327e-19)
(9.994032 0.10913708 0)
(9.9641266 0.10772924 4.7301195e-19)
(9.9490037 0.098737766 -2.3048711e-19)
(9.9767157 0.19201628 9.6188954e-18)
(9.9864526 0.20174583 -1.9543541e-17)
(10.00849 0.22388258 1.8606192e-17)
(10.023816 0.23261221 -9.0183078e-18)
(10.048568 0.24657496 -5.6441864e-19)
(10.062976 0.24703425 2.7288907e-19)
(10.080995 0.26317249 0)
(10.096502 0.28210266 -2.5729331e-19)
(10.088852 0.27401971 1.5376171e-17)
(9.9301059 0.26909006 -1.0836796e-17)
(9.9336832 0.28410736 0)
(9.9534476 0.30972942 -1.0051528e-17)
(9.9607223 0.32297026 1.0364935e-17)
(9.9835867 0.34313567 -9.3795563e-18)
(9.987424 0.35408598 9.6921928e-18)
(9.9997183 0.36130821 0)
(10.010764 0.37712778 0)
(10.005384 0.37518009 5.4668603e-19)
(9.8464038 0.25621855 -1.3221093e-17)
(9.847133 0.27667238 -1.2658604e-17)
(9.8604257 0.30451586 1.2168345e-17)
(9.8717165 0.32225759 1.1673644e-17)
(9.8944968 0.34655901 -1.1253859e-17)
(9.9078768 0.36201229 0)
(9.9283812 0.37598379 2.0865743e-17)
(9.9556638 0.39271621 -4.628072e-20)
(9.9688218 0.3956183 -3.898298e-17)
(9.6981645 0.36340938 -1.5449777e-17)
(9.6979187 0.40032468 0)
(9.7249991 0.44794011 0)
(9.7410477 0.48079443 4.2310884e-19)
(9.7783999 0.52083659 0)
(9.8008631 0.56202978 0)
(9.8371436 0.57887069 0)
(9.8685608 0.62953395 0)
(9.9066835 0.62471613 0)
(9.4562628 0.22951405 5.8943041e-19)
(9.4241216 0.29805265 0)
(9.4272647 0.37793108 5.2884111e-19)
(9.4223769 0.45448215 -9.9337614e-19)
(9.4505752 0.52302552 -1.506428e-17)
(9.4775471 0.596358 -1.4294699e-17)
(9.5120367 0.63714939 2.7446564e-17)
(9.5437995 0.71235213 2.6524742e-17)
(9.5934587 0.71535839 -2.508815e-17)
(9.1005195 0.46293027 7.0359818e-17)
(9.0184132 0.62438361 -4.361179e-17)
(9.0212959 0.79567494 4.0537818e-17)
(9.0451637 0.99428995 -3.825838e-17)
(9.1607293 1.1043021 -5.4549211e-17)
(9.2586754 1.2189123 1.0276465e-16)
(9.3795273 1.212485 -6.4946408e-17)
(9.5277758 1.2557806 -3.1035564e-17)
(9.685018 1.2499664 2.9174238e-17)
(9.9043947 -0.15032931 -1.8426076e-20)
(9.8875073 -0.13913149 1.9215634e-17)
(9.8320218 -0.042885345 -6.7951535e-20)
(9.5847404 0.30234344 -1.9293736e-17)
(9.3220262 0.73280509 1.8597274e-20)
(9.2337992 1.0035455 1.9316794e-17)
(9.284862 1.1593049 -1.9410935e-17)
(9.4053889 1.2031418 -1.8726462e-20)
(9.555824 1.2091318 -9.7162545e-18)
(10.15175 0.12774991 -1.971038e-17)
(10.1717 0.1443467 1.9793106e-17)
(10.217712 0.17515632 -1.97955e-17)
(10.28334 0.15700852 0)
(10.352136 0.0517552 1.9965892e-17)
(10.392524 -0.10247768 2.6225402e-20)
(10.433428 -0.23673549 4.2631433e-20)
(10.437591 -0.36770593 -2.0114259e-17)
(10.430493 -0.4837781 1.0132563e-17)
(9.9151792 0.14326657 2.153802e-17)
(9.845038 0.20109758 -2.1587761e-17)
(9.8131453 0.27887585 -2.1747827e-17)
(9.7704538 0.34994337 2.1801066e-17)
(9.7357022 0.43158626 -2.1986009e-17)
(9.6907149 0.49300644 2.1913672e-17)
(9.6863325 0.56301898 -2.213098e-17)
(9.7007752 0.61667409 -1.1650893e-20)
(9.7236117 0.66713854 2.2169955e-17)
(10.121753 0.30709468 -2.2508089e-17)
(10.14224 0.30270122 -8.9454207e-20)
(10.17451 0.30439285 8.9493875e-20)
(10.223816 0.28119191 0)
(10.31472 0.2206461 2.0128702e-22)
(10.363878 0.1508856 -2.2809201e-17)
(10.415053 0.10151093 2.3190409e-17)
(10.449038 0.077992922 9.1148607e-20)
(10.464175 0.046399597 9.1481714e-20)
(10.008545 0.40778262 -9.544444e-20)
(9.9971887 0.43659204 -2.4742434e-17)
(9.9791591 0.46845467 -1.0007371e-19)
(9.9467014 0.50818326 2.4996078e-17)
(9.9481392 0.53478824 2.5205575e-17)
(9.9585359 0.56461745 -2.5333985e-17)
(9.953373 0.59459218 -9.7909042e-20)
(9.9639412 0.64674069 -9.8285044e-20)
(9.9549146 0.68895497 -9.8683675e-20)
(9.9920738 0.41254714 2.6668293e-17)
(10.010609 0.42339863 0)
(10.027145 0.42980007 0)
(10.052496 0.43716929 2.678832e-17)
(10.106622 0.42546578 -2.7147943e-17)
(10.161785 0.41151726 -2.7200312e-17)
(10.208976 0.37728063 5.4433837e-17)
(10.249419 0.38755927 -5.7912408e-20)
(10.279849 0.3879127 -5.4821916e-17)
(9.9114672 0.67859512 -1.1464229e-19)
(9.9301702 0.71502293 0)
(9.9414999 0.74699268 1.1559687e-19)
(9.9262066 0.78799247 2.9773124e-17)
(9.9166227 0.84425729 -2.9952787e-17)
(9.9471824 0.89144854 3.0043699e-17)
(9.9618715 0.91925222 -3.0108145e-17)
(9.978388 0.96412311 -1.1766508e-19)
(9.993548 1.0103528 3.0329728e-17)
(9.6402929 0.74828771 -3.2232396e-17)
(9.6670148 0.77534037 3.2681228e-17)
(9.702736 0.79786875 -3.2804713e-17)
(9.7322309 0.85184142 3.2635339e-17)
(9.7771749 0.84885239 -3.2471634e-17)
(9.8626398 0.88395183 -4.7868025e-21)
(9.9218862 0.85743768 3.2917002e-17)
(9.9903787 0.8642755 2.5892768e-19)
(10.053642 0.85168648 1.6459919e-17)
(9.838918 1.3839729 0)
(9.9697016 1.4649435 -3.6371438e-17)
(10.126434 1.5770397 1.6816319e-19)
(10.221215 1.6362802 3.1103969e-19)
(10.295436 1.7454769 7.3196272e-17)
(10.327422 1.7812371 -3.6633068e-17)
(10.402459 1.8024668 -3.662101e-17)
(10.431777 1.7531079 3.6742397e-17)
(10.537939 1.6858121 1.8435866e-17)
(10.580891 1.5672431 -2.1559813e-17)
(10.616046 1.4883847 0)
(10.616545 1.4419182 2.1414715e-17)
(10.58382 1.4084953 -2.1414903e-17)
(10.519332 1.373456 0)
(10.427312 1.3526078 0)
(10.316376 1.3417198 0)
(10.208709 1.3218439 -2.1861102e-17)
(10.12123 1.2928882 2.1861099e-17)
(10.102707 0.85391729 -1.8749725e-17)
(10.142308 0.85449192 0)
(10.184317 0.85584427 0)
(10.210332 0.843189 0)
(10.23017 0.82993764 0)
(10.250822 0.82971053 0)
(10.265258 0.8216344 0)
(10.269294 0.81472023 1.8576096e-17)
(10.267628 0.8155044 -3.7110416e-17)
(9.9964171 1.0543555 -5.4624557e-20)
(10.007231 1.1011785 -3.3303405e-17)
(10.021597 1.1434051 0)
(10.031806 1.1793177 -1.6569602e-17)
(10.045486 1.2159954 1.6569563e-17)
(10.061344 1.2478716 0)
(10.076428 1.2722818 0)
(10.091214 1.2951095 0)
(10.105989 1.3223848 0)
(10.300347 0.40253898 2.9468409e-17)
(10.330832 0.42196804 0)
(10.355429 0.43597299 1.4643167e-17)
(10.377489 0.45106676 -2.9256394e-17)
(10.404962 0.47041814 1.4613228e-17)
(10.430432 0.48534669 0)
(10.452732 0.49658129 0)
(10.474448 0.50928356 0)
(10.494335 0.52488291 1.4482601e-17)
(9.9632665 0.73507483 0)
(9.9813655 0.78012478 2.6922288e-17)
(9.9935605 0.82391746 -4.0363485e-17)
(10.014088 0.8736611 1.3441219e-17)
(10.045841 0.92141545 1.3391576e-17)
(10.081573 0.96252475 -2.7398874e-20)
(10.120975 1.003079 -2.6698627e-17)
(10.163699 1.045735 2.6637168e-17)
(10.208329 1.0892884 -1.3302642e-17)
(10.483976 0.031268471 0)
(10.504801 0.0099174281 1.1992649e-17)
(10.525757 -0.017360535 -1.1992637e-17)
(10.539971 -0.036103543 0)
(10.552684 -0.048329612 -2.3862991e-17)
(10.557687 -0.061748136 2.3862956e-17)
(10.561661 -0.065765511 1.1889338e-17)
(10.56438 -0.064275215 -2.3751333e-17)
(10.569175 -0.060006894 1.1862934e-17)
(9.7723996 0.72170741 0)
(9.8248945 0.77127193 0)
(9.8831328 0.81875049 0)
(9.9502169 0.86409829 -1.1275423e-17)
(10.021782 0.90431344 2.2521046e-17)
(10.094801 0.93985945 -2.2460058e-17)
(10.168993 0.97089204 1.1214406e-17)
(10.244202 0.99695951 -1.1147437e-17)
(10.31955 1.0173637 2.2259224e-17)
(10.413692 -0.56557915 -2.0541856e-17)
(10.386432 -0.62250778 1.1219e-20)
(10.357975 -0.65921392 1.0254371e-17)
(10.332926 -0.68342887 -1.0228393e-17)
(10.313359 -0.69479104 1.0228402e-17)
(10.297836 -0.69178254 0)
(10.285873 -0.67612226 1.017566e-17)
(10.279651 -0.65102351 -2.0330146e-17)
(10.280745 -0.61968011 1.0154482e-17)
(9.7070314 1.1739372 2.3245687e-20)
(9.848602 1.1244956 9.7356766e-18)
(9.9793999 1.0736139 9.6896649e-18)
(10.093472 1.0257683 -9.6896862e-18)
(10.19093 0.97992842 0)
(10.277775 0.93587833 0)
(10.357356 0.8934636 -9.6034287e-18)
(10.430837 0.85261884 1.9183976e-17)
(10.499508 0.81385017 -9.5805422e-18)
(10.564616 0.77765137 0)
(10.62714 0.74419064 -9.5034959e-18)
(10.687999 0.7134472 2.934026e-20)
(10.748043 0.6852725 3.1527203e-20)
(10.808097 0.65951722 3.3924243e-20)
(10.868779 0.63590555 9.4086881e-18)
(10.930822 0.61439981 9.3328381e-18)
(10.994538 0.59445681 -9.3328327e-18)
(11.060673 0.57665132 0)
(10.28929 -0.58436295 0)
(10.304866 -0.54650509 0)
(10.327058 -0.50699463 -1.0049569e-17)
(10.35528 -0.46645213 3.1719495e-20)
(10.389206 -0.42512825 3.4140697e-20)
(10.427947 -0.38359006 9.9836549e-18)
(10.471999 -0.34152042 9.9077113e-18)
(10.51928 -0.29999809 -9.9076916e-18)
(10.572896 -0.25752946 0)
(10.394383 1.0316718 -1.1111788e-17)
(10.468627 1.0410502 0)
(10.542183 1.0469963 0)
(10.61443 1.050169 -1.0954851e-17)
(10.686131 1.0514399 2.1866611e-17)
(10.75636 1.0511136 -4.4873178e-20)
(10.828141 1.0505766 -4.7047017e-20)
(10.896515 1.0490708 -1.0819785e-17)
(10.971622 1.0488265 0)
(10.577299 -0.04974265 -1.181172e-17)
(10.584723 -0.033384542 1.1812636e-17)
(10.591477 -0.0121404 0)
(10.600472 0.014847087 0)
(10.613657 0.047504838 1.1696475e-17)
(10.629396 0.085084554 -1.1696437e-17)
(10.65103 0.12702171 1.1626534e-17)
(10.672938 0.17346749 -5.8325794e-18)
(10.706418 0.22230081 -5.7938861e-18)
(10.254995 1.1328831 -1.3234405e-17)
(10.304035 1.1756728 1.3234355e-17)
(10.355233 1.2164191 0)
(10.408437 1.2556283 0)
(10.463403 1.2929883 0)
(10.519416 1.3300073 0)
(10.576779 1.3647155 0)
(10.634458 1.4017905 0)
(10.694666 1.4334291 0)
(10.510452 0.54213795 -1.4482549e-17)
(10.524351 0.56283404 1.4439555e-17)
(10.535846 0.58522157 -1.4439501e-17)
(10.54718 0.61306353 1.4400591e-17)
(10.555293 0.6427956 -1.440053e-17)
(10.566806 0.68020529 0)
(10.571059 0.71932322 0)
(10.586474 0.77054364 0)
(10.587468 0.81820689 0)
(10.116383 1.351752 0)
(10.125975 1.3881541 -1.644798e-17)
(10.130061 1.4233983 1.6447921e-17)
(10.141486 1.4683224 0)
(10.140971 1.5102476 1.6422913e-17)
(10.160968 1.5592173 -1.6422819e-17)
(10.151958 1.6101598 0)
(10.184337 1.6653532 8.1996438e-18)
(10.164585 1.7247419 -1.6390375e-17)
(10.26172 0.8194958 1.863286e-17)
(10.25256 0.83161658 1.8728473e-17)
(10.225171 0.85525871 -1.8736187e-17)
(10.20765 0.88987179 1.8851597e-17)
(10.161108 0.92365455 -3.7761985e-17)
(10.149928 0.97382524 3.7878764e-17)
(10.08674 1.0113097 -3.8008262e-17)
(10.076666 1.0809499 1.9037374e-17)
(9.9964635 1.1311155 0)
(10.034879 1.2681897 -2.2094054e-17)
(9.9368722 1.2626766 2.2094089e-17)
(9.810057 1.2795224 0)
(9.6807529 1.3088959 0)
(9.5186453 1.3439129 0)
(9.3836113 1.3696752 0)
(9.2011421 1.398396 0)
(9.0796615 1.4087899 -1.1533414e-17)
(8.8872148 1.4412215 1.1533314e-17)
(8.7768296 1.4539269 1.1690985e-17)
(9.9845514 1.2123346 0)
(10.210807 1.7884908 8.1930921e-18)
(10.610092 0.88761341 0)
(10.754029 1.4744035 0)
(10.733357 0.27810154 0)
(11.036863 1.0477921 5.3315571e-18)
(10.626641 -0.2163366 4.8863949e-18)
(11.129388 0.55922324 4.5979076e-18)
(8.5873288 1.5207053 -1.1690813e-17)
(9.8864978 1.2949515 0)
(10.185199 1.8664576 0)
(10.611237 0.9426247 7.1220324e-18)
(10.817883 1.5015612 0)
(10.782193 0.32951639 -5.7265367e-18)
(11.120392 1.0485315 -1.0633904e-17)
(10.690418 -0.17419381 -9.7472836e-18)
(11.200949 0.54530179 -9.1694112e-18)
(8.4694394 1.5546736 0)
(9.8623053 1.3729661 0)
(10.235775 1.953477 8.1731791e-18)
(10.639749 1.0380153 -7.1219612e-18)
(10.881327 1.5503615 0)
(10.814155 0.39795021 5.7265045e-18)
(11.181075 1.0498364 5.3023449e-18)
(10.748577 -0.13166112 4.860889e-18)
(11.276691 0.52864141 4.5715032e-18)
(8.294259 1.6924783 1.1944573e-17)
(9.7726538 1.4966468 0)
(10.228021 2.0223582 -1.6335691e-17)
(10.655976 1.0948085 0)
(10.948608 1.5737569 0)
(10.876375 0.44509933 -5.6720157e-18)
(11.275927 1.0506221 -5.2380001e-18)
(10.822744 -0.093577626 0)
(11.354191 0.51928969 -4.5125357e-18)
(8.162117 1.7653058 -1.1945195e-17)
(9.7126694 1.6218225 -9.7339528e-18)
(10.259195 2.1479458 8.1624829e-18)
(10.678583 1.2175974 0)
(11.021691 1.6286854 0)
(10.923159 0.5296988 5.6719758e-18)
(11.337211 1.0551641 5.237976e-18)
(10.886516 -0.044696791 0)
(11.438532 0.50329424 4.5125307e-18)
(7.9719263 1.9784532 0)
(9.6664201 1.7428792 9.7339093e-18)
(10.286951 2.2173468 -8.127638e-18)
(10.725732 1.2841844 0)
(11.090709 1.6542437 0)
(10.984835 0.56893308 -5.6079881e-18)
(11.435524 1.0564315 -5.1643975e-18)
(10.964747 -0.01502754 0)
(11.523162 0.49483121 -4.4446562e-18)
(7.8776993 2.1394152 0)
(9.5930268 1.9165305 0)
(10.315844 2.3520825 8.1275635e-18)
(10.744216 1.4225324 -3.5004712e-18)
(11.180112 1.7130223 -3.1066938e-18)
(11.063161 0.66462147 8.3941178e-18)
(11.513108 1.0605505 7.7263828e-18)
(11.044494 0.038711771 0)
(11.614618 0.48489328 6.6484361e-18)
(7.646515 2.4491803 0)
(9.5540211 2.0921347 -4.8847849e-18)
(10.352586 2.4607875 0)
(10.815507 1.5120766 3.5004832e-18)
(11.254599 1.7408242 3.1066767e-18)
(11.119667 0.7029941 -1.9567508e-20)
(11.604656 1.0639841 -5.1021422e-18)
(11.114214 0.067185479 0)
(11.705872 0.47303093 -2.2037849e-18)
(7.6268447 2.7123205 -6.1002981e-18)
(9.5316556 2.2757442 4.8842985e-18)
(10.422178 2.5996698 0)
(10.858825 1.6568164 0)
(11.357934 1.8000667 0)
(11.217483 0.79705173 -5.5114587e-18)
(11.700248 1.0664961 2.3268492e-20)
(11.213259 0.11642503 0)
(11.800213 0.46390673 0)
(11.928699 0.44585738 0)
(11.287773 0.13925323 0)
(11.801534 1.0660499 -1.3145683e-19)
(11.30117 0.83456634 2.8812592e-18)
(11.466366 1.8421916 0)
(10.936896 1.7451658 -4.2749271e-19)
(10.465488 2.7137395 -2.6959025e-20)
(9.5155549 2.500158 -4.0499079e-18)
(7.4379205 3.1544255 1.1366011e-17)
(12.025878 0.42876974 -1.0727995e-18)
(11.370213 0.15994334 -1.4469545e-19)
(11.908156 1.0655345 1.266358e-18)
(11.389493 0.87227506 -1.7332534e-21)
(11.578713 1.8760221 -1.3047565e-18)
(11.049114 1.8357691 1.6781176e-18)
(10.581244 2.8476677 -5.0372473e-19)
(9.6506109 2.7358384 5.2662867e-18)
(7.7170622 3.4984807 -5.7844773e-18)
(12.133816 0.41003651 2.1561284e-18)
(11.468365 0.17452631 0)
(12.026036 1.0603508 2.4983448e-18)
(11.503142 0.90896974 -1.3525175e-18)
(11.709031 1.9035133 1.3223713e-18)
(11.172592 1.914263 -3.1809002e-18)
(10.724828 2.9766321 -2.4415094e-18)
(9.798578 2.9506646 1.1789321e-18)
(7.90183 3.7871866 6.5011453e-20)
(12.246009 0.38956857 -1.0836044e-18)
(11.568696 0.18665132 -1.448915e-19)
(12.141527 1.0465546 -1.1017507e-18)
(11.62317 0.93897174 1.5425243e-18)
(11.858479 1.9254311 5.6078432e-19)
(11.320046 1.9859048 1.7126902e-18)
(10.899378 3.0919889 1.9711936e-18)
(10.018646 3.1249322 6.1369725e-19)
(8.1446918 4.0098156 -7.025691e-19)
(12.356194 0.36711289 2.6705465e-19)
(11.669083 0.20020165 -2.8775473e-19)
(12.255786 1.0257837 -1.5688426e-19)
(11.739804 0.96172541 5.0945838e-19)
(12.003128 1.9411995 -5.6836395e-19)
(11.473093 2.0551425 -6.3366631e-19)
(11.053825 3.2113646 -5.0846228e-19)
(10.156074 3.3435296 5.7412499e-19)
(8.2665354 4.2851266 -7.6808491e-19)
(12.463917 0.34230364 -2.7003481e-19)
(11.77206 0.21422829 2.9121399e-19)
(12.377128 0.99877705 -1.5689619e-19)
(11.868553 0.97837322 -1.9430573e-21)
(12.161623 1.9432917 -1.8783293e-19)
(11.664967 2.1100412 4.3031182e-19)
(11.29331 3.2906972 -5.0899655e-19)
(10.449261 3.5021433 5.7614341e-19)
(8.591597 4.4611853 0)
(12.569674 0.31484311 -2.6582123e-19)
(11.875234 0.2264912 -1.4470612e-19)
(12.497871 0.96425603 -1.5421928e-19)
(11.998551 0.98966044 -1.7150679e-19)
(12.309621 1.9414269 -1.8595966e-19)
(11.817716 2.1686716 4.3316493e-19)
(11.439713 3.4024509 -9.9377959e-19)
(10.565928 3.7520569 1.1985195e-18)
(8.7162192 4.7315745 -7.1747941e-19)
(12.672667 0.28448115 7.9904663e-19)
(11.97801 0.23560423 5.7457069e-19)
(12.622129 0.92081361 7.7861734e-19)
(12.143407 0.98982033 8.4925756e-19)
(12.492873 1.9098702 5.7043071e-19)
(12.047305 2.1963209 -2.1113624e-19)
(11.725421 3.4302511 -5.0839811e-19)
(10.908982 3.8653315 -4.3389112e-20)
(9.0807212 4.8189306 -7.5936904e-19)
(12.771318 0.25109553 -1.593655e-18)
(12.078614 0.24220738 -5.8173306e-19)
(12.732324 0.87164617 -2.024939e-18)
(12.270518 0.98630406 -5.1816051e-19)
(12.637942 1.885888 1.3004524e-18)
(12.204549 2.2408932 6.4184169e-19)
(11.894989 3.5147303 -2.9234054e-18)
(11.066838 4.0935223 5.7830721e-19)
(9.2359787 5.0899698 1.5201049e-18)
(9.575506 5.0886216 -1.5146389e-18)
(11.437652 4.1709024 6.2253485e-19)
(12.225001 3.5138827 4.3766204e-18)
(12.475559 2.2307415 -6.3920091e-19)
(12.84116 1.8071332 3.4882497e-19)
(12.427034 0.96110441 1.0140729e-18)
(12.856614 0.80617545 1.4127245e-18)
(12.175243 0.24485441 -7.2016574e-20)
(12.864032 0.21470978 2.1905498e-18)
(9.7769718 5.4064823 6.0109692e-18)
(11.638768 4.3810237 5.7479785e-19)
(12.43586 3.545735 -6.2796894e-18)
(12.642784 2.2334429 -2.100809e-19)
(12.977053 1.7549992 -1.3229838e-18)
(12.543063 0.94023066 -1.2052876e-18)
(12.952905 0.74314389 -2.6279548e-18)
(12.266775 0.24261945 0)
(12.949148 0.17555867 -1.0667909e-18)
(10.131634 5.4387847 -7.7139636e-18)
(12.033765 4.3904249 5.8233831e-18)
(12.759505 3.4957725 3.402261e-18)
(12.917589 2.1912692 -2.0946337e-19)
(13.184027 1.6392729 2.9557788e-18)
(12.698436 0.8884949 -6.0477472e-22)
(13.074817 0.64848067 3.4935355e-19)
(12.352075 0.23697543 2.1479663e-18)
(13.025052 0.13374098 2.0979814e-18)
(10.365688 5.5600282 -1.5295241e-18)
(12.293627 4.6293212 1.0130211e-18)
(13.024059 3.5229183 -4.9072746e-19)
(13.105187 2.1405153 0)
(13.313917 1.5401557 -3.0066206e-18)
(12.804131 0.83965097 0)
(13.146885 0.57485984 2.3483067e-18)
(12.429658 0.22371173 -4.4697307e-18)
(13.089971 0.089895718 -2.9308103e-20)
(10.74197 5.8716118 -7.2745359e-19)
(12.724033 4.5944124 -4.6494039e-18)
(13.354229 3.3486247 4.8429005e-19)
(13.376965 2.047124 0)
(13.499498 1.3970672 -3.1269459e-18)
(12.938726 0.76973994 2.7028612e-18)
(13.251644 0.46154512 1.5525154e-19)
(12.498371 0.20908057 4.614818e-18)
(13.142385 0.04481091 -2.1197966e-18)
(11.066989 5.8187866 -6.8214153e-18)
(13.019317 4.7114131 -3.8749726e-18)
(13.630885 3.3561706 -7.7017111e-21)
(13.556667 1.9605914 -4.1084188e-19)
(13.616239 1.2590085 -1.3006312e-19)
(13.034778 0.68612322 -5.4570341e-18)
(13.300142 0.36455518 1.5521727e-19)
(12.553618 0.18693359 -2.3236912e-18)
(13.181245 9.0767616e-06 0)
(11.452691 6.049934 4.693961e-18)
(13.527262 4.7351684 5.6929032e-18)
(13.99743 3.1075312 -2.2646969e-21)
(13.829021 1.7905686 -4.0649748e-19)
(13.774378 1.0603164 2.8015347e-18)
(13.135798 0.59361531 2.9200345e-18)
(13.374954 0.25102696 1.5665765e-19)
(12.599029 0.16297269 -1.4355441e-19)
(13.206765 -0.039787484 0)
(11.785903 6.0883728 0)
(13.857038 4.6857823 -5.359584e-19)
(14.225986 2.9911619 4.5695189e-19)
(13.972588 1.6601592 -6.2858573e-18)
(13.847528 0.91716328 -1.8351243e-19)
(13.201126 0.49813337 5.2743989e-18)
(13.395507 0.13822095 -4.8047826e-18)
(12.626464 0.1395287 4.6188781e-18)
(13.219457 -0.066553722 4.1952575e-18)
(12.347651 6.180242 1.0927828e-17)
(14.41011 4.7039005 9.2160359e-18)
(14.633248 2.7117789 -4.4553956e-19)
(14.204994 1.4315158 6.6309962e-18)
(13.983451 0.66927258 -1.8871398e-19)
(13.275086 0.37251199 -5.3687108e-18)
(13.44238 0.010995626 5.1942694e-18)
(12.635575 0.11490676 -4.8279667e-18)
(13.230176 -0.08683817 -4.0260353e-20)
(13.20054 -0.15385025 -4.2080824e-18)
(12.625621 0.094493824 4.5414058e-18)
(13.408995 -0.088941833 0)
(13.287757 0.27156036 -3.2738624e-19)
(13.994016 0.501081 5.9785207e-18)
(14.326076 1.224464 6.028897e-18)
(14.796274 2.4457969 0)
(14.807806 4.4558506 -5.703349e-19)
(12.743569 6.2702642 -1.0687247e-17)
(13.17814 -0.21230797 0)
(12.607684 0.047907753 -4.6967159e-18)
(13.428696 -0.22920557 0)
(13.325283 0.11758208 -3.309913e-19)
(14.071418 0.21202197 -1.1076495e-17)
(14.468308 0.9209256 -6.5571656e-18)
(15.231091 1.9875648 6.6227435e-18)
(15.481811 4.3695859 -6.9738767e-18)
(13.598217 6.190406 8.109327e-18)
(13.088734 -0.26990148 0)
(12.562994 0.033372942 0)
(13.344382 -0.31379766 -5.0149343e-18)
(13.282275 0.019505459 0)
(14.026526 0.029228868 5.8275402e-18)
(14.508215 0.62931651 -6.1922762e-18)
(15.276737 1.6043806 -6.0366838e-18)
(15.95236 3.90835 -4.234295e-19)
(14.226492 6.184737 -1.7681256e-18)
(13.044537 -0.32300092 0)
(12.521117 -0.017956195 0)
(13.327647 -0.44449452 5.1188995e-18)
(13.25171 -0.13638424 5.2599125e-18)
(14.03194 -0.24115016 5.902841e-18)
(14.555173 0.35764225 6.7720067e-18)
(15.61663 1.0430473 0)
(16.524243 3.5847923 5.7511767e-18)
(15.301686 5.8268693 -8.943688e-18)
(12.908358 -0.37041285 7.0143015e-20)
(12.452881 -0.021534949 -7.5909367e-20)
(13.223991 -0.51636413 0)
(13.168095 -0.21209501 -2.2536819e-21)
(13.920039 -0.42483848 -1.2418785e-17)
(14.442066 0.019686482 4.14804e-19)
(15.542811 0.59859369 6.4857926e-18)
(16.832298 2.8339659 -6.3176484e-18)
(16.139692 5.6232585 6.1930578e-18)
(12.839257 -0.39303442 -7.1249076e-20)
(12.37545 -0.10001836 7.7234031e-20)
(13.181454 -0.61598247 0)
(13.091797 -0.35414058 -6.2221813e-18)
(13.89669 -0.64523241 6.946613e-18)
(14.414255 -0.19100013 -4.269505e-19)
(15.699863 0.05674216 -6.7071196e-18)
(17.164186 2.2870247 0)
(17.682348 5.1401088 -6.0234334e-18)
(12.685801 -0.41703824 7.2470177e-20)
(12.275611 -0.096956468 4.9926951e-18)
(13.058983 -0.66054916 -1.6897088e-19)
(12.951498 -0.40293164 5.8575436e-18)
(13.704285 -0.81817417 6.7245043e-18)
(14.217768 -0.46494058 0)
(15.422918 -0.37064012 0)
(17.15152 1.2100558 -6.227569e-18)
(18.538992 4.6478751 0)
(12.596602 -0.40642414 0)
(12.191907 -0.14794776 -5.1752693e-18)
(13.012967 -0.74497048 0)
(12.853684 -0.49711278 -6.5597499e-18)
(13.65946 -1.0030059 -6.0740141e-18)
(14.118076 -0.5902986 7.289558e-18)
(15.416653 -0.82053219 0)
(17.089863 0.48535072 6.65085e-18)
(19.910596 4.1052219 2.4112895e-18)
(12.465874 -0.40480194 0)
(12.028926 -0.16719581 0)
(12.882245 -0.77054541 -1.7670764e-19)
(12.668356 -0.49638567 -1.8866897e-19)
(13.471502 -1.1147129 4.3213351e-19)
(13.885936 -0.79393902 -7.527724e-18)
(14.92072 -1.1974535 0)
(16.512794 -0.93578372 0)
(19.905893 2.0411498 -2.7453281e-18)
(12.343398 -0.36111587 -1.4810153e-19)
(11.923232 -0.20213805 2.6238944e-21)
(12.84734 -0.86863118 5.4535073e-18)
(12.557901 -0.56740588 0)
(13.439301 -1.2561817 0)
(13.763673 -0.83548663 -4.0763085e-19)
(15.089613 -1.2525619 -6.5799113e-18)
(16.361307 -0.75464265 2.4092978e-19)
(21.243367 2.6510169 0)
(12.259409 -0.31065922 -1.4332277e-19)
(11.764734 -0.19559622 2.9225674e-21)
(12.808777 -0.90102833 -4.9281915e-18)
(12.427224 -0.56566198 0)
(13.427051 -1.4018119 0)
(13.735445 -0.972224 3.8492489e-19)
(15.135649 -1.5081192 1.8860314e-17)
(16.930904 -0.78985303 -2.0881961e-19)
(21.556847 2.081702 -1.5893163e-17)
(12.183526 -0.2495461 0)
(11.653031 -0.26071389 9.734146e-18)
(12.751075 -0.97757091 0)
(12.364723 -0.63937775 3.3526926e-19)
(13.385501 -1.5389628 -3.6611024e-19)
(13.735536 -1.1552463 -3.6001455e-19)
(15.461922 -1.7276409 -2.33785e-17)
(17.746785 -1.0352616 1.7515059e-19)
(20.430233 2.0027472 1.4837825e-17)
(12.11797 -0.18908888 8.3536714e-18)
(11.474277 -0.24492234 -9.2836708e-18)
(12.664301 -1.0321481 9.3695287e-18)
(12.262392 -0.6564124 1.0988066e-17)
(13.353757 -1.7057659 -1.084888e-17)
(13.804193 -1.3394406 1.1808531e-17)
(15.570044 -2.1848413 1.1567145e-17)
(17.861646 -1.2082884 5.264079e-18)
(18.313915 2.2294134 0)
(12.062696 -0.13856805 -1.6486138e-17)
(11.356763 -0.28487164 9.1689079e-18)
(12.58123 -1.0951788 -9.0639739e-18)
(12.148386 -0.7403946 3.0444362e-20)
(13.235315 -1.8416895 1.0433601e-17)
(13.746731 -1.5094334 -4.1263921e-19)
(15.730314 -2.3499564 0)
(17.722953 -1.5432471 -5.1339653e-18)
(14.956859 3.8266512 0)
(12.011093 -0.10469315 1.5885276e-17)
(11.191573 -0.19165883 -8.761591e-18)
(12.496618 -1.1731628 9.0070032e-18)
(12.044153 -0.73771708 -1.0578871e-17)
(13.123593 -2.0776521 -3.0532527e-19)
(13.713889 -1.7983397 -1.044268e-17)
(15.798097 -2.8988422 9.2534825e-18)
(17.334871 -2.1865344 1.0659837e-18)
(11.548352 4.944735 8.1916009e-18)
(11.960033 -0.092554478 -7.9104129e-18)
(11.067517 -0.2059589 2.6202108e-19)
(12.405205 -1.1827962 -8.5920792e-18)
(11.918256 -0.79159204 2.9036855e-19)
(12.953144 -2.2348492 -3.1328768e-19)
(13.656453 -2.0213099 -1.0322658e-17)
(15.534659 -3.1374988 -1.7634665e-17)
(16.594044 -2.2934635 -9.2582224e-19)
(8.4435957 4.5351752 -7.7631595e-18)
(11.900847 -0.097624784 -1.2089062e-19)
(10.906611 -0.11819963 1.2893753e-19)
(12.305551 -1.2723829 8.162531e-18)
(11.807047 -0.75068776 9.6808797e-18)
(12.827092 -2.4022074 -8.9730279e-18)
(13.575702 -2.2924879 1.9961804e-17)
(15.261137 -3.7670349 1.6304112e-17)
(15.490444 -3.0319534 -3.5653792e-19)
(0.76622981 -1.8153624 9.0271146e-18)
(11.835361 -0.11807322 7.3561048e-18)
(10.814743 -0.080017376 -1.2222647e-19)
(12.204398 -1.2521583 1.1918447e-19)
(11.691151 -0.7939969 -9.3842944e-18)
(12.680263 -2.4817609 8.4023965e-18)
(13.453044 -2.5369635 -9.6314412e-18)
(14.717305 -4.1343383 -7.4519747e-18)
(13.51157 -3.1988641 4.0484405e-19)
(-6.0885192 -6.5890725 -8.6002831e-18)
(-6.0051229 -5.4441 -1.3203672e-17)
(11.791252 -3.1003142 -3.6899556e-20)
(14.218669 -4.734812 -1.8654619e-19)
(13.226002 -2.6868527 1.5916326e-19)
(12.529734 -2.6058122 0)
(11.581768 -0.74532274 -1.543563e-19)
(12.11621 -1.3249189 -1.6532651e-17)
(10.672063 -0.025018588 -8.5989588e-18)
(11.770583 -0.14801733 -1.4565414e-17)
(-5.4663241 -3.6708665 1.2731039e-17)
(10.426527 -3.4093037 0)
(13.89116 -4.985886 0)
(13.002801 -2.7908835 -2.4014374e-17)
(12.315543 -2.6210881 0)
(11.469267 -0.70762907 2.0182001e-17)
(11.974556 -1.3180523 2.5142488e-17)
(10.534998 0.031017513 8.1654175e-18)
(11.696735 -0.18727772 -7.1961088e-18)
(-4.7635191 -2.5498409 2.6501444e-20)
(9.2672254 -3.5781767 -2.1352949e-20)
(13.406306 -5.2516231 0)
(12.70372 -2.9933104 2.3486915e-17)
(12.135869 -2.6952055 0)
(11.394573 -0.68477423 -1.9984417e-17)
(11.86079 -1.3824428 -1.6207695e-17)
(10.452765 0.071572154 -1.8400227e-19)
(11.616618 -0.23263097 1.4278657e-17)
(-4.6569137 -1.6954029 1.8793096e-17)
(8.4912502 -3.7739678 8.8651372e-18)
(13.045578 -5.3464401 -9.8870686e-20)
(12.426616 -3.1312578 0)
(11.894558 -2.6738478 1.9483771e-17)
(11.300275 -0.61519417 0)
(11.714499 -1.3706646 1.3173623e-19)
(10.374226 0.1959644 -1.8138116e-19)
(11.533518 -0.28261489 5.6069487e-20)
(-4.2151066 -1.1409701 -1.8104239e-17)