/*--------------------------------*- C++ -*----------------------------------*\
  =========                 |
  \\      /  F ield         | OpenFOAM: The Open Source CFD Toolbox
   \\    /   O peration     | Website:  https://openfoam.org
    \\  /    A nd           | Version:  11
     \\/     M anipulation  |
\*---------------------------------------------------------------------------*/
FoamFile
{
    format      ascii;
    class       surfaceScalarField;
    location    "19";
    object      phi;
}
// * * * * * * * * * * * * * * * * * * * * * * * * * * * * * * * * * * * * * //

dimensions      [0 3 -1 0 0 0 0];

internalField   nonuniform List<scalar> 
8667
(
1.5881011
0.19529189
-0.0056152537
1.3978154
0.20958209
-0.019296331
1.2054414
0.22186684
-0.029492804
1.0135741
0.2348666
-0.042999308
0.82012934
0.2455996
-0.052154883
0.62735394
0.26277199
-0.069996585
0.43460242
0.27247331
-0.079721786
0.24034771
0.30924237
-0.11498766
0.32352898
-0.14104933
0.057868067
1.588187
0.38488273
1.3976555
0.40011357
1.2059147
0.41360765
1.0136448
0.42713649
0.82038046
0.43886394
0.6266423
0.45651014
0.43385643
0.46525918
0.23909636
0.50400244
0.50772393
0.054901404
1.5883447
0.57431581
1.3978042
0.59065413
1.2063631
0.60504867
1.0139332
0.61956644
0.82037216
0.63242497
0.6262747
0.6506076
0.4330786
0.65845528
0.23780962
0.69927142
0.69230205
0.053231497
1.588453
0.76364058
1.3982617
0.78084543
1.2068622
0.79644823
1.0144654
0.81196324
0.82030936
0.82658099
0.62654759
0.84436937
0.43203652
0.85296635
0.23522638
0.89608156
0.87719624
0.050332197
1.5884748
0.95294337
1.3989367
0.97038358
1.2074331
0.98795182
1.0153614
1.0040349
0.82096899
1.0209734
0.6264648
1.0388736
0.43187894
1.0475522
0.23360459
1.0943559
1.0618572
0.048943642
1.5886095
1.1421117
1.3995105
1.1594826
1.2081324
1.1793299
1.016028
1.1961392
0.82181658
1.2151849
0.62644286
1.2342473
0.43066189
1.2433332
0.23134305
1.2936748
1.2473627
0.045837564
1.5888618
1.3310277
1.4000592
1.3482852
1.2091124
1.3702767
1.0168843
1.3883673
0.82260803
1.4094612
0.62709481
1.4297605
0.4306865
1.4397415
0.22917864
1.4951826
1.4333158
0.043225531
1.5890992
1.5197063
1.4004045
1.5369798
1.2101352
1.560546
1.0181216
1.5803809
0.82344164
1.6041412
0.62695145
1.6262507
0.42997633
1.6367166
0.22722368
1.6979353
1.6233801
0.037159378
1.58934
1.7081441
1.4009587
1.7253611
1.2108155
1.7506893
1.0192495
1.7719468
0.82491178
1.7984789
0.62805067
1.8231118
0.43006126
1.834706
0.22538533
1.9026112
1.8142631
0.034502309
1.8903201
1.5956018
2.0722309
1.595867
2.2536758
1.5963336
2.4349941
1.5964597
2.6158573
1.5969127
2.7963877
1.5972476
2.9766833
1.5974824
3.1560238
1.5984375
1.5985223
3.3352795
1.9076648
1.4132981
2.0896485
1.4138833
2.2712262
1.4147558
2.4523057
1.4153802
2.6335785
1.41564
2.81414
1.4166862
2.9949833
1.416639
3.1753644
1.4180564
1.4176049
3.3562818
1.9354794
1.228508
2.1196729
1.2296899
2.3038378
1.230591
2.4870171
1.2322008
2.6697089
1.2329482
2.8514768
1.2349183
3.0324522
1.2356636
3.2126138
1.2378948
1.2383285
3.3918902
1.9589281
1.0415266
2.1454116
1.0432064
2.3317821
1.0442205
2.5178239
1.046159
2.7036761
1.047096
2.8895637
1.0490307
3.0757664
1.0494609
3.2617401
1.0519211
1.0523507
3.4477179
1.9894473
0.85055819
2.180272
0.8523817
2.3711357
0.85335676
2.5617212
0.85557353
2.7518324
0.85698477
2.9412733
0.85958985
3.1295573
0.8611769
3.3174285
0.86404986
0.8656182
3.5041611
2.0175577
0.65611226
2.2130074
0.65693207
2.4087071
0.65765705
2.6052983
0.65898228
2.8019205
0.66036259
2.9996667
0.66184362
3.1971509
0.6636927
3.3956393
0.66556147
0.66734214
3.5939154
2.0329095
0.45790877
2.2333399
0.45650169
2.4347953
0.45620167
2.6380924
0.4556852
2.8412232
0.45723177
3.0449594
0.45810745
3.248106
0.4605461
3.4516841
0.46198332
0.46526627
3.65376
2.112805
0.24771496
2.3256228
0.24368389
2.5373259
0.24449852
2.7451768
0.24783437
2.9481626
0.2542459
3.1521214
0.25414874
3.3566253
0.2560422
3.5633995
0.25520909
0.25708713
3.7715786
2.0294591
0.032518949
2.2450075
0.02813554
2.4451123
0.044393715
2.6492223
0.043724312
2.8998705
0.0035977571
3.1578638
-0.0038446332
3.4183948
-0.0044887236
3.678384
-0.0047801296
3.9402977
-0.0048265438
3.3252217
0.010057794
3.3161097
0.009112053
3.3071966
0.0089130573
3.2994312
0.0077654504
3.2917653
0.0076658384
3.2854052
0.0063600935
3.2790078
0.0063974542
3.2740588
0.0049489759
0.0050862906
3.2689725
3.3500217
0.016317879
3.3447274
0.014406373
3.3395047
0.014135763
3.3353248
0.011945362
3.3311205
0.011870116
3.32802
0.0094606618
3.3248311
0.0095862958
3.3228388
0.0069412604
0.0073269745
3.3205981
3.3879693
0.02023871
3.3845572
0.017818457
3.3813412
0.017351842
3.3785342
0.014752353
3.3759914
0.014412927
3.3738568
0.011595191
3.3720503
0.011392789
3.3706853
0.0083063331
0.0083155113
3.3696967
3.4451766
0.022779978
3.4430532
0.019941898
3.4411174
0.01928768
3.4394599
0.016409812
3.4379897
0.015883154
3.4367141
0.012870719
3.4356237
0.012483235
3.4346757
0.0092543477
0.0091031462
3.4338881
3.5032264
0.023714592
3.5024443
0.020724013
3.5016658
0.020066214
3.5009066
0.017168992
3.5001421
0.016647683
3.499356
0.013656851
3.4985813
0.013257857
3.4976849
0.010150805
0.0098563385
3.4969317
3.5923171
0.025312831
3.5903117
0.022729479
3.5887084
0.021669489
3.5865246
0.019352737
3.5846977
0.018474582
3.5821557
0.016198883
3.5799712
0.015442333
3.5768524
0.013269651
0.01267054
3.5740382
3.6549771
0.024095728
3.6550209
0.022685703
3.654895
0.021795376
3.653896
0.020351692
3.6528675
0.019503061
3.6507189
0.018347556
3.6483004
0.017860752
3.6444597
0.017110348
0.017032854
3.6400974
3.7699987
0.025675668
3.768935
0.023749392
3.7698104
0.020919932
3.7702545
0.019907648
3.7705005
0.019257074
3.7685847
0.020263278
3.7653265
0.021118969
3.7586485
0.023788388
0.026282328
3.749399
3.9699213
-0.0039479688
3.9960553
-0.0023846492
4.0095466
0.007428687
4.0080272
0.021426996
4.0005009
0.026783416
3.9861422
0.034621968
3.9689001
0.03836105
3.9437809
0.048907593
3.9122365
0.057826704
3.8890726
0.076717667
-0.053553686
3.8532053
0.073290082
-0.037422843
3.8108254
0.070094816
-0.027714871
3.7669619
0.06778012
-0.023916624
3.7207436
0.065166121
-0.018947815
3.6747058
0.063213054
-0.017175264
3.6273781
0.061066322
-0.013738602
3.5817819
0.059869908
-0.014273706
0.058379355
3.5355698
-0.012167301
3.752264
0.073852723
3.7511221
0.074431897
3.7465905
0.074626423
3.7394985
0.074872205
3.7298345
0.074830057
3.7180197
0.075027831
3.7040096
0.075076434
3.6883625
0.075517003
0.075844782
3.6708971
3.6467687
0.067181412
3.6526368
0.068563861
3.6567977
0.070465505
3.6599228
0.071747106
3.6612425
0.073510399
3.6615936
0.074676731
3.66025
0.076419962
3.6581397
0.07762735
0.079503145
3.6544813
3.5840707
0.057148917
3.5944595
0.058175019
3.6036431
0.061281952
3.6131256
0.062264621
3.6212434
0.06539256
3.6295425
0.066377655
3.6363923
0.06957015
3.6433753
0.07064435
0.073978995
3.6488994
3.5083175
0.045763116
3.5201845
0.046307995
3.5314261
0.050040412
3.5431796
0.050511043
3.554203
0.054369171
3.5657664
0.054814258
3.5765308
0.058805731
3.5878778
0.059297394
0.063486246
3.5983705
3.4466284
0.033022725
3.4597119
0.033224557
3.4728778
0.036874488
3.4864281
0.036960723
3.4999552
0.040842065
3.5139324
0.040837117
3.5277804
0.044957675
3.5421786
0.044899183
0.049306094
3.5563588
3.3816866
0.021032879
3.3942167
0.020694415
3.4070385
0.024052702
3.4204539
0.023545329
3.4341244
0.027171568
3.4484861
0.026475426
3.4630677
0.030376037
3.4784533
0.029513635
0.033757097
3.4940023
3.3324855
0.0091455424
3.3443515
0.0088283936
3.3572746
0.011129608
3.3701728
0.010647159
3.384355
0.012989339
3.3984887
0.012341774
3.4140506
0.014814128
3.4294877
0.014076524
0.016742283
3.4465025
3.2781181
3.2869465
3.2980761
3.3087232
3.3217126
3.3340543
3.3488685
3.362945
3.3796873
3.3956202
-0.015932924
3.4144403
-0.018820107
3.4323897
-0.017949427
3.4534716
-0.021081905
3.4736397
-0.020168113
3.4972205
-0.023580771
3.519867
-0.022646454
3.5462695
-0.02640253
-0.025465171
3.5717347
3.4633259
-0.032756329
3.4819105
-0.037404755
3.500253
-0.036291855
3.5205763
-0.041405273
3.5406124
-0.040204178
3.5628918
-0.045860149
3.5848356
-0.044590268
3.6093211
-0.050888011
-0.049566099
3.633422
3.5104852
-0.049239286
3.527077
-0.05399657
3.5447554
-0.053970235
3.5625054
-0.059155209
3.5815192
-0.059218031
3.6005871
-0.064928006
3.6211165
-0.065119666
3.6417001
-0.071471619
-0.071818818
3.6639528
3.5712298
-0.064110335
3.585811
-0.068577754
3.6012529
-0.069412142
3.6163476
-0.074249841
3.6324907
-0.075361122
3.6482558
-0.080693136
3.6652635
-0.082127417
3.6818763
-0.088084389
-0.089897586
3.6999551
3.6094965
-0.075236298
3.6197289
-0.078810187
3.630697
-0.080380164
3.6407412
-0.084294055
3.6516994
-0.086319367
3.6617213
-0.090714972
3.6728809
-0.093287089
3.6831677
-0.098371145
-0.10153883
3.6948089
3.6546088
-0.080945678
3.6588651
-0.083066473
3.6634636
-0.084978654
3.6666621
-0.087492584
3.670371
-0.090028245
3.6727202
-0.09306413
3.6758256
-0.096392569
3.6776914
-0.10023686
-0.10441727
3.6805698
3.6502907
-0.076755097
3.6447261
-0.07750181
3.6387969
-0.079049431
3.6317295
-0.0804252
3.6244016
-0.082700338
3.6162525
-0.084915034
3.6078878
-0.088027878
3.5989144
-0.091263475
-0.095299053
3.5897962
3.6521784
-0.058036432
3.6319537
-0.057277085
3.6106254
-0.05772111
3.5880245
-0.057824268
3.5644717
-0.059147573
3.5397785
-0.060221804
3.5141965
-0.062445897
3.4875378
-0.064604776
-0.06783324
3.460072
3.4914939
-0.013960499
3.4464002
-0.012183439
3.403418
-0.014738904
3.3586263
-0.01303259
3.3158934
-0.016414655
3.2703838
-0.014712146
3.2270356
-0.019097733
3.1797985
-0.017367669
3.1348282
-0.022862928
0.071306674
3.0846173
-0.021095834
0.099799444
3.4315792
0.10932917
3.5802664
0.10753846
3.6823605
0.096686386
3.705661
0.078915469
3.717726
0.056483523
3.6863847
0.029512939
3.6603926
3.6012476
0.075797912
3.037256
-0.028436523
0.10474439
3.4026327
0.11427553
3.5707353
0.11131472
3.6853213
0.098898707
3.718077
0.07955871
3.737066
0.055544933
3.7103985
0.028894179
3.6870433
3.6301418
0.080952286
2.9831861
-0.026882438
0.11096743
3.3726176
0.12069898
3.5610038
0.1184437
3.6875766
0.10671293
3.7298078
0.08723974
3.7565392
0.062557135
3.7350811
0.032992088
3.7166084
3.6631339
0.087015075
2.9333197
-0.03714868
0.11683983
3.3427928
0.12634653
3.551497
0.12279695
3.6911262
0.10928691
3.7433178
0.088414961
3.7774111
0.062404194
3.7610919
0.032830036
3.7461825
3.6959639
0.094331393
2.8757535
-0.036765189
0.12504861
3.3120756
0.13451979
3.5420259
0.1312676
3.6943784
0.11831197
3.7562734
0.096802762
3.7989203
0.069519843
3.7883748
0.03698585
3.7787165
3.7329498
0.10239565
2.8255363
-0.052178418
0.13191203
3.2825592
0.14077327
3.5331646
0.13602452
3.6991271
0.12115779
3.7711402
0.098400948
3.8216772
0.070140748
3.816635
0.037326169
3.8115311
3.7702759
0.11251533
2.7671648
-0.05414389
0.14243861
3.252636
0.15103219
3.5245711
0.14616013
3.7039992
0.13152773
3.7857726
0.10742842
3.8457765
0.077304857
3.8467586
0.041557444
3.8472785
3.8118334
0.12233619
2.7233016
-0.078472926
0.15025403
3.2247181
0.15771162
3.5171135
0.15111581
3.710595
0.13444213
3.8024462
0.10950553
3.8707131
0.078767194
3.8774969
0.042357515
3.8836882
3.8541909
0.13671086
2.6667112
-0.080120505
0.16397631
3.1974527
0.17093607
3.5101537
0.16387474
3.7176563
0.14712197
3.819199
0.11949405
3.898341
0.08574605
3.9112449
0.046559049
3.9228752
3.9007499
-0.0081506059
3.9089005
-0.0077313691
3.922456
-0.0034030684
3.9069166
0.0078551914
3.8870828
0.020636112
3.8064181
0.039719135
3.6985733
0.060093657
3.4897792
0.080249184
3.1772971
2.6834672
0.063493202
-0.010602947
3.9195035
-0.011917883
3.9237709
-0.010923467
3.9059222
-0.0032169705
3.8793763
0.0085751362
3.794626
0.026244292
3.6809041
0.043644399
3.4723791
0.060142908
3.1607986
2.6859151
0.057694964
-0.010989036
3.9304925
-0.01334179
3.9261237
-0.010726092
3.9033065
-0.0011258646
3.869776
0.0091096842
3.7843904
0.025494207
3.6645196
0.042264009
3.4556093
0.059161424
3.1439012
2.6897335
0.055343115
-0.012914862
3.9434074
-0.01677615
3.9299849
-0.018414999
3.9049453
-0.013190677
3.8645517
-0.0035149241
3.7747147
0.011927259
3.6490774
0.027113347
3.4404232
0.040943797
3.1300708
2.6944248
0.036252455
-0.013488022
3.9568954
-0.018204195
3.9347011
-0.017445851
3.904187
-0.0095835286
3.8566894
-0.0012603839
3.7663915
0.013055769
3.6347613
0.027622798
3.4258562
0.041378494
3.1163151
2.6946429
0.04116037
-0.015279935
3.9721753
-0.021037723
3.9404589
-0.024732384
3.9078817
-0.021563212
3.8535202
-0.013715731
3.7585441
-0.00033153848
3.6213771
0.013004519
3.4125201
0.02559446
3.1037251
2.6916387
0.028598691
-0.016037577
3.9882129
-0.022217844
3.9466392
-0.023106646
3.9087705
-0.016719554
3.8471331
-0.009832812
3.7516573
0.0023720913
3.6091722
0.015307552
3.3995846
0.028628406
3.0904043
2.6850256
0.035241486
-0.017623886
4.0058368
-0.024288931
3.9533042
-0.029670081
3.9141516
-0.028160005
3.845623
-0.022154022
3.7456513
-0.010832288
3.5978505
0.0015617425
3.3871906
0.014831502
3.0771345
2.6755862
0.024270878
-0.017919831
4.0237566
-0.024871176
3.9602556
-0.027284397
3.9165648
-0.022002424
3.8403411
-0.016398327
3.7400472
-0.0060523266
3.5875045
0.0058490645
3.3752892
0.019429586
3.063554
2.6630151
0.032000687
-0.0069957763
2.6479764
0.022034505
0.0068512633
3.049707
0.018502805
3.3636377
0.028158436
3.5778488
0.032352689
3.735853
0.032908679
3.8397851
0.02637325
3.9231003
0.018988167
3.9676407
4.0427448
-0.012975037
2.6305971
0.03035432
0.00076026014
3.0359717
0.01158
3.3528179
0.020337685
3.5690911
0.024809401
3.7313813
0.029759185
3.8348353
0.026164795
3.9266947
0.018806354
3.9749991
4.0615512
-0.0017394967
2.6114085
0.020928084
0.012352696
3.0218795
0.022920949
3.3422497
0.030903296
3.5611088
0.033696691
3.7285879
0.033842601
3.8346894
0.026801676
3.9337356
0.019389521
3.9824112
4.0809407
-0.0090658968
2.5909588
0.02951566
0.0042784429
3.0085351
0.013866597
3.3326615
0.021257189
3.5537182
0.024937872
3.7249072
0.029383383
3.8302439
0.025660339
3.9374586
0.018647029
3.9894246
4.0995877
0.0010015146
2.569663
0.020294253
0.014527987
2.9950087
0.023444959
3.3237446
0.029831802
3.5473314
0.031957041
3.722782
0.031926317
3.8302746
0.025269415
3.9441155
0.018614634
3.9960793
4.1182023
-0.0077102188
2.5481303
0.029242961
0.0046695386
2.9826289
0.012359458
3.3160546
0.01854139
3.5411494
0.021781994
3.7195413
0.026054293
3.8260023
0.023127187
3.9470426
0.017271857
4.0019347
4.1354742
0.00095768129
2.5270041
0.020168477
0.01302225
2.9705643
0.019828063
3.3092488
0.02474085
3.5362366
0.02675168
3.7175305
0.027038017
3.825716
0.021712533
3.9523681
0.016580977
4.0070662
4.1520552
-0.0094053953
2.507182
0.029227505
0.001274882
2.9598841
0.00664852
3.3038752
0.011750662
3.5311345
0.01503524
3.7142459
0.019570809
3.8211804
0.01849261
3.9534463
0.014556689
4.0110021
4.1666119
-0.002345502
2.4894626
0.020064852
0.0072606177
2.9502779
0.011505906
3.2996299
0.015271015
3.5273694
0.017895968
3.711621
0.019058066
3.8200183
0.016172956
3.9563314
0.013316769
4.0138583
4.1799286
0.0038737295
4.1760549
0.014351231
4.0033808
0.026345852
3.9443368
0.040446757
3.8059174
0.049429337
3.7026384
0.054640192
3.5221585
0.053062916
3.3012072
0.048749873
2.954591
2.4898056
0.048406889
0.0065906901
4.1694642
0.019101762
3.9908698
0.029860798
3.9335778
0.041605658
3.7941725
0.051151147
3.6930929
0.055593569
3.5177161
0.052262911
3.3045378
0.044239906
2.962614
2.4973032
0.03674229
0.010583317
4.1588809
0.02549216
3.9759609
0.041535512
3.9175344
0.0593757
3.7763323
0.07188961
3.680579
0.078963388
3.5106423
0.076577018
3.3069242
0.068758676
2.9704323
2.5137737
0.052288182
0.013811656
4.1450692
0.030814925
3.9589576
0.046099772
3.9022496
0.062391489
3.7600406
0.076593089
3.6663774
0.084169744
3.5030657
0.081327554
3.3097664
0.069958918
2.981801
2.5405666
0.043166052
0.017886947
4.1271823
0.037697739
3.9391469
0.058830465
3.8811168
0.081360125
3.737511
0.099072044
3.6486655
0.1097217
3.492416
0.10906809
3.31042
0.10086445
2.9900046
2.5868692
0.054561814
0.021159405
4.1060229
0.043151242
3.917155
0.063768687
3.8604994
0.085308043
3.7159716
0.10568053
3.628293
0.11837325
3.4797233
0.11842338
3.3103699
0.11243053
2.9959975
2.656458
0.042841761
0.025380799
4.0806421
0.050195703
3.8923401
0.076846785
3.8338483
0.10458542
3.688233
0.12887612
3.6040023
0.14674961
3.4618498
0.14789826
3.3092212
0.15138294
2.9925128
2.7436778
0.064163187
0.02918459
4.0514575
0.055426663
3.866098
0.081476342
3.8077986
0.108337
3.6613723
0.13593666
3.5764026
0.15788329
3.4399032
0.15746469
3.3096398
0.17064928
2.9793282
2.838179
0.076148071
0.034345657
4.0171118
0.062302797
3.8381409
0.094088286
3.7760131
0.12820137
3.6272592
0.16187699
3.542727
0.19184253
3.4099376
0.19595543
3.3055269
0.2186418
2.9566418
2.8768087
0.18001207
-0.165285
4.1823968
-0.31872752
3.9915834
-0.46905732
3.9263429
-0.60583643
3.7640383
-0.73162848
3.6685191
-0.84534931
3.5236585
-0.94931321
3.4094908
-1.0027222
3.0100508
2.8743845
-1.000298
-0.16479811
4.3471949
-0.32352519
4.1503105
-0.47380518
4.0766229
-0.61017675
3.9004099
-0.73864767
3.79699
-0.85549907
3.6405099
-0.96151875
3.5155105
-0.98475286
3.0332849
2.6580034
-0.76837172
-0.1674986
4.5146935
-0.3235038
4.3063157
-0.47599007
4.2291092
-0.61718506
4.0416049
-0.74652207
3.926327
-0.86531173
3.7592995
-0.96417921
3.614378
-0.93156364
3.0006694
1.9731234
-0.24668362
-0.16648996
4.6811835
-0.3275124
4.4673382
-0.48062557
4.3822224
-0.62147317
4.1824525
-0.75170202
4.0565558
-0.87212396
3.8797215
-0.95872672
3.7009807
-0.8702268
2.9121694
1.169392
-0.066495461
-0.16818543
4.8493689
-0.32749794
4.6266507
-0.48169199
4.5364164
-0.62746721
4.3282277
-0.75786149
4.1869501
-0.87898017
4.0008401
-0.94948584
3.7714864
-0.77098713
2.7336707
0.41425477
-0.015849879
-0.16611127
5.0154802
-0.3305448
4.7910842
-0.48513965
4.6910113
-0.6313871
4.4744752
-0.76139311
4.3169561
-0.87910963
4.1185567
-0.91825161
3.8106284
-0.52554787
2.340967
-0.162623
0.051329897
-0.1667844
5.1822646
-0.33075049
4.9550503
-0.48399546
4.8442562
-0.63610741
4.6265871
-0.76449566
4.4453444
-0.87305882
4.2271198
-0.84801675
3.7855863
-0.37475178
1.867702
-0.59138695
0.054012173
-0.16409494
5.3463596
-0.33421163
5.125167
-0.48720592
4.9972505
-0.63936571
4.7787469
-0.76333102
4.5693097
-0.86098676
4.3247756
-0.7768809
3.7014805
-0.31137983
1.402201
-0.95138921
0.048622432
-0.16328608
5.5096456
-0.33491626
5.2967972
-0.48657901
5.1489133
-0.64275695
4.9349249
-0.76200542
4.6885582
-0.83926946
4.4020396
-0.67375104
3.535962
-0.2150384
0.94348832
-1.2342784
0.067850801
0.095813916
-1.3781037
0.048011375
0.35262702
0.68667521
0.48330669
3.4052824
0.4538239
4.4315224
0.39421282
4.7481693
0.30024588
5.0288918
0.20778672
5.2413724
0.09458804
5.4099958
5.6042337
0.060075849
-1.4914944
0.053314807
0.30595199
0.44079907
0.47319157
3.2380428
0.44926477
4.4554492
0.39304116
4.8043929
0.2967001
5.1252329
0.20539515
5.3326774
0.091034415
5.5243566
5.6952681
0.028779545
-1.5788643
0.058590377
0.25954381
0.2100348
0.45616504
3.0414216
0.44421304
4.4674012
0.39351931
4.8550866
0.2980609
5.2206913
0.20420481
5.4265335
0.087162456
5.6413989
5.7824305
0.0025897553
-1.642005
0.060551011
0.22007579
-0.0074512329
0.43988816
2.8216092
0.43914946
4.4681399
0.39197817
4.9022579
0.29431707
5.3183524
0.2009406
5.5199099
0.08289595
5.7594436
5.8653265
-0.010358749
-1.6934529
0.061806596
0.18882487
-0.20663485
0.41609
2.5943441
0.43391418
4.4503157
0.39188267
4.9442894
0.29532053
5.4149145
0.19846798
5.6167625
0.07741298
5.8804986
5.9427395
-0.0023490429
-1.7514112
0.060307329
0.19071864
-0.39970253
0.39791693
2.3871458
0.42843668
4.419796
0.39007659
4.9826495
0.29138262
5.5136085
0.19413082
5.7140143
0.073093141
6.0015363
6.0158326
0.0074045843
-1.8109323
0.052116521
0.18576545
-0.5780634
0.37384847
2.1990628
0.42215552
4.3714889
0.39026671
5.0145383
0.29200785
5.6118673
0.1903632
5.8156589
0.066805078
6.1250944
6.0826377
0.01094042
-1.8760626
0.054189886
0.18007919
-0.74720217
0.35669057
2.0224514
0.41660895
4.3115705
0.38838113
5.0427661
0.28757867
5.7126698
0.18494531
5.9182923
0.062081015
6.2479587
6.1447187
0.015675884
-1.8959426
0.0042040957
0.16464658
-0.89617286
0.32953673
1.8575612
0.40829357
4.2328137
0.3872075
5.0638522
0.28807482
5.8118025
0.17970904
6.0266581
0.055947298
6.3717204
6.200666
0.26157688
-2.1112083
-0.046311188
0.22642126
-0.86101724
0.20662245
1.87736
0.29253443
4.1469017
0.29066549
5.0657211
0.16788508
5.9345829
0.056084704
6.1384584
-0.056290949
6.4840961
6.1443751
0.27205849
-2.3862419
0.0029751448
0.17082453
-0.75978327
0.14743777
1.9007468
0.28217465
4.0121648
0.2794745
5.0684213
0.1372707
6.0767867
-0.011293268
6.2870224
-0.10799774
6.5808005
6.0363773
0.27873805
-2.597045
-0.067934907
0.14793319
-0.62897841
0.11684406
1.9318359
0.27612149
3.8528874
0.2518062
5.0927366
0.082469854
6.246123
-0.054921819
6.4244141
-0.12874074
6.6546195
5.9076366
0.27102862
-2.7202593
-0.14781432
0.10337716
-0.46132696
0.087693112
1.94752
0.28628714
3.6542934
0.23304824
5.1459755
0.028597917
6.4505733
-0.14079307
6.5938051
-0.17958911
6.6934155
5.7280475
0.26789834
-2.7102238
-0.27793386
0.084866093
-0.27829471
0.074030199
1.9583558
0.28920907
3.4391145
0.18516765
5.2500169
-0.05179586
6.6875369
-0.19240363
6.7344128
-0.18762599
6.6886379
5.5404215
0.23707585
-2.6018558
-0.34544382
0.034938875
-0.076157735
0.053895152
1.9393996
0.29281995
3.2001897
0.14499997
5.3978369
-0.12613359
6.9586704
-0.27542807
6.8837073
-0.21983201
6.6330418
5.3205895
0.20630238
-2.4352326
-0.37292565
8.5840947e-05
0.1300588
0.048691044
1.8907944
0.29551126
2.9533695
0.062085371
5.6312627
-0.23237695
7.2531327
-0.31932604
6.9706564
-0.20249004
6.5162058
5.1180994
0.16686153
-2.2305183
-0.37157585
-0.030711205
0.32763154
0.058623959
1.8014592
0.29346477
2.7185287
0.010670437
5.9140571
-0.30231856
7.5661217
-0.37549792
7.0438358
-0.21100407
6.3517119
4.9070954
0.13103355
-0.30543853
-2.0561133
-0.040852292
0.49951738
0.10191461
1.6586923
0.28289725
2.5375461
-0.15638248
6.3533368
-0.46615631
7.8758956
-0.40987488
6.9875544
-0.16673513
6.1085722
4.7403602
-0.24607725
0.6662039
0.041606714
-0.46173337
-0.57373919
-1.3354202
1.6630822
-1.0466054
-2.4593099
2.9321761
-1.5281786
-0.34447033
0.82604355
-1.8760476
1.7073331
-1.3594641
-1.7529248
0.23342499
-0.35654779
-1.1987472
-1.4460159
0.89183831
-0.45420178
0.19577284
-0.94031829
0.49933805
-1.0688963
-0.23554789
0.86173309
0.040018699
-0.54522002
-1.0257481
-0.99785666
-2.0066733
-1.4854231
0.14309609
-1.78488
2.00679
-1.6933828
0.14192778
-1.3101717
-1.8292269
-0.40705135
-0.70734755
-0.31736497
-0.23130806
1.0572328
0.035808367
-0.51624967
-0.74080648
-0.92551338
-1.5974096
-1.3755127
0.59309538
-1.5379471
2.1692244
-1.3380512
-0.057968168
-1.093569
-2.073709
-0.20370734
-1.5972093
-1.262438
-0.2216165
1.2461671
0.032682184
-0.47972263
-0.48270035
-0.83740884
-1.2397234
-1.2389831
0.99466968
-1.3856973
2.3159386
-1.0681049
-0.3755606
-0.63196456
-2.5098493
0.088725239
-2.3178991
-1.9340161
-0.20980975
1.420608
0.035368855
-0.44074069
-0.2517694
-0.76005694
-0.92040712
-1.0970476
1.3316603
-1.0888271
2.3077181
-0.69020018
-0.77418748
-0.28144175
-2.9186078
0.4103501
-3.0096909
-2.5071027
-0.19343582
1.5761343
0.037909476
-0.38626251
-0.058942719
-0.64715798
-0.65951165
-0.92093433
1.6054367
-0.79095522
2.177739
-0.26060131
-1.3045414
0.18463468
-3.3638438
0.76468208
-3.5897383
-2.9413501
-0.18452287
1.7196658
0.040991386
-0.3467203
0.10325472
-0.54240729
-0.46382466
-0.72997913
1.7930085
-0.46536401
1.9131238
0.13183717
-1.9017426
0.54713752
-3.7791441
1.0831644
-4.1257652
-3.3274351
-0.16142758
1.8381864
0.042907004
-0.27103026
0.2128574
-0.42042443
-0.31443049
-0.55009757
1.9226816
-0.16571061
1.5287369
0.51747423
-2.5849274
0.97021691
-4.2318868
1.4230409
-4.5785891
-3.6195263
-0.14770331
0.046531798
1.9393579
-0.22555696
0.29071105
-0.32608955
-0.21389791
-0.3871086
1.9837007
0.10177832
1.0398499
0.85409106
-3.3372402
1.2904545
-4.6682502
1.6633309
-4.9514655
-3.875738
0.32457298
2.0608538
-0.077366058
-2.3080607
0.65539873
3.4414762
-3.7723019
0.495305
2.076183
-1.9160893
-0.13367503
-4.1542835
4.7832636
-0.5587189
-7.8097483
8.2347922
-0.54053159
-8.1571604
8.1389731
-0.44679273
-7.3732561
7.2795173
-0.1870247
-6.5738685
6.3141005
-4.968589
4.7815643
0.30368804
1.8430265
-0.085860779
0.67485148
3.0703127
0.61149653
2.139538
0.079376465
-3.6221635
-0.34544596
-7.3849259
-0.44524218
-8.0573642
-0.43948537
-7.379013
-0.23672118
-6.7766327
-5.2053102
0.2777651
1.6711568
-0.10589539
0.66940155
2.6786763
0.69958268
2.1093568
0.18770658
-3.1102874
-0.28182599
-6.9153933
-0.41526149
-7.9239287
-0.3997953
-7.3944792
-0.23127554
-6.9451525
-5.4365857
0.26552284
1.5065129
-0.10087896
0.66883228
2.2753668
0.77349594
2.0046932
0.34522709
-2.6820185
-0.099947054
-6.4702192
-0.31262451
-7.7112513
-0.37135855
-7.3357451
-0.25849784
-7.0580132
-5.6950836
0.2382067
1.3732894
-0.10498311
0.65280899
1.8607646
0.84858624
1.8089159
0.4647892
-2.2982215
0.0029192023
-6.0083492
-0.2494108
-7.4589213
-0.30806286
-7.2770931
-0.2353481
-7.1307279
-5.9304317
0.21213139
1.292316
-0.13115806
0.60747373
1.4654222
0.86488609
1.5515036
0.58062797
-2.0139634
0.16887434
-5.5965956
-0.1216707
-7.1683762
-0.25546879
-7.143295
-0.23773751
-7.1484592
-6.1681692
0.18665833
1.2362767
-0.13061895
0.55192918
1.1001514
0.87976206
1.2236707
0.67374997
-1.8079513
0.27303953
-5.1958851
-0.027093941
-6.8682428
-0.16289818
-7.0074907
-0.19255078
-7.1188066
-6.36072
0.16110523
1.1233468
-0.048175365
0.48168837
0.77956823
0.827148
0.87821105
0.72954683
-1.7103501
0.42642173
-4.89276
0.11084769
-6.5526687
-0.090723033
-6.80592
-0.16974356
-7.0397861
-6.5304635
0.11836173
1.0268624
-0.021877334
0.38960653
0.50832344
0.79149617
0.4763214
0.80322058
-1.7220745
0.5262939
-4.6158333
0.20331327
-6.2296881
0.015919062
-6.6185258
-0.10305739
-6.9208096
-6.6335209
-0.11330684
6.0239521
-5.9106453
-0.26173839
5.7325309
-5.5840994
-0.39489093
5.4666741
-5.3335215
-0.52311361
4.9801529
-4.8519302
-0.57242357
4.2154893
-4.1661793
-0.49708466
3.1409291
-3.216268
-0.23223546
1.7513615
-2.0162107
-0.019563832
0.56810159
-0.78077322
-0.83473602
0.77042343
0.044748761
-0.10678282
6.1307349
-0.25396236
5.8797105
-0.38551625
5.5982279
-0.52551127
5.1201479
-0.58060489
4.2705829
-0.47820993
3.0385342
-0.18241476
1.4555663
0.0062003853
0.37948644
-0.87655829
0.048022655
-0.097787326
6.2285223
-0.24995022
6.0318734
-0.38904591
5.7373236
-0.53094993
5.2620519
-0.58109811
4.3207311
-0.45060541
2.9080415
-0.13630936
1.1412703
0.028979961
0.21419711
-0.89570762
0.048129294
-0.090020699
6.3185429
-0.24004739
6.1819001
-0.37729332
5.8745696
-0.52912884
5.4138874
-0.58464188
4.3762441
-0.41770599
2.7411056
-0.10914276
0.83270703
0.030227416
0.074826935
-0.91466966
0.049189453
-0.080004762
6.3985477
-0.23301745
6.3349127
-0.37822823
6.0197804
-0.53234746
5.5680066
-0.5850795
4.4289761
-0.37606056
2.5320866
-0.097369684
0.55401616
0.016314172
-0.038856923
-0.946702
0.048346515
-0.072523817
6.4710715
-0.2215376
6.4839265
-0.36464551
6.1628883
-0.52629512
5.7296563
-0.58219313
4.4848742
-0.35687627
2.3067698
-0.091256895
0.28839678
0.011481393
-0.14159521
-0.98463683
0.049416224
-0.062044678
6.5331162
-0.21207236
6.6339542
-0.36314741
6.3139633
-0.52606604
5.8925749
-0.56955606
4.5283642
-0.34329172
2.0805054
-0.088629562
0.033734625
0.012490104
-0.24271487
-1.0128107
0.040663944
-0.054948183
6.5880644
-0.19940579
6.7784118
-0.34690912
6.4614666
-0.51559933
6.0612651
-0.56203456
4.5747994
-0.36597152
1.8844424
-0.11032437
-0.22191253
0.01088622
-0.36392546
-1.0440592
0.042134766
-0.045456513
-0.18785431
-0.34491347
-0.51333646
-0.5543704
-0.39200251
-0.13759364
0.0068043451
-0.010392487
0.10150148
0.5885392
0.080382757
0.48676089
-1.1660326
0.79792863
-2.3273784
0.86148763
-3.279827
0.7721377
-4.0768294
0.58705588
-4.6668484
0.39674903
-5.1432147
0.19029803
-5.3776484
-5.7203472
0.19146988
0.33905649
0.058012824
0.60779259
-1.5823553
0.83633322
-2.555919
0.85380313
-3.297297
0.75893502
-3.9819613
0.58831888
-4.4962322
0.39799788
-4.9528937
0.19150005
-5.1711506
-5.5288472
0.25733398
-0.0046069919
0.086329503
0.70209831
-2.0271197
0.84697299
-2.7007937
0.8415553
-3.2918793
0.74602418
-3.8864302
0.57742677
-4.3276348
0.39337782
-4.7688447
0.1974947
-4.9752674
-5.3313525
0.46390538
-0.53818965
0.069677279
0.78252875
-2.345743
0.8598928
-2.7781578
0.83071736
-3.2627038
0.73098342
-3.7866962
0.57692901
-4.1735804
0.39501259
-4.5869283
0.19678777
-4.7770426
-5.1345647
0.66398572
-1.1935038
-0.008671576
0.81997823
-2.5017355
0.85516345
-2.813343
0.81546165
-3.223002
0.71688494
-3.6881195
0.56586761
-4.0225631
0.38771411
-4.4087748
0.20071523
-4.5900437
-4.9338495
0.75628253
-1.9011263
-0.048660027
0.84028656
-2.5857396
0.85339854
-2.826455
0.80382457
-3.1734281
0.70155797
-3.5858529
0.56170165
-3.8827068
0.38824005
-4.2353132
0.19839576
-4.4001995
-4.7354537
0.82512053
-2.4823103
-0.24393656
0.85707506
-2.6176941
0.84438517
-2.8137651
0.78814069
-3.1171836
0.6887089
-3.4864211
0.54875146
-3.7427493
0.37842253
-4.0649843
0.19957943
-4.2213563
-4.5358743
0.8799108
-2.638135
-0.72408603
0.85994419
-2.5977275
0.83537218
-2.7891931
0.77644231
-3.0582537
0.67374436
-3.3837232
0.54238183
-3.6113868
0.37799441
-3.9005968
0.1952987
-4.0386606
-4.3405756
0.8990625
-2.6088212
-0.92837631
0.85848537
-2.5571504
0.82542896
-2.7561367
0.76048737
-2.9933121
0.66179661
-3.2850324
0.5305266
-3.4801168
0.36682535
-3.7368956
0.19478924
-3.8666245
-4.1457864
-0.016176775
4.1047393
-4.0885625
-0.016977339
3.8759063
-3.8751057
-0.013054672
3.7802422
-3.7841649
-0.0005623383
3.5642251
-3.5767174
0.010969023
3.4208634
-3.4323947
0.027633333
3.1956052
-3.2122695
0.042220101
2.9952032
-3.00979
0.042025019
2.7241974
-2.7240023
2.29609
-2.2974882
0.043423209
-0.015832918
4.1205722
-0.016225793
3.8762991
-0.016377341
3.7803938
-0.0081447879
3.5559925
0.010036066
3.4026825
0.030164789
3.1754765
0.042816067
2.9825519
0.044479612
2.7225338
2.3066414
0.033928241
-0.013444549
4.1340168
-0.013178255
3.8760329
-0.0079084378
3.775124
0.0053011641
3.5427829
0.018836
3.3891477
0.039232011
3.1550805
0.05955602
2.9622279
0.059948127
2.7221417