/*--------------------------------*- C++ -*----------------------------------*\
  =========                 |
  \\      /  F ield         | OpenFOAM: The Open Source CFD Toolbox
   \\    /   O peration     | Website:  https://openfoam.org
    \\  /    A nd           | Version:  11
     \\/     M anipulation  |
\*---------------------------------------------------------------------------*/
FoamFile
{
    format      ascii;
    class       volScalarField;
    location    "0.1405";
    object      p;
}
// * * * * * * * * * * * * * * * * * * * * * * * * * * * * * * * * * * * * * //

dimensions      [0 2 -2 0 0 0 0];

internalField   nonuniform List<scalar> 
880
(
80
80
80.00000000087455
80.00066944694592
80
80
80.00000000676108
80.00247474363283
80
79.99999999999999
80.00000005724985
80.01377332083553
80
80
80.00000108095095
80.03693242030424
80
80.00000000000001
79.99999999999994
79.99999999729677
79.99999999999999
80
79.99999999999983
80
79.9999896154345
80.00003831115313
80.03953180895954
79.94702069476985
81.32528900339996
84.51676891033934
86.93098153700713
87.92972411916146
80.00000725512618
80.00006212216813
80.000099252192
80.00008213862309
80.00019937380927
80.0004906114976
80.00175749857291
80.00165113498552
80.08141289508519
80.17597119457764
80.32529662901912
80.40304222346245
89.10420323814336
90.6499696263964
92.12931227802591
94.10332486826151
93.67724969086903
90.81226291690571
88.49898262240066
87.49953047425525
80.72375967418154
81.49093646312252
81.771067483699
81.74732379606043
80.00473400854563
80.01606838426662
80.03204175040997
80.04163648073005
80.00025434872306
80.00074355663818
80.00173705167572
80.00216894410894
80.00194289483755
80.00133694614983
80.00059890933161
80.00013515037134
80.04071567290302
80.03452315068307
80.0238243587188
80.01098448126982
81.54314106009687
81.27300082384224
80.95003618393594
80.58684605652543
86.64890954116827
85.51542160569085
84.31405181910515
83.1528445009598
82.05255000507039
80.24375788750227
80.00249162759893
80.00000807366472
81.09761236722201
80.05552072260134
80.00024038215312
80.00000071111911
80.26651014461946
80.00363455048671
79.99999545727243
79.99999910487801
83.14971525914711
80.02652858866429
79.99989484462633
79.99999683702292
79.99994579696222
79.99992322443444
80.12981957380491
101.7755210448361
80.00000678350885
80.00229938168529
80.69861452894345
118.9676061529151
80.00022493569377
80.00532657067978
81.40889106005041
129.1018571290628
80.00085251702664
80.01708784916826
82.51392561367969
137.5173372333551
143.4680224504466
83.79507132368514
80.02716827423714
80.00148487410863
151.0144826902188
85.51811842182488
80.05733051000044
80.00312287212989
158.2691555613393
87.39974597288135
80.07889740408298
80.00378420390052
167.5853468002239
89.51889996151108
80.12445711558544
80.0067366848876
80.00842677817205
80.17471566212589
92.41168511851316
175.4624038859169
80.01354462120258
80.26545337179874
95.12786040894606
175.3342486395391
80.02908126981747
80.35152808160169
94.66030803859962
160.0753851340434
79.99734090733683
80.18574835744813
89.48884081451135
132.9352451825828
80.04347057230618
80.66001465635385
88.65584862122529
100.7687403490996
80.05744288783647
80.66863757654046
82.84609294318058
69.17723417230351
80.02217480185929
80.28677352720921
80.47878149828901
51.79695495062923
79.99911293652306
80.01702725605007
78.13782631119592
45.54461726402231
45.52961137892287
76.53296241341347
79.84535872017116
79.99626392588117
43.90442165938683
75.30333605536796
79.79091076039442
79.99678909889103
43.11253174965564
74.6659471740154
79.79094004998458
79.99839670020417
40.22286438262419
74.02275279482049
79.7930669907151
79.99875859964583
44.39438413417451
75.71339562163963
79.91150829063076
79.9995563933351
49.04718016243439
77.60542006306675
79.97166746564309
79.99988529642842
54.01942084031559
78.68437862253798
79.98911514667284
79.99996304750664
59.67238063412154
79.53161160081689
79.99763745328815
79.99998557751593
69.89404514857374
78.88705306748041
79.96392228858123
79.99962885209322
70.35237977017395
78.95517364770481
79.96376714547583
79.99962260415045
70.09272999070595
78.99055696389347
79.96369414621462
79.99960611064722
70.81893192977761
79.12567723492533
79.9648933879984
79.99958567698523
59.67238063394646
79.53161160033551
79.99763745270972
79.99998557832011
54.01942083997059
78.68437862222368
79.98911514475869
79.9999630472264
49.04718016199901
77.60542006343452
79.97166746547104
79.99988529680785
44.39438413424845
75.71339562270038
79.91150829055107
79.99955639287928
79.99626392700364
79.84535872150174
76.53296241357287
45.52961137876138
79.99678909898461
79.79091076106688
75.30333605600681
43.90442165960589
79.9983966991506
79.79094005127168
74.6659471739122
43.11253174974262
79.99875860003989
79.7930669912037
74.02275279653648
40.22286438241856
45.54461726311169
78.13782631004369
80.01702725484579
79.99911293613266
51.79695494953567
80.47878149730664
80.28677352638168
80.02217480000452
69.17723417237129
82.84609294213298
80.66863757682898
80.05744288657954
100.7687403492735
88.65584862098856
80.66001465549596
80.04347057454143
80.00842677766472
80.17471566548478
92.41168511892369
175.4624038867709
80.01354462137112
80.26545337220736
95.12786040919569
175.3342486397725
80.02908126907427
80.3515280812781
94.66030803767978
160.0753851340288
79.99734091186201
80.18574835727404
89.48884081384504
132.9352451824778
167.5853468018836
89.51889995991623
80.1244571153634
80.00673668498632
158.269155565065
87.39974597772283
80.07889740598355
80.00378420425814
151.0144826911645
85.51811842290293
80.05733051315178
80.003122871594
143.4680224505871
83.7950713209013
80.02716827244218
80.0014848736853
79.99994579822499
79.99992322512327
80.12981957393376
101.7755210434403
80.0000067830325
80.00229938100874
80.69861452914476
118.967606152806
80.00022493482408
80.00532657007454
81.40889106083749
129.1018571306612
80.00085251604811
80.01708784982031
82.51392561370567
137.5173372330179
79.99999683636339
79.99999910542506
80.00000071110057
80.00000807337882
79.99989484315134
79.99999545773464
80.00024038364209
80.00249162652651
80.02652858901671
80.00363455092025
80.05552072146544
80.24375788730772
83.14971525928949
80.26651014476549
81.09761236701819
82.05255000515888
80.00013514901622
80.01098448145295
80.58684605733976
83.15284450144917
80.00059890906917
80.02382435836265
80.95003618546053
84.31405181945581
80.00133694704931
80.03452315069902
81.27300082330316
85.51542160550038
80.00194289519948
80.04071567291987
81.54314106084566
86.64890954085243
80.00025434729052
80.00473400732055
80.72375967351763
93.67724969084458
80.00074355529701
80.01606838427196
81.49093646254421
90.81226291607156
80.00173705106508
80.03204175177463
81.77106748359057
88.49898262205579
80.00216894361195
80.04163648175204
81.7473237962927
87.49953047350934
94.10332486894026
80.40304222541101
80.00165113415322
80.00008213790555
92.12931227834427
80.32529663250484
80.0017574982453
80.00009925059113
90.64996962750958
80.17597119648659
80.00049061147323
80.00006212368005
89.10420323713448
80.08141289325114
80.00019937361637
80.00000725557886
87.9297241186261
79.94702069273715
80
79.99999999769636
86.93098153635735
80.03953180717701
80
79.99999999999999
84.51676891054511
80.00003831084192
80
79.99999999999999
81.32528900358133
79.99998961493398
80
79.99999999999989
80
79.99999999999997
80.00000000101163
80.00066945115191
80.00000000000003
80.00000000000001
80.00000000687118
80.00247474374343
80
80
80.00000005729248
80.01377331868883
80
80
80.00000108009716
80.03693242044562
80.00170718428873
80.0063342693375
80.02479968086018
80.28594366617716
80.00633428437429
80.00927220821634
80.03547802404505
81.04272301116146
80.02479971038417
80.03547797511804
80.43239992107321
86.07651010333915
80.28594361673159
81.0427229221619
86.07651026227769
104.4116595697208
134.3468253628588
113.6518625157853
102.1936636271303
90.72572454224003
129.2903087328319
124.86504561937
122.7586864757053
113.8528053463778
126.9509985546241
125.4594358704983
124.980933636325
120.8868756985643
126.0623505768305
125.3375076885806
125.5901454501385
123.0478844684298
124.3604182153355
124.2844102030358
124.9181011474355
126.4921244632867
125.9004699237744
125.1414937731086
125.6739284957067
127.4199677603672
126.4304125763109
125.6632936693538
125.9018892855347
127.166205491469
127.0630661514486
125.9047317570017
125.8784626558303
124.7075230494338
105.8980346386078
84.51078101778424
78.21592843240121
79.69849923642128
96.44338586251152
77.29188292090876
76.34134497946903
79.37193820632265
86.89704290045484
74.57215146070227
77.08882831195619
80.36801452954036
68.96419096812154
69.93535480729845
76.05562018050227
79.63199086101679
81.30315146627829
81.8375848455527
81.98875150455783
81.88501089841067
81.11200149887871
81.61936708335884
81.63950333374511
81.6735891605275
81.64666853705171
81.86375754735751
81.69317543341566
81.80991716781294
80.91962424757574
81.31738734729363
81.2340417411657
81.33864187640353
81.92791604300704
81.60176575215584
80.84248900568601
111.4012642202077
81.84867657434795
81.44886840650926
81.04878202017069
126.0178492558452
81.95865319798517
81.56759702639474
81.72000934383296
133.0371589968651
81.7108491288103
81.40739874856806
82.51146143285946
137.6025354498134
205.8496552467453
217.473904382693
217.741138531386
215.7498576482995
224.984697951604
224.8595809288953
220.6783937591372
217.4907468822729
221.5628691231661
220.4387277531648
220.4029006060838
218.8042034098965
231.1919173799137
224.9944320483653
221.900211810518
219.479654220369
209.5557823394547
209.0582344174418
210.1549264516365
215.168366088069
210.6952277526501
209.6163860807192
209.9650247905143
214.5381449916402
211.1589156782907
209.8008434359701
210.0612433890626
213.984985313738
212.3738213038126
209.9988382777013
209.8754154738164
213.5391096533673
218.2421628699562
211.7134478405316
195.3119613659999
161.7750958413788
217.7204062065327
212.5961589204307
195.2998705303056
172.0428205538055
217.5073157248081
213.6158114429021
197.4953066102931
182.572515323334
217.1836017399804
215.018063108053
201.437837224794
202.5997801144371
95.80047620076776
18.90318823483624
3.893126955438378
5.419073660184902
75.17693540620341
11.00333516257142
4.762714290364505
5.580513121256015
51.47124990881003
5.803724189457533
4.041619153462721
6.17201861412802
28.1903726321889
2.366055131412104
4.385868528577158
6.411452956090005
8.139754197444912
10.02356009687082
11.41771887778997
10.86082566353424
7.988476114030165
9.947556106497304
11.14976901087114
10.87902170293066
8.612169804657565
10.50178251140695
11.4103568861309
11.46622128833661
8.780315045491742
10.9911991233427
11.882664381229
12.82952221220193
19.91577168492026
25.15956560714439
30.04037706814935
37.0885304210441
18.63253848016696
24.10154240447456
27.92657879016084
35.27784245720457
16.67644561996735
22.39536097196844
26.39469530244741
32.97346833849824
14.32379682153701
19.48665938378496
23.6201888900624
32.41025894748987
26.09104411926166
15.93966149870731
10.92626505521562
12.16514979518031
23.68525879347263
13.09471757003036
13.81226119527888
14.36187909443422
19.10254336519258
12.96263974802661
16.90019571043388
14.04290005495667
13.23732161778493
16.10086688467969
18.19013269759654
16.03682439731483
14.02709575504612
12.89438512084951
12.74851400674116
12.33000725942798
11.57902037865393
11.41010705465776
11.68349355590629
11.74922679892564
11.6718503124778
12.36070768985802
13.71815522498178
14.33029133644358
16.67391765138142
19.48593913752345
19.59196497405024
19.44343588048727
12.33000725943783
11.74922679893502
14.33029133645107
19.44343588041738
12.7485140067633
11.68349355592668
13.71815522501415
19.59196497395872
12.89438512085822
11.41010705468892
12.36070768987677
19.48593913743528
14.0270957550399
11.57902037866503
11.67185031248797
16.67391765137733
12.16514979515495
10.92626505515412
15.93966149857122
26.09104411899833
14.36187909439689
13.81226119528222
13.09471757001497
23.68525879331254
14.04290005494051
16.90019571043734
12.96263974802128
19.10254336513119
16.03682439728184
18.1901326975821
16.1008668847001
13.23732161776011
32.41025894739342
23.62018888987904
19.48665938343149
14.32379682128317
32.97346833840334
26.3946953023484
22.39536097163814
16.67644561965808
35.27784245707048
27.92657879007911
24.10154240417152
18.63253847984817
37.08853042088376
30.0403770680485
25.15956560686401
19.91577168460797
10.86082566336728
11.41771887779366
10.02356009689691
8.139754197387957
10.87902170280734
11.14976901083321
9.94755610652245
7.988476113988274
11.46622128822785
11.4103568860887
10.50178251140407
8.61216980463818
12.82952221204086
11.88266438116542
10.99119912332944
8.780315045474403
5.419073660069778
3.893126955305633
18.90318823461371
95.80047620048443
5.580513121176369
4.762714290247781
11.00333516245205
75.17693540574204
6.172018614046107
4.041619153358348
5.803724189396962
51.47124990862952
6.411452956034037
4.385868528486828
2.366055131349085
28.19037263209791
161.7750958409292
195.3119613666441
211.7134478410517
218.242162871142
172.0428205534291
195.2998705309032
212.5961589210471
217.7204062077988
182.5725153230969
197.4953066103925
213.6158114436325
217.5073157261765
202.5997801142442
201.4378372250719
215.018063108826
217.1836017414754
215.1683660903535
210.1549264536
209.0582344176897
209.5557823406668
214.5381449938988
209.9650247921529
209.6163860812943
210.6952277538665
213.9849853159767
210.0612433904938
209.8008434366303
211.1589156794987
213.5391096557461
209.8754154751256
209.9988382785981
212.3738213051338
215.7498576482558
217.7411385310168
217.4739043820989
205.849655244294
217.4907468821875
220.6783937587573
224.8595809284101
224.984697949895
218.8042034096464
220.4029006057422
220.4387277523943
221.5628691214862
219.4796542195199
221.9002118110199
224.9944320476381
231.1919173773559
111.4012642194134
80.84248900513104
81.60176575272415
81.92791604329481
126.0178492538781
81.04878201910554
81.44886840724432
81.84867657474045
133.0371589934389
81.72000934224442
81.56759702748936
81.95865319838316
137.6025354453766
82.51146143059346
81.40739875016499
81.71084912954278
81.88501089891072
81.98875150483744
81.83758484548679
81.30315146608967
81.67358916119191
81.63950333389165
81.61936708332949
81.11200149863878
81.80991716827086
81.69317543342628
81.8637575473233
81.64666853669225
81.33864187647052
81.23404174143738
81.31738734716397
80.91962424720701
79.69849923572988
78.21592843195874
84.51078101725359
105.8980346386371
79.37193820553011
76.3413449789531
77.29188292031505
96.44338586275009
80.36801452879207
77.08882831150285
74.57215145995355
86.89704290083236
79.63199086019387
76.05562017996901
69.93535480625364
68.96419096830707
126.4921244631241
124.9181011468295
124.2844102046342
124.3604182160791
127.4199677598384
125.6739284954798
125.1414937750987
125.9004699237389
127.1662054908581
125.9018892853509
125.6632936712546
126.4304125764954
124.707523049647
125.8784626556024
125.904731758302
127.0630661515609
123.0478844680574
120.8868756965175
113.8528053455091
90.72572455772912
125.5901454485672
124.9809336341455
122.7586864761035
102.1936636224724
125.3375076873675
125.459435869944
124.8650456194136
113.6518624823396
126.0623505752693
126.9509985536593
129.2903087287239
134.3468253646237
61.98864565193509
79.27348777496816
79.99121398079656
79.99995756988876
63.40822990401352
79.26295104563685
79.98934213443127
79.99992964362362
66.42954766766999
79.2828959507556
79.98614633719374
79.99988649339997
68.75387298932942
79.22230452171317
79.9758654849372
79.99973883977285
79.99962885247525
79.96392228927208
78.88705306618149
69.89404514640704
79.99962260468324
79.96376714639162
78.95517364669314
70.35237976923612
79.99960610969995
79.96369414672159
78.99055696374948
70.09272999027954
79.99958567460079
79.96489338886708
79.12567723370833
70.81893192944189
79.99973883862368
79.99988649218625
79.99992964063566
79.99995756704651
79.9758654854854
79.98614633722369
79.98934213418528
79.9912139800166
79.22230452113108
79.28289594937823
79.26295104642389
79.27348777466005
68.7538729889944
66.4295476666807
63.40822990336213
61.9886456524322
)
;

boundaryField
{
    back
    {
        type            empty;
    }
    inlet
    {
        type            zeroGradient;
    }
    front
    {
        type            empty;
    }
    top
    {
        type            zeroGradient;
    }
    outlet
    {
        type            fixedValue;
        value           uniform 80;
    }
    bottom
    {
        type            zeroGradient;
    }
    wall
    {
        type            zeroGradient;
    }
}


// ************************************************************************* //
