/*--------------------------------*- C++ -*----------------------------------*\
  =========                 |
  \\      /  F ield         | OpenFOAM: The Open Source CFD Toolbox
   \\    /   O peration     | Website:  https://openfoam.org
    \\  /    A nd           | Version:  11
     \\/     M anipulation  |
\*---------------------------------------------------------------------------*/
FoamFile
{
    format      ascii;
    class       surfaceScalarField;
    location    "0.1405";
    object      phi;
}
// * * * * * * * * * * * * * * * * * * * * * * * * * * * * * * * * * * * * * //

dimensions      [0 3 -1 0 0 0 0];

internalField   nonuniform List<scalar> 
1652
(
2.843686947071611
0.8895636090847481
0
1.954123337988149
0.8895636090834615
-2.220446049250313e-16
1.064559728916724
0.8895636089327237
-2.748912208971888e-13
0.8895545324690535
1.957212170111688e-11
0.1749976058447081
2.843686947076741
1.779127218162428
1.954123337998014
1.779127218162188
1.064559729001169
1.779127217174234
1.779048675581899
0.1750200728201434
2.843686947090741
2.668690827246526
1.954123338008367
2.668690827244562
1.064559729780125
2.668690819058629
2.668210330082116
0.1751107505154589
2.843686947092868
3.558254436328659
1.954123338013008
3.558254436324421
1.064559744584594
3.558254289633227
3.556646412067211
0.1752710619115377
4.418652025448567
2.872852967045247
5.279049614570416
2.872852967043177
6.13944720369513
2.872852967042481
2.872852967041112
6.999844792649428
4.418652025437514
2.012455377932159
5.279049614550991
2.012455377929711
6.139447203662736
2.012455377929193
2.012455377926355
6.999844792776437
4.418652218237701
1.152058920564227
5.279050833583696
1.152054147024849
6.138974079604484
1.152079988887584
1.152453412164693
6.998433171385022
4.438653978641293
0.2488689537037657
5.426922313152442
0.1092384353557466
6.462958011990128
0.04630776339709253
7.510624070925219
0.03140835122412999
6.941512743654005
0.05833191733282839
6.883175929853973
0.05833174160878285
6.824846714627998
0.05831953042931315
0.05832175744740631
6.766514830433982
6.941520462783597
0.1166450363120497
6.88323295929396
0.1165947653552112
6.824983164440214
0.1164855128754211
0.1164513643133847
6.766743366699504
6.946148512822672
0.1661586680657358
6.896927496762652
0.1614921570633764
6.849879013298268
0.1576243963778772
0.1524079416393689
6.801609294304791
7.588347172856328
0.02038407024973671
7.656027104391655
0.0142763644985015
7.71109780967931
0.01418327852698947
7.774617243648676
0.002158696432688179
7.837062897965422
0.04982712140988377
-0.1781239967777943
7.724961244542082
0.1066799571911822
-0.05571255229464023
7.613330320952409
0.08929654321036562
-0.01276241067562356
0.07121332729788643
7.518820868023507
-0.008961587301807294
6.827937450750467
0.0006189882513127909
6.888215087554546
0.002392287030210882
6.916755954872529
0.004542525525805807
0.005035088258413478
6.919598880851191
6.766997160941251
3.003091662512336e-05
6.767911551562307
9.790833918610353e-05
6.769390957059302
0.0002366375569331503
0.0003252207228735537
6.770170227655731
6.766516401725542
6.766520423857695
6.766515750581335
6.766503711302738
6.766488407840411
-0.0003120878777127523
6.766481888456197
-0.0002641377283799651
6.766490919291462
-0.000168352655219306
-6.921616570054745e-05
6.766506758472313
6.770154102602351
-0.004579142031688077
6.769550019670632
-0.003711043817166693
6.768340249501705
-0.002528187384376657
-0.001277926173335664
6.767111708937343
6.905825522969376
-0.05308274590345052
6.88015343988848
-0.03839743005270552
6.845987029055121
-0.02739109784794325
-0.01903919740196358
6.808203625102587
7.407977378985372
-0.006376984978904765
7.286676289783717
-0.003282928678392749
7.163404812477295
-0.002636512942040814
7.042118493716225
-0.003062318216577209
0.01148136181509385
6.928939642564136
-0.0009805050261160742
0.0003510679169035358
6.778697310393758
1.40027164471368e-05
6.766588008738228
6.766515440907058
0.003603642533544449
6.833783784528034
-0.001602890052434192
4.333865789363234e-05
6.768007454854439
1.339440575343076e-06
6.766518840115824
6.766516532010175
0.0003313195591208018
6.794194604093306
-0.001592230601249967
1.364677589599239e-06
6.766907470639564
-1.268857058311923e-07
6.766516605440621
6.766516736762376
0.002163256519404855
6.875813381285803
-0.1535309665438871
1.162773979734855e-05
6.767470737718083
-2.961031256853985e-07
6.76651385219931
6.766512869871627
0.1555532053267589
6.610960971078106
0.3110745790160248
6.61098641048757
0.4551610113558152
6.618284259609036
6.964227877046626
0.1250389298674729
0.1555467351626986
6.455409705770654
0.3108822671816806
6.455489078319058
0.4311668763600562
6.47477077649885
6.904560541687339
0.1464563034426731
0.1555212818819501
6.299869271603534
0.310438309606109
6.300167875843485
0.3986002364403782
6.335603270396907
6.789499779593791
0.09983055727501655
0.1554629958205987
6.144325901790053
0.3096076706421372
6.144834116082027
0.3597768551427958
6.199270759694532
6.593699860073222
0.07281371624173538
-0.3060564011759992
6.387502723760679
0.02933396522803555
-0.3081024410960396
6.068307797007466
-0.1553599358213864
5.989967433617095
5.988802612977262
-0.2526412370489585
6.198580897096788
0.009428229143314315
-0.3058595880315088
5.944373854331904
-0.155163038906876
5.835064397464782
5.833274556269126
-0.1942656478497994
5.99433866585194
-0.002248117642306258
-0.3029478515914909
5.805865633313452
-0.1550251088709416
5.680107923720019
5.677754746595954
-0.1240648230932058
5.725351000243704
0.001780334608146528
-0.2989337210627779
5.668591360146862
-0.1546317470229859
5.525726248665386
5.52228923206958
0.1981561139670603
5.323016727083769
0.3813892120762893
5.326543981622637
0.1563026274400806
5.463399239197804
5.416605718269568
0.03002763046516144
0.1973587853082707
5.123919527983535
0.372643878583455
5.12861065327744
0.1124987629828582
5.25297949807328
5.092574466114804
0.07133273306046073
0.1966578817717299
4.923320972149796
0.3695526818693661
4.928811275843249
0.215645091206962
5.032623592426082
4.913749345217413
0.1856006764892465
0.1977931569372013
4.726226123506341
0.3801815459574127
4.730432536591015
0.3632194628113897
4.800462146066445
4.774920631209403
0.370631208321003
-0.3404434327434112
5.061835550663115
-0.7298799789190049
5.076900527458463
-1.281536892092446
5.180996444188402
4.877832733912267
-1.433066702147823
-0.3421683381346945
5.396916231957355
-0.7306900963048816
5.424098518974806
-1.051956151630275
5.464790900082734
4.342108699121195
-0.4477795941022415
-0.338782609507113
5.731840397012125
-0.6809430311089236
5.74566114815081
-0.9422691096269088
5.739555811968572
3.703329694336783
-0.0563256868138193
-0.3344121535132968
6.066736558105129
-0.6648926497418027
6.067950447962527
-0.7957883500165092
5.930527583004367
3.328613340421299
-0.03776855242175641
0.3422851909260488
3.234137945286027
-0.01466269334512799
0.3388919050201218
6.003502509289741
0.1747960842922629
6.235757711861469
6.241623964430811
0.3081551894589718
3.123242355957891
-0.007305125655300733
0.3357417352664516
6.064601183463211
0.1747604909273788
6.407484809047923
6.416476399639854
0.3077374701331273
3.008025897957087
-0.0006786007773652014
0.3358848025634232
6.164367065087025
0.1748246481571232
6.581552715751616
6.591473990653116
0.2895529799077415
2.864906316662823
0.01128535744819671
0.334791700164327
6.276323356059872
0.174828328797358
6.756289391669583
6.766477824220601
-0.1831662239627151
3.251247165615062
0.07729341965352846
-0.01380856176772594
6.442801798318102
-0.0001429947596043313
6.762909060948882
6.766506011018425
-0.1237523500277671
3.765631728821546
0.1030529463158418
-0.005579919279283807
6.602309154629626
-4.111329909650685e-05
6.765479065328804
6.766514264160875
-0.08500835618586255
4.408468451932332
0.1123026283983719
-0.002350917036049616
6.708458599268003
-1.41505930502106e-05
6.766422372725875
6.766516366573694
-0.05765084532316567
0.1136207561830034
5.022727038321367
-0.001007767316850039
6.718830975252269
-5.44773151678335e-06
6.765948657671162
6.766516427093737
1.013550173934828
-0.949399894141759
-0.01112103662793884
-2.83817414015175e-12
1.975657383958359
-0.868364767401915
7.050360295579594e-12
2.858121596087947
-0.8745949067301728
4.358380323310485e-11
-0.8749760537316926
-3.648459312444174e-11
1.02041100280079
-1.791258866672705
-0.0139573850054843
1.976113766479363
-1.73465705898532
2.858122551003653
-1.749146525209289
-1.749951847424353
1.015032218265064
-2.555401342003887
-0.02469514404147148
1.976265945870795
-2.606839526681904
2.858124437960945
-2.623939154737219
-2.62492838252313
1.017794511821982
-0.04300312841263662
-3.266626296050905
1.977209725448562
-3.483836077673526
2.858141270079936
-3.499294313999162
-3.499913771563531
-0.05765084532289733
-4.408468451945399
0.1136207561819641
5.022727038330336
-0.001007767328569109
-6.708458599282999
6.718830975252307
-5.447782096990039e-06
-6.766422372745794
6.765948657700333
-6.766516366622358
6.766516427191815
-0.08500835619186886
-3.765631728844754
0.1123026284006731
-0.002350917046662682
-6.602309154653637
-1.415057095299765e-05
-6.76547906535529
-6.766514264116179
-0.1237523500477001
-3.251247165610483
0.103052946314291
-0.005579919305072956
-6.442801798302877
-4.111330391864954e-05
-6.762909060957366
-6.766506011031916
-0.1831662239553508
-2.864906316649478
0.07729341965080556
-0.01380856175279632
-6.276323356047473
-0.0001429947550981581
-6.756289391654718
-6.766477824219415
-0.1747960842926486
6.24162396446494
-6.066736558159143
-0.3388919050109543
6.235757711907761
-6.067950447992571
-0.3422851909191579
6.003502509242382
-5.930527582946203
3.234137945247913
-3.328613340378263
-0.01466269334515292
-0.1747604909026707
6.416476399661623
-0.3357417352463047
6.407484809098114
-0.308155189454826
6.064601183443466
3.123242355930197
-0.007305125654606094
-0.1748246481492972
6.591473990664219
-0.3358848025427656
6.581552715763646
-0.3077374701267591
6.164367065061932
3.008025897943186
-0.0006786007767148119
-0.1748283287852883
-0.334791700139612
-0.2895529798978995
0.01128535744662153
0.7957883500186212
-3.703329694296916
-0.03776855242207303
0.6648926497734381
-5.739555811939274
0.3344121535389578
-5.745661148197377
-5.731840397043084
0.9422691096325777
-4.342108699093064
-0.05632568681202481
0.6809430311296544
-5.464790900064606
0.3387826095136738
-5.424098519031772
-5.396916231978972
1.051956151641565
-4.877832733903109
-0.447779594099987
0.7306900963282821
-5.180996444185769
0.3421683381394862
-5.076900527500144
-5.061835550636066
1.281536892106864
-4.774920631209916
-1.433066702151176
0.7298799789390702
-4.800462146070324
0.3404434327386399
-4.730432536585178
-4.726226123486733
0.1981561139779719
5.323016727106675
-5.522289232117306
0.3813892121094871
5.326543981615692
-5.525726248734093
0.1563026274460607
5.463399239156418
-5.668591360001612
5.416605718246879
-5.72535100017887
0.03002763046831047
0.1973587853023665
5.123919528009084
0.3726438785783356
5.128610653247251
0.1124987629975781
5.252979498028554
5.092574466104868
0.07133273306240406
0.1966578817778546
4.923320972407989
0.369552681887178
4.928811275830537
0.2156450912133802
5.03262359240683
4.913749345216296
0.18560067648983
0.1977931569500392
0.3801815459787695
0.3632194628143497
0.3706312083208059
-0.1240648230468431
-5.994338665848689
0.001780334614919443
-0.2989337210227495
-5.805865633288961
-0.1546317469992439
-5.680107923681159
-5.67775474661422
-0.1942656478693063
-6.198580897126641
-0.002248117644137015
-0.3029478515934604
-5.944373854481747
-0.1550251088731319
-5.835064397660158
-5.833274556284869
-0.252641237061449
-6.387502723750721
0.009428229147320111
-0.3058595880008388
-6.068307796974202
-0.1551630388866222
-5.989967433668856
-5.98880261298892
-0.30605640113393
-6.593699860040908
0.02933396523508169
-0.3081024410876476
-6.199270759617941
-0.1553599358159535
-6.144834116077244
-6.144325901802115
0.1555532053328177
6.610960971123979
-6.766512869918129
0.3110745790188378
6.6109864105236
-6.766513852181887
0.4551610113642334
6.618284259619517
-6.767470737725127
6.964227877050662
-6.875813381286378
0.125038929862386
0.1555467351652826
6.455409705765313
0.310882267184915
6.455489078329565
0.4311668763514402
6.474770776503776
6.904560541728957
0.146456303456156
0.1555212818875705
6.299869271599794
0.3104383096160649
6.300167875838288
0.3986002364472578
6.33560327043055
6.78949977959659
0.09983055727956902
0.1554629958112904
0.3096076706220787
0.3597768551408902
0.07281371624002286
-6.766516736769791
2.961069487383838e-07
-6.766516532012238
1.268808310639358e-07
-6.766515440903305
-1.339440579450901e-06
-1.400271208873427e-05
-6.766506758468536
-6.766516605456971
-1.162774058460769e-05
-6.766518840134306
-1.364677855497654e-06
-6.766588008745543
-4.333865493277855e-05
-0.0003510679142071371
-6.767111708945428
-6.76690747064451
-0.002163256519731815
-6.768007454854523
-0.0003313195571049143
-6.778697310382197
-0.003603642534489082
-0.01148136181743264
-6.808203625081715
-6.794194604084881
-0.1535309665393473
-6.83378378451084
-0.001592230600936662
-6.928939642561239
-0.00160289005430525
-7.042118493716306
-0.0009805050172457808
-6.921617151123272e-05
-6.766490919290179
-0.001277926180545452
-6.768340249494497
-0.01903919739972992
-6.845987029074174
-7.163404812489529
-0.003062318214833104
-0.0001683526555947834
-6.766481888450825
-0.002528187386024339
-6.76955001967301
-0.02739109783295157
-6.880153439892354
-7.286676289789384
-0.002636512938664404
-0.0002641377282478485
-6.766488407851019
-0.003711043818673043
-6.770154102601809
-0.03839743005649937
-6.905825522981779
-7.40797737899206
-0.003282928679303798
-0.0003120878812921113
-6.766503711298649
-0.004579142041936213
-6.770170227672622
-0.05308274589583145
-6.919598880867087
-7.518820868031418
-0.006376984977763456
-3.003093010212066e-05
6.766516401718455
-6.7665148304273
-0.0006189882684459747
6.766997160923991
-6.766743366678463
-0.04982712143158702
6.827937450655432
-6.801609294278727
7.837062897993546
-7.774617243700346
-0.1781239967782446
-9.790834346645738e-05
6.766520423858598
-0.002392287033252005
6.767911551564838
-0.1066799572031911
6.888215087510468
7.724961244561256
-0.05571255229960659
-0.0002366375570850288
6.766515750579178
-0.004542525525980778
6.769390957070008
-0.08929654322157227
6.916755954878547
7.613330320966814
-0.01276241067738926
-0.0003252207288544362
-0.005035088268109611
-0.07121332730252405
-0.008961587304074592
-0.1524079416489407
-7.711097809726081
0.00215869643877431
-0.1164513643279586
-6.849879013426686
-0.05832175744676393
-6.824983164435537
-6.824846714626745
-0.1576243964045639
-7.656027104425951
0.01418327852569523
-0.1164855128908823
-6.896927497014165
-0.05831953044007998
-6.883232959281773
-6.883175929569663
-0.1614921570996627
-7.588347172837371
0.01427636450863667
-0.1165947653770502
-6.946148513011198
-0.05833174159771748
-6.941520462800298
-6.941512743645702
-0.1661586680566086
-7.510624070852718
0.02038407024757388
-0.1166450363348638
-6.998433171367034
-0.05833191733847098
-6.999844792819553
-6.999844792646205
-1.15245341209351
-6.46295801196169
0.03140835123573071
-2.012455377911113
-6.138974079433791
-2.872852967041078
-6.139447203690685
-6.139447203692209
-1.152079988910445
-5.426922313135146
0.04630776341984721
-2.012455377916428
-5.279050833572974
-2.872852967042238
-5.27904961456646
-5.279049614567312
-1.152054147024934
-4.438653978635009
0.1092384353707477
-2.012455377921992
-4.418652218230441
-2.872852967044603
-4.418652025443837
-4.418652025446893
-1.152058920561714
-3.556646411939625
0.2488689536005408
-2.012455377927508
-3.558254289636986
-2.872852967046921
-3.558254436324423
-3.558254436328661
2.843686947076677
0.8895636090796828
1.954123337995112
0.889563609081564
1.064559728922523
0.8895636089341321
0.8895545324202885
0.1749976058202531
2.843686947077599
1.7791272181565
1.954123337999196
1.779127218159969
1.064559729002261
1.779127217177351
1.779048675602532
0.1750200726578547
2.843686947089469
2.668690827241873
1.95412333800662
2.668690827242819
1.064559729778144
2.668690819068778
2.668210330037094
0.1751107504540336
2.843686947088214
1.954123338006611
1.064559744577533
0.1752710620760898
0.1749965668759936
0.1749965667959699
0.1749908338891817
0.1750186257416943
0.1749976769348157
0.1750930450481605
0.1752810730946092
0.1749101061550963
0.1750186259771765
0.1749908337428875
0.1750131352450156
0.175013134998342
0.1750035009218219
0.1750638486879358
0.1745190743424576
0.1755743001851208
0.1750930451016385
0.174997676894262
0.1750638486343479
0.1750035005720884
0.1750072848075841
0.1750072854354561
0.171909599373909
0.1770559841466972
0.1752810730476703
0.1749101060817954
0.1745190742522442
0.1755743000172711
0.1719095993807353
0.1770559846499279
0.1715362245215758
0.1715362247402181
-0.07293537646321446
0.2431206995208831
-0.1352558387929421
0.2375960623565308
-0.2014559111438754
0.239906429117435
0.2207045491782318
-0.01336906562599216
0.2552103289891947
-0.03275342603751996
0.2557582024515502
-0.0613428797236093
0.2665913342248888
0.2662602888208199
-0.006232730252407004
0.2599383856813126
-0.01905400930605938
0.266687701495991
-0.03073576915121445
0.2763360590140289
0.2796571447938824
-0.006682904740439422
0.2641813272262095
-0.01712705840085993
0.2755259430356731
-0.02438855274971319
0.2825354407436549
0.2851119184479323
0.2876813316356533
0.01677239987476953
0.2893807123981922
0.01190853437475931
0.2917463142634042
0.01172352883309119
0.001823515247690533
0.2929432762680634
0.2872559511244996
0.01089323022679434
0.290063203570414
0.008841968775866182
0.2938028208945985
0.008474059075093909
-0.004095823167760027
0.3014230550304222
0.2834460923682361
0.002184534962765494
0.2890483973861058
0.003040098748522513
0.2939256704714002
0.004040467972642015
-0.0296138919100471
0.321063312388649
0.2659208868012855
0.2687757098712877
0.2730686322758461
0.2468016444892548
0.2713806843639676
-0.1552034187408287
0.245262941129416
-0.02704605614863359
0.2396735943505531
-0.003854718560805215
-0.007283939888829305
0.2419860488849591
0.265151134243662
-0.1176041528551959
0.2470057749414389
-0.00692369445877794
0.2451577190623862
0.001079826752781898
-0.00503357685842909
0.2470000457926349
0.2711740225479294
-0.06621944449525341
0.2559593875677029
0.009199894765425043
0.2525258418421296
0.007867055003722645
0.0008866717147312242
0.2510732667190835
0.1813784292524762
0.1913280609815272
0.2021960592156961
0.2075507663828438
0.2439163404428547
-0.005441130105334369
0.2440712339769525
-0.002051037722953453
0.2429694867211927
-0.0008735249837690806
-0.001627550931656507
0.241540375266914
0.2470161361080199
-0.002475204583111457
0.2456422568724054
0.0009398693433445016
0.2437009541380493
0.001965841104718646
0.0009099719271822293
0.2425124252762978
0.2490502256432313
0.002606019398738391
0.2468763593618953
0.004895846348532684
0.245037032542482
0.005067932753998861
0.003761011593573227
0.244034680387597
0.2134292174145843
0.2200306737797816
0.2258962601627534
0.231267927862844
0.240812204584423
-0.0003437004371945052
0.238511173014051
-0.000707668277228457
0.2361655636887826
-0.001702552284678749
-0.1711393122380648
0.2449893306501122
0.2417788834661855
0.0004131758083154025
0.2392327154810486
0.0006075452816571847
0.2373293013538691
-0.003034450739034911
-0.1583323285429382
0.2145513723018296
0.2429847022438279
0.001922576835311773
0.2405102648461884
0.001976694603654516
0.2371082165757042
-0.003544984085391278
-0.1034475163424353
0.1724521759890448
0.2344416233370469
0.2345918341509529
0.2265500507449071
0.1123229337240374
0.2670393363842555
0.09295715715223873
0.2704653752861284
0.1354440518431771
0.2747897905274536
0.08935280182425631
0.06041351909658321
0.2782938876321581
0.2429844424962306
0.05750066260508857
0.2658216994218861
0.1077147114969242
0.275112919244389
0.07641560347254506
0.04803231093304305
0.2807914386960271
0.1983034955866089
0.02471729439426129
0.2399240541133494
0.0595635473267675
0.2672927727264199
0.04593404227083375
0.03052498473514942
0.2796076608595025
0.1322412162921336
0.1867637449096732
0.2287485358440481
0.2548323668901308
0.2770366070825653
0.02352603351831306
0.2793926632742812
0.005729038696651423
0.2840573250681433
-0.003572642340253784
5.854622898160411e-05
0.2928491582358546
0.2801231892172216
0.01902387084863066
0.2816662804900858
0.004435193741291532
0.2851006646007587
-0.002731708611577899
-0.0009787505953288145
0.2940587432690324
0.2804779775264053
0.01337978327630318
0.2830364899887439
0.003302084694402962
0.2868916299524999
-0.001277140190193315
-0.0003642408434610944
0.2951454110045242
0.2625453080979498
0.2673417688195965
0.2714621312353643
0.2799740090847771
0.3071514230930504
0.02339389040531059
0.3250780231630012
0.05702701146115241
0.3597118327991825
0.1566666350894806
0.3045609354857008
0.4274845640449281
0.3102556559227619
0.01507301340842937
0.3277709714946482
0.04362552423252408
0.3592613314119875
0.129759688485084
0.2017688168504653
0.4628059377998693
0.3106170466741507
0.009347729451818165
0.3289907012200161
0.03051957944052752
0.3686945163102465
0.0918312172312804
0.04859738035657102
0.5247540498165053
0.2995589345379754
0.3365446816934781
0.4306420189797757
0.4814633982431721
0.2184729717197336
-1.217949664816278
0.02261126801838787
-0.2491236029543637
0.003219011595514022
-0.03145153745593061
-0.02718531545647014
-0.0001580843253646477
0.1530856269864461
-0.9053579052622676
0.01175017837818439
-0.1062016009142794
0.001978107982763123
-0.01563028165254885
-0.01533716190295491
-0.002994983145099799
0.07681893135924914
-0.4552836820869579
0.004101568542470308
-0.03186107317324428
-0.002181511621372792
-0.004261082709987287
-0.007175508781712268
-0.003117109398560755
0.02747365105511023
-0.002202231270039415
-0.001728873274873614
-0.002215274265488919
0.001482034472350914
-0.01252777900300459
0.001265021591552971
-0.004587070970012957
-0.0004637511266762165
0.001998618485961112
0.006694176172889317
0.003971297435216178
-0.002599262230263006
-0.00917606250421478
-0.003283766475463102
-0.002645173523041701
-0.003726427127626978
0.001343302197325716
0.005029872156269564
-0.0041393490320621
-0.003694169139364599
-0.004664734321667814
-0.004583325755043229
-0.0009496122975881649
-0.005485153082889263
0.0008823204604198401
0.0038046698281234
-0.007762912492422343
-0.003351312637873839
-0.006456036841199747
-0.007736883029004524
-0.007864969179371926
0.0456646339302309
0.0381163223598634
0.08643620424736893
0.07158273959686
0.1259368138834024
0.08814430054726899
0.1016100611413305
0.1592368331916489
0.021542596207565
0.01341692210823477
0.06150132302048386
0.0391653231860848
0.1029177027121984
0.06003596500779707
0.07835298921443312
0.1454210279653161
0.004424379217277799
0.001414389221861156
0.03711027567820191
0.01237975675295157
0.07861301312330096
0.03042326535092042
0.04970975093066818
0.1246198294131122
-0.008119539561353233
0.007437016620988147
0.04694367153308825
0.1088324985855109
0.126812767332258
-0.144446119152548
0.1886716793120394
0.1005658614630122
-0.09590852337079195
0.1374374712750523
0.07496019718881429
-0.07867534094056164
0.09586046652916241
-0.06575598608655189
0.04305826409094272
0.09196338747448307
0.1106083873296042
-0.1014783523797365
0.08315161515121589
-0.06609725352632256
0.05123692460473632
-0.05667059879766261
-0.03279230119137454
0.01833442509257572
0.09152269711711924
-0.06175843555659546
0.0488876533171889
-0.03475697329552671
0.01409891075865575
-0.02490897456742049
-0.01024450630974109
-0.007541998428231948
0.04636316348384367
0.005003006958806844
-0.01442660403396868
-0.02060103090878242
-0.01728501888326987
0.001721725723985674
-0.0112256211770041
-0.002244363086425786
-0.005582207169620358
-0.005119469964099723
-0.007112532450540509
-6.161737786669619e-14
-0.01007616637371268
0.008062198824058821
-0.007417057118523009
-0.001004315508872559
-0.003101493433324273
-0.007031403550350411
-0.008919639720849866
1.77635683940025e-14
0.006463366109895056
0.02217834148157451
0.002050036890861612
0.007315702856265611
0.001104347341133315
-0.0006592729127465613
-0.003119317942169107
1.538283389557193e-13
0.02678870753081802
0.01584162294811192
0.007387918845500947
4.377817552914109e-13
-0.00711253245057742
0.005582207169538021
-0.008919639720854196
0.003101493433349641
-0.003119317942199062
-0.001104347340835386
-0.007387918844418452
0.01112103662760384
-0.005119469964134175
0.01122562117701229
-0.007031403550366093
0.007417057118537497
-0.0006592729127439384
-0.002050036890503669
-0.01584162294737476
0.01395738500580245
-0.002244363086455488
0.01728501888329808
-0.001004315508901753
0.01007616637378271
0.007315702856223912
-0.006463366109520037
-0.02678870753019578
0.02469514404150007
0.001721725723952183
0.02060103090885044
0.008062198823999249
0.007541998428346745
0.02217834148145784
-0.01833442509220174
-0.04305826409041706
0.04300312841253405
-0.07496019718838597
-0.06575598608639077
0.09196338747446049
-0.1005658614625123
-0.07867534094048094
0.09586046652907455
-0.1268127673317394
-0.09590852337070062
0.1374374712748689
-0.1444461191522539
-0.1592368331913062
0.1886716793117553
-0.05123692460451247
-0.03279230119128947
-0.08315161515098925
-0.05667059879762615
-0.1106083873292954
-0.06609725352624467
-0.1014783523795517
-0.1454210279649908
-0.01409891075854443
-0.01024450630969753
-0.04888765331697273
-0.02490897456738421
-0.09152269711691091
-0.03475697329551736
-0.0617584355564719
-0.1246198294128261
0.01442660403406872
-0.005003006958670682
-0.04636316348362871
-0.1088324985851914
-0.04694367153276691
-0.04970975093054597
-0.007437016620635409
-0.03042326535081255
0.008119539561191519
-0.01237975675226868
-0.001414389221789797
0.007864969179158379
-0.07861301312310703
-0.07835298921415146
-0.03711027567731954
-0.06003596500826645
-0.004424379216941228
-0.03916532318466241
-0.01341692210756273
0.007762912492216858
-0.1029177027122288
-0.1016100611406263
-0.06150132301950436
-0.08814430054893854
-0.02154259620667268
-0.07158273959513417
-0.0381163223580438
0.004139349031860019
-0.1259368138832378
-0.08643620424658768
-0.04566463392912389
-0.003971297434860431
0.0004637511262754954
0.006694176172159998
-0.001265021591424713
0.001998618486156886
-0.001482034472077854
-0.004587070969492506
-0.01252777900292854
0.0001580843254491756
0.003726427127269774
0.005029872155888029
0.003283766475538982
0.001343302197277262
0.002599262230554207
-0.002645173522606049
-0.009176062504118447
0.002994983145340743
0.005485153082659603
0.003804669828013009
0.004583325754995612
0.0008823204603564325
0.003694169139714746
-0.0009496122973800813
-0.004664734321631676
0.003117109398872464
0.007736883028749971
0.006456036841081977
0.003351312638144449
0.002215274265736481
-0.003219011596096547
-0.02718531545671278
-0.02261126801746991
-0.03145153745523303
-0.2184729717178573
-0.2491236029527618
-1.21794966481797
-0.427484564043924
-0.001978107982767392
-0.01533716190308252
-0.01175017837779502
-0.01563028165226898
-0.1530856269851789
-0.1062016009134728
-0.9053579052634831
-0.4628059377988458
0.002181511621381501
-0.00717550878170576
-0.004101568542275161
-0.004261082709891176
-0.07681893135850697
-0.03186107317299334
-0.4552836820876443
-0.5247540498165739
0.001728873275045349
0.002202231270036203
-0.02747365105488801
-0.48146339824348
-0.3597118327995534
0.30456093548579
-0.325078023162805
0.156666635086474
-0.3071514230930065
0.05702701146272626
0.02339389040830708
-0.2928491582363926
-0.359261331411219
0.2017688168492743
-0.3277709714944507
0.1297596884839186
-0.3102556559230144
0.04362552423439503
0.01507301341164857
-0.2940587432700445
-0.3686945163110374
0.04859738035525518
-0.328990701220447
0.09183121722940846
-0.3106170466745138
0.03051957944245831
0.009347729453897946
-0.2951454110056211
-0.4306420189810664
-0.336544681696815
-0.2995589345406769
-0.2799740090873882
-0.2840573250702095
5.854623538414927e-05
-0.2793926632760629
-0.003572642342258181
-0.2770366070828307
0.00572903869878949
0.02352603352559879
-0.2782938876298286
-0.2851006646025691
-0.0009787505903708915
-0.2816662804924051
-0.002731708613051942
-0.2801231892186434
0.004435193743378862
0.01902387085491586
-0.2807914386944574
-0.2868916299546256
-0.0003642408403061737
-0.283036489991267
-0.001277140191355053
-0.2804779775277026
0.003302084695927077
0.01337978328195877
-0.2796076608582055
-0.271462131237691
-0.2673417688239114
-0.2625453081001373
-0.254832366883566
-0.2747897905264605
0.0604135190966909
-0.2704653752880261
0.08935280182906946
-0.2670393363855879
0.1354440518580943
0.09295715714597141
-0.2449893306519403
-0.2751129192428995
0.04803231093389726
-0.2658216994228651
0.07641560347675447
-0.2429844424917724
0.1077147115063113
0.05750066260252984
-0.2145513723032944
-0.2672927727244068
0.03052498473471121
-0.239924054112492
0.04593404227245534
-0.1983034955829997
0.05956354733167124
0.02471729439099057
-0.1724521759870223
-0.2287485358395991
-0.1867637449079326
-0.1322412162878803
-0.1123229337242734
-0.2361655636885639
-0.1711393122348361
-0.2385111730132907
-0.001702552285816505
-0.2408122045866468
-0.0007076682775508658
-0.0003437004325325121
-0.2415403752683563
-0.2373293013538386
-0.1583323285400493
-0.2392327154805668
-0.003034450740892813
-0.2417788834675244
0.0006075452821228122
0.0004131758108581463
-0.2425124252778332
-0.2371082165754945
-0.1034475163368898
-0.2405102648458894
-0.003544984086722491
-0.2429847022444093
0.001976694604383711
0.001922576836353274
-0.2440346803885975
-0.2265500507436484
-0.2345918341543972
-0.2344416233389189
-0.2312679278643275
-0.2429694867218664
-0.001627550930624999
-0.2440712339774181
-0.0008735249811647194
-0.2439163404433716
-0.00205103772377524
-0.005441130104730574
-0.2419860488844807
-0.243700954138552
0.0009099719280581953
-0.2456422568728129
0.001965841106841115
-0.2470161361081437
0.0009398693423648408
-0.002475204582655044
-0.2470000457925844
-0.2450370325426561
0.00376101159430392
-0.2468763593619724
0.005067932755503879
-0.2490502256432411
0.004895846347781174
0.002606019398900317