/*--------------------------------*- C++ -*----------------------------------*\
  =========                 |
  \\      /  F ield         | OpenFOAM: The Open Source CFD Toolbox
   \\    /   O peration     | Website:  https://openfoam.org
    \\  /    A nd           | Version:  11
     \\/     M anipulation  |
\*---------------------------------------------------------------------------*/
FoamFile
{
    format      ascii;
    class       volScalarField;
    location    "0.1405";
    object      T;
}
// * * * * * * * * * * * * * * * * * * * * * * * * * * * * * * * * * * * * * //

dimensions      [0 0 0 1 0 0 0];

internalField   nonuniform List<scalar> 
880
(
300
300
300.0000000008902
300.0007036974037
300
300
300.0000000092813
300.0029220211139
300
300
300.0000000922446
300.0158005813337
300.0000000000001
300
300.0000015726116
300.0340136072617
300
300
299.9999999999999
299.9999999970735
300
300
299.9999999999997
300
299.9999892675356
300.0001272042408
300.0530314204799
299.9191345892605
301.4759098561976
305.4654862963534
309.0017044478965
310.3657044682927
300.0000077639843
300.000066673117
300.0001067377386
300.0000882541924
300.0002324855895
300.0006310659891
300.002209171368
300.0019495937806
300.1108075811488
300.248498825296
300.4472916842341
300.527529539207
311.9342894686493
313.8296424357113
315.55255401765
317.7042965009911
317.1984952681013
314.2426805214099
311.717521666804
310.0834146489068
300.9268395030945
301.8875360678375
302.223502365643
302.1539220094029
300.0057020360422
300.018187308717
300.0351760455442
300.0453599734145
300.0002732937999
300.0007973038326
300.001859362808
300.0023194980375
300.0020773158791
300.0014289215092
300.000639922465
300.0001444089879
300.0440381696369
300.0367767153822
300.0250452261398
300.0114876032732
301.8363207502752
301.4402682487303
301.0258278141899
300.6150423049076
308.4458564154867
306.5362389032108
304.7852084210123
303.3536597819037
302.1533452508317
300.2513654388241
300.0026180703216
300.0000086260929
301.155723280775
300.0586935005419
300.0002574174727
300.0000007618664
300.2828546539814
300.0038713733849
299.9999939638985
299.9999990290949
303.9290703604956
300.0310629082937
299.9998932749639
299.999996759103
299.9999419288779
299.9999151964247
300.1492082548736
326.8074940836806
300.0000071292727
300.0025127493474
300.843493499825
345.5722862187779
300.0002405229088
300.005797398397
301.801580938833
356.5921979227615
300.0009154900712
300.0206742597925
303.3316314617887
365.5282245921406
372.4657191704429
305.2216682729249
300.0331276514777
300.0015898381045
380.1172546934386
307.7066329307814
300.0739234481627
300.0033749066324
386.5106926826732
310.3082625511035
300.099015792421
300.0040474960998
393.3130815667286
313.164936385017
300.1623251960527
300.0072780476575
300.0090293637682
300.2201894511832
316.7197257437435
398.4232186652173
300.0144992193769
300.3461236319007
320.3134542687181
397.9311964222437
300.0313605563564
300.4558618661322
319.5595312326357
386.6355522831319
299.9972338893441
300.2362364118692
312.8766202416421
363.1921142498014
300.0466149571919
300.7507486614014
313.1151633276228
342.6954397186494
300.0564913404147
300.8912520413703
307.5928763543643
319.750492151101
300.0166976472837
300.5284550919014
306.2541339358987
312.2803471858786
299.9959489925591
300.1906126723841
305.3967201855644
321.3312655526822
319.9092862941629
302.3486150828388
299.8606320314134
299.9888196463447
313.4393692935114
299.9047439801563
299.7744959501248
299.9921625648826
307.0749110374225
298.2999061329771
299.7353047057372
299.9972413005238
297.9638587871306
297.6021007607566
299.786632510756
299.9985352297618
289.2751239616433
297.906689401781
299.926965320806
299.9995615310785
280.9109160897378
298.604887981548
299.9789220460401
299.9998964143827
278.3381449586441
299.0220219618652
299.9906182529235
299.9999641789945
279.81677892954
299.5650299494985
299.9974670868403
299.9999840703576
298.8564227646484
299.3679360313523
299.9652490712169
299.9996093698256
299.3076085583597
299.4216018154751
299.9617047948416
299.9995814589543
298.7877575438768
299.4295937525472
299.9585923340377
299.99951533378
299.7840116232691
299.5416632750494
299.9468167900341
299.9993128864464
279.8167789291411
299.5650299486493
299.9974670853978
299.9999840732152
278.3381449582341
299.0220219616589
299.9906182501231
299.9999641785137
280.9109160891372
298.6048879830772
299.9789220465443
299.9998964147368
289.275123961993
297.9066894039975
299.9269653208666
299.9995615302307
299.988819646599
299.8606320332484
302.3486150824706
319.909286293814
299.9921625661772
299.7744959511467
299.9047439812416
313.4393692936653
299.9972412988876
299.7353047075918
298.2999061318972
307.0749110377447
299.9985352304923
299.7866325118395
297.6021007628014
297.9638587866355
321.3312655508481
305.396720183734
300.1906126690083
299.9959489911589
312.2803471838843
306.2541339345231
300.5284550907875
300.0166976450913
319.7504921520419
307.5928763530181
300.8912520416862
300.05649133975
342.6954397187912
313.1151633272624
300.7507486601951
300.0466149612429
300.0090293627948
300.2201894551547
316.7197257454264
398.4232186658406
300.0144992191398
300.3461236343909
320.3134542702372
397.9311964226422
300.0313605559238
300.4558618662264
319.5595312321335
386.6355522832428
299.9972338952282
300.2362364121993
312.8766202408669
363.1921142496024
393.3130815680521
313.1649363847556
300.1623251961716
300.0072780482121
386.5106926848235
310.3082625543965
300.0990157926909
300.0040474963835
380.1172546933494
307.7066329300276
300.073923456485
300.0033749054647
372.4657191709526
305.2216682719387
300.0331276425896
300.0015898371942
299.9999419306523
299.9999151972729
300.149208254832
326.8074940824078
300.0000071288684
300.0025127499607
300.8434935010333
345.5722862188042
300.000240521786
300.0057973935315
301.8015809388851
356.5921979235125
300.0009154884262
300.0206742676126
303.3316314619275
365.528224591957
299.9999967584857
299.9999990299269
300.0000007618136
300.0000086253738
299.999893273236
299.9999939647312
300.0002574194919
300.0026180683171
300.0310629087475
300.003871373935
300.0586934988023
300.2513654394343
303.9290703607217
300.2828546542724
301.1557232806627
302.1533452510274
300.0001444066281
300.011487603798
300.6150423065202
303.353659782328
300.0006399225418
300.025045225722
301.0258278160555
304.7852084210895
300.0014289229219
300.0367767156212
301.4402682479414
306.5362389026707
300.0020773159923
300.0440381698636
301.8363207512753
308.4458564148169
300.0002732917542
300.0057020344254
300.9268395036721
317.1984952683795
300.0007973015369
300.0181873083896
301.8875360684096
314.2426805208273
300.001859361325
300.035176047026
302.2235023657025
311.7175216664075
300.0023194969296
300.0453599747932
302.1539220096843
310.0834146478775
317.7042965019296
300.5275295419302
300.0019495928066
300.0000882532518
315.5525540179272
300.447291686306
300.0022091710589
300.0001067361765
313.8296424369586
300.2484988257869
300.000631066044
300.0000666747339
311.9342894678958
300.1108075797453
300.0002324851276
300.0000077648673
310.3657044677394
299.9191345884242
300
299.9999999977571
309.0017044465986
300.0530314162698
300
300.0000000000001
305.4654862963461
300.0001272037219
300
300
301.4759098568942
299.9999892668585
300
299.9999999999999
300
299.9999999999999
300.0000000010572
300.0007037018976
300.0000000000002
300
300.0000000094316
300.0029220213519
300
300
300.0000000923628
300.0158005794953
300
300
300.0000015711968
300.0340136080867
300.0018757133731
300.0070223702415
300.0269775301444
300.3088077224535
300.0070223872444
300.0101430071117
300.0378877555769
301.1482819885986
300.0269775631284
300.0378877018409
300.4675031794843
306.834142005235
300.3088076686278
301.1482818936491
306.8341421550567
326.7607700290959
355.5907091462952
336.7730811322983
323.6073011049017
311.4783488185577
351.9884133094369
347.2563948358418
342.711310940784
333.9034429402818
349.4641259679757
347.3002834022521
345.1133519658396
341.1485170596191
347.3540219644733
346.4970148498281
346.1864533082139
344.215484516009
345.5464739526616
345.6522292900182
346.3235036743083
348.0920807370426
346.126732656352
345.1957715946833
345.5562747667179
347.3627846631871
346.4025571600655
344.9735961448332
344.8500708529685
345.9052630833964
346.9241908190224
344.9887475175278
344.5481560805804
341.7438234829539
331.04569106561
311.4788729713708
302.581138298108
303.4342420945056
321.9562537079805
303.8909091686588
301.0027691544908
304.3219991735082
311.2139207779813
298.5151271393353
301.8925515300874
306.088153507189
287.6321173866254
291.6687584163165
301.393328288939
305.7584869895165
303.8651647002011
303.4877624292273
302.8752982184894
302.3124149711567
304.7504883718817
304.2012093331052
303.1333361212398
302.4114237808132
306.0343024611234
305.1089248883567
303.6023794303734
302.7528149450367
305.5580805808972
304.6834110124762
303.2024514409688
302.2631770707926
302.2331462069949
301.7152388527541
300.8791138349599
336.6917844718614
302.2076383881242
301.5211376417495
301.0827840623862
353.8254810924449
302.3622871967907
301.5994726131159
301.9501142077102
363.2614644546977
302.0837459833679
301.4376225223188
303.2877887832121
369.4455531834365
413.0222060039596
422.5814751763295
424.5347267419094
425.7285214895699
425.7701818754704
427.726014743948
425.572913854298
424.452244393621
427.5845205055923
426.3400130501553
425.2500790893775
423.1683723951456
434.8317619446827
429.6130618559142
425.9896010548009
422.684909579866
424.7419303018761
426.2402773641509
428.086884753563
431.4426907762451
421.9329472572152
422.553437130983
423.6169780429245
426.6889218548941
418.3582507033241
418.0577645763399
418.490843902349
420.8843238695805
417.4195758003834
416.1349640162398
416.1325625052206
418.1775873167887
432.509724965035
427.8339346301097
416.4211494055202
396.7992749067133
428.2832047525159
424.6631413169342
414.4393700652579
413.9655543150831
422.8674711311298
420.767298003384
415.9047986044392
428.8828855359497
420.0358709140347
419.6928871283124
421.2116521272794
410.5196715426258
361.7883268430825
299.1039286446887
203.4622798159198
198.2260324512283
351.1897540849542
263.8719767391592
185.4644555570849
162.9693006073247
318.1183782688556
215.9658181663278
161.2352189775583
149.6850275337011
241.5426980921103
150.8535999075805
157.8770306770764
146.5167138783334
215.447493293287
230.3924543174929
240.7829675725602
239.5509283408243
175.5220562491927
196.0285413999273
216.8470603093431
231.7307146920213
154.7976313503719
170.6961390573126
199.7906938337292
232.1698290226288
148.266372657371
162.9379898303022
196.8634686495876
238.0698016687877
271.3233313756506
258.4105334314873
250.3823952129925
251.6539627070087
274.0343264631126
266.4229421124141
255.3060036668222
257.442856243641
266.1591135608151
271.925646575851
266.3910595270514
271.3430924381188
252.0691179809702
265.9939158802204
268.7343189821097
285.8906033056218
230.897525223883
205.9129507190227
195.7005774687571
210.3104796157246
235.6241922925662
206.5637602481679
216.0194755851631
218.8674507394747
237.86376075954
217.0973236916488
225.1290792594441
195.9732885326782
217.3829884802006
227.1603581197472
216.3189147970011
186.3672150661636
168.9447312043628
165.7617642690768
167.6154761143875
166.723053026055
170.4319543102198
169.1060197734444
172.9017233110068
175.040947846632
196.8999250965009
199.0872952773189
206.9166683163627
210.5090288968676
241.3897834465993
253.0827340421504
248.9976590078936
245.6664952605857
166.7230530261636
175.04094784665
210.5090288967303
245.6664952598011
167.6154761146774
172.9017233110391
206.9166683162904
248.9976590072195
165.7617642692753
169.1060197736431
199.0872952772927
253.08273404158
168.944731204492
170.4319543104112
196.8999250965866
241.3897834466439
210.3104796156875
195.7005774684615
205.9129507184335
230.8975252230953
218.8674507393227
216.0194755852694
206.5637602483095
235.6241922920269
195.9732885327244
225.1290792595262
217.0973236916765
237.863760759322
186.3672150660894
216.3189147968939
227.1603581198632
217.3829884802202
285.8906033055771
268.7343189816112
265.9939158788315
252.0691179793229
271.3430924378995
266.3910595267516
271.9256465746454
266.1591135589744
257.4428562433005
255.3060036664967
266.4229421111368
274.0343264613528
251.6539627066576
250.382395212701
258.410533430222
271.3233313741429
239.5509283403178
240.7829675728978
230.3924543181176
215.4474932931385
231.7307146911935
216.8470603095492
196.0285414008382
175.5220562491445
232.1698290216769
199.7906938336877
170.6961390578317
154.7976313505037
238.0698016674846
196.8634686492461
162.9379898305146
148.2663726575544
198.226032449713
203.4622798145485
299.1039286447541
361.7883268431216
162.9693006063784
185.4644555560427
263.8719767388753
351.1897540843934
149.6850275330612
161.2352189761188
215.9658181659308
318.1183782687053
146.5167138780465
157.8770306751438
150.8535999060613
241.542698091641
396.7992749063954
416.4211494058275
427.8339346300455
432.5097249652096
413.9655543148642
414.4393700656172
424.6631413170213
428.2832047529084
428.8828855359556
415.9047986045096
420.7672980037111
422.8674711318683
410.5196715423925
421.2116521275677
419.692887128749
420.0358709149793
431.4426907773169
428.086884754949
426.2402773644563
424.741930302018
426.6889218561433
423.6169780440611
422.5534371314666
421.9329472575642
420.8843238709891
418.4908439033139
418.0577645768407
418.3582507040079
418.1775873183591
416.1325625060951
416.1349640168536
417.419575801348
425.7285214894642
424.5347267412199
422.5814751755636
413.0222060027011
424.4522443934415
425.5729138537034
427.7260147436064
425.7701818741022
423.1683723950097
425.2500790890206
426.3400130495068
427.5845205040428
422.6849095794877
425.9896010550755
429.6130618552336
434.8317619426609
336.6917844705673
300.8791138340395
301.7152388535968
302.2331462069864
353.8254810905309
301.0827840607912
301.5211376428085
302.2076383882336
363.2614644523274
301.9501142061145
301.5994726142985
302.3622871969018
369.4455531807382
303.2877887806979
301.4376225240068
302.0837459838298
302.3124149715674
302.8752982185387
303.4877624288631
303.8651646997803
302.4114237813877
303.1333361211473
304.201209332814
304.7504883714496
302.7528149454249
303.6023794301292
305.1089248881038
306.0343024605029
302.2631770707108
303.2024514410223
304.6834110121353
305.5580805802277
303.434242093516
302.5811382974547
311.4788729706706
331.0456910656725
304.3219991724203
301.0027691536916
303.8909091677016
321.9562537082381
306.088153506236
301.8925515293523
298.5151271382691
311.2139207780995
305.7584869884848
301.3933282881869
291.6687584150479
287.632117386351
348.0920807373102
346.3235036752556
345.6522292923248
345.546473952711
347.3627846630787
345.5562747672868
345.1957715966945
346.1267326553448
345.9052630830137
344.8500708528719
344.9735961467296
346.4025571595478
341.743823482656
344.5481560803979
344.9887475190811
346.924190818661
344.2154845147406
341.1485170599055
333.9034429386767
311.4783488333128
346.1864533064989
345.1133519657492
342.7113109419571
323.6073011000717
346.4970148483723
347.3002834024196
347.2563948367623
336.7730811126978
347.3540219626086
349.464125966835
351.9884133070752
355.5907091494549
280.0904053889766
299.2641711190196
299.9910362289269
299.999956360631
283.529169317235
299.3431316281437
299.9899386829534
299.9999297200173
291.5413021436417
299.4821439470454
299.9867027967892
299.9998782304637
298.757423665253
299.5662221509521
299.9649827674306
299.9995699251209
299.9996093707613
299.9652490716549
299.367936029953
298.8564227623245
299.9995814601427
299.9617047961161
299.4216018137052
299.3076085575784
299.9995153317855
299.9585923355918
299.4295937512997
298.7877575427723
299.9993128821034
299.9468167917341
299.5416632724401
299.784011622117
299.9995699235075
299.9998782276384
299.9999297137621
299.9999563556349
299.9649827682445
299.986702796958
299.9899386826075
299.9910362272897
299.5662221504624
299.482143945154
299.3431316290616
299.2641711181386
298.7574236640331
291.5413021419641
283.5291693166334
280.0904053890583
)
;

boundaryField
{
    back
    {
        type            empty;
    }
    inlet
    {
        type            zeroGradient;
    }
    front
    {
        type            empty;
    }
    top
    {
        type            zeroGradient;
    }
    outlet
    {
        type            fixedValue;
        value           uniform 300;
    }
    bottom
    {
        type            zeroGradient;
    }
    wall
    {
        type            zeroGradient;
    }
}


// ************************************************************************* //
