/*--------------------------------*- C++ -*----------------------------------*\
  =========                 |
  \\      /  F ield         | OpenFOAM: The Open Source CFD Toolbox
   \\    /   O peration     | Website:  https://openfoam.org
    \\  /    A nd           | Version:  11
     \\/     M anipulation  |
\*---------------------------------------------------------------------------*/
FoamFile
{
    format      ascii;
    class       volScalarField;
    location    "0.35923505";
    object      Ma;
}
// * * * * * * * * * * * * * * * * * * * * * * * * * * * * * * * * * * * * * //

dimensions      [0 0 0 0 0 0 0];

internalField   nonuniform List<scalar> 
880
(
1.118016635923817
1.118016634793396
1.117913278690341
1.101702639902762
1.118016635922823
1.118016632481563
1.117870541465283
1.096269179315965
1.118016635905756
1.118016621504525
1.117737700018852
1.089039384893278
1.118016635824109
1.118016566727027
1.11740036729609
1.069555373207257
1.118016636535325
1.118016634945924
1.118016603635082
1.118016146181532
1.118016282150255
1.118014695904359
1.118008386374188
1.118021818288081
1.116457630837152
1.115369385137304
1.113824386836571
1.113109274470342
1.031318729970381
0.9943410506981635
0.9723378509806925
0.9700776019214801
1.11801099236855
1.117995259943591
1.117968928300752
1.117859302516872
1.117902556936859
1.117468097084726
1.116770922470528
1.115507671506541
1.104434112813488
1.09743557405711
1.088274717577385
1.079904131277996
0.9590694383812282
0.9591352610845062
0.9575137609178399
0.981053704351161
1.040053185268109
1.075624269905229
1.089969230077654
1.104393093218422
1.065631777731513
1.065219121828235
1.069326372941583
1.077707469045233
1.111149068526105
1.105552685635221
1.100432825723034
1.09767318812458
1.117316754401119
1.116401049935838
1.115078594303273
1.11344069067141
1.111890125912649
1.110735975462893
1.10998539063602
1.109839997192127
1.097061498883448
1.098712188548882
1.102514907169135
1.107802600401725
1.086124931597676
1.096164066779628
1.105647032752036
1.113536485520535
1.111645873645436
1.119220195099912
1.123416397865317
1.126389532622123
1.128791886453248
1.120906553179905
1.113436966292527
1.109951965879566
1.079490745297068
1.125823041342813
1.120187717771579
1.110313943567214
0.8046150938411724
1.115050995063747
1.125647192975546
1.111386112614336
0.5734048193764185
1.037972286913287
1.125572560678036
1.113024062264351
1.113322204637197
1.121409884867021
0.9542289775736381
0.5177905548255023
1.108802956898223
1.108874654932776
0.8848704783731091
0.5549433035544727
1.106524234210976
1.080246702550638
0.8075061467075738
0.5746167446178216
1.100895859563804
1.033510529274911
0.7627583311268237
0.6140862065245423
0.6624722131525835
0.7509879311900621
0.9749000244684453
1.089464067126559
0.7143565485727041
0.7749391355047174
0.9219159502997941
1.069248573267339
0.767491687028074
0.8176035984024999
0.9053486446713024
1.037927012838996
0.8151714781346358
0.8746818671592068
0.9234563370354112
1.006076319580005
0.9854195151713995
0.9755972125503118
0.9503704402737672
0.8753675283074333
1.009919991521832
1.039761018201446
1.036596016150748
0.9571062925605269
1.038620642279011
1.101927594116929
1.127949753492551
1.064399219533839
1.064422973351351
1.14982808840671
1.216003064155928
1.193060779709563
1.084293466293595
1.19106100690038
1.305726370083641
1.39483771741852
1.109067112360953
1.221505946478711
1.366102809155655
1.585974702610802
1.124974291645921
1.226891833411123
1.411597877737092
1.774902106805046
1.134436750387116
1.212807957671589
1.386970685138873
1.945072148950071
1.717464409628831
1.321799225041104
1.20107283658767
1.140474182088915
1.181726277589836
1.275074154456613
1.188874095905635
1.140461544364656
1.027533150284117
1.252845406652867
1.179569246297242
1.136956374321004
0.8788693202578699
1.215797764217805
1.165456518163908
1.132922884942695
0.8055030431503298
1.162028788872257
1.142391990169245
1.125674901252067
0.7301834943506308
1.092242108053596
1.117139494616431
1.11895326001052
0.6969535753696294
1.041878849256003
1.105959149656142
1.117614318838267
0.6807098598522191
1.033195496826079
1.10696016192214
1.117614705027387
0.6500055456051446
0.9389532161048013
1.06946617256457
1.113028419793495
0.6571852933718867
0.937224808862764
1.06960553141042
1.112891717646489
0.6852874057215145
0.9362584504778758
1.07040148550121
1.112842290037843
0.7090163043586195
0.9439672019022934
1.073784935127093
1.113118208361144
0.6807098598527054
1.033195496827361
1.106960161926087
1.117614705032549
0.6969535753707645
1.04187884926007
1.105959149657933
1.117614318841461
0.7301834943533232
1.0922421080568
1.117139494617371
1.118953260013954
0.8055030431511729
1.162028788876742
1.142391990169808
1.125674901253533
1.140474182086769
1.201072836588862
1.321799225040808
1.717464409628421
1.140461544364184
1.188874095906095
1.275074154457124
1.181726277593296
1.136956374319011
1.179569246296953
1.252845406658386
1.027533150282155
1.132922884940029
1.165456518160473
1.215797764220065
0.878869320259442
1.94507214895617
1.386970685139813
1.212807957674088
1.134436750386764
1.774902106805714
1.411597877737792
1.226891833412753
1.12497429164423
1.58597470260991
1.366102809154156
1.221505946480719
1.109067112355952
1.394837717416754
1.305726370085678
1.191061006904193
1.084293466288926
0.9854195151694043
0.9755972125472238
0.9503704402717121
0.875367528307713
1.00991999152142
1.039761018201762
1.036596016148867
0.9571062925601191
1.038620642282909
1.101927594118862
1.127949753491374
1.06439921953311
1.06442297335037
1.149828088409381
1.216003064155478
1.193060779707656
0.8151714781349985
0.8746818671586659
0.9234563370333162
1.006076319572827
0.7674916870288705
0.8176035984029555
0.9053486446705596
1.037927012837453
0.7143565485730496
0.7749391355056759
0.9219159502996153
1.069248573264181
0.6624722131535269
0.7509879311893024
0.9749000244641788
1.089464067125397
1.113322204637927
1.12140988486673
0.9542289775753345
0.5177905548269723
1.108802956892805
1.108874654931504
0.8848704783739609
0.5549433035561355
1.106524234202267
1.080246702544726
0.807506146707477
0.5746167446185996
1.100895859561566
1.033510529276854
0.7627583311281755
0.6140862065251773
1.113024062263591
1.111386112614984
1.110313943563376
1.109951965878982
1.125572560682344
1.125647192978732
1.120187717769948
1.113436966291379
1.037972286917843
1.11505099506401
1.125823041345898
1.120906553181117
0.5734048193786178
0.8046150938442133
1.07949074529638
1.128791886452965
1.109839997189515
1.107802600399531
1.113536485519585
1.126389532621337
1.109985390638929
1.102514907165431
1.105647032751416
1.123416397864692
1.110735975462578
1.098712188548322
1.096164066783449
1.119220195102917
1.111890125915472
1.097061498883944
1.086124931595896
1.111645873646007
1.117316754401402
1.111149068530419
1.065631777730222
1.040053185265728
1.116401049938901
1.105552685639968
1.065219121827685
1.075624269905753
1.115078594299311
1.100432825727263
1.069326372943865
1.089969230082774
1.113440690673731
1.097673188125679
1.077707469045012
1.104393093220869
0.9810537043519649
1.079904131278309
1.115507671511034
1.117859302513149
0.9575137609187898
1.088274717576848
1.116770922472708
1.117968928302529
0.9591352610845226
1.097435574058997
1.117468097092789
1.117995259946276
0.9590694383819296
1.104434112816329
1.11790255694068
1.118010992365861
0.9700776019202743
1.113109274470746
1.118021818288529
1.118016146179348
0.9723378509788176
1.113824386837071
1.118008386377773
1.118016603632337
0.9943410506921994
1.115369385138507
1.118014695908061
1.118016634947369
1.031318729961363
1.116457630839732
1.11801628215283
1.118016636532614
1.118016635923625
1.118016634792657
1.11791327869023
1.101702639901898
1.118016635921967
1.118016632485307
1.117870541466465
1.096269179305229
1.118016635905015
1.118016621508175
1.117737700018691
1.08903938487758
1.118016635822624
1.118016566729211
1.117400367296269
1.069555373195279
1.090021991289986
1.079809444288086
1.058234870141469
1.008456280362545
1.079809444297112
1.064150652861281
1.027796464847209
0.9529335101678404
1.058234870161104
1.027796464861732
0.9622083137171041
0.8591095922738898
1.008456280381281
0.9529335101897136
0.8591095922873123
0.7515453666149684
0.7259581744914096
0.7634730534071266
0.8354135589239087
0.9069060625892683
0.7808841406595086
0.7857147061512995
0.8156866082500066
0.8610037693538981
0.7683372351677419
0.8085910909037851
0.8384378127970663
0.859814911235099
0.8035048616545466
0.8475338902478575
0.8694717234646309
0.88077834840735
0.8966521500105691
0.9095158870305089
0.9296248328918667
0.9684916056113941
0.8949921834928818
0.9106170643218596
0.9352853091476242
0.9903472723149747
0.8839071694411623
0.9081223048579745
0.9365983792609471
1.054092937627216
0.8334670658639659
0.8609972925685864
0.8995071719920049
1.1415613941615
1.149102644342166
1.190190964599013
1.162244735443053
1.155848554845824
1.27048410575808
1.298132305902218
1.245479982782032
1.213594533131198
1.425516411702853
1.363578551458126
1.297061602738651
1.251312169525215
1.160550748574849
1.101035943977695
1.087576851638317
1.089678406594221
1.15862185977357
1.15954611164505
1.157141143319636
1.153222038581062
1.197679278536078
1.182974958960661
1.168753783964133
1.156243678307819
1.223635520120716
1.198458026515746
1.175102508308261
1.153896316246016
1.08893476023956
1.078627560901879
1.068265191742594
1.050980252877638
1.122114559338257
0.8700135940895569
0.5643573459394513
0.3648342207608172
1.090920496962251
0.6976146280749764
0.3661661527759583
0.1741361769569064
1.032837128883904
0.5043406037984121
0.1475442713050277
0.03135551714332899
0.8517610414985445
0.300464888947336
0.02332794293115311
0.1011544485578745
0.3408977876463501
0.441509463642868
0.506076415644007
0.5696193375211813
0.2433986350001903
0.3991283511325679
0.4925647220472531
0.5666265956582909
0.1101849468150362
0.308758324792141
0.4557145621943408
0.5501826171879945
0.009858460079085992
0.1609776510129975
0.3251028058389991
0.4612703073438799
0.6437896032330727
0.709123319579257
0.7653463164835055
0.8044259484043467
0.637206878335874
0.7038025319402339
0.7599631026837496
0.7996776338571367
0.6207887446678011
0.6914813697422559
0.753616625724678
0.7976356939821299
0.5749307583006513
0.6673092258413732
0.7485519308616364
0.7963448049477871
0.8505508882510213
0.9213132885639345
1.016683883897881
1.130832197882853
0.8424443751201788
0.9072177736842346
0.9950902713441346
1.146748657327942
0.8386707820373751
0.8955821814806002
1.009277156541651
1.465247428299099
0.8366972425078398
0.8901276566346308
1.035239615868436
2.043034386441208
1.35800408478683
1.502747160651409
0.7467050509726281
1.54094916456183
1.440688639841551
1.291888283621401
1.120960675215365
1.900704516868047
1.484630770673531
0.924527276708782
1.36456468700786
1.930162277133599
1.143592124630157
0.4372431365136248
1.650010211065122
1.864180499142895
1.32005669708222
0.8906979556574171
0.6860903370926582
0.4518937656792874
1.399963556848873
0.9917530668154687
0.713069036797909
0.3512398926317982
1.337997532058542
0.9695900589318338
0.6147464170341868
0.2354614123913895
1.275452905451727
0.9266889682630073
0.5551664220914484
0.1790068995554601
0.3129810380250276
0.09001545725413825
0.1519548400233445
0.3539395802274364
0.3575665614368418
0.2740352073100023
0.0674309090678703
0.2737595492740382
0.3253534410965248
0.3765513278187541
0.2087350131037677
0.1802093530290083
0.2563799661757965
0.377071093238861
0.2874952304047556
0.0546019894848872
0.3303613016933992
0.3633326214806313
0.367466394242994
0.3665579935866018
0.3127525725156309
0.2977565692911584
0.3017591993905795
0.2879434045450964
0.2125424284540054
0.1577257941597447
0.1531302945444546
0.1300880248678338
0.1153297351846971
0.06703546981501815
0.08520935987836824
0.08051863776096595
0.06427398035275192
0.0605397037287261
0.05568909445965507
0.04946475822705523
0.08590709299466558
0.0355423600784341
0.01249125671133574
0.03216509833990208
0.2343478402316928
0.172937178152409
0.1018707224631262
0.04156915786440629
0.3263224670194012
0.2781479844425743
0.217903339904374
0.1782805524998975
0.04946475822680607
0.03216509833993796
0.04156915786420583
0.1782805524997633
0.05568909445896795
0.01249125671146913
0.1018707224631499
0.2179033399052131
0.06053970372813069
0.03554236007861036
0.172937178152537
0.27814798444327
0.06427398035233849
0.08590709299492912
0.2343478402318938
0.3263224670194629
0.3665579935856102
0.3674663942429436
0.3633326214801805
0.3303613016931772
0.2879434045450533
0.3017591993904876
0.2977565692906835
0.3127525725153383
0.1300880248679707
0.1531302945444527
0.1577257941597067
0.2125424284537816
0.08051863776106277
0.08520935987874573
0.0670354698155758
0.115329735185216
0.05460198948454761
0.2874952304025824
0.3770710932363376
0.2563799661741692
0.1802093530288996
0.2087350131022996
0.3765513278156996
0.3253534410933138
0.2737595492739148
0.06743090906715883
0.2740352073065299
0.3575665614334561
0.3539395802275227
0.1519548400247499
0.09001545725013982
0.312981038019882
0.4518937656746571
0.6860903370934631
0.8906979556722973
1.320056697070771
0.3512398926289342
0.7130690367966283
0.9917530668212807
1.399963556850091
0.2354614123901931
0.6147464170332936
0.969590058932922
1.33799753206006
0.179006899555618
0.5551664220913991
0.9266889682633148
1.275452905454801
1.540949164521698
0.7467050509690479
1.502747160647213
1.35800408478369
1.900704516858468
1.120960675223505
1.291888283620154
1.440688639840883
1.930162277139337
1.364564687014595
0.9245272767073143
1.484630770671757
1.864180499145742
1.65001021107393
0.4372431365141944
1.143592124631398
1.130832197881699
1.01668388389758
0.9213132885644894
0.8505508882514984
1.146748657327699
0.9950902713430184
0.9072177736837751
0.8424443751209664
1.465247428298712
1.009277156541489
0.8955821814797538
0.8386707820374314
2.043034386438128
1.035239615867841
0.8901276566332924
0.8366972425084495
0.8044259484055959
0.7653463164848819
0.7091233195789607
0.6437896032333207
0.7996776338582796
0.75996310268358
0.7038025319413324
0.637206878335957
0.7976356939816237
0.7536166257254073
0.691481369742574
0.620788744668104
0.7963448049482913
0.7485519308618239
0.6673092258414782
0.5749307582997785
0.5696193375218319
0.5060764156458666
0.441509463642861
0.3408977876469769
0.5666265956585673
0.4925647220492084
0.3991283511332816
0.2433986350010529
0.5501826171883528
0.455714562195226
0.3087583247928933
0.1101849468158188
0.4612703073431463
0.3251028058381425
0.1609776510132479
0.009858460079304542
0.3648342207618022
0.5643573459419905
0.8700135940903398
1.122114559336057
0.1741361769577796
0.3661661527784123
0.6976146280774552
1.090920496960315
0.03135551714273273
0.1475442713066468
0.5043406038009582
1.03283712888175
0.1011544485577111
0.02332794293126102
0.3004648889481612
0.8517610414954264
1.153222038579939
1.157141143323446
1.159546111651187
1.158621859778293
1.156243678305801
1.168753783965065
1.182974958965703
1.197679278539558
1.153896316243567
1.175102508308273
1.1984580265205
1.223635520124577
1.050980252873365
1.068265191743812
1.078627560904841
1.088934760243148
1.155848554850689
1.162244735449988
1.190190964597787
1.149102644341161
1.213594533137439
1.245479982788956
1.298132305901082
1.270484105757661
1.251312169531802
1.297061602745582
1.363578551456495
1.42551641170341
1.089678406594864
1.087576851643861
1.101035943976719
1.160550748577284
0.9684916056114422
0.9296248328916742
0.9095158870275265
0.8966521500083405
0.990347272315259
0.9352853091442792
0.910617064318424
0.8949921834893544
1.054092937627702
0.9365983792603645
0.9081223048544248
0.8839071694360409
1.141561394160727
0.8995071719896016
0.8609972925653221
0.833467065859938
0.8807783484055858
0.859814911232098
0.8610037693509743
0.9069060625774803
0.8694717234626845
0.8384378127924718
0.8156866082448215
0.8354135589109508
0.8475338902417378
0.8085910908965083
0.7857147061436497
0.7634730533977976
0.8035048616503844
0.7683372351607001
0.7808841406519111
0.7259581744879728
0.6232863428192436
1.002705716352421
1.09902072575479
1.11667336362119
0.6574128891174835
0.9785220004084483
1.091855388197395
1.115850722880969
0.6902745665579273
0.9705200681189393
1.085819579583916
1.114840437162488
0.7062612264342827
0.9574433642272698
1.079433173909581
1.113852908682066
1.113028419791327
1.069466172564273
0.9389532161036367
0.6500055456031012
1.112891717646959
1.069605531410504
0.9372248088616805
0.6571852933728176
1.112842290038367
1.070401485501827
0.9362584504769003
0.6852874057218792
1.113118208362373
1.073784935129152
0.9439672019015436
0.7090163043576614
1.113852908682471
1.114840437159953
1.115850722881609
1.116673363625418
1.079433173913366
1.085819579585659
1.091855388200255
1.099020725757992
0.9574433642279915
0.9705200681203047
0.9785220004092204
1.002705716352283
0.7062612264340495
0.6902745665581805
0.6574128891173437
0.623286342819107
)
;

boundaryField
{
    back
    {
        type            empty;
    }
    inlet
    {
        type            calculated;
        value           nonuniform List<scalar> 
16
(
1.118016635923817
1.118016635923327
1.118016635921991
1.118016635900154
1.118016636034887
1.118016635839496
1.118016624558409
1.118016452908652
1.118016452907793
1.11801662455778
1.118016635839877
1.118016636034292
1.118016635923624
1.118016635923231
1.118016635921705
1.118016635899328
)
;
    }
    front
    {
        type            empty;
    }
    top
    {
        type            calculated;
        value           uniform 0;
    }
    outlet
    {
        type            calculated;
        value           nonuniform List<scalar> 
16
(
1.111558916390924
1.111422215576646
1.111388639283023
1.111763764867339
1.116097283786356
1.115120077881991
1.113890258719885
1.112672830525896
1.111558916388341
1.111422215576698
1.111388639283571
1.111763764868676
1.112672830526175
1.113890258717193
1.115120077883001
1.116097283790762
)
;
    }
    bottom
    {
        type            calculated;
        value           uniform 0;
    }
    wall
    {
        type            calculated;
        value           uniform 0;
    }
}


// ************************************************************************* //
