/*--------------------------------*- C++ -*----------------------------------*\
  =========                 |
  \\      /  F ield         | OpenFOAM: The Open Source CFD Toolbox
   \\    /   O peration     | Website:  https://openfoam.org
    \\  /    A nd           | Version:  11
     \\/     M anipulation  |
\*---------------------------------------------------------------------------*/
FoamFile
{
    format      ascii;
    class       volScalarField;
    location    "0.35923505";
    object      p;
}
// * * * * * * * * * * * * * * * * * * * * * * * * * * * * * * * * * * * * * //

dimensions      [0 2 -2 0 0 0 0];

internalField   nonuniform List<scalar> 
880
(
80.0000000000004
80.00000016385775
80.01345654214354
81.88033883299916
80.00000000017729
80.0000004813165
80.01669037014352
82.76388581016458
80.00000000090172
80.00000187777135
80.03089482390871
83.82257465630389
80.0000000120275
80.00000824566456
80.06380914547998
85.40753979759106
79.9999999446778
80.00000002780087
80.00000611597279
80.00009435547864
80.00003799606142
80.00014606222365
80.00091099638414
80.00134648951601
80.14459769288675
80.2345731085157
80.3854871612818
80.53778518538873
88.34435594506965
91.39558556678128
94.00064801070069
95.23496191501316
80.0002334353846
80.00190270207047
80.00718961511782
80.02228085361462
80.01262415576329
80.05407579918756
80.10847667196668
80.22875551611899
81.27049405221139
81.90766169275794
82.71481400614685
83.76511688340068
96.38506292154605
97.95087138707071
98.27347952642516
97.50848957056941
90.98665213136397
87.50957048707944
85.83751749565369
84.74259177696425
85.69173739079463
86.37140625500132
86.77396046124355
86.80858538692873
80.63879695028378
81.12353613809529
81.63899805781196
82.0232291515801
80.07908796526168
80.19128719642285
80.36115776953288
80.59965640966735
80.87775236466038
81.15708219627238
81.43361755437763
81.64004085536614
82.31285141330955
82.48080691440001
82.56760284445716
82.57334408830113
86.44905896583171
85.94967774056727
85.2945486977156
84.61630396438169
83.58710012289303
82.89855164670644
82.50699161495213
82.0791445785061
82.08344877810831
84.14366118059534
82.52050025749008
81.7663615750638
87.74219177432678
83.86378013575688
82.36950021597671
81.74665215924475
120.5567210806307
85.26202128815669
82.18750520783611
81.49455552770921
158.347385321082
93.05751375511656
82.67017762798473
81.4018594256076
81.3729329703164
83.39320215302988
102.7712298689728
175.0764658189272
80.87268392320435
84.75154557955305
113.734031708884
174.279372412592
81.08509797399695
87.9014273417704
128.3723375038023
176.1372819985539
81.89134973430517
93.58542342680133
142.2706840763663
173.4128382828111
167.7075048717332
149.9506385331416
102.2395832837981
83.66775098104618
160.7384573576898
151.1909414482134
111.8296371543006
86.84015196634519
153.3432194485109
148.9209255373802
120.1254164430793
91.94261374121515
145.6347265039108
138.9088084774528
121.458665624129
98.31222886445302
103.9487334364603
117.363844236122
126.56765465177
136.6078115449626
103.1374672083379
109.2148098755413
113.4276184014277
123.6649302043041
100.8365923593333
101.4842512865393
100.681350362901
107.3274197823618
97.84646295254028
95.22407760796021
89.17514145271757
88.30752811784245
95.46828035612306
89.32755280572944
78.72376156804457
66.39565712145111
91.68563673152563
83.96082399441222
69.93169207916489
43.06378245387771
88.80540916214349
81.54220878597368
63.23964596003806
26.39392688202306
86.35645521930472
80.4617683760312
58.99113850810602
14.84809021900578
15.60579738363223
60.56920035785697
79.58678781361452
84.17247385113292
24.76326786804447
61.36501535393331
78.99418703415486
82.70508668961544
27.33971613523915
61.04524239293726
78.13600396842294
81.71382044659977
25.83949723259709
60.43859346351326
77.52980686659069
81.17534833213287
31.26910329739905
63.06656154115909
77.20210072434156
80.23974735329284
36.95817171870477
65.60888429754691
77.11657505401304
79.68640177165769
43.59639454981122
68.84971757237243
77.31449454210598
79.66585608666202
51.42002724756947
71.09838876960815
77.69929230534585
79.73914869308202
53.28210220452209
58.94016897725589
73.28920072151895
79.26093784016311
51.93647543951557
60.14529944430653
73.51432166033142
79.2527156749114
49.49652920408876
61.86261263681333
74.01488692804823
79.25461390597651
47.17455507582481
63.82102975348901
74.73206141291777
79.31312646329529
51.4200272475639
71.09838876953978
77.69929230536454
79.73914869275846
43.59639454983942
68.8497175720718
77.31449454200155
79.66585608621797
36.95817171870405
65.60888429731948
77.11657505361114
79.68640177112417
31.26910329745592
63.06656154092975
77.20210072425422
80.23974735296622
84.17247385136443
79.58678781365877
60.56920035784841
15.60579738336036
82.70508668959282
78.99418703411779
61.36501535388338
24.76326786779071
81.71382044663112
78.1360039684609
61.0452423925049
27.33971613517156
81.1753483321417
77.5298068668379
60.43859346339862
25.83949723260059
14.84809021900924
58.99113850800354
80.46176837597447
86.3564552193822
26.39392688190892
63.23964596008671
81.54220878606154
88.80540916220649
43.06378245381777
69.93169207934841
83.96082399442443
91.68563673176277
66.39565712153382
78.7237615678543
89.32755280541097
95.46828035628306
103.9487334366391
117.3638442367831
126.5676546522621
136.6078115449074
103.1374672082303
109.2148098753987
113.4276184016312
123.6649302043914
100.8365923588361
101.4842512864028
100.6813503628586
107.3274197824208
97.84646295241659
95.22407760777205
89.17514145262524
88.30752811800137
145.634726503913
138.9088084776698
121.4586656245195
98.31222886529108
153.3432194484635
148.9209255375132
120.12541644325
91.94261374133092
160.738457357723
151.1909414481834
111.8296371541732
86.840151966592
167.7075048714552
149.9506385334755
102.2395832841624
83.66775098109045
81.37293297026231
83.39320215308315
102.7712298688584
175.0764658186669
80.87268392369332
84.75154557972743
113.734031708881
174.2793724122114
81.08509797475652
87.90142734242366
128.3723375038925
176.1372819984414
81.89134973442329
93.58542342667023
142.2706840765061
173.4128382825715
81.40185942562023
81.49455552764746
81.74665215960421
81.7663615751264
82.67017762758563
82.18750520758969
82.36950021602799
82.52050025746767
93.05751375467314
85.26202128819595
83.86378013545928
84.14366118048429
158.3473853206231
120.5567210802526
87.74219177439345
82.08344877811608
81.64004085562917
82.57334408839515
84.61630396455443
82.07914457870154
81.43361755410199
82.56760284468871
85.29454869792762
82.50699161507124
81.15708219625888
82.48080691443162
85.94967774045475
82.89855164635115
80.87775236439559
82.31285141311977
86.44905896617094
83.58710012296065
80.07908796513065
80.63879695004293
85.69173739105373
90.9866521316283
80.19128719612011
81.1235361376834
86.37140625530363
87.50957048704204
80.36115776982261
81.63899805744299
86.77396046125861
85.83751749516792
80.59965640943675
82.02322915145649
86.80858538728644
84.74259177669997
97.50848957048343
83.76511688346388
80.2287555159316
80.02228085400797
98.27347952639008
82.71481400623327
80.10847667184618
80.00718961508531
97.95087138718026
81.90766169265459
80.05407579847412
80.00190270178412
96.38506292148435
81.27049405199968
80.01262415552287
80.00023343577459
95.23496191488634
80.53778518545423
80.00134648958378
80.00009435593593
94.00064801025832
80.38548716127481
80.00091099611707
80.00000611627215
91.39558556636992
80.23457310847235
80.00014606197661
80.0000000276608
88.34435594471773
80.14459769277602
80.00003799601005
79.99999994537085
80.00000000002807
80.00000016396199
80.01345654214759
81.88033883286555
80.00000000026193
80.00000048100623
80.0166903700724
82.76388581020296
80.00000000110963
80.00000187755403
80.03089482398043
83.82257465657115
80.00000001233936
80.0000082455886
80.06380914553034
85.40753979770362
83.52397466226151
85.09525893282812
87.64366185681644
92.78679892888871
85.09525893311978
87.15057956889544
90.99714460216678
98.6909997229578
87.64366185693468
90.99714460218888
97.31190548684079
106.8207647334816
92.78679892894684
98.69099972279497
106.8207647337546
117.1819282503859
127.9923735302624
119.0251413647289
115.1012959629361
106.865530469441
126.2796551619176
123.645597581882
123.6040194225268
119.5300656887453
126.3198010734723
125.4943011784197
125.0506389649909
123.6400949581469
123.737330299776
123.3302461018064
123.2434433799929
122.3928467645567
119.6767701652846
117.8559315454439
114.2518080976116
109.3401079416414
119.9428898858498
118.0397955197332
114.3867891377765
109.8050900367328
120.2785764265123
118.2215662438515
114.3689861843322
110.2399004307588
120.453356612043
118.1133027822379
114.5207648030821
108.5601448369229
82.83050829209333
71.90504654423017
70.60493401731755
70.98549623923543
75.82087398620922
69.03044296856555
69.65708313820835
70.38174254908951
69.99731722978713
68.89584878024088
70.22945273828472
70.92990052340608
60.73660952782244
66.59797742678704
69.23783065373412
70.19844322045638
70.93009347770756
71.29237806916859
72.10775177535341
73.05117487241287
70.47277883055055
70.85097327027096
71.7355619740372
72.92905751852432
70.9045245412578
71.13425147133239
71.87254311154497
72.80679033240477
70.29693544161609
70.61811323774501
71.55371369192316
72.84659280787592
78.67350974700787
114.0345875888921
165.0701436575183
181.4274395569213
81.36325752308333
121.521274918685
162.5389607898134
173.2945021427882
83.49430183955052
125.2960422839261
161.313649613725
171.9957496447933
84.86345958572235
130.7120090905521
161.6590208334506
171.9727885811853
218.162666111352
209.3377105149745
201.7908916964109
190.537774435603
219.3305834216681
212.1167389549513
203.947865747693
192.3783059940067
218.3264031162988
213.6473938573785
205.0482912055175
193.4989684874396
213.2096175451313
215.5723143459684
206.9711588522626
195.2369686339837
178.1486946074146
167.8958531891747
158.2747385650307
153.3866582229111
180.1470780659756
169.2804310430908
158.9649011880222
153.7599943743043
181.295565462479
169.4894721718303
159.512688263981
153.7252940945613
183.7018783117304
170.9145561662097
161.1740630598185
154.8235242909235
148.5697443606617
140.6581765045165
126.7741814665769
105.8850767605205
149.263537173818
142.1818464685253
128.8939500527587
114.3600034963858
149.2078824366653
142.6097139595377
130.6897729603981
119.6674815178305
150.3700370568565
144.9548521162762
134.0436659438651
134.5834621337601
64.62303929953299
16.5490095108322
2.69062113345504
1.283615332871003
49.95164670205794
10.39447711458488
2.242197442527087
1.464419008880571
34.73868837402741
6.571960008362577
1.963438386693639
1.620819975561422
19.55113868638265
3.061010523699184
1.726207770434461
1.813278497969114
1.929256907223887
4.153561841083037
6.785788580158757
10.67161792713925
2.736373528661896
5.087927490857077
7.800742423149055
11.94485012848283
3.199584415744323
5.473016995562298
8.646024255982054
12.64696840043946
3.753889326578409
6.19949868013442
10.0929657850458
13.79309895672696
12.51726882130317
18.94030783148342
26.03305714625717
34.74108849535975
12.12982771282201
17.87734910908495
24.72002961566996
33.2310208096342
12.44053657312854
16.35111172068806
22.87554575400603
32.23959999960636
11.69549781589578
14.46081635563701
19.06073492165789
30.28221856037065
35.03391721015331
33.20777523918998
32.54791230888036
33.17742850452243
31.86525356255741
31.78647166422453
32.24761236798997
32.35376740044767
31.01255812308251
32.65718790318947
32.98672647559493
33.02248565447519
29.23679508972198
31.4558810191959
31.776099434
32.50252100904153
32.92046780830071
33.23141722656829
33.49143158270217
33.61798871997149
32.97863459258738
32.93624244522759
32.84476801935809
32.95097148132894
32.92855980093572
33.39768732918762
33.83633310783531
34.09498321525572
34.75145782362015
35.80220011565863
36.54013191375061
36.54222960351867
33.61798871997335
32.9509714813092
34.09498321528047
36.54222960352316
33.49143158273045
32.84476801936008
33.83633310784673
36.54013191375339
33.23141722654448
32.9362424452387
33.39768732921758
35.80220011569598
32.92046780835132
32.9786345925698
32.92855980094399
34.75145782366808
33.17742850460926
32.54791230889339
33.20777523924683
35.0339172101837
32.35376740047297
32.24761236803815
31.78647166428421
31.86525356259435
33.02248565450814
32.9867264756567
32.65718790324288
31.01255812313949
32.50252100904847
31.77609943402884
31.45588101922802
29.23679508977273
30.28221856046636
19.06073492177886
14.46081635573815
11.69549781598151
32.23959999968421
22.87554575409736
16.35111172079483
12.44053657323749
33.23102080971226
24.72002961578556
17.87734910919848
12.12982771291913
34.74108849542228
26.03305714636786
18.94030783157382
12.5172688214405
10.67161792719762
6.78578858018515
4.153561841044311
1.929256907250709
11.9448501285402
7.800742423194125
5.087927490845632
2.736373528663294
12.64696840050283
8.646024256040501
5.473016995562818
3.199584415739873
13.79309895678829
10.09296578510154
6.199498680148074
3.753889326571735
1.283615332907984
2.690621133417474
16.54900951073047
64.62303929962097
1.464419008894521
2.242197442514638
10.39447711453967
49.9516467019875
1.620819975560597
1.963438386683825
6.571960008350525
34.73868837403207
1.813278497966562
1.726207770424433
3.061010523699546
19.55113868636123
105.8850767605796
126.7741814664919
140.6581765043102
148.5697443605726
114.3600034963202
128.8939500526941
142.1818464684279
149.2635371736457
119.6674815176983
130.6897729602102
142.6097139594494
149.2078824366145
134.5834621337723
134.0436659437424
144.9548521162863
150.3700370567089
153.3866582228334
158.2747385647295
167.8958531889033
178.1486946069093
153.7599943742047
158.9649011879433
169.2804310422612
180.1470780653481
153.725294094689
159.5126882636443
169.4894721710496
181.2955654618886
154.823524290872
161.1740630596199
170.9145561657916
183.7018783113511
190.5377744352482
201.790891696029
209.3377105146975
218.1626661113819
192.3783059937635
203.9478657474826
212.1167389545527
219.3305834217049
193.4989684872614
205.0482912052061
213.6473938570888
218.3264031162852
195.2369686338987
206.9711588520893
215.5723143455147
213.2096175453273
181.4274395569234
165.0701436572596
114.0345875889546
78.67350974729038
173.2945021427027
162.5389607896395
121.5212749187246
81.36325752338125
171.9957496447028
161.3136496135783
125.2960422839155
83.49430183986358
171.9727885809044
161.6590208333075
130.7120090905385
84.86345958604565
73.05117487263445
72.10775177510112
71.2923780686542
70.93009347735894
72.92905751877971
71.73556197392809
70.85097326974491
70.47277883032925
72.8067903326838
71.87254311137097
71.13425147082648
70.90452454103594
72.84659280815023
71.55371369169549
70.61811323722026
70.29693544128916
70.98549623879231
70.60493401697421
71.90504654435662
82.83050829223046
70.38174254866003
69.65708313779155
69.03044296878522
75.82087398629612
70.92990052297803
70.22945273785197
68.89584878049581
69.9973172298367
70.19844322002204
69.23783065322026
66.59797742702808
60.73660952790219
109.3401079416765
114.2518080976324
117.8559315457324
119.6767701651656
109.8050900366983
114.3867891380467
118.0397955199801
119.942889885659
110.2399004307708
114.3689861843182
118.221566243889
120.2785764263608
108.5601448368826
114.5207648033167
118.1133027825594
120.4533566118833
122.392846763958
123.6400949573079
119.5300656878197
106.8655304694094
123.2434433791801
125.0506389639604
123.6040194211462
115.1012959624962
123.3302461011805
125.4943011773272
123.6455975803409
119.0251413636912
123.737330299014
126.3198010725543
126.2796551600036
127.9923735281029
54.0920046847816
71.27156301906855
77.5639316844122
79.75944612361089
50.8186933768023
69.8947121641676
76.93571801339026
79.66604314782802
48.22212678043061
68.23889502644656
76.32179472332334
79.54990534213535
46.39903407110831
65.93404304098652
75.50441927087464
79.42097319505007
79.2609378400888
73.28920072151824
58.94016897727151
53.28210220457056
79.25271567477208
73.51432166034508
60.14529944434106
51.93647543954471
79.25461390595379
74.01488692815803
61.86261263680175
49.49652920414018
79.31312646325897
74.73206141288526
63.82102975349097
47.17455507586801
79.42097319492046
79.54990534202439
79.6660431477778
79.75944612338016
75.50441927062474
76.32179472320995
76.9357180131375
77.56393168432945
65.9340430410105
68.23889502647437
69.89471216430768
71.27156301922643
46.39903407108108
48.22212678037414
50.81869337679927
54.09200468480363
)
;

boundaryField
{
    back
    {
        type            empty;
    }
    inlet
    {
        type            zeroGradient;
    }
    front
    {
        type            empty;
    }
    top
    {
        type            zeroGradient;
    }
    outlet
    {
        type            fixedValue;
        value           uniform 80;
    }
    bottom
    {
        type            zeroGradient;
    }
    wall
    {
        type            zeroGradient;
    }
}


// ************************************************************************* //
