/*--------------------------------*- C++ -*----------------------------------*\
  =========                 |
  \\      /  F ield         | OpenFOAM: The Open Source CFD Toolbox
   \\    /   O peration     | Website:  https://openfoam.org
    \\  /    A nd           | Version:  11
     \\/     M anipulation  |
\*---------------------------------------------------------------------------*/
FoamFile
{
    format      ascii;
    class       volScalarField;
    location    "0.35923505";
    object      rho;
}
// * * * * * * * * * * * * * * * * * * * * * * * * * * * * * * * * * * * * * //

dimensions      [0 0 0 0 0 0 0];

internalField   nonuniform List<scalar> 
880
(
0.2239950333699092
0.2239950336977215
0.2240219308092399
0.2277382199528932
0.2239950333702082
0.223995034333608
0.2240283846264262
0.2294906538141129
0.2239950333717012
0.2239950371321023
0.2240567379840523
0.231587500278985
0.2239950333941023
0.2239950499075351
0.2241222542087251
0.2347099506898143
0.223995033259515
0.2239950334139612
0.2239950459401247
0.2239952242250021
0.2239951096711527
0.2239953271639392
0.2239968608549712
0.2239977477159018
0.2242817639836611
0.2244566821092411
0.2247513389341551
0.2250683299558271
0.2401924379839575
0.2455342815838134
0.2500084333488931
0.2520201320604553
0.223995503767747
0.2239988444994487
0.2240094180338918
0.2240395948519557
0.2240201688196181
0.2241022649273291
0.2242088509912779
0.224446094922602
0.2264582885538834
0.2276524809755323
0.2291734660813105
0.2311937499894863
0.2539938939602778
0.2568432390456034
0.2574508637329126
0.2560354058047937
0.243627970263567
0.236672097241622
0.2331385431453077
0.2308249527659442
0.234744870837822
0.2358606346584546
0.2365383145802673
0.2365729903466587
0.2252532768779146
0.2262087538499131
0.2272170563372822
0.2279428333633139
0.2241531986231784
0.2243777816286548
0.2247180522373145
0.2251948601925698
0.2257495079587641
0.2263069904236856
0.2268586389668195
0.2272746675022826
0.2284636837949329
0.2287683098071247
0.2289176789053864
0.2289562186544573
0.2358869220821486
0.2349357959695829
0.2336846386333063
0.2323892208628341
0.2284543885803963
0.2270999063602113
0.226360106864504
0.2255256540654576
0.2257914159851952
0.231486558475062
0.2288735179206195
0.2275321930700601
0.2365884566573456
0.2310972118454971
0.2286239932242709
0.2274950897329349
0.2954147954529472
0.2338487517357183
0.2283256519167801
0.2269977729222914
0.3573528180658637
0.2486710642435775
0.2292792437184466
0.2268111172923377
0.2267523509916032
0.2306963615843447
0.266597498272591
0.3845279965494174
0.2257540970004873
0.2332910332920842
0.2862186374332559
0.384115135184711
0.2261774850422358
0.2392092508891006
0.311679158692764
0.3875969016824727
0.2277761980788012
0.2496188633319285
0.3348893168472974
0.3832618783001939
0.3736733412463561
0.3470973556744451
0.2651505347417303
0.2312644113818849
0.3618913594541269
0.3484420049117812
0.2820878615154206
0.2373723881665969
0.3493509100381218
0.3444410873029147
0.2966024309345704
0.246981999995807
0.3360858317038492
0.3272446232483698
0.2987918249935831
0.258667394079228
0.2688477313609787
0.2915293812167282
0.3056281800996894
0.3202637836939771
0.2674705593399695
0.2769599514910089
0.2821380263916583
0.2973621820229986
0.2634545086766079
0.2629450145897718
0.2588576559367463
0.2680360030144545
0.2581464493629385
0.2516078287192727
0.2376537008213541
0.2330812923349508
0.2537296928003061
0.2402837970711704
0.2167390925502106
0.1875800122120431
0.2465602991306597
0.229899518173104
0.1990009975102166
0.1311077470892513
0.2410503852891599
0.225598178923588
0.1852434126194613
0.08691820726770819
0.2363158260464131
0.2232416552329279
0.1728896808215243
0.05198492155385959
0.0532164042091492
0.174178937002802
0.221394169972132
0.2320721000453874
0.07253566352162694
0.1742446066082011
0.220120415631112
0.2291993223249003
0.07399493012104807
0.1723934483434854
0.2183944214727293
0.2272664891187547
0.06823148878244922
0.1690868617178347
0.2169800152261238
0.2262495216093869
0.08121620212690142
0.1750673571811875
0.2166092405541397
0.2244899082621468
0.09692941178660676
0.1821353847487712
0.2169353790367167
0.2234647319865875
0.116078835348628
0.1914406549926168
0.2176618718352608
0.2234194884145504
0.1390488117754893
0.1994239079292079
0.2188314206901066
0.2235311502744428
0.1554761865353221
0.1757861022455506
0.2098488910341655
0.222512873628324
0.1533129425742702
0.1786602438290727
0.2102831114090652
0.2224898628927988
0.1489449106980193
0.1829370082731235
0.2113253626335395
0.2224888713334287
0.1437271862769003
0.1876061192891124
0.2129161526133493
0.2226132526226357
0.1390488117754545
0.1994239079291344
0.2188314206899946
0.2235311502736515
0.1160788353486762
0.1914406549920216
0.2176618718349627
0.2234194884136326
0.09692941178659456
0.1821353847483961
0.2169353790360898
0.2234647319855234
0.08121620212703699
0.175067357180808
0.216609240553965
0.224489908261496
0.2320721000459074
0.2213941699721512
0.1741789370026725
0.05321640420834457
0.2291993223248754
0.2201204156309908
0.1742446066078558
0.07253566352101566
0.227266489118861
0.218394421472807
0.1723934483425583
0.07399493012088948
0.2262495216094746
0.2169800152266339
0.1690868617177173
0.06823148878241422
0.0519849215536906
0.1728896808212699
0.223241655232756
0.2363158260465681
0.08691820726733926
0.185243412619571
0.2255981789236696
0.2410503852893305
0.1311077470890093
0.1990009975105733
0.2298995181731512
0.246560299131224
0.1875800122121304
0.2167390925498089
0.2402837970705532
0.2537296928006841
0.2688477313614411
0.2915293812180649
0.3056281801005279
0.3202637836935944
0.267470559339911
0.2769599514908118
0.282138026392069
0.2973621820229195
0.263454508675696
0.2629450145895588
0.2588576559366738
0.2680360030144378
0.2581464493627314
0.2516078287189731
0.2376537008211918
0.2330812923351894
0.3360858317036599
0.3272446232486781
0.2987918249943913
0.2586673940809742
0.349350910037747
0.3444410873030049
0.2966024309349392
0.2469819999961532
0.3618913594538993
0.3484420049115274
0.2820878615152563
0.2373723881672699
0.3736733412454222
0.3470973556750249
0.2651505347424583
0.2312644113820485
0.2267523509915018
0.2306963615844923
0.2665974982723613
0.3845279965488421
0.2257540970015168
0.2332910332923854
0.2862186374331949
0.3841151351837659
0.2261774850438778
0.2392092508904128
0.3116791586927873
0.3875969016823248
0.2277761980791235
0.2496188633316769
0.3348893168473238
0.3832618782994922
0.2268111172924474
0.2269977729221825
0.2274950897336848
0.2275321930701661
0.2292792437176622
0.2283256519162438
0.2286239932244308
0.2288735179206018
0.2486710642427353
0.233848751735826
0.2310972118449073
0.2314865584748191
0.3573528180649621
0.2954147954522284
0.2365884566574941
0.2257914159852735
0.2272746675027905
0.2289562186545818
0.2323892208631374
0.2255256540657856
0.2268586389661414
0.2289176789058156
0.2336846386336983
0.2263601068647108
0.2263069904236371
0.2287683098071161
0.2349357959693164
0.2270999063594987
0.2257495079582157
0.228463683794465
0.2358869220828882
0.2284543885805049
0.2241531986230099
0.2252532768773694
0.2347448708382763
0.2436279702640783
0.2243777816281009
0.2262087538489803
0.2358606346589918
0.2366720972414627
0.2247180522379709
0.2272170563363883
0.23653831458013
0.2331385431443323
0.2251948601921134
0.227942833362996
0.2365729903473787
0.2308249527654118
0.2560354058045511
0.2311937499896068
0.2244460949221469
0.224039594852849
0.2574508637327651
0.2291734660814733
0.2242088509910367
0.2240094180338657
0.2568432390456952
0.2276524809752759
0.2241022649258768
0.2239988444989195
0.2539938939600624
0.2264582885533982
0.2240201688191133
0.2239955037685437
0.2520201320602214
0.2250683299558925
0.2239977477159814
0.2239952242259381
0.2500084333479503
0.22475133893412
0.2239968608543828
0.2239950459407107
0.2455342815829998
0.2244566821091388
0.2239953271634357
0.2239950334137216
0.2401924379832442
0.2242817639834007
0.2239951096711468
0.2239950332612173
0.2239950333699093
0.2239950336979472
0.224021930809283
0.2277382199526268
0.2239950333704065
0.2239950343328749
0.2240283846262595
0.2294906538141964
0.2239950333721685
0.2239950371315927
0.2240567379842025
0.2315875002795021
0.2239950333946447
0.2239950499073844
0.2241222542088284
0.2347099506900135
0.2309859893783376
0.2340817705041509
0.2390620865380946
0.2488978127862844
0.234081770504735
0.238117246512874
0.245574632771706
0.2600339198317039
0.2390620865382935
0.2455746327717345
0.2575887182744304
0.2748615169664753
0.2488978127864046
0.2600339198313477
0.2748615169669113
0.2928126694919879
0.3104165737961539
0.2953224233506221
0.2891127231935483
0.2745361781581108
0.3072130215784501
0.3028629873080559
0.3034057038161619
0.2963688515365968
0.3073448346122624
0.305905429146848
0.3051216705959668
0.3025786053917605
0.3028575202780284
0.3020908396026505
0.3018048697636644
0.3000915862802607
0.2950239686442242
0.2917401086480627
0.2853881115455701
0.2766609403402025
0.295857403213633
0.292402203275715
0.2858383883311981
0.2774974397161032
0.2966768529552763
0.2929357957955088
0.2859251070939374
0.2782979073393668
0.2970753361233574
0.292800517127995
0.2862005131094674
0.2758410508796612
0.2263160632976409
0.2042670553480351
0.201744498715409
0.2026249735952259
0.2115210508159625
0.1977466814387166
0.1990277909863001
0.2006371264868724
0.1993451745861768
0.1972927446179776
0.2000145885080126
0.2014856161499886
0.1809417600919042
0.1925854095352018
0.1978578121807644
0.199910251211373
0.2023253831959147
0.2029381326468137
0.204625788291976
0.2066686606635656
0.2009346351430658
0.2018169336779759
0.2037637337945049
0.2063170910542321
0.2016266619768249
0.2022708024555038
0.2039853665510926
0.2060235951558415
0.2003335438436845
0.2011787314472977
0.203303653184489
0.2060926178163158
0.218089575751702
0.2812239283187037
0.3614437037733226
0.3822066584505392
0.2229322928344553
0.2927326107791737
0.3544343707233371
0.3674466446345122
0.2263440490795694
0.2975600732803443
0.3517788442445527
0.3643074701258534
0.2283712373766357
0.3061286779462006
0.3524196409447161
0.364031395944409
0.4398972327605091
0.4300657229410202
0.4215550425724049
0.4060845884037838
0.4369343880704928
0.4303679239170599
0.4218072712051426
0.4064958446483724
0.4312655408237309
0.4288340338393115
0.4202853053300282
0.4055029503400875
0.4223956441284936
0.4303395243230915
0.4216467610717224
0.4068343586424063
0.3875019186088209
0.3713093195803508
0.355541044316475
0.3469265675776831
0.3887690043367343
0.371973384518755
0.3555331553966333
0.3465953883757326
0.3881580051221815
0.3703919243982733
0.3547427307811184
0.3453439217395478
0.3906699913781385
0.3717224118897938
0.3564608623243873
0.346465220325651
0.3381629917518716
0.324065296146582
0.3003142713643582
0.2623605569532092
0.3387632044725938
0.326721618421997
0.3038970526956332
0.2701431064415863
0.3380920149656955
0.3272108615659603
0.3035345765930292
0.2700298718148121
0.3396837898736347
0.3305055934672878
0.3044647336613379
0.3119512241991948
0.1731391771820241
0.05034381479103599
0.008911992709867473
0.004212871916974308
0.1365655710768066
0.03448464389239594
0.01027405576018365
0.008104301074134347
0.1037545954919957
0.02499459729973808
0.0109000396582684
0.009786747781151323
0.07437612357048702
0.01516465721749206
0.01060720491700452
0.01059526164346897
0.007181026819598517
0.01439575147424289
0.02016584743561906
0.02856994757941851
0.01249894332647298
0.01872674538202195
0.02471779937397747
0.03400889236858827
0.0153576073140006
0.02183527799548552
0.02993108904520958
0.03977566222003709
0.01758000006973039
0.02469634657321742
0.03513810107066602
0.0447870584441904
0.03597868512233642
0.05195665494523085
0.07156287341132134
0.09542425959519517
0.03896840512605384
0.05280907012735104
0.07024368015400834
0.09111915258004015
0.04275498706979472
0.05287664174660901
0.06805813284498674
0.08778048862956024
0.04171636262938553
0.04958605647799876
0.05995659764810356
0.08265029355866996
0.09972312961971984
0.09878573999507403
0.09918768738193451
0.1010378378234378
0.09008957376588445
0.09155986546489074
0.09365989875676453
0.09517699427521815
0.08610363870546696
0.09010307842037675
0.09206428384433966
0.09461476486185112
0.08127583511606164
0.08658446336718792
0.08919857368666305
0.09399558073067514
0.09891507323785556
0.1032403755897752
0.1060221542574153
0.1069893101454709
0.0979134766506656
0.1011868573871877
0.1034643237528666
0.1045905240394892
0.09812560323983306
0.1013573271303904
0.1046580186275185
0.106307448515259
0.1051229844127985
0.108908571302643
0.1123101741182203
0.1130949567970778
0.1069893101454856
0.1045905240394312
0.1063074485153346
0.1130949567970687
0.1060221542575477
0.103464323752911
0.1046580186275547
0.1123101741181635
0.1032403755897647
0.1011868573872809
0.1013573271304968
0.1089085713027125
0.09891507323809438
0.09791347665065256
0.09812560323986594
0.1051229844129131
0.1010378378236704
0.09918768738196332
0.09878573999517581
0.0997231296197529
0.09517699427528684
0.09365989875688631
0.09155986546501424
0.09008957376594437
0.09461476486197017
0.09206428384452491
0.09010307842052385
0.08610363870561409
0.09399558073073265
0.08919857368676021
0.08658446336728051
0.08127583511620806
0.08265029355891866
0.05995659764842672
0.04958605647827127
0.04171636262962673
0.08778048862975406
0.06805813284519899
0.05287664174688216
0.04275498707009812
0.09111915258022342
0.0702436801542969
0.05280907012762581
0.03896840512628627
0.09542425959534077
0.07156287341159885
0.05195665494543353
0.03597868512267699
0.02856994757958415
0.02016584743570111
0.0143957514741619
0.00718102681953126
0.03400889236875193
0.02471779937410687
0.01872674538201257
0.01249894332647192
0.03977566222020986
0.02993108904537166
0.02183527799549819
0.01535760731399181
0.0447870584443492
0.03513810107080908
0.02469634657325257
0.01758000006971213
0.004212871916883235
0.00891199270970304
0.05034381479070857
0.1731391771820474
0.008104301074116929
0.01027405576012582
0.03448464389224743
0.1365655710765843
0.009786747781144804
0.01090003965822519
0.02499459729966209
0.1037545954919149
0.01059526164344178
0.0106072049169611
0.01516465721746114
0.07437612357034017
0.2623605569531847
0.3003142713639548
0.3240652961458315
0.3381629917514454
0.270143106441267
0.3038970526954108
0.3267216184216348
0.3387632044719962
0.2700298718144316
0.3035345765925851
0.3272108615657658
0.338092014965458
0.3119512241989683
0.3044647336610919
0.3305055934673856
0.3396837898731568
0.3469265675771946
0.3555410443155542
0.3713093195798148
0.387501918607814
0.3465953883752297
0.3555331553964178
0.3719733845171314
0.3887690043356026
0.3453439217397091
0.3547427307802736
0.3703919243967613
0.3881580051210284
0.3464652203253523
0.3564608623238268
0.3717224118889144
0.3906699913776093
0.4060845884032217
0.4215550425717927
0.4300657229406445
0.4398972327606411
0.4064958446481077
0.4218072712047161
0.4303679239163848
0.436934388070703
0.4055029503398481
0.4202853053295215
0.4288340338390606
0.4312655408237783
0.4068343586423853
0.4216467610714685
0.4303395243223347
0.4223956441290716
0.3822066584505485
0.361443703772902
0.2812239283188783
0.2180895757522865
0.3674466446344088
0.3544343707231144
0.2927326107793188
0.2229322928350297
0.3643074701257895
0.3517788442444169
0.2975600732804222
0.2263440490801669
0.3640313959438237
0.3524196409445896
0.3061286779462819
0.2283712373772576
0.2066686606639212
0.2046257882912883
0.2029381326456507
0.2023253831950814
0.2063170910546853
0.2037637337942543
0.2018169336768751
0.200934635142604
0.2060235951563636
0.2039853665507379
0.2022708024544706
0.201626661976413
0.2060926178168285
0.2033036531839945
0.201178731446235
0.2003335438430167
0.2026249735942846
0.2017444987146839
0.2042670553482409
0.2263160632978533
0.2006371264859558
0.1990277909854519
0.1977466814391343
0.2115210508160831
0.2014856161490886
0.2000145885071781
0.1972927446185256
0.1993451745862315
0.1999102512104601
0.1978578121797657
0.192585409535749
0.1809417600920577
0.2766609403401918
0.2853881115454673
0.2917401086484696
0.2950239686440004
0.2774974397159681
0.2858383883317541
0.2924022032760569
0.2958574032132228
0.2782979073394107
0.2859251070938464
0.2929357957954309
0.2966768529550657
0.2758410508795424
0.2862005131100241
0.2928005171286679
0.2970753361230842
0.3000915862792756
0.3025786053903081
0.2963688515347572
0.2745361781579689
0.3018048697621979
0.305121670594214
0.3034057038136512
0.2891127231927189
0.3020908396016837
0.3059054291450961
0.3028629873057403
0.2953224233490669
0.302857520276648
0.3073448346110365
0.3072130215756268
0.3104165737928811
0.1499157699899544
0.2006580836615355
0.2185670761987401
0.2235520942185236
0.146564152355899
0.1988683940391348
0.2174186622633457
0.2233523758002818
0.1435242076020914
0.1964073631383078
0.2163008988543285
0.223114955926024
0.1411692011283264
0.1921318267772874
0.2146290028600676
0.2228457346360152
0.2225128736282825
0.2098488910341664
0.1757861022456076
0.1554761865354347
0.2224898628925745
0.2102831114090387
0.1786602438291953
0.153312942574242
0.2224888713333546
0.2113253626336742
0.1829370082731713
0.1489449106980797
0.2226132526224898
0.2129161526131785
0.1876061192891819
0.1437271862769929
0.2228457346357019
0.2231149559257763
0.2233523757999925
0.2235520942178053
0.2146290028594712
0.2163008988540933
0.2174186622627685
0.2185670761984443
0.1921318267773126
0.1964073631382581
0.1988683940393118
0.2006580836618178
0.141169201128299
0.1435242076019991
0.1465641523558874
0.1499157699899777
)
;

boundaryField
{
    back
    {
        type            empty;
    }
    inlet
    {
        type            calculated;
        value           nonuniform List<scalar> 
16
(
0.2239950333699092
0.2239950333702082
0.2239950333717012
0.2239950333941023
0.223995033259515
0.2239950334139612
0.2239950459401247
0.223995224225002
0.2239952242259381
0.2239950459407107
0.2239950334137216
0.2239950332612173
0.2239950333699093
0.2239950333704065
0.2239950333721685
0.2239950333946447
)
;
    }
    front
    {
        type            empty;
    }
    top
    {
        type            calculated;
        value           nonuniform List<scalar> 
40
(
0.223995503767747
0.2239988444994487
0.2240094180338918
0.2240395948519557
0.2241531986231784
0.2243777816286548
0.2247180522373145
0.2251948601925698
0.2257495079587641
0.2263069904236856
0.2268586389668194
0.2272746675022826
0.2275321930700601
0.2274950897329349
0.2269977729222914
0.2268111172923377
0.2267523509916032
0.2257540970004873
0.2261774850422358
0.2277761980788012
0.2312644113818849
0.2373723881665969
0.246981999995807
0.258667394079228
0.2688477313609787
0.2674705593399695
0.2634545086766079
0.2581464493629385
0.2537296928003061
0.2465602991306597
0.2410503852891599
0.2363158260464131
0.2320721000453874
0.2291993223249003
0.2272664891187547
0.2262495216093869
0.2244899082621468
0.2234647319865875
0.2234194884145504
0.2235311502744428
)
;
    }
    outlet
    {
        type            calculated;
        value           uniform 0.2239950333699093;
    }
    bottom
    {
        type            calculated;
        value           nonuniform List<scalar> 
40
(
0.2235311502736515
0.2234194884136326
0.2234647319855234
0.2244899082614959
0.2320721000459075
0.2291993223248754
0.227266489118861
0.2262495216094746
0.2363158260465681
0.2410503852893305
0.246560299131224
0.2537296928006841
0.2688477313614411
0.267470559339911
0.263454508675696
0.2581464493627314
0.2586673940809742
0.2469819999961532
0.2373723881672699
0.2312644113820485
0.2267523509915018
0.2257540970015168
0.2261774850438778
0.2277761980791234
0.2268111172924474
0.2269977729221825
0.2274950897336848
0.2275321930701661
0.2272746675027905
0.2268586389661414
0.2263069904236371
0.2257495079582157
0.22415319862301
0.2243777816281009
0.2247180522379709
0.2251948601921134
0.224039594852849
0.2240094180338657
0.2239988444989195
0.2239955037685437
)
;
    }
    wall
    {
        type            calculated;
        value           nonuniform List<scalar> 
104
(
0.3104165737961539
0.3072130215784501
0.3073448346122624
0.3028575202780284
0.2970753361233574
0.292800517127995
0.2862005131094674
0.2758410508796612
0.1809417600919042
0.1925854095352018
0.1978578121807644
0.199910251211373
0.2003335438436845
0.2011787314472977
0.203303653184489
0.2060926178163158
0.2283712373766357
0.3061286779462006
0.3524196409447161
0.364031395944409
0.4223956441284936
0.4303395243230915
0.4216467610717224
0.4068343586424063
0.3906699913781385
0.3717224118897938
0.3564608623243873
0.346465220325651
0.3396837898736347
0.3305055934672878
0.304464733661338
0.3119512241991948
0.07437612357048702
0.01516465721749206
0.01060720491700452
0.01059526164346897
0.01758000006973039
0.02469634657321742
0.03513810107066602
0.0447870584441904
0.04171636262938553
0.04958605647799876
0.05995659764810356
0.08265029355866996
0.08127583511606164
0.08658446336718792
0.08919857368666305
0.09399558073067514
0.09891507323785557
0.1032403755897752
0.1060221542574153
0.1069893101454709
0.1069893101454856
0.1060221542575477
0.1032403755897647
0.09891507323809438
0.09399558073073265
0.08919857368676021
0.08658446336728051
0.08127583511620806
0.08265029355891866
0.05995659764842672
0.04958605647827127
0.04171636262962673
0.0447870584443492
0.03513810107080908
0.02469634657325257
0.01758000006971213
0.01059526164344178
0.0106072049169611
0.01516465721746114
0.07437612357034017
0.3119512241989683
0.3044647336610918
0.3305055934673856
0.3396837898731568
0.3464652203253523
0.3564608623238268
0.3717224118889144
0.3906699913776093
0.4068343586423853
0.4216467610714685
0.4303395243223347
0.4223956441290716
0.3640313959438237
0.3524196409445896
0.306128677946282
0.2283712373772577
0.2060926178168284
0.2033036531839945
0.201178731446235
0.2003335438430167
0.1999102512104601
0.1978578121797657
0.192585409535749
0.1809417600920577
0.2758410508795424
0.2862005131100241
0.2928005171286679
0.2970753361230842
0.302857520276648
0.3073448346110365
0.3072130215756268
0.3104165737928811
)
;
    }
}


// ************************************************************************* //
