/*--------------------------------*- C++ -*----------------------------------*\
  =========                 |
  \\      /  F ield         | OpenFOAM: The Open Source CFD Toolbox
   \\    /   O peration     | Website:  https://openfoam.org
    \\  /    A nd           | Version:  11
     \\/     M anipulation  |
\*---------------------------------------------------------------------------*/
FoamFile
{
    format      ascii;
    class       volScalarField;
    location    "0.35923505";
    object      T;
}
// * * * * * * * * * * * * * * * * * * * * * * * * * * * * * * * * * * * * * //

dimensions      [0 0 0 1 0 0 0];

internalField   nonuniform List<scalar> 
880
(
500.0000000000027
500.000000292371
500.0240602409137
503.340777434911
500.0000000004407
500.0000008570672
500.0298639471981
504.8871014941064
500.0000000016358
500.0000033381324
500.0553408368455
506.7156146346394
500.0000000211684
500.0000146202404
500.114760596297
509.4283569672245
499.9999999006574
500.000000075423
500.0000101656907
500.0001636963239
500.0000671563091
500.0002570837745
500.0016144160539
500.0023565885576
500.2633605764287
500.4346972424817
500.7186487891985
500.9607494444119
514.9177760354988
521.1124976835816
526.3742008096149
529.0291270019005
500.0004089518399
500.0033846561488
500.0128249339824
500.0397776224037
500.0227912574529
500.0985650973641
500.2005057454173
500.4220160094686
502.415564679216
503.6983710736621
505.2861223504135
507.2306818519355
531.2572442403119
533.8983417104612
534.3925391899107
533.1639902144399
522.8401668723794
517.6388923191302
515.4439860209386
513.9695536995656
511.0474700647838
512.6641325265739
513.5779007844329
513.7075229944554
501.1772265908584
502.0602893089772
503.008290536864
503.7665497041487
500.1411448505841
500.3405952551757
500.6412490289596
501.0639094862194
501.5574287296593
502.0498731812452
502.5355758050158
502.8872079291138
504.3927986943801
504.7489726818109
504.9504324778915
504.9005404074207
513.0678631132705
512.1692092029025
510.9866066067208
509.7491118501387
512.2219198125748
511.0323508062245
510.2808472979015
509.5130087589681
508.9399869328726
508.8784182053343
504.7597461474604
503.0952610050816
519.1983859895213
508.0402658263838
504.386008696422
503.056024741682
571.317584145084
510.4332704865761
503.9291691787425
502.6033804730379
620.3432935517023
523.8954158755846
504.7804615933854
502.4448436457776
502.3964678972715
506.0673413639334
539.6769758982651
637.4090306054692
501.5158023370551
508.5901988053262
556.3023964910952
635.1890075301438
501.8917782393372
514.4419341408205
576.6098971683712
636.1937522541238
503.3245289444319
524.8669352250765
594.7473729390529
633.4378772258214
628.3169683852586
604.8050664489541
539.815026483136
506.4862920595893
621.8132731528261
607.4543879887339
554.9973679200893
512.1636852908073
614.4988922755057
605.2839824225028
566.9941868808703
521.1586480348215
606.6429380866902
594.2588697375253
569.0863919244966
532.0889752927822
541.2915309204473
563.5992437617148
579.7593258994278
597.1536758048445
539.8323199109393
552.055785747654
562.8278712957709
582.2094200780506
535.8348198303743
540.3213360242218
544.5107068751405
560.5778865824589
530.6368194359629
529.8354722800617
525.3123745925546
530.4063527958069
526.7520231896918
520.4504115409932
508.4953581733825
495.531788580326
520.5908892173326
511.2779194211046
491.9683788294377
459.8352119699833
515.7627772727036
506.0172101460316
477.9308480802555
425.1201156919573
511.5880671264304
504.5831520999627
477.6789589127071
399.8633599744622
410.5431818509829
486.8269482236765
503.2609145251672
507.7682777632718
477.941534476761
493.0374506819287
502.4041474643731
505.1697051551728
517.2618429751346
495.7348741451208
500.8735084175367
503.3597894450981
530.1730136040625
500.4064413310838
500.2272806710584
502.2904227909899
539.0029677825245
504.3271909878708
498.9655301563004
500.3928969772912
533.7935330227334
504.2974024467629
497.6634597160714
499.2219036447827
525.7943783778298
503.4848392615182
497.2753909227387
499.1942572693027
517.7062721775476
499.1153684369337
497.0794275642704
499.4039211779268
479.7730816243595
469.4023357164563
488.935659856485
498.6805967374403
474.2551555763988
471.2942869707401
489.4247932920987
498.6804359714573
465.229755871074
473.4183542445286
490.3270619268942
498.6946026837402
459.5018830528611
476.2502465106282
491.3791880197132
498.7839391724519
517.7062721776209
499.1153684366376
497.0794275646444
499.4039211776682
525.7943783779517
503.4848392608852
497.2753909227479
499.1942572685708
533.7935330227901
504.2974024460534
497.663459714916
499.2219036438175
539.0029677826052
504.3271909871301
498.9655301561382
500.3928969767052
507.7682777635305
503.2609145254032
486.8269482239696
410.5431818500381
505.1697051550896
502.4041474644139
493.0374506825048
477.941534475891
503.3597894450559
500.8735084176017
495.7348741442755
517.2618429749645
502.29042279085
500.2272806714774
500.4064413304818
530.1730136044064
399.8633599758554
477.67895891258
504.5831520999954
511.5880671265539
425.1201156919233
477.9308480803402
506.0172101463938
515.7627772727043
459.8352119701918
491.968378829847
511.2779194210739
520.5908892174875
495.5317885807126
508.4953581730962
520.4504115404744
526.7520231897898
541.2915309204473
563.5992437623052
579.7593259000915
597.1536758053169
539.8323199104943
552.0557857473259
562.8278712959611
582.2094200786164
535.834819829587
540.3213360239325
544.5107068750634
560.577886582802
530.6368194357179
529.8354722796456
525.3123745923695
530.4063527962184
606.642938087041
594.2588697378939
569.0863919247872
532.0889752937259
614.4988922759749
605.2839824228853
566.9941868809711
521.1586480347471
621.8132731533457
607.454387989056
554.9973679197801
512.1636852908107
628.3169683857873
604.8050664492907
539.8150264835773
506.4862920594989
502.3964678971622
506.0673413639329
539.6769758981293
637.409030605475
501.5158023378004
508.5901988057159
556.3023964911995
635.1890075303196
501.891778240395
514.4419341418217
576.6098971687329
636.1937522539603
503.3245289444458
524.8669352248704
594.7473729395908
633.437877226106
502.4448436456127
502.6033804728982
503.0560247422359
503.0952610052325
504.7804615926754
503.9291691784152
504.3860086963832
504.7597461473624
523.8954158748626
510.433270486576
508.0402658258776
508.8784182051968
620.34329355147
571.3175841446823
519.19838598959
508.9399869327443
502.8872079296102
504.9005404077209
509.7491118505141
509.5130087594403
502.5355758048166
504.9504324783609
510.9866066071338
510.280847298172
502.0498731812693
504.7489726820235
512.1692092028129
511.0323508056377
501.5574287292357
504.3927986942502
513.0678631136752
512.2219198127457
500.1411448501415
501.1772265905744
511.0474700653401
522.8401668728013
500.3405952545219
502.0602893084986
512.6641325272006
517.6388923192571
500.6412490293022
503.0082905365696
513.57790078482
515.4439860201783
501.0639094858013
503.7665497040923
513.7075229950088
513.9695536991483
533.1639902144748
507.2306818520537
500.4220160093143
500.0397776228679
534.3925391900261
505.2861223505824
500.2005057452029
500.0128249338373
533.8983417108675
503.6983710735937
500.0985650961482
500.0033846555403
531.2572442404223
502.4155646789836
500.0227912570773
500.000408952499
529.0291270016868
500.9607494446738
500.0023565888034
500.0001636970924
526.3742008091228
500.7186487892331
500.0016144156982
500.0000101662534
521.1124976829628
500.4346972424392
500.0002570833543
500.0000000750825
514.9177760349767
500.2633605763183
500.0000671560013
499.999999901189
500.0000000001753
500.0000002925185
500.0240602408428
503.3407774346785
500.0000000005271
500.0000008567644
500.0298639471257
504.8871014941568
500.0000000018922
500.0000033379117
500.0553408369585
506.7156146351236
500.0000000219067
500.0000146201021
500.114760596381
509.4283569674635
506.2253868192646
508.9278023238332
513.2491219794045
521.895459066605
508.9278023243077
512.3866830475
518.7554444160925
531.3319746554847
513.2491219796701
518.7554444161583
528.8804878284649
544.0767278271315
521.8954590666798
531.331974655336
544.0767278276587
560.2594393869309
577.2415682698046
564.235865697312
557.354376031682
544.9497636384715
575.4560676375669
571.5455692227166
570.3313687532794
564.6287749589925
575.3921343030891
574.3217000632957
573.7613210408157
572.0572832667599
571.9799240117419
571.5450240776447
571.6839334414467
570.9796410632568
567.8988187376531
565.5535212851414
560.4612747531734
553.2864771437545
567.5582926655804
565.1532298708544
560.2394940630094
553.9644535127703
567.5746917893871
564.9924841875636
559.9824097562033
554.5583869943437
567.6370257187178
564.7358792610206
560.1859832227651
550.9724981978222
512.3813959167883
492.8099294051998
489.9499940516019
490.4503599914887
501.8265065451276
488.7084660468566
489.9705395623472
491.0968201324885
491.579851419737
488.8778340677277
491.559413459745
492.8374583957116
469.9267208634432
484.1233888150189
489.9013721269642
491.5988092281501
490.7932337908052
491.8105581103295
493.332805213889
494.8470507308365
491.0039661212484
491.4808755371799
492.8627784664016
494.8616529120915
492.3165042069843
492.3387001063143
493.2673898637965
494.7357916009249
491.2483731485549
491.4195736985918
492.7259125423481
494.8404739024745
505.0240073479126
567.6788734916589
639.36119150332
664.5430632756232
510.9445269303423
581.165221866471
642.0074305950244
660.2507526791037
516.4236977623374
589.4963255466671
641.9774973578393
660.9491439308603
520.2328038370619
597.7641704976018
642.18217359188
661.3620924272127
694.3007087277651
681.4453720544004
670.1402093819971
656.875383259027
702.7508404856313
690.0069304085631
676.8984337229833
662.5495936503587
708.7285170373132
697.4719725488511
683.0151781501804
668.0408839663847
706.6522829464718
701.2940512132203
687.19417403866
671.8353301412061
643.6165357686378
633.0274257639574
623.218400400251
618.968335774805
648.7150839050803
637.1083486495038
625.9498552696821
621.0677533866323
653.8784737738736
640.6187182106801
629.5063793826606
623.1777261176118
658.2971125033678
643.6928889561345
632.9970806268016
625.5985171000008
615.0673945983534
607.6463083698368
590.9806350327469
565.0080269730231
616.8447928511836
609.2347745102643
593.7784766903312
592.6505292134602
617.8389152588662
610.1544789108513
602.7702919373628
620.4156538249217
619.7333827902695
614.0056246152691
616.3504362445831
603.9811826567781
522.5290457061674
460.1975377963708
422.6648504679706
426.5550095442188
512.0672381811631
421.9833426816977
305.5275240640476
252.9695202593167
468.7318682529735
368.1011499518914
252.1782378410802
231.8541055664319
368.0077147276339
282.5859927824318
227.8297924425418
239.5914037620151
376.1160974685853
403.9287324032816
471.0882298358853
522.9247899072295
306.4929489714105
380.3619051419355
441.8191555370873
491.7072633037544
291.6677559698409
350.9025122122673
404.4011079939524
445.1305696077081
298.9379129830305
351.4327791401396
402.1230051810526
431.1493331461588
487.0602618248648
510.3454611855875
509.2790460180603
509.6863804495863
435.7730888837824
473.9286973570724
492.6745586335115
510.5666182962761
407.3528311867649
432.9141959627094
470.5544014660796
514.1739347837613
392.4918872396941
408.2739272145798
445.0625663303044
512.9342456698367
491.8256855563483
470.6130107451315
459.3923711818237
459.7027314896167
495.1778988344896
486.0216144505659
482.0169240217464
475.8951509036392
504.236747141751
507.4082943657804
501.610300781645
488.6177640278871
503.6011689698167
508.6046073224279
498.7249346390488
484.0921257568828
465.9313441757661
450.627502083821
442.2374259604754
439.8957297065776
471.5292144114181
455.6887942329457
444.4203954601796
441.0565646549688
469.7954463402158
461.2959602661117
452.6152572324311
448.9988125074495
462.8004283706321
460.2206071628833
455.4801096395959
452.3454322844827
439.8957297065417
441.0565646549493
448.9988125074561
452.3454322845747
442.2374259602964
444.4203954600159
452.6152572324272
455.4801096398611
450.627502083544
455.6887942326798
461.2959602660413
460.2206071630696
465.9313441753574
471.5292144112296
469.7954463401765
462.8004283707659
459.7027314897616
459.3923711818742
470.6130107454523
491.8256855566121
475.8951509036678
482.0169240218398
486.0216144508227
495.1778988347343
488.6177640277599
501.6103007815752
507.4082943657818
504.2367471418158
484.0921257566899
498.7249346389581
508.6046073224034
503.6011689697836
512.9342456699144
445.0625663307301
408.2739272151915
392.4918872403017
514.1739347838676
470.5544014664908
432.9141959633001
407.3528311874417
510.5666182964487
492.6745586337916
473.9286973576159
435.7730888846724
509.686380449726
509.2790460182506
510.3454611860323
487.060261825598
522.9247899070581
471.088229835801
403.928732401788
376.116097477337
491.7072633037497
441.8191555373271
380.3619051412704
306.4929489715932
445.1305696080049
404.4011079944963
350.9025122120971
291.6677559696021
431.1493331465471
402.1230051816364
351.4327791404135
298.9379129828093
426.5550095657291
422.6648504698679
460.1975377965348
522.5290457068085
252.9695202622702
305.5275240640709
421.9833426816797
512.0672381812744
231.8541055664683
252.1782378408194
368.1011499523355
468.7318682534012
239.5914037622927
227.8297924421509
282.5859927830414
368.0077147279574
565.008026973391
590.9806350331448
607.646308370353
615.0673945987598
592.650529213821
593.7784766904683
609.2347745105224
616.8447928515598
620.4156538251109
602.7702919373779
610.154478910836
617.8389152590896
603.9811826572713
616.350436244517
614.00562461513
619.7333827905329
618.9683357753629
623.2184004006785
633.027425763848
643.6165357684849
621.0677533871308
625.9498552697507
637.1083486491623
648.7150839047089
623.1777261178385
629.5063793828306
640.6187182103446
653.8784737736869
625.5985171003318
632.997080627017
643.6928889560827
658.2971125029002
656.8753832587129
670.1402093817022
681.445372054094
694.3007087276518
662.5495936499524
676.8984337229693
690.006930408349
702.7508404854113
668.040883966164
683.0151781499667
697.4719725483133
708.728517037191
671.8353301409484
687.1941740384982
701.2940512129777
706.6522829461545
664.5430632756147
639.3611915030619
567.6788734916178
505.0240073483724
660.2507526789637
642.0074305947405
581.1652218663722
510.9445269308969
660.9491439306285
641.9774973575036
589.4963255464628
516.4236977629105
661.3620924271959
642.1821735915418
597.7641704973807
520.2328038376269
494.8470507314859
493.332805213821
491.8105581095994
490.7932337904143
494.8616529127373
492.862778466258
491.4808755362116
491.0039661208351
494.7357916015672
493.2673898634602
492.3387001053278
492.3165042064495
494.8404739031068
492.7259125419788
491.419573697536
491.248373147908
490.4503599907054
489.9499940509802
492.80992940557
512.3813959171555
491.0968201317354
489.9705395615035
488.7084660473794
501.8265065454167
492.8374583949389
491.5594134587671
488.8778340681788
491.5798514199501
491.5988092273533
489.901372125801
484.1233888153956
469.9267208636615
553.2864771439533
560.4612747534774
565.5535212857368
567.8988187375188
553.9644535128659
560.2394940632425
565.1532298713754
567.5582926654643
554.5583869943167
559.9824097563134
564.9924841878928
567.5746917890749
550.9724981978552
560.1859832228233
564.7358792612604
567.6370257184872
570.9796410623385
572.0572832656238
564.6287749581251
544.9497636385923
571.6839334404544
573.7613210393837
570.3313687516289
557.3543760311507
571.5450240765732
574.3217000615848
571.5455692199627
564.2358656953643
571.9799240108268
575.3921343012024
575.4560676341332
577.241568266151
505.1311644542481
497.2537065747587
496.8136031771713
499.4842437754086
485.4160591018262
492.0360918598261
495.3926949148502
499.3454269684741
470.369993580492
486.3989479677435
493.9791930608077
499.148063263202
460.1372458554992
480.428542829945
492.4956171109176
498.941105215482
498.6805967370656
488.9356598564782
469.4023357164287
479.7730816244487
498.6804359710835
489.4247932922513
471.2942869706873
474.2551555767521
498.6946026837632
490.3270619273092
473.4183542443162
465.2297558713686
498.7839391725503
491.3791880198935
476.2502465104666
459.5018830529858
498.9411052153693
499.1480632630598
499.345426968806
499.4842437755685
492.4956171106562
493.9791930606111
495.392694914538
496.8136031773138
480.4285428300564
486.3989479680645
492.0360918603741
497.2537065751608
460.1372458553184
470.3699935802437
485.4160591018356
505.1311644543753
)
;

boundaryField
{
    back
    {
        type            empty;
    }
    inlet
    {
        type            zeroGradient;
    }
    front
    {
        type            empty;
    }
    top
    {
        type            zeroGradient;
    }
    outlet
    {
        type            fixedValue;
        value           uniform 500;
    }
    bottom
    {
        type            zeroGradient;
    }
    wall
    {
        type            zeroGradient;
    }
}


// ************************************************************************* //
