/*--------------------------------*- C++ -*----------------------------------*\
  =========                 |
  \\      /  F ield         | OpenFOAM: The Open Source CFD Toolbox
   \\    /   O peration     | Website:  https://openfoam.org
    \\  /    A nd           | Version:  11
     \\/     M anipulation  |
\*---------------------------------------------------------------------------*/
FoamFile
{
    format      ascii;
    class       volScalarField;
    location    "0.0295";
    object      rho;
}
// * * * * * * * * * * * * * * * * * * * * * * * * * * * * * * * * * * * * * //

dimensions      [0 0 0 0 0 0 0];

internalField   nonuniform List<scalar> 
880
(
0.3733250556165154
0.3733250556165154
0.3733250556165154
0.3733250554721252
0.3733250556165154
0.3733250556165154
0.3733250556165152
0.3733250558581464
0.3733250556165154
0.3733250556165153
0.3733250556165154
0.3733250718547816
0.3733250556165154
0.3733250556165154
0.3733250556165154
0.3733250682331662
0.3733250556165154
0.3733250556165155
0.3733250556165152
0.3733250556165154
0.3733250556165154
0.3733250556165154
0.3733250556165151
0.3733250556165154
0.3733250556165154
0.3733250556165154
0.3733250611678016
0.3733250040010606
0.3734382025150427
0.3738599536336683
0.374120836402807
0.3740977558980839
0.3733250556170398
0.3733250556171692
0.3733250556171716
0.3733250556165224
0.3733250557293842
0.373325055760389
0.3733250557752616
0.3733250556602655
0.3733254519418877
0.373325498562599
0.3733255288646077
0.3733253362100599
0.3741554622244305
0.3742347691392834
0.3742641799795041
0.3742156536135264
0.3746000224944595
0.3739620792501452
0.3734563111966377
0.3733327405814303
0.3733264405439133
0.3733258950124273
0.3733252639175361
0.3733250703717511
0.3733250563733161
0.3733250561091274
0.3733250557443379
0.3733250556251457
0.3733250556221204
0.373325055620068
0.373325055616968
0.3733250556165154
0.3733250556165152
0.3733250556165152
0.3733250556165154
0.3733250556165155
0.3733250556165187
0.3733250556165155
0.3733250556165154
0.3733250556165155
0.3733250557246491
0.373325055607077
0.3733250556135026
0.3733250556163863
0.3733250862116
0.3733250457094957
0.373325053539201
0.3733250555476613
0.3733250556165094
0.3733250556165154
0.3733250556165154
0.3733250556165154
0.3733250544465809
0.3733250555968725
0.3733250556162822
0.3733250556165153
0.3733258446670665
0.3733250690975806
0.3733250556258293
0.3733250556165154
0.3726925367383683
0.373324196091155
0.3733250550962011
0.3733250556165149
0.3733250556165152
0.3733250556246739
0.3733251325547105
0.3737971434192718
0.3733250556173446
0.3733250558180183
0.373325873356397
0.3757879412644558
0.3733250556176788
0.3733250558923644
0.3733261068881129
0.3762005413437614
0.3733250556179342
0.3733250559524326
0.373326254852107
0.3763346640563792
0.376485977850133
0.3733264358946481
0.3733250560312681
0.3733250556184261
0.3766614161567362
0.3733266607082014
0.3733250561351277
0.3733250556189217
0.3768496559667219
0.3733269277416214
0.3733250562671119
0.3733250556196582
0.3771297375212428
0.373327341483213
0.3733250564886754
0.3733250556211326
0.3733250556190192
0.3733250561242344
0.3733266119034134
0.3765520317453168
0.3733250556190991
0.3733250560938775
0.3733264451163154
0.3760542677818058
0.3733250556599922
0.3733250560973886
0.3733263446752824
0.375639262981877
0.37332505548392
0.3733250559025301
0.3733256381232282
0.3742807226548602
0.3733250559007012
0.3733249077245659
0.3732617567334273
0.3701635893628333
0.3733250558964655
0.3733247677099188
0.3731195012423388
0.3503114711345589
0.3733250558261296
0.3733247676643452
0.3730651214594877
0.3358768028615758
0.3733250557925587
0.373324823915247
0.3730463699814892
0.3319941724620826
0.3423865439616003
0.373179236155725
0.3733248874708807
0.3733250557060779
0.3438113643287314
0.3731970814317172
0.3733249244972794
0.3733250557140452
0.3468575711643526
0.3732286596926962
0.3733249648381343
0.3733250557153882
0.3408590026998337
0.3731984985189453
0.3733249439237403
0.3733250556480922
0.3657186630668645
0.373310883214521
0.3733250445379049
0.3733250556249798
0.3728469271503823
0.3733246601407576
0.3733250554544555
0.3733250556183302
0.373286246249959
0.3733250055940912
0.3733250555799235
0.3733250556165154
0.373123003126109
0.373324721235656
0.3733250552881138
0.3733250556152379
0.3717479473145942
0.3733200901168757
0.3733250565692837
0.3733250558532893
0.371751206504939
0.3733200903249283
0.3733250564838692
0.3733250558514427
0.3717555241510709
0.3733200481590349
0.3733250556317108
0.3733250558242958
0.3717767604786144
0.3733199950280608
0.3733250538666619
0.3733250557652114
0.373123003125807
0.3733247212353512
0.3733250552877181
0.3733250556153648
0.3732862462493867
0.3733250055937289
0.3733250555791586
0.3733250556165154
0.3728469271501455
0.3733246601407778
0.3733250554544328
0.3733250556183844
0.3657186630674638
0.3733108832152964
0.3733250445379626
0.3733250556248315
0.373325055706742
0.3733248874718035
0.3731792361561158
0.3423865439619718
0.3733250557143395
0.3733249244974404
0.3731970814320413
0.3438113643287145
0.3733250557148627
0.3733249648386418
0.3732286596926931
0.3468575711652182
0.3733250556482398
0.3733249439238379
0.373198498519874
0.3408590026991238
0.3319941724611407
0.373046369981109
0.3733248239149906
0.3733250557924627
0.3358768028604924
0.3730651214589668
0.373324767663434
0.3733250558252784
0.3503114711341636
0.3731195012415687
0.3733247677098835
0.3733250558956239
0.3701635893630721
0.3732617567331438
0.373324907724248
0.3733250559017185
0.3733250556189516
0.3733250561246129
0.3733266119038608
0.3765520317459681
0.3733250556191502
0.3733250560940052
0.373326445116308
0.3760542677815417
0.3733250556604631
0.3733250560973991
0.3733263446747808
0.3756392629817739
0.3733250554847415
0.3733250559025216
0.373325638122846
0.3742807226548773
0.3771297375225636
0.373327341482665
0.3733250564892402
0.3733250556210584
0.3768496559678545
0.3733269277423112
0.3733250562673134
0.3733250556197243
0.3766614161568994
0.3733266607091739
0.3733250561355955
0.3733250556188759
0.3764859778505606
0.3733264358942469
0.3733250560313195
0.3733250556183624
0.3733250556165154
0.3733250556250285
0.3733251325546635
0.3737971434182786
0.3733250556172057
0.3733250558176754
0.3733258733567148
0.3757879412645623
0.3733250556176236
0.3733250558923804
0.3733261068882393
0.37620054134424
0.3733250556178583
0.3733250559525663
0.3733262548515178
0.3763346640565842
0.3733250556165149
0.3733250556165154
0.3733250556165154
0.3733250556165154
0.3733250550954403
0.3733250556257275
0.3733250556165151
0.3733250556165153
0.3733241960912502
0.373325069098107
0.3733250555965571
0.3733250556165154
0.3726925367382906
0.3733258446670928
0.3733250544466136
0.3733250556165092
0.3733250556165152
0.3733250556165154
0.3733250556163965
0.3733250555477701
0.3733250556165154
0.3733250556165153
0.3733250556139953
0.373325053539207
0.3733250556165154
0.3733250556165154
0.3733250556068646
0.3733250457095495
0.3733250556165154
0.3733250556165154
0.3733250557250187
0.3733250862114759
0.3733250556218015
0.3733250563726628
0.3733264405434281
0.3746000224942803
0.3733250556196893
0.3733250561093967
0.3733258950125201
0.3739620792494674
0.3733250556169482
0.3733250557451396
0.3733252639173016
0.3734563111965808
0.3733250556165154
0.3733250556252952
0.3733250703718309
0.373332740580968
0.3742156536138057
0.373325336210773
0.373325055659944
0.3733250556165154
0.3742641799792331
0.3733255288659249
0.3733250557750874
0.3733250556172274
0.3742347691399863
0.3733254985632302
0.3733250557604795
0.3733250556171275
0.3741554622242799
0.3733254519403122
0.373325055729286
0.3733250556170722
0.3740977558984895
0.3733250040011279
0.3733250556165154
0.3733250556165154
0.374120836402577
0.3733250611670329
0.3733250556165154
0.3733250556165154
0.3738599536341264
0.3733250556165155
0.3733250556165154
0.3733250556165153
0.3734382025149482
0.3733250556165154
0.3733250556165154
0.3733250556165151
0.3733250556165154
0.3733250556165154
0.3733250556165154
0.3733250554964121
0.3733250556165152
0.3733250556165155
0.3733250556165153
0.3733250558577725
0.3733250556165154
0.3733250556165154
0.3733250556165154
0.3733250718550173
0.3733250556165154
0.3733250556165154
0.3733250556165151
0.3733250682329171
0.3733250429009821
0.3733248799744132
0.3733230052937362
0.3733595785725787
0.3733248799747624
0.3733235419661259
0.3733050633419656
0.3732427550280019
0.3733230052939299
0.3733050633423488
0.3733429452578301
0.3773713429049314
0.3733595785728637
0.373242755028246
0.3773713429054226
0.4162568741688354
0.5042235878185213
0.4316481201635645
0.4046362686827523
0.3804760706510731
0.5249191156825778
0.4864388522115188
0.4658725501322079
0.4105777120125512
0.5349664985598722
0.5105189081088253
0.4964983731987973
0.4322243435892826
0.5386314178894498
0.5157710570210198
0.5024012856594737
0.4352823433635432
0.4387592368481238
0.4407421146619777
0.4413359614785818
0.4482970136255283
0.5043854473388996
0.50521596969282
0.5056077496872186
0.5280142708021099
0.5173285284230343
0.5177464240086044
0.5180685199468598
0.5367839840799069
0.5403303970585471
0.5400490931781199
0.5400945388130949
0.564181542100447
0.4252710889632249
0.3903456380280756
0.3757019914274383
0.3734111526669581
0.4495609506061687
0.393514523437499
0.3758522712739856
0.3733612622915587
0.4200843588626041
0.3829179229928294
0.3746698709015954
0.373324048555417
0.3577108842901796
0.3639052336359532
0.3720102533816826
0.3731651742340137
0.3733229866493093
0.3733246318839233
0.3733250310487455
0.37332505532293
0.3733194567756871
0.3733247217374046
0.3733250526971598
0.3733250556456424
0.3733181714394197
0.3733249382557327
0.3733250566519002
0.3733250556744027
0.3733013663444507
0.3733233833396669
0.373325028330025
0.3733250555632197
0.3733250556166151
0.373325055659701
0.3733250884095917
0.3529319956327178
0.373325055644153
0.3733250556295763
0.3733250684806505
0.3459309526994902
0.3733250556465262
0.373325055625181
0.3733250574775708
0.3662061232241824
0.3733250556360736
0.3733250556263797
0.3733250559659066
0.4396979874808405
0.4672933590024473
0.5742135575930605
0.587308454948249
0.5875340917682712
0.6260037251542453
0.7332117093846189
0.7465991678743409
0.7468225788726554
0.6837200727748419
0.7538398842251504
0.7702193606616312
0.7709524097504311
0.7196593491405247
0.7471005103229515
0.7630526366167966
0.764438606713526
0.587646234170162
0.5879751323455163
0.5883882392914067
0.5897051578486527
0.746695250606163
0.7466952418896874
0.7467655229368454
0.7464037055078284
0.7709190240516547
0.7708621847335371
0.7708630634595772
0.7705287793417362
0.7645463017151607
0.764437695469846
0.7644082036994404
0.7639649588165236
0.565137422645098
0.5457658223558425
0.5269949585504164
0.4614518207937717
0.7370447532223332
0.7274424930107662
0.7123579344167063
0.6492602700557535
0.7669192788228082
0.7615092671159326
0.7417872548200225
0.6961688044021106
0.7666968886821264
0.7704951871761206
0.7569012167150061
0.7634748658058655
0.3534559796070128
0.2057716623223207
0.1028060291755228
0.09188841574770537
0.3431915902844185
0.1465218995789657
0.0804811909987609
0.07174848486340396
0.2824645759471082
0.09077608543488178
0.06613558660679233
0.06154062575648886
0.2066419239988882
0.04186225764945214
0.04789402380937866
0.04757596192593991
0.09085110582755919
0.09164397380982353
0.09327039381659433
0.08082305373266034
0.07196632599685632
0.07271593036589406
0.07737106711994507
0.07030868772928001
0.05993335469826071
0.06095119488399495
0.06792182272513143
0.06552433104935054
0.04437272143330775
0.04479940926093447
0.05348839495172484
0.05156124832612583
0.2398919124755881
0.3507304405240135
0.3701829704084982
0.3612367205163975
0.1835212928933417
0.3115545928525818
0.357932079011535
0.3530390095354272
0.1584367870025647
0.2749917667652905
0.3358113112971703
0.3511839310176659
0.1149386844643196
0.2429450509884377
0.3134029529632337
0.3503406907556341
0.3534231692799804
0.3258673944955033
0.2852031517347299
0.2565018833844623
0.3003542433746141
0.2657834319786572
0.214952790377024
0.1612034200798693
0.2190990633390076
0.191014276422316
0.1743012945864942
0.1138946184468957
0.1648487371517141
0.1067761688083496
0.1056611313800944
0.08502758942017584
0.05470950681228878
0.05008624289740993
0.0494845763882538
0.0489721635493704
0.08432786748760383
0.08076391930539659
0.07920585119467505
0.07793849041823182
0.1443060226225661
0.1422895752166696
0.1410726477965162
0.1401633361641923
0.245310712213247
0.2437512511736358
0.2428224230057546
0.242327442717244
0.04897216354935265
0.07793849041839195
0.1401633361640416
0.2423274427192559
0.04948457638816046
0.07920585119494961
0.1410726477964068
0.2428224230055624
0.05008624289729575
0.08076391930543404
0.1422895752165174
0.2437512511738697
0.05470950681248332
0.08432786748742641
0.1443060226222664
0.2453107122128093
0.256501883384262
0.2852031517343096
0.3258673944950543
0.3534231692792746
0.161203420079686
0.2149527903770977
0.265783431978908
0.3003542433742808
0.1138946184468835
0.1743012945866063
0.1910142764222628
0.2190990633387946
0.0850275894202992
0.1056611313800771
0.106776168808335
0.164848737151622
0.3503406907552921
0.3134029529627979
0.2429450509885169
0.1149386844642799
0.3511839310175411
0.3358113112970534
0.2749917667652865
0.1584367870026227
0.3530390095354416
0.35793207901118
0.3115545928524349
0.183521292893477
0.3612367205162298
0.3701829704081588
0.3507304405239032
0.2398919124757822
0.08082305373254112
0.09327039381660032
0.09164397380969719
0.09085110582734045
0.07030868772920275
0.07737106711989099
0.07271593036586674
0.0719663259967762
0.06552433104938349
0.06792182272521192
0.06095119488412804
0.05993335469834949
0.051561248326145
0.05348839495189484
0.0447994092610885
0.0443727214334146
0.09188841574714268
0.1028060291751816
0.2057716623220852
0.3534559796069046
0.07174848486333261
0.08048119099866105
0.146521899578759
0.3431915902837155
0.06154062575663165
0.06613558660674307
0.09077608543486351
0.2824645759464855
0.04757596192611915
0.04789402380933666
0.0418622576493556
0.2066419239986987
0.4614518207929744
0.5269949585504056
0.545765822355355
0.5651374226447271
0.6492602700547547
0.712357934416649
0.7274424930106913
0.7370447532223421
0.6961688044015528
0.7417872548198167
0.76150926711591
0.7669192788223672
0.7634748658057565
0.7569012167148912
0.7704951871762502
0.7666968886823075
0.5897051578478941
0.5883882392920387
0.5879751323458234
0.5876462341699974
0.7464037055071039
0.7467655229372734
0.7466952418900786
0.7466952506060908
0.7705287793406491
0.7708630634596234
0.770862184733548
0.7709190240513931
0.7639649588160781
0.7644082036997126
0.7644376954697427
0.7645463017150228
0.5875340917677848
0.5873084549487928
0.5742135575928202
0.4672933590034402
0.7468225788723323
0.7465991678747776
0.7332117093842289
0.6260037251549808
0.7709524097501537
0.7702193606619044
0.7538398842248714
0.6837200727751757
0.7644386067134834
0.7630526366171237
0.7471005103224344
0.7196593491404022
0.3529319956326918
0.3733250884095368
0.3733250556596406
0.3733250556166128
0.34593095269957
0.3733250684806311
0.373325055629551
0.3733250556441507
0.3662061232243582
0.3733250574775601
0.373325055625179
0.373325055646512
0.4396979874809211
0.3733250559659032
0.3733250556263756
0.3733250556360578
0.3733250553229396
0.3733250310488295
0.3733246318839291
0.3733229866492923
0.3733250556456147
0.3733250526971093
0.3733247217374962
0.3733194567755997
0.3733250556743511
0.3733250566518705
0.3733249382559386
0.3733181714393388
0.373325055563197
0.3733250283300358
0.3733233833398543
0.373301366344601
0.3734111526667777
0.3757019914273737
0.3903456380277626
0.4252710889629661
0.3733612622914131
0.3758522712739714
0.3935145234373378
0.4495609506062095
0.3733240485552959
0.3746698709015993
0.3829179229927371
0.4200843588627981
0.3731651742336454
0.3720102533817793
0.3639052336358031
0.3577108842902527
0.4482970136252137
0.4413359614782038
0.4407421146615525
0.4387592368485588
0.5280142708016673
0.5056077496869354
0.5052159696924257
0.5043854473393227
0.5367839840794626
0.518068519946449
0.5177464240076919
0.5173285284232811
0.56418154210031
0.5400945388127465
0.5400490931774018
0.5403303970588066
0.4352823433634748
0.4322243435886814
0.4105777120130066
0.3804760706514811
0.5024012856594757
0.496498373198313
0.4658725501322658
0.4046362686828662
0.515771057021384
0.5105189081079934
0.486438852211411
0.4316481201633176
0.5386314178900911
0.5349664985598215
0.5249191156824669
0.5042235878186508
0.3730091096610087
0.3733241973618954
0.3733250553176767
0.3733250556421193
0.372419992449446
0.3733224503847755
0.3733250546940199
0.3733250556982601
0.3716017086833375
0.373320104262845
0.3733250522412769
0.373325055700625
0.3710485640060737
0.3733187641556815
0.3733250515117692
0.3733250557198817
0.373325055853551
0.373325056569079
0.3733200901170075
0.3717479473146614
0.3733250558516282
0.3733250564843252
0.3733200903242451
0.37175120650515
0.3733250558240918
0.3733250556321293
0.3733200481591624
0.3717555241505152
0.3733250557644724
0.3733250538671502
0.3733199950261846
0.3717767604785768
0.3733250557197794
0.373325055700544
0.3733250556974952
0.3733250556412601
0.3733250515119007
0.3733250522412692
0.3733250546938293
0.3733250553170963
0.3733187641563017
0.3733201042620144
0.3733224503855808
0.3733241973613771
0.3710485640053908
0.3716017086825749
0.3724199924496075
0.3730091096611814
)
;

boundaryField
{
    back
    {
        type            empty;
    }
    inlet
    {
        type            calculated;
        value           nonuniform List<scalar> 
16
(
0.3733250556165154
0.3733250556165154
0.3733250556165154
0.3733250556165154
0.3733250556165154
0.3733250556165155
0.3733250556165152
0.3733250556165154
0.3733250556165154
0.3733250556165154
0.3733250556165154
0.3733250556165151
0.3733250556165154
0.3733250556165152
0.3733250556165154
0.3733250556165154
)
;
    }
    front
    {
        type            empty;
    }
    top
    {
        type            calculated;
        value           nonuniform List<scalar> 
40
(
0.3733250556170398
0.3733250556171692
0.3733250556171716
0.3733250556165223
0.3733250556221204
0.3733250556200679
0.373325055616968
0.3733250556165154
0.3733250556165152
0.3733250556165152
0.3733250556165154
0.3733250556165155
0.3733250556165154
0.3733250556165154
0.3733250556165154
0.3733250556165149
0.3733250556165152
0.3733250556173446
0.3733250556176788
0.3733250556179342
0.3733250556184261
0.3733250556189217
0.3733250556196582
0.3733250556211326
0.3733250556190192
0.3733250556190991
0.3733250556599922
0.37332505548392
0.3733250559007012
0.3733250558964655
0.3733250558261296
0.3733250557925587
0.3733250557060779
0.3733250557140452
0.3733250557153882
0.3733250556480922
0.3733250556249798
0.3733250556183303
0.3733250556165154
0.3733250556152379
)
;
    }
    outlet
    {
        type            calculated;
        value           uniform 0.3733250556165154;
    }
    bottom
    {
        type            calculated;
        value           nonuniform List<scalar> 
40
(
0.3733250556153648
0.3733250556165154
0.3733250556183844
0.3733250556248315
0.373325055706742
0.3733250557143395
0.3733250557148627
0.3733250556482398
0.3733250557924627
0.3733250558252784
0.3733250558956239
0.3733250559017185
0.3733250556189516
0.3733250556191502
0.3733250556604631
0.3733250554847415
0.3733250556210584
0.3733250556197243
0.3733250556188759
0.3733250556183624
0.3733250556165154
0.3733250556172057
0.3733250556176236
0.3733250556178583
0.3733250556165148
0.3733250556165154
0.3733250556165154
0.3733250556165154
0.3733250556165152
0.3733250556165154
0.3733250556165154
0.3733250556165154
0.3733250556218015
0.3733250556196893
0.3733250556169482
0.3733250556165154
0.3733250556165154
0.3733250556172275
0.3733250556171275
0.3733250556170722
)
;
    }
    wall
    {
        type            calculated;
        value           nonuniform List<scalar> 
104
(
0.5042235878185213
0.5249191156825778
0.5349664985598722
0.5386314178894498
0.5403303970585471
0.5400490931781199
0.5400945388130949
0.564181542100447
0.3577108842901796
0.3639052336359532
0.3720102533816826
0.3731651742340137
0.3733013663444507
0.3733233833396669
0.373325028330025
0.3733250555632197
0.3733250556360736
0.3733250556263797
0.3733250559659066
0.4396979874808405
0.7196593491405247
0.7471005103229515
0.7630526366167966
0.764438606713526
0.7645463017151607
0.764437695469846
0.7644082036994404
0.7639649588165236
0.7666968886821264
0.7704951871761206
0.7569012167150061
0.7634748658058655
0.2066419239988882
0.04186225764945214
0.04789402380937866
0.04757596192593991
0.04437272143330775
0.04479940926093447
0.05348839495172484
0.05156124832612584
0.1149386844643196
0.2429450509884377
0.3134029529632337
0.3503406907556341
0.1648487371517141
0.1067761688083496
0.1056611313800944
0.08502758942017584
0.05470950681228878
0.05008624289740993
0.0494845763882538
0.0489721635493704
0.04897216354935265
0.04948457638816046
0.05008624289729575
0.05470950681248332
0.0850275894202992
0.1056611313800771
0.106776168808335
0.164848737151622
0.3503406907552921
0.3134029529627979
0.2429450509885169
0.11493868446428
0.051561248326145
0.05348839495189484
0.0447994092610885
0.0443727214334146
0.04757596192611915
0.04789402380933666
0.0418622576493556
0.2066419239986987
0.7634748658057565
0.7569012167148912
0.7704951871762502
0.7666968886823075
0.7639649588160781
0.7644082036997126
0.7644376954697427
0.7645463017150228
0.7644386067134834
0.7630526366171237
0.7471005103224344
0.7196593491404022
0.4396979874809212
0.3733250559659031
0.3733250556263756
0.3733250556360578
0.373325055563197
0.3733250283300358
0.3733233833398543
0.373301366344601
0.3731651742336454
0.3720102533817793
0.3639052336358031
0.3577108842902527
0.56418154210031
0.5400945388127465
0.5400490931774018
0.5403303970588066
0.5386314178900911
0.5349664985598215
0.5249191156824669
0.5042235878186508
)
;
    }
}


// ************************************************************************* //
