/*--------------------------------*- C++ -*----------------------------------*\
  =========                 |
  \\      /  F ield         | OpenFOAM: The Open Source CFD Toolbox
   \\    /   O peration     | Website:  https://openfoam.org
    \\  /    A nd           | Version:  11
     \\/     M anipulation  |
\*---------------------------------------------------------------------------*/
FoamFile
{
    format      ascii;
    class       volVectorField;
    location    "0.0295";
    object      U;
}
// * * * * * * * * * * * * * * * * * * * * * * * * * * * * * * * * * * * * * //

dimensions      [0 1 -1 0 0 0 0];

internalField   nonuniform List<vector> 
880
(
(25 -6.241243239709289e-16 0)
(25 -4.244716095937586e-16 0)
(25 1.521736787378265e-15 0)
(24.99999999645278 -4.162706463886577e-09 0)
(25 5.991489446046457e-16 0)
(25 -8.034423242623619e-16 0)
(25.00000000000002 3.904822397661223e-15 0)
(25.0000001681683 -4.997025043962111e-08 0)
(25 0 0)
(25.00000000000001 1.20538291503782e-15 0)
(25 -5.534054037243359e-15 0)
(25.0000005336202 -1.648507909811707e-06 0)
(25 0 0)
(25 -9.398741161315877e-16 0)
(25 -2.132661679835766e-15 0)
(24.99992054839058 -3.649796124248095e-05 0)
(25 -4.691285318395016e-16 0)
(25 -3.915070596852939e-16 0)
(25.00000000000001 1.675853534384198e-15 0)
(25 1.537492850227042e-14 0)
(25 -1.83559807962151e-16 0)
(25 2.887380810208626e-16 0)
(25.00000000000003 6.616901829976455e-15 0)
(25 1.560822987344771e-14 0)
(25 -6.758018513685703e-13 0)
(24.99999999996199 3.580105358350148e-11 0)
(25.00000013441971 2.297464565799393e-07 0)
(24.99999913527177 -2.552775092864236e-06 0)
(24.99819196064702 0.004993630374302616 0)
(24.99216035492648 0.02491841846976722 0)
(24.99088010311881 0.03880325080226902 0)
(24.9922088698276 0.03782471696926389 0)
(24.99999999997097 -2.950204711267374e-11 0)
(24.99999999995922 -3.901562409089161e-11 0)
(24.99999999995707 -4.442453125145247e-11 0)
(24.99999999999975 -9.568250848946239e-12 0)
(24.99999999907257 5.291800440316996e-09 0)
(24.99999999923714 6.808224779351134e-09 0)
(24.99999999919801 7.48843669676405e-09 0)
(24.99999999792758 1.863959080162948e-09 0)
(24.99999676482377 1.85519439723654e-05 0)
(24.99999640224038 2.07741397782046e-05 0)
(24.99999633060257 2.221237688828629e-05 0)
(24.99999263127021 1.313483595554559e-05 0)
(24.99121039318232 0.04079855532045495 0)
(24.99126755880665 0.04493700517635819 0)
(24.99131350807042 0.0464264221671755 0)
(24.98705570640412 0.04467993391485734 0)
(25.00009581869628 0.06307118111555338 0)
(25.00907248726185 0.0312961472881114 0)
(25.00370129593918 0.005469209192815603 0)
(25.0002819359968 0.0002662760063039517 0)
(24.99999827398556 6.540858791190032e-05 0)
(25.00000617099521 3.980751569696733e-05 0)
(25.00000379858948 9.332874906229707e-06 0)
(25.00000038371333 6.037239405617514e-07 0)
(24.9999999990291 3.59829450851717e-08 0)
(25.00000000273346 2.350128344282346e-08 0)
(25.00000000185703 5.924722645911006e-09 0)
(25.00000000020809 3.894588129652353e-10 0)
(24.9999999996713 -2.275121431996975e-10 0)
(24.99999999975741 -1.482169923511695e-10 0)
(24.99999999995969 -3.387163761357289e-11 0)
(25 -2.308396198767391e-12 0)
(25.00000000000001 -3.383750862375968e-14 0)
(25.00000000000001 1.701276259083347e-15 0)
(25 -3.990101423584111e-16 0)
(24.99999999999999 -4.661702653297003e-16 0)
(25.0000000000096 5.76207300706358e-12 0)
(25 -2.355671916786433e-13 0)
(25 -5.61754106067531e-14 0)
(25 -2.324376495495891e-15 0)
(25.00000001292181 3.337924132031248e-09 0)
(24.99999999995326 -4.617050391539703e-10 0)
(24.99999999996101 -1.288004687075712e-10 0)
(25.00000000000065 -4.683278292809216e-12 0)
(25.00000348690034 -1.381885911926012e-07 0)
(24.99999993287953 -5.011223871952708e-07 0)
(24.99999993808762 -9.226668561504835e-08 0)
(24.99999999720786 -2.174470145751153e-09 0)
(25.00000000003373 1.339119030979889e-11 0)
(25 4.67996828594196e-13 0)
(25 6.20712191540762e-15 0)
(25 -2.64928294418986e-16 0)
(24.99999996091672 -5.033431066940758e-08 0)
(24.99999999960253 -9.253818098470505e-10 0)
(25.00000000000025 -1.083981736396585e-11 0)
(25 1.697540221813748e-14 0)
(25.00001475004493 4.262368633919466e-05 0)
(25.00000008505885 6.250059670500772e-07 0)
(25.00000000001632 4.454601492706717e-10 0)
(25 -2.432196133850462e-12 0)
(25.00591446393966 -0.02886588223528736 0)
(25.00000340149194 -3.951646795169331e-05 0)
(25.00000000099356 -2.401798210515302e-08 0)
(24.99999999999899 -9.476464918343335e-12 0)
(25.00000000000002 -2.400170501181323e-13 0)
(24.9999999992116 2.300840342009693e-10 0)
(24.99999534279932 2.209623623715439e-06 0)
(24.97665092811985 0.01514244392634887 0)
(24.99999999995504 -4.139268746475208e-11 0)
(24.99999999671979 9.337379357426529e-09 0)
(24.99998065322621 3.731623170442521e-05 0)
(24.91784940179619 0.123105496571139 0)
(24.9999999999367 -5.848084441960388e-11 0)
(24.99999999584633 1.288444634023587e-08 0)
(24.99997682863316 4.888538731987308e-05 0)
(24.91232306663212 0.1501724458775853 0)
(24.99999999992322 -7.342693004446403e-11 0)
(24.99999999496486 1.571092498632494e-08 0)
(24.99997359920143 5.573870356854213e-05 0)
(24.90863868292138 0.1570795946352625 0)
(24.90412895212584 0.1647074794532471 0)
(24.99996959591616 6.410684646515768e-05 0)
(24.99999999377134 1.938942990189745e-08 0)
(24.99999999989601 -9.300964626004839e-11 0)
(24.89903989370272 0.1735836865984869 0)
(24.99996471300562 7.450699708497277e-05 0)
(24.99999999224092 2.424940673858189e-08 0)
(24.99999999986833 -1.194313745023304e-10 0)
(24.89293984701706 0.1828961935522206 0)
(24.99995842168287 8.674082368182773e-05 0)
(24.99999999009831 3.040116635687122e-08 0)
(24.99999999982967 -1.53697023869206e-10 0)
(24.88618086436308 0.198245675515738 0)
(24.99995070271885 0.0001065227949890719 0)
(24.99999998743824 4.094253071908487e-08 0)
(24.99999999974628 -2.164146844617389e-10 0)
(24.99999999985317 -1.310187257235297e-10 0)
(24.99999999286163 2.378650951156866e-08 0)
(24.99996707948623 7.213913450742299e-05 0)
(24.9070786220128 0.1668404164821536 0)
(24.99999999986123 -1.189451269738365e-10 0)
(24.99999999274832 2.207602177436147e-08 0)
(24.99996992423727 6.321988385759862e-05 0)
(24.92224769707201 0.1378571539254498 0)
(25.00000000306703 4.974698341624593e-10 0)
(24.99999999235885 2.18094737220647e-08 0)
(24.99997207979138 5.807515091094349e-05 0)
(24.93504549830099 0.1145679134434135 0)
(24.99999998778114 -3.651678929054468e-09 0)
(24.99999999702096 1.429960728868463e-08 0)
(24.99998884963857 2.614802106566095e-05 0)
(24.97476971733034 0.046745086692181 0)
(24.99999999394665 -1.288970439141326e-09 0)
(24.99998997964934 -1.594935900126443e-05 0)
(24.99785876876904 -0.002177943054543559 0)
(24.99307655852586 -0.1385108148035548 0)
(24.9999999904048 6.358827874390503e-10 0)
(24.99998953532388 -1.01542035493932e-05 0)
(24.99193763322504 -0.003907623062102595 0)
(24.25998845079208 -0.314820212035991 0)
(24.99999999239425 8.747720109703457e-11 0)
(24.99998918472089 -8.149266829904588e-06 0)
(24.98955427451332 -0.003289829740409382 0)
(23.78981472512478 -0.1462692505455894 0)
(24.99999999462264 7.591330754247465e-10 0)
(24.99999078059157 -5.964053736992027e-06 0)
(24.98851511908747 -0.001889405969660205 0)
(23.6270386404588 0.01717636670727403 0)
(24.02753617435077 -0.03020466248841008 0)
(24.99420261172186 -0.00275922855220131 0)
(24.99999456904024 -5.909108748706037e-06 0)
(24.99999999495719 -1.921905705869104e-09 0)
(24.07971546439277 0.01058080272949348 0)
(24.99484688929186 -0.002136920703747771 0)
(24.99999562398099 -4.468096061986873e-06 0)
(24.99999999487167 -9.783172851155786e-10 0)
(24.19522408079155 -0.02250583067997856 0)
(24.99623363265669 -0.001809344245731072 0)
(24.99999717498277 -3.211548970168886e-06 0)
(24.99999999582982 -2.709467061419486e-10 0)
(23.99490221909932 0.09604822623813856 0)
(24.99471712067472 -0.001884579186742262 0)
(24.99999611125492 -3.735955696485123e-06 0)
(24.99999999705544 -1.69887410477734e-09 0)
(24.73724488052198 0.03833980343024884 0)
(24.9993401943994 -0.0002581855786258529 0)
(24.99999956943287 -3.905949407190001e-07 0)
(24.99999999956349 -3.853246335787469e-10 0)
(24.98160608128834 0.0005608426222511173 0)
(24.9999819535161 -1.154813360795933e-05 0)
(24.99999999508714 -6.819439821022827e-09 0)
(24.99999999992867 6.513415875025271e-12 0)
(24.99991692769788 -0.001574473226542861 0)
(25.00000010554163 -2.331034515804498e-06 0)
(25.00000000050717 -1.957962178552935e-09 0)
(25 -1.106703817483939e-12 0)
(25.00238424953736 -0.01070919997924994 0)
(25.00000450641121 -1.904948459851452e-05 0)
(25.00000000178471 -1.518649236073975e-08 0)
(24.99999999981328 -2.845718115247231e-11 0)
(24.94066291837424 -2.842434163831367e-05 0)
(24.99979174147064 -2.28180324508499e-08 0)
(25.00000006242594 5.584753999599827e-11 0)
(25.00000001090735 1.481774479686329e-12 0)
(24.94078996004439 -8.902935758847736e-05 0)
(24.99979188142067 3.593598659182506e-07 0)
(25.00000005948315 4.324045912853015e-09 0)
(25.00000001077595 9.310322891901224e-11 0)
(24.94095941976655 9.228762913773722e-05 0)
(24.99979005584454 2.780034268427557e-06 0)
(25.00000002205523 3.156673786023135e-08 0)
(25.00000000956541 7.572492060981326e-10 0)
(24.94126129455639 0.001342181355750977 0)
(24.9997863734167 8.306368738925495e-06 0)
(24.99999993534764 5.679261826618686e-08 0)
(25.00000000678013 1.212106230116813e-09 0)
(25.00238424956786 0.01070919997064646 0)
(25.00000450643261 1.904948669879307e-05 0)
(25.00000000181206 1.518585505995344e-08 0)
(24.99999999980525 2.890391722417135e-11 0)
(24.99991692773334 0.001574473230051594 0)
(25.00000010556529 2.331036061499392e-06 0)
(25.00000000056188 1.964436861748394e-09 0)
(25 1.113589810903258e-12 0)
(24.9816060813006 -0.0005608426073895304 0)
(24.99998195351167 1.15481396753581e-05 0)
(24.99999999508703 6.821564828338156e-09 0)
(24.9999999999255 -6.619668306884101e-12 0)
(24.73724488047765 -0.03833980342571155 0)
(24.99934019434403 0.0002581855820254642 0)
(24.99999956942953 3.905947074884084e-07 0)
(24.99999999957558 3.852835610539138e-10 0)
(24.99999999491884 1.915960572466457e-09 0)
(24.99999456897821 5.909110733813503e-06 0)
(24.99420261169448 0.002759228553840466 0)
(24.02753617434008 0.03020466251272374 0)
(24.9999999948505 9.815027746766535e-10 0)
(24.99999562397188 4.46809410107505e-06 0)
(24.99484688926916 0.002136920712339955 0)
(24.07971546437212 -0.01058080276856483 0)
(24.99999999585998 2.782598780527284e-10 0)
(24.99999717494804 3.211544572462121e-06 0)
(24.99623363265584 0.001809344247252868 0)
(24.19522408072284 0.0225058306747656 0)
(24.99999999705024 1.69329383422446e-09 0)
(24.9999961112432 3.735961252994625e-06 0)
(24.99471712062266 0.001884579167710227 0)
(23.99490221912514 -0.0960482262131223 0)
(23.62703864048679 -0.01717636673022679 0)
(24.98851511911848 0.001889405951177599 0)
(24.99999078061307 5.964041350915029e-06 0)
(24.9999999946325 -7.65156226437927e-10 0)
(23.78981472516466 0.146269250554623 0)
(24.9895542745507 0.003289829741005377 0)
(24.99998918478412 8.149265494252213e-06 0)
(24.99999999244937 -8.653348831144137e-11 0)
(24.25998845079524 0.3148202120432047 0)
(24.99193763326948 0.003907623067633 0)
(24.99998953532525 1.015420837623691e-05 0)
(24.99999999044876 -6.265483709559875e-10 0)
(24.99307655851107 0.1385108147986751 0)
(24.99785876878773 0.002177943054771272 0)
(24.9999899796689 1.594936582212455e-05 0)
(24.99999999388209 1.290126589753181e-09 0)
(24.99999999985822 1.308082951327185e-10 0)
(24.99999999283603 -2.378757307207939e-08 0)
(24.99996707946397 -7.213913855618524e-05 0)
(24.90707862196552 -0.1668404164815063 0)
(24.99999999985774 1.187864018990688e-10 0)
(24.99999999273869 -2.207540413191314e-08 0)
(24.99996992423596 -6.321988224979112e-05 0)
(24.92224769708013 -0.1378571539174848 0)
(25.00000000303635 -4.984870689026883e-10 0)
(24.99999999236345 -2.18076381081918e-08 0)
(24.99997207981956 -5.807514600454104e-05 0)
(24.93504549830741 -0.1145679134430359 0)
(24.99999998772841 3.650060914176845e-09 0)
(24.99999999702284 -1.429588339746264e-08 0)
(24.99998884966014 -2.614801907888447e-05 0)
(24.97476971733057 -0.04674508669492504 0)
(24.88618086427724 -0.1982456755233159 0)
(24.9999507027534 -0.0001065227910006597 0)
(24.99999998739958 -4.094433679856204e-08 0)
(24.99999999975125 2.165504882124792e-10 0)
(24.89293984694471 -0.1828961935543743 0)
(24.999958421625 -8.67408211904116e-05 0)
(24.99999999009025 -3.040254882418714e-08 0)
(24.99999999982625 1.537508382875916e-10 0)
(24.89903989371793 -0.1735836865994905 0)
(24.99996471294315 -7.450700117941392e-05 0)
(24.99999999221038 -2.425011747273526e-08 0)
(24.99999999987103 1.194192043599772e-10 0)
(24.90412895209095 -0.1647074794560555 0)
(24.99996959596514 -6.410684618959063e-05 0)
(24.99999999376861 -1.938992506043051e-08 0)
(24.99999999989938 9.302196056714422e-11 0)
(25 2.9852509378291e-13 0)
(24.99999999918881 -2.308895168234648e-10 0)
(24.99999534280366 -2.209621996322208e-06 0)
(24.97665092819151 -0.01514244392214067 0)
(24.99999999996438 4.112040695672557e-11 0)
(24.99999999674429 -9.336645228900998e-09 0)
(24.99998065320537 -3.731623365359606e-05 0)
(24.91784940179287 -0.1231054965675089 0)
(24.99999999994021 5.84636937206058e-11 0)
(24.99999999584357 -1.288455306003604e-08 0)
(24.99997682862564 -4.888538830984882e-05 0)
(24.91232306659939 -0.1501724458795646 0)
(24.99999999992742 7.340863006080074e-11 0)
(24.99999999495923 -1.571115917092046e-08 0)
(24.99997359922624 -5.573870074146552e-05 0)
(24.9086386829104 -0.1570795946372343 0)
(24.99999999999885 9.681171833936486e-12 0)
(25 2.41560564223585e-12 0)
(25 -3.356836863124569e-15 0)
(25 4.547725703561983e-16 0)
(25.00000000103487 2.401983104768195e-08 0)
(25.00000000001836 -4.45452638537687e-10 0)
(24.99999999998907 1.108346957084425e-11 0)
(25 -6.094579748120553e-15 0)
(25.00000340148229 3.95164639177734e-05 0)
(25.00000008502811 -6.250042311652764e-07 0)
(24.99999999962119 9.240622264188617e-10 0)
(25 -4.881396370768517e-13 0)
(25.00591446393626 0.02886588223260322 0)
(25.00001475004332 -4.26236857355538e-05 0)
(24.99999996091506 5.033450808202884e-08 0)
(25.00000000003338 -1.35560006855993e-11 0)
(25.00000000000002 -3.010013178723542e-15 0)
(25 8.453670068875131e-16 0)
(25.0000000000005 4.195121652735035e-12 0)
(24.99999999719953 2.174145496500898e-09 0)
(25 6.198688631859264e-16 0)
(25 4.631289037301669e-14 0)
(24.99999999993296 1.294900063465892e-10 0)
(24.9999999380872 9.226725367659521e-08 0)
(25 3.404550520466649e-17 0)
(25 2.076237411526353e-13 0)
(24.99999999996834 4.610837332417644e-10 0)
(24.99999993287613 5.011229546629015e-07 0)
(25 2.977222101105181e-14 0)
(25.00000000000074 -6.01891553262156e-12 0)
(25.00000001289846 -3.340259532565268e-09 0)
(25.00000348690742 1.381902261062494e-07 0)
(24.99999999969052 2.270336836883665e-10 0)
(24.99999999906779 -3.598418520039083e-08 0)
(24.99999827401737 -6.540859171187193e-05 0)
(25.00009581870356 -0.06307118111994937 0)
(24.9999999997816 1.4753291508461e-10 0)
(25.00000000272707 -2.349392816060585e-08 0)
(25.00000617099646 -3.98075095837289e-05 0)
(25.00907248730107 -0.03129614729426462 0)
(24.99999999996109 3.52690534589265e-11 0)
(25.00000000181439 -5.927016443582641e-09 0)
(25.00000379860219 -9.332873168028832e-06 0)
(25.0037012959447 -0.005469209193450762 0)
(25 2.357465489325111e-12 0)
(25.00000000019593 -3.916374299496638e-10 0)
(25.0000003837074 -6.037208337539609e-07 0)
(25.00028193603072 -0.0002662759992872692 0)
(24.98705570638664 -0.04467993390344086 0)
(24.99999263121238 -1.313485962421098e-05 0)
(24.99999999794476 -1.865448689682269e-09 0)
(25.0000000000013 9.218576844747745e-12 0)
(24.99131350808742 -0.0464264221616099 0)
(24.99999633051468 -2.221238210853791e-05 0)
(24.99999999920391 -7.488227652406888e-09 0)
(24.99999999995445 4.433885585318199e-11 0)
(24.99126755875679 -0.04493700520095939 0)
(24.99999640219743 -2.077412756512822e-05 0)
(24.99999999923653 -6.81015592046267e-09 0)
(24.99999999996259 3.906901095441227e-11 0)
(24.99121039319486 -0.04079855531561549 0)
(24.99999676493468 -1.855189119709497e-05 0)
(24.99999999908199 -5.290377910696105e-09 0)
(24.9999999999687 2.942667656524505e-11 0)
(24.99220886980058 -0.03782471697190894 0)
(24.99999913527362 2.552738107449992e-06 0)
(25 -1.055313259818807e-13 0)
(25 -1.474515450174831e-14 0)
(24.99088010313353 -0.03880325079768558 0)
(25.00000013446238 -2.297390182169927e-07 0)
(25 5.786810595746405e-16 0)
(25.00000000000001 1.029245307951088e-15 0)
(24.99216035489955 -0.0249184184644189 0)
(24.99999999997785 -3.526812174275291e-11 0)
(25 3.323811641653692e-16 0)
(25.00000000000001 2.666976536826963e-15 0)
(24.99819196065433 -0.004993630368313133 0)
(25 -5.103164436661918e-13 0)
(25 -8.564089662681819e-16 0)
(25.00000000000002 -2.959793947324994e-15 0)
(25 1.248037080373248e-15 0)
(25 8.618365191441448e-16 0)
(25 0 0)
(24.99999999624556 4.229076564091289e-09 0)
(24.99999999999999 -2.843418720158383e-19 0)
(25 1.111419470118028e-15 0)
(25 -1.811756261851014e-16 0)
(25.00000016828087 4.993461945829267e-08 0)
(25 -1.151722348674304e-15 0)
(25 -6.735803697600363e-16 0)
(25 -1.78005052726342e-16 0)
(25.0000005336259 1.648476063014837e-06 0)
(25 -4.975787985124186e-16 0)
(25 -7.676460520195479e-17 0)
(25.00000000000002 1.171921297607508e-14 0)
(24.99992054841124 3.64979522403377e-05 0)
(25.00000026419444 2.056773280927682e-10 0)
(25.0000115981122 -2.634859911772e-06 0)
(25.00014281832224 4.415313941140418e-05 0)
(24.99933541501656 -0.001377594630883458 0)
(25.00001159816398 2.634870573837457e-06 0)
(25.00003376102685 1.48496589285095e-11 0)
(25.00047366113524 -0.0007922879083644054 0)
(24.99430214401202 -0.01668663157868821 0)
(25.00014281832853 -4.415314965405093e-05 0)
(25.00047366112481 0.0007922878992558782 0)
(24.99795171255601 1.041511784585185e-11 0)
(24.84143783272349 -0.03694861255423008 0)
(24.99933541499596 0.00137759460804454 0)
(24.9943021439998 0.01668663154401902 0)
(24.84143783273514 0.03694861256114801 0)
(22.8134141791031 -5.035782809426359e-12 0)
(21.54282528982021 2.142038433714581 0)
(22.66793658064584 2.722593684316488 0)
(24.55872535833722 1.298217077350823 0)
(24.90750668883799 0.3180234114480268 0)
(22.03790443258808 4.751371838518945 0)
(22.39620695266546 5.277636031920182 0)
(24.06026281112082 3.735736506183899 0)
(24.54332084269076 1.680596188614064 0)
(22.67572175598227 5.588644687718795 0)
(22.93326956205408 6.19350878247781 0)
(24.27124827415291 4.873892098735419 0)
(24.5258928759833 2.671271257105118 0)
(22.82983013106881 5.732906073000766 0)
(23.10284798422586 6.362856257040431 0)
(24.38197860525831 5.052953448814557 0)
(24.56202348224983 2.804316750900002 0)
(24.53542635917087 2.957733244529656 0)
(24.54276642619785 3.047683186515997 0)
(24.55450481090314 3.071112650684098 0)
(24.35005244020281 3.349639396213595 0)
(24.3488066352597 5.142004508692239 0)
(24.35909884723943 5.190198703835568 0)
(24.37273161202714 5.204287328995578 0)
(24.40615134615179 5.81255322886719 0)
(23.04094134899042 6.405935506799303 0)
(23.0617752125551 6.417098365318879 0)
(23.07982548222329 6.423779240151863 0)
(23.65989199785264 7.634102831906239 0)
(22.78939218014738 5.729947929215585 0)
(22.81710551694539 5.75662891767285 0)
(22.83404432080285 5.768273142275107 0)
(24.79574869761942 7.506221081950228 0)
(25.27259968761802 2.460528073296753 0)
(25.46246753470736 0.8318221886761477 0)
(25.10408035267385 0.09381375718801872 0)
(25.00486745307492 0.00161450855247203 0)
(26.06328299423994 3.323180267290194 0)
(25.87695478155903 0.8454842975255865 0)
(25.15710679711138 0.06476008651402321 0)
(25.00597443867516 -0.001926964899402416 0)
(27.59041044478369 3.123650578979951 0)
(26.49527614361621 0.2215179537755304 0)
(25.21681840448249 -0.05083724808191619 0)
(25.01028459264847 -0.007187695535718361 0)
(23.10051790231441 0.4751934065884318 0)
(24.15808797831176 -0.07795994009496074 0)
(24.83089015912243 -0.04092416807062617 0)
(24.97735771196201 -0.005950131036014565 0)
(25.00006869116233 -0.000111806725952239 0)
(24.99999606164828 -2.587478671991247e-05 0)
(24.99999882486611 -1.030400736316587e-06 0)
(24.99999998301855 -3.59408169294524e-09 0)
(25.00025736662908 -0.0003633631352466227 0)
(25.00001640814562 -4.380839361582755e-05 0)
(24.99999982845659 -2.275197583932617e-07 0)
(24.99999999794644 3.518595476942684e-09 0)
(25.00100417374238 -0.0007231563382928384 0)
(25.0000502974186 -4.282890602561693e-05 0)
(25.00000053669391 -5.269103953288232e-07 0)
(24.99999999918921 2.811041263571128e-09 0)
(24.99715533831419 -0.0007990966380694509 0)
(24.99983638499859 -4.495368834192723e-05 0)
(24.99999793662088 -5.157006153280788e-07 0)
(25.0000000005226 1.999632285597399e-09 0)
(24.99999999941695 6.977292831917123e-10 0)
(25.00000000731862 -6.333203905107035e-10 0)
(24.99999628682592 -2.779127837665185e-06 0)
(25.29827686595646 -0.9553533662898802 0)
(25.00000000059023 1.503523414084398e-09 0)
(25.00000000117062 -9.529399280918038e-11 0)
(24.99999954324413 -6.480329527828945e-07 0)
(25.19581926842967 -1.292573796738771 0)
(25.0000000016732 1.515647394831447e-09 0)
(25.00000000045347 2.43039508653655e-10 0)
(24.99999997781516 -9.173854211760513e-08 0)
(23.29585261491998 -0.707931769518631 0)
(25.0000000021873 1.186196837675621e-09 0)
(25.00000000055768 2.65615972231713e-10 0)
(24.99999998860511 1.155752793010891e-08 0)
(20.56886518739609 -1.833242946557509 0)
(21.97057246662428 3.388727998807936 0)
(20.167038969327 7.534700829143791 0)
(20.41620544438842 8.199217228621576 0)
(20.44023752945653 8.211845164350594 0)
(17.61050851791515 7.73667739702974 0)
(17.81013323858504 11.3890564984549 0)
(18.23918499613307 11.93331213439074 0)
(18.26393145002171 11.93891486511508 0)
(13.63131630554996 8.578527676982572 0)
(15.54714208154511 12.14750301277768 0)
(16.01612095556374 12.5693764024447 0)
(16.02928783995153 12.56447618695632 0)
(13.07765877289405 7.217462509051122 0)
(15.42599687035099 11.08032062899586 0)
(15.88599973980797 11.48104673385802 0)
(15.89952073844523 11.47213656476261 0)
(20.43871912931654 8.212358787997548 0)
(20.43186108943748 8.220149842664625 0)
(20.42406579908775 8.231279741616913 0)
(20.42751914634743 8.285842321343376 0)
(18.2627221941572 11.93192467245299 0)
(18.26027059007659 11.92999302913184 0)
(18.259222595112 11.93057141608705 0)
(18.27849648384544 11.9526217706444 0)
(16.02517244497441 12.55416629572203 0)
(16.02439379189131 12.5504072601832 0)
(16.02541361505776 12.54993213454363 0)
(16.05218865388762 12.55116550160453 0)
(15.8936089854306 11.46264885307133 0)
(15.89076897702855 11.45864666035808 0)
(15.89088362730608 11.45852271029406 0)
(15.89881614577739 11.45807886752808 0)
(20.94997417990824 7.55010653218422 0)
(21.25828154537991 6.882064282157138 0)
(21.62572700309745 6.231737772447891 0)
(22.82981292980306 3.686448556006107 0)
(18.60276314702658 11.73394940536647 0)
(18.79644566327882 11.44819738815464 0)
(19.29393003918825 11.06254870090082 0)
(21.18564961146389 9.840005949455671 0)
(16.12314857321886 12.51368731289445 0)
(16.07298627729993 12.44857730062215 0)
(16.66160711491434 12.50854912593561 0)
(20.59432016678408 15.32755506568138 0)
(15.95246765837162 11.4533546536256 0)
(15.9604700699197 11.39100328739817 0)
(16.79544045807251 11.65376902378364 0)
(26.21724013733129 16.85732989796072 0)
(25.83550295918624 0.2179259288041322 0)
(19.18221885356072 -4.414958260621127 0)
(7.741805023505584 -1.659980614801994 0)
(6.171354708808191 -0.1193657789736461 0)
(26.23066549217482 2.650322682013726 0)
(16.19756637009813 -5.498852290123976 0)
(1.845016573623561 -1.829957075724294 0)
(-0.3609312211668104 -0.1527017793687135 0)
(22.54804859804702 2.286946342716631 0)
(13.17261363773181 -7.744158710394032 0)
(-0.9734033453335627 -1.324026905502175 0)
(-1.965423243996271 -0.3279813153222971 0)
(18.12040228810292 -8.966188759380353 0)
(9.345329049030818 -8.281718427005092 0)
(0.1178992561205729 -0.7103499345400462 0)
(-0.3396509936671675 -0.2148839721333067 0)
(6.192631052733705 -0.07024758657506033 0)
(6.28442808796679 0.01928224128660826 0)
(6.375065166684346 0.1454719252290244 0)
(4.778607449687699 3.062499503581859 0)
(-0.3526026151023165 -0.1266090715721711 0)
(-0.3608243946522532 0.06678932934068332 0)
(-0.0790495350204065 1.040052345024106 0)
(0.2414914876337592 6.396047956486768 0)
(-2.004181122646405 -0.2464869084489881 0)
(-2.034524399168118 0.09510788395027453 0)
(-1.819496078831095 1.732474956309782 0)
(0.7370268454667799 8.463723543489454 0)
(-0.0487592940714751 -0.1508107573587385 0)
(-0.07451929585014436 0.09015673650577274 0)
(-0.1234674938337979 1.793046654590203 0)
(-0.314934130632328 10.44263096214965 0)
(20.67741825075006 -1.707839225719225 0)
(24.1984581495761 -0.2318146944753281 0)
(24.9796186886653 -0.1117478344220636 0)
(25.09606352239746 -0.5505308258171545 0)
(16.87142518934433 -1.865164859221773 0)
(23.17190249515321 -0.6498803604929854 0)
(24.92097301935801 -0.5783846874551982 0)
(25.34006878858348 -1.040724765744965 0)
(12.85902256644776 0.5976237028778016 0)
(21.99697780378835 -1.53942909831389 0)
(24.60528735176825 -1.282872398646117 0)
(28.52943911669369 -1.172608949487114 0)
(9.297061585941982 8.084447090221685 0)
(17.31125912809942 3.942569909726353 0)
(21.88137399411941 0.7578392019205229 0)
(34.33640823314494 -0.07443789592227903 0)
(24.59541716326379 -1.286740716026785 0)
(22.9284710409152 -2.34796224208967 0)
(20.66027757575554 -1.643134788031656 0)
(19.42411786964544 -0.5986223268215547 0)
(26.1659230783213 -4.834367046662123 0)
(20.95847651095426 -7.583950066187377 0)
(15.08794345244165 -5.602843172085255 0)
(11.44394174691056 -2.2328955495458 0)
(29.83696916488744 -9.182281291380264 0)
(21.02260486717518 -15.26248147087961 0)
(12.68720406479724 -11.7943751489884 0)
(7.375090320284983 -5.807816072341412 0)
(18.19840739169423 -10.45723430841605 0)
(7.596081402001152 -15.20402478202517 0)
(4.848429887082419 -12.21210380489555 0)
(3.097126474298464 -6.945773209613755 0)
(2.277269873438761 -1.278395861957452 0)
(2.301896746418035 -0.2369543381280119 0)
(2.300388201995246 -0.1402359501606948 0)
(2.307731413599734 -0.03023884537982134 0)
(6.067204524396856 -1.567781542380187 0)
(6.258648858928371 -0.7229122998594387 0)
(6.225316828830629 -0.3865361438480385 0)
(6.217273074972093 -0.08030558607841931 0)
(10.59526590631048 -0.6606101113855376 0)
(10.68819335787993 -0.311886115598878 0)
(10.60051804460653 -0.2037346566673754 0)
(10.54860415856114 -0.04965313980303542 0)
(18.94772943985335 -0.2226292922887167 0)
(18.95923157363971 -0.06851057355029291 0)
(18.92152635806296 -0.04801456232544458 0)
(18.89865210048716 -0.01142360446396541 0)
(2.307731413602033 0.03023884540450123 0)
(6.217273074983291 0.08030558604524908 0)
(10.54860415854073 0.04965313984361821 0)
(18.89865210048473 0.01142360457567579 0)
(2.300388201989259 0.1402359501657046 0)
(6.225316828845783 0.3865361438742776 0)
(10.60051804461611 0.2037346566393854 0)
(18.9215263580954 0.04801456218800699 0)
(2.301896746413739 0.2369543380927086 0)
(6.258648858921338 0.7229122999096825 0)
(10.68819335789922 0.3118861155744628 0)
(18.95923157366321 0.06851057354240891 0)
(2.277269873444442 1.278395861959542 0)
(6.067204524387364 1.567781542384204 0)
(10.59526590631859 0.6606101113670702 0)
(18.94772943988455 0.2226292922725688 0)
(19.42411786966353 0.5986223268326525 0)
(20.6602775757636 1.643134788036267 0)
(22.92847104095241 2.347962242056479 0)
(24.59541716331573 1.286740716042939 0)
(11.44394174693175 2.232895549555444 0)
(15.08794345242774 5.602843172132268 0)
(20.9584765109266 7.583950066141543 0)
(26.16592307835475 4.834367046663687 0)
(7.37509032027683 5.807816072338091 0)
(12.68720406479148 11.79437514896128 0)
(21.02260486717477 15.26248147088813 0)
(29.83696916488698 9.182281291362376 0)
(3.097126474298524 6.945773209610779 0)
(4.84842988708206 12.21210380490044 0)
(7.596081401995551 15.20402478201608 0)
(18.19840739169073 10.45723430842442 0)
(34.33640823313326 0.07443789591803288 0)
(21.88137399410416 -0.7578392018938725 0)
(17.31125912811656 -3.942569909718567 0)
(9.297061585931415 -8.084447090219768 0)
(28.52943911670442 1.172608949479555 0)
(24.60528735181318 1.282872398611215 0)
(21.99697780377765 1.539429098327377 0)
(12.8590225664412 -0.5976237028678686 0)
(25.34006878860306 1.040724765731632 0)
(24.92097301940807 0.5783846874614276 0)
(23.17190249514752 0.6498803604991729 0)
(16.87142518934182 1.865164859245094 0)
(25.09606352241427 0.550530825806916 0)
(24.97961868868916 0.1117478344199916 0)
(24.19845814958247 0.2318146944873377 0)
(20.67741825073002 1.70783922574499 0)
(4.778607449695406 -3.062499503578256 0)
(6.375065166680652 -0.145471925226278 0)
(6.284428087967782 -0.01928224129723057 0)
(6.192631052738317 0.07024758656865335 0)
(0.2414914876449411 -6.396047956480364 0)
(-0.07904953501626417 -1.040052345014209 0)
(-0.3608243946464539 -0.06678932933849355 0)
(-0.35260261508565 0.1266090715753802 0)
(0.7370268454607811 -8.463723543490961 0)
(-1.819496078828892 -1.732474956322835 0)
(-2.034524399191132 -0.09510788394887119 0)
(-2.004181122654378 0.2464869084528903 0)
(-0.3149341306386751 -10.44263096218706 0)
(-0.1234674938366889 -1.793046654607256 0)
(-0.07451929586935115 -0.09015673650422294 0)
(-0.0487592940812145 0.1508107573739536 0)
(6.171354708830297 0.1193657789694536 0)
(7.741805023446901 1.659980614796568 0)
(19.1822188534464 4.414958260616443 0)
(25.83550295917599 -0.2179259287860771 0)
(-0.3609312211349264 0.1527017793641374 0)
(1.845016573561622 1.829957075690444 0)
(16.19756637002717 5.498852290112838 0)
(26.23066549219935 -2.650322682015243 0)
(-1.96542324399784 0.3279813153168014 0)
(-0.9734033453901579 1.324026905470188 0)
(13.17261363766897 7.744158710381487 0)
(22.54804859808564 -2.286946342731913 0)
(-0.3396509936724934 0.2148839721244879 0)
(0.1178992560829474 0.710349934502798 0)
(9.345329049018034 8.281718426978733 0)
(18.1204022881223 8.96618875936538 0)
(22.8298129298254 -3.686448555979756 0)
(21.62572700309495 -6.231737772442311 0)
(21.25828154538703 -6.882064282144238 0)
(20.94997417988003 -7.550106532141101 0)