/*--------------------------------*- C++ -*----------------------------------*\
  =========                 |
  \\      /  F ield         | OpenFOAM: The Open Source CFD Toolbox
   \\    /   O peration     | Website:  https://openfoam.org
    \\  /    A nd           | Version:  11
     \\/     M anipulation  |
\*---------------------------------------------------------------------------*/
FoamFile
{
    format      ascii;
    class       volScalarField;
    location    "0.124";
    object      rho;
}
// * * * * * * * * * * * * * * * * * * * * * * * * * * * * * * * * * * * * * //

dimensions      [0 0 0 0 0 0 0];

internalField   nonuniform List<scalar> 
880
(
0.3733250556165154
0.3733250556165154
0.3733250556165156
0.3733265839486387
0.3733250556165154
0.3733250556165154
0.3733250556210043
0.3733301856757893
0.3733250556165154
0.3733250556165153
0.3733250556512885
0.3733541885434375
0.3733250556165154
0.3733250556165154
0.3733250564118211
0.373408501193382
0.3733250556165154
0.3733250556165155
0.3733250556165152
0.3733250556109241
0.3733250556165154
0.3733250556165154
0.3733250556165151
0.3733250556165154
0.3733250451945462
0.3733250411065694
0.3734288770574772
0.3731730329613575
0.3769016866563982
0.3855926437221456
0.3918376107298777
0.3946363082165256
0.3733250764444694
0.3733251867648664
0.3733252275383198
0.3733251770339701
0.3733254860239204
0.3733261130449105
0.3733286791465648
0.3733280934304263
0.3735094734345358
0.3737367310957858
0.3741114856312837
0.3742096093065885
0.3975937481260378
0.401669471514001
0.4058571397410453
0.4116785780794855
0.4103132603346784
0.4017889394554476
0.3956176832917123
0.3929572402056553
0.3748900577128574
0.3765259818280863
0.3771988216251739
0.3770197620641585
0.3733333628598172
0.3733510712451915
0.3733783222446803
0.3733900171953541
0.3733254681359421
0.3733261553574174
0.3733273899986295
0.3733276684678357
0.3733271649191553
0.3733261564272016
0.3733253478164546
0.3733250800675728
0.3733840327228407
0.3733687567370335
0.3733462352214259
0.3733299198681625
0.3765189565434464
0.3758136566137818
0.3748802845889561
0.373932522215527
0.3901697651126919
0.386840917989089
0.3832509766625523
0.3796302406158356
0.3763471740428526
0.3734436177145922
0.373325479492424
0.3733250559192437
0.3741914451277116
0.3733369764702372
0.3733250847917409
0.3733250557354439
0.3733949883792939
0.3733243311871632
0.3733250070041125
0.373325056680078
0.380809620540506
0.3733752000406848
0.3733244152344871
0.3733249962200394
0.3733249073746405
0.3733247148145916
0.3736171150362457
0.4272480789700578
0.373325027711066
0.3733292056348076
0.3748804079756388
0.468580535295697
0.3733254890471324
0.3733347653909971
0.3762205509614728
0.4891336106866809
0.3733265090973973
0.3733545623399222
0.378363005327856
0.5054249235799807
0.5176376095258354
0.3804491583780731
0.3733677709249195
0.3733273069736738
0.5356008000865751
0.3835821656708727
0.3734095231158651
0.3733293774689211
0.5519301140334441
0.3862657232802978
0.3734278564263379
0.3733298449982799
0.5722868369580103
0.3897851402411142
0.3734901357669927
0.3733336959394092
0.3733350924909349
0.3735377605123191
0.3944893514739755
0.5903899124310575
0.3733408780391206
0.3736428747692238
0.3994127591004271
0.5933208157478016
0.3733559262605884
0.3737615173567897
0.4000101934693174
0.5641555820819059
0.3733244365037654
0.3735253180508897
0.3901204743219904
0.501479705846794
0.3733784717188191
0.3743387536008935
0.3894662458645745
0.4087650887121566
0.3733974986668233
0.3743010168351111
0.3756011098511393
0.3063988301433627
0.373348233465735
0.3736114002824285
0.3682286646835404
0.2435599914825023
0.3733244965113797
0.3730740905388847
0.3599845730946821
0.2127197924968049
0.2111153562743227
0.3569482192862454
0.372929271961102
0.3733227342133124
0.2058756992910262
0.3549335496600479
0.3728750482799129
0.373321883842643
0.2054185439697801
0.3550838145365853
0.3729626945010674
0.3733235027230354
0.1956494825134821
0.3532252603650436
0.3729388984684753
0.3733235154680888
0.223739876699485
0.3608822676148916
0.3731735145678274
0.3733244959758548
0.2596286421353806
0.3676289931260544
0.3732814899712705
0.3733249177731909
0.290205217070248
0.3707323120686972
0.3733101913609634
0.3733250146678912
0.3161239899183976
0.3724689484233753
0.3733215216400044
0.3733250386660407
0.3305026547771607
0.3702599331239174
0.3732602757579047
0.3733245370443149
0.3339036108665723
0.3704079736706037
0.3732615079373019
0.3733245403127098
0.3359243277847894
0.3705320656615095
0.3732624753980107
0.3733245401814179
0.3388355089597369
0.3709068611536289
0.373271229570061
0.3733245839364256
0.3161239899181091
0.3724689484221018
0.3733215216390273
0.3733250386666307
0.2902052170688075
0.370732312067427
0.3733101913563781
0.373325014667633
0.2596286421340057
0.367628993126299
0.3732814899702261
0.3733249177740705
0.2237398766998001
0.3608822676169774
0.3731735145675228
0.3733244959749433
0.3733227342173165
0.3729292719649137
0.3569482192876327
0.2111153562737721
0.3733218838416101
0.3728750482814194
0.3549335496619838
0.2058756992921668
0.3733235027204778
0.3729626945040592
0.3550838145371151
0.2054185439700313
0.3733235154689637
0.3729388984690661
0.353225260369623
0.1956494825125727
0.212719792494183
0.3599845730918247
0.3730740905374798
0.3733244965114386
0.2435599914793184
0.3682286646811041
0.3736114002798453
0.3733482334603383
0.3063988301426479
0.3756011098483127
0.3743010168357791
0.373397498663354
0.4087650887126618
0.3894662458641499
0.3743387535991553
0.3733784717235188
0.3733350924895986
0.3735377605199772
0.3944893514760926
0.5903899124343894
0.3733408780400719
0.3736428747677446
0.3994127590999443
0.5933208157480313
0.3733559262613657
0.3737615173560082
0.4000101934665002
0.5641555820816482
0.3733244365117508
0.3735253180502615
0.3901204743202638
0.5014797058464533
0.5722868369614791
0.3897851402319367
0.3734901357684502
0.3733336959393533
0.5519301140394791
0.386265723290747
0.3734278564298386
0.3733298449994897
0.5356008000900463
0.3835821656822294
0.3734095231208892
0.3733293774677937
0.5176376095284032
0.3804491583681441
0.3733677709290384
0.3733273069728575
0.3733249073778167
0.373324714817184
0.373617115037249
0.4272480789661106
0.3733250277090979
0.3733292056306922
0.37488040797429
0.4685805352968496
0.3733254890449099
0.3733347653940171
0.3762205509656416
0.4891336106892241
0.3733265090953359
0.3733545623334653
0.3783630053253114
0.5054249235787168
0.3733249962184846
0.3733250566815199
0.373325055735598
0.3733250559189869
0.3733244152306804
0.3733250070044048
0.3733250847954389
0.3733254794903328
0.3733752000417194
0.3733243311883427
0.3733369764677102
0.3734436177133378
0.3808096205414827
0.3733949883802867
0.3741914451259724
0.3763471740433495
0.3733250800646343
0.3733299198685627
0.3739325222165116
0.379630240617028
0.3733253478155957
0.3733462352203001
0.3748802845937025
0.3832509766638237
0.373326156428981
0.3733687567368504
0.3758136566120617
0.3868409179889998
0.373327164920556
0.3733840327224528
0.3765189565456105
0.3901697651119969
0.3733254681322566
0.3733333628565548
0.374890057708658
0.4103132603341001
0.37332615535452
0.3733510712457391
0.376525981826245
0.401788939452791
0.3733273899977204
0.3733783222487139
0.3771988216256196
0.395617683290749
0.3733276684669959
0.3733900171980248
0.3770197620649995
0.3929572402038263
0.4116785780810778
0.3742096093088432
0.373328093428178
0.3733251770320586
0.4058571397416944
0.374111485639239
0.3733286791458393
0.373325227536473
0.4016694715175194
0.3737367311043742
0.3733261130447161
0.3733251867664407
0.3975937481242183
0.3735094734323238
0.3733254860233996
0.3733250764453461
0.3946363082158397
0.3731730329558246
0.3733250556165154
0.3733250556116084
0.3918376107287647
0.3734288770526226
0.3733250556165154
0.3733250556165154
0.3855926437227745
0.3733250411059141
0.3733250556165154
0.3733250556165153
0.3769016866559686
0.3733250451931497
0.3733250556165154
0.3733250556165151
0.3733250556165154
0.3733250556165154
0.3733250556167188
0.3733265839521244
0.3733250556165152
0.3733250556165155
0.3733250556211966
0.3733301856637415
0.3733250556165154
0.3733250556165154
0.373325055651382
0.3733541885296549
0.3733250556165154
0.3733250556165154
0.373325056409994
0.3734085011926391
0.3733283679786075
0.3733374462547546
0.3733836821084441
0.3741427495938797
0.373337446327516
0.3733416675590605
0.3733840308290804
0.3763680742679177
0.3733836820309124
0.3733840306392294
0.3745428715698564
0.3913612393474023
0.3741427495204881
0.3763680742040084
0.3913612395794621
0.4451548444927521
0.5272088771832637
0.4702211211990894
0.4398523454981492
0.4059148216198137
0.5126844097331735
0.5018432362409616
0.4991561555218457
0.4745411620421098
0.5065573363963932
0.5034111422362598
0.5048940439074427
0.4939702273152526
0.5068414695102378
0.5055194285170161
0.5069132640888024
0.498687281696389
0.5025829043386085
0.5028074360333662
0.5049346982928513
0.510160237716358
0.507883747546279
0.5076962605631489
0.5101392380982057
0.5159670096747756
0.5097255232168864
0.509884604032086
0.5121409058404621
0.5171820714073223
0.5116123611747849
0.5106080059459083
0.5122079923378693
0.5154882274408606
0.4496086412645106
0.3848293093858709
0.3672888228920184
0.3728360708410474
0.4208095755556344
0.3603166639997753
0.3597880917778041
0.3703613591870595
0.3928552717784369
0.3511721160316211
0.3626261824816976
0.3730799957131766
0.3363882891934237
0.3360877432948923
0.3580624311040462
0.3702258559183859
0.3770014163104777
0.3786444306023284
0.3791666671624858
0.3796188655189874
0.3756779299538402
0.3770781929039184
0.3785091182396425
0.3793311936920337
0.3765989381267001
0.377407536744048
0.3791029614184079
0.3799678149539411
0.374059874481498
0.3753230608696925
0.3772290983871717
0.3792210137351099
0.3784198395890019
0.3758466181878368
0.3738186464639752
0.4521689951430934
0.3780708674210454
0.3757980258087197
0.3738168685325001
0.4854410413273939
0.3786422272852709
0.376200374985782
0.374583628639171
0.4995801193499989
0.3777738919409266
0.3752353988313782
0.375458363688832
0.507635309123462
0.6848291898270608
0.7098119676949955
0.7072588944654322
0.697501401699835
0.7315010018726741
0.7294925541189085
0.7192932294089922
0.7083234712495682
0.7175967315865051
0.715681483147394
0.7210586229798389
0.7164468521648528
0.7392310874877529
0.7274997398750698
0.7247870239491653
0.7199245098030689
0.6842136052646858
0.687655949024563
0.6939824437294191
0.7067163956396427
0.6948716065840241
0.6978174456863777
0.7021891752872066
0.7141605827322844
0.7033908308809262
0.70720784106673
0.7126696172370877
0.724621009278819
0.7080397274039033
0.7110050158144658
0.7161519868431286
0.7284805514787858
0.7108748657274876
0.6954033643086739
0.6574937311229799
0.5719220898449411
0.717481171221219
0.7033575140800669
0.6619212756844238
0.5824307796290381
0.7283547660143255
0.7147321848277126
0.66746714814865
0.6002047347646277
0.7328206988535374
0.7221258135922337
0.6728016665593791
0.6965230106266934
0.3779686038751375
0.09203923538412055
0.03316841001023698
0.04565807121444664
0.3040097450625682
0.06075431527587789
0.04230489618472757
0.05519385743577883
0.2293225939462421
0.03992322009620097
0.04107449351156188
0.06585238023862607
0.1660540040912283
0.02526548194387957
0.04606474900238865
0.06973386499748045
0.05920997673285808
0.06506288180541545
0.06796205277572517
0.06279357739321226
0.06924568454156296
0.07334533672789158
0.07034476975464908
0.06142087667822591
0.08280443030567929
0.08567431390596904
0.07692554115334559
0.06351068488187889
0.08730713721890511
0.08954802340350305
0.07891218041173667
0.06982470081450434
0.1064563943739768
0.1489136128156785
0.1861280282535965
0.2310568440179916
0.09811819727368214
0.1381387678372332
0.1706777134849524
0.2163994184299207
0.09024180687109075
0.1263383664626943
0.157682080767537
0.1957346528632433
0.07968209240812667
0.1107604654810281
0.1391262055076667
0.177483154747802
0.1773626401361081
0.1267257944735496
0.07019420177312265
0.07529732259229836
0.1574079271591912
0.1053002327094597
0.06366455174941105
0.0875155683520613
0.1259318059302472
0.0728096109566011
0.07823921167280308
0.1026438364784607
0.09068076725951187
0.06417972324776904
0.1093475560860996
0.1273157028323757
0.1356135372526903
0.1247390270429659
0.1126076320895877
0.1085741667025227
0.1150812650531358
0.1072845049082764
0.1006142684967368
0.09746412023757481
0.1045499081437325
0.1006322123685203
0.103519437635409
0.106880071181321
0.1028408066188259
0.1239549679085761
0.1299068986923855
0.1337295468496316
0.1085741667025057
0.09746412023760226
0.1068800711814422
0.133729546849701
0.1126076320895109
0.1006142684968687
0.1035194376357093
0.1299068986924939
0.1247390270428143
0.1072845049084766
0.1006322123687167
0.123954967908441
0.1356135372525919
0.1150812650532293
0.1045499081436867
0.1028408066185119
0.07529732259195664
0.07019420177280458
0.1267257944730923
0.1773626401351911
0.08751556835185326
0.06366455174930587
0.1053002327092507
0.1574079271586412
0.1026438364782866
0.07823921167282386
0.07280961095639263
0.1259318059300349
0.1273157028322986
0.1093475560861265
0.06417972324778272
0.0906807672593043
0.177483154747435
0.1391262055070989
0.1107604654798548
0.07968209240722159
0.1957346528629597
0.1576820807672656
0.1263383664617398
0.09024180687014322
0.2163994184295642
0.1706777134847737
0.138138767836573
0.09811819727277778
0.2310568440176124
0.1861280282532337
0.148913612815046
0.1064563943731355
0.062793577392495
0.06796205277582885
0.06506288180543995
0.05920997673245641
0.06142087667794418
0.07034476975465116
0.07334533672782949
0.06924568454120288
0.06351068488165604
0.07692554115343392
0.08567431390583576
0.08280443030525075
0.06982470081412308
0.07891218041172972
0.08954802340354576
0.08730713721841804
0.04565807121380066
0.03316841000960222
0.09203923538316428
0.3779686038743875
0.05519385743527133
0.04230489618409614
0.06075431527536781
0.3040097450613332
0.06585238023793433
0.04107449351100065
0.03992322009589357
0.2293225939455184
0.06973386499674486
0.04606474900179389
0.02526548194345297
0.1660540040909871
0.5719220898438645
0.6574937311232127
0.6954033643098469
0.7108748657307967
0.5824307796281626
0.6619212756847253
0.7033575140815829
0.7174811712244658
0.6002047347638876
0.6674671481491078
0.7147321848295296
0.7283547660170914
0.6965230106267966
0.6728016665604863
0.7221258135939626
0.7328206988564085
0.7067163956434787
0.6939824437321622
0.6876559490236666
0.6842136052708
0.7141605827357538
0.7021891752891117
0.6978174456865786
0.6948716065899212
0.7246210092810146
0.7126696172386979
0.7072078410678327
0.703390830885806
0.7284805514810256
0.7161519868444357
0.7110050158161535
0.7080397274093589
0.6975014017032898
0.7072588944616729
0.7098119676971126
0.6848291898200197
0.7083234712527847
0.7192932294047026
0.7294925541200098
0.7315010018659651
0.7164468521669083
0.7210586229737196
0.7156814831458301
0.7175967315788717
0.7199245098028803
0.7247870239435191
0.7274997398735328
0.7392310874794725
0.4521689951406663
0.3738186464572844
0.3758466181879592
0.3784198395894134
0.4854410413195962
0.3738168685233142
0.3757980258138877
0.3780708674197432
0.4995801193403832
0.3745836286345684
0.3762003749943344
0.3786422272824649
0.5076353091118948
0.3754583636854693
0.3752353988417398
0.3777738919370469
0.3796188655198901
0.3791666671631174
0.3786444306020569
0.3770014163102102
0.3793311936931129
0.3785091182397286
0.3770781929039559
0.3756779299534985
0.3799678149548426
0.3791029614179264
0.3774075367446847
0.3765989381258937
0.3792210137367235
0.3772290983870878
0.3753230608706747
0.3740598744803455
0.3728360708389362
0.3672888228916997
0.3848293093844156
0.4496086412651025
0.3703613591848924
0.3597880917774552
0.36031666399829
0.4208095755563608
0.37307999571122
0.362626182481426
0.3511721160298836
0.3928552717790549
0.3702258559162701
0.3580624311040005
0.336087743292901
0.3363882891919263
0.5101602377157203
0.5049346982884624
0.502807436034482
0.5025829043436643
0.5159670096722216
0.5101392380956905
0.5076962605680531
0.50788374755044
0.517182071404251
0.5121409058386969
0.5098846040371963
0.5097255232198866
0.5154882274392081
0.5122079923365747
0.5106080059500326
0.511612361176058
0.4986872816978448
0.4939702273079926
0.474541162032271
0.4059148216398935
0.5069132640860714
0.5048940439005597
0.4991561555193481
0.4398523454876339
0.5055194285146877
0.5034111422331911
0.5018432362391053
0.4702211211654334
0.5068414695086463
0.5065573363928864
0.51268440971658
0.52720887717448
0.3301259411205777
0.3721113165733733
0.3733136899764063
0.3733250059759651
0.3314915963260709
0.3719376819147535
0.3733086774322668
0.3733249607897889
0.3325668508606792
0.3717289302314665
0.3733011737265739
0.3733248910117313
0.3325138719652069
0.3713156421929681
0.3732875287753323
0.3733247425958655
0.3733245370452295
0.3732602757596479
0.3702599331207477
0.3305026547706287
0.3733245403137915
0.373261507939512
0.3704079736679898
0.333903610865136
0.3733245401796616
0.3732624753986606
0.3705320656617611
0.3359243277843504
0.3733245839313467
0.3732712295718523
0.3709068611513018
0.3388355089587863
0.3733247425934004
0.3733248910100054
0.3733249607842486
0.3733250059696759
0.3732875287765091
0.3733011737264955
0.3733086774315631
0.373313689974633
0.3713156421914882
0.3717289302281342
0.3719376819169934
0.372111316573018
0.3325138719648407
0.3325668508581837
0.3314915963239179
0.3301259411227869
)
;

boundaryField
{
    back
    {
        type            empty;
    }
    inlet
    {
        type            calculated;
        value           nonuniform List<scalar> 
16
(
0.3733250556165154
0.3733250556165154
0.3733250556165154
0.3733250556165154
0.3733250556165154
0.3733250556165155
0.3733250556165152
0.3733250556109241
0.3733250556116084
0.3733250556165154
0.3733250556165154
0.3733250556165151
0.3733250556165154
0.3733250556165152
0.3733250556165154
0.3733250556165154
)
;
    }
    front
    {
        type            empty;
    }
    top
    {
        type            calculated;
        value           nonuniform List<scalar> 
40
(
0.3733250764444694
0.3733251867648664
0.3733252275383198
0.3733251770339701
0.3733254681359421
0.3733261553574174
0.3733273899986295
0.3733276684678357
0.3733271649191553
0.3733261564272016
0.3733253478164546
0.3733250800675728
0.3733250559192437
0.3733250557354439
0.373325056680078
0.3733249962200394
0.3733249073746405
0.373325027711066
0.3733254890471324
0.3733265090973973
0.3733273069736738
0.3733293774689211
0.3733298449982799
0.3733336959394092
0.3733350924909349
0.3733408780391206
0.3733559262605884
0.3733244365037654
0.3733784717188191
0.3733974986668233
0.373348233465735
0.3733244965113797
0.3733227342133125
0.373321883842643
0.3733235027230354
0.3733235154680888
0.3733244959758548
0.3733249177731909
0.3733250146678911
0.3733250386660407
)
;
    }
    outlet
    {
        type            calculated;
        value           uniform 0.3733250556165154;
    }
    bottom
    {
        type            calculated;
        value           nonuniform List<scalar> 
40
(
0.3733250386666307
0.373325014667633
0.3733249177740705
0.3733244959749433
0.3733227342173165
0.3733218838416101
0.3733235027204778
0.3733235154689637
0.3733244965114387
0.3733482334603383
0.373397498663354
0.3733784717235188
0.3733350924895986
0.3733408780400719
0.3733559262613657
0.3733244365117508
0.3733336959393533
0.3733298449994897
0.3733293774677938
0.3733273069728575
0.3733249073778167
0.3733250277090979
0.3733254890449099
0.3733265090953359
0.3733249962184846
0.3733250566815199
0.373325055735598
0.3733250559189869
0.3733250800646343
0.3733253478155958
0.373326156428981
0.373327164920556
0.3733254681322567
0.37332615535452
0.3733273899977204
0.3733276684669959
0.3733251770320586
0.373325227536473
0.3733251867664407
0.3733250764453461
)
;
    }
    wall
    {
        type            calculated;
        value           nonuniform List<scalar> 
104
(
0.5272088771832637
0.5126844097331735
0.5065573363963932
0.5068414695102378
0.5116123611747849
0.5106080059459083
0.5122079923378693
0.5154882274408606
0.3363882891934237
0.3360877432948923
0.3580624311040462
0.3702258559183859
0.374059874481498
0.3753230608696925
0.3772290983871717
0.3792210137351099
0.3777738919409266
0.3752353988313782
0.3754583636888321
0.507635309123462
0.7392310874877529
0.7274997398750698
0.7247870239491653
0.7199245098030689
0.7080397274039033
0.7110050158144658
0.7161519868431286
0.7284805514787858
0.7328206988535374
0.7221258135922337
0.6728016665593791
0.6965230106266934
0.1660540040912283
0.02526548194387957
0.04606474900238865
0.06973386499748045
0.08730713721890511
0.08954802340350305
0.07891218041173667
0.06982470081450434
0.07968209240812667
0.1107604654810281
0.1391262055076667
0.177483154747802
0.09068076725951187
0.06417972324776904
0.1093475560860995
0.1273157028323757
0.1356135372526903
0.1247390270429659
0.1126076320895877
0.1085741667025227
0.1085741667025057
0.1126076320895109
0.1247390270428143
0.1356135372525919
0.1273157028322986
0.1093475560861265
0.06417972324778272
0.0906807672593043
0.177483154747435
0.1391262055070989
0.1107604654798548
0.07968209240722159
0.06982470081412308
0.07891218041172972
0.08954802340354576
0.08730713721841804
0.06973386499674486
0.04606474900179389
0.02526548194345297
0.1660540040909871
0.6965230106267966
0.6728016665604863
0.7221258135939626
0.7328206988564085
0.7284805514810256
0.7161519868444357
0.7110050158161535
0.7080397274093589
0.7199245098028803
0.7247870239435191
0.7274997398735328
0.7392310874794725
0.5076353091118948
0.3754583636854693
0.3752353988417398
0.3777738919370469
0.3792210137367234
0.3772290983870878
0.3753230608706747
0.3740598744803455
0.3702258559162701
0.3580624311040005
0.336087743292901
0.3363882891919263
0.5154882274392081
0.5122079923365747
0.5106080059500326
0.511612361176058
0.5068414695086463
0.5065573363928864
0.51268440971658
0.52720887717448
)
;
    }
}


// ************************************************************************* //
