/*--------------------------------*- C++ -*----------------------------------*\
  =========                 |
  \\      /  F ield         | OpenFOAM: The Open Source CFD Toolbox
   \\    /   O peration     | Website:  https://openfoam.org
    \\  /    A nd           | Version:  11
     \\/     M anipulation  |
\*---------------------------------------------------------------------------*/
FoamFile
{
    format      ascii;
    class       volScalarField;
    location    "0.9";
    object      p;
}
// * * * * * * * * * * * * * * * * * * * * * * * * * * * * * * * * * * * * * //

dimensions      [0 2 -2 0 0 0 0];

internalField   nonuniform List<scalar> 
5472
(
101.40865
99.460784
97.507122
95.583421
93.685821
91.826564
90.030377
88.280736
86.622901
85.043013
83.54926
82.164787
80.885618
79.722211
78.6538
77.683152
76.806382
76.030579
75.345831
101.73157
99.928455
98.09474
96.279328
94.467863
92.685345
90.937266
89.225427
87.595833
86.02096
84.528944
83.128258
81.823359
80.615615
79.495687
78.479116
77.547411
76.720558
75.98483
102.01687
100.3508
98.63792
96.933004
95.211927
93.506026
91.808443
90.1431
88.539525
86.972957
85.484803
84.062464
82.728433
81.478431
80.316372
79.257703
78.277369
77.401311
76.605347
102.24465
100.69967
99.117533
97.528107
95.898282
94.276301
92.638517
91.027212
89.441581
87.887388
86.403138
84.965335
83.616002
82.338245
81.154884
80.040527
79.020757
78.09228
77.237553
102.40497
100.97915
99.528557
98.033293
96.501353
94.97007
93.400674
91.846525
90.287003
88.759603
87.277447
85.834323
84.475567
83.170351
81.959422
80.806331
79.761987
78.773205
77.875518
102.51514
101.20433
99.86083
98.463686
97.040754
95.594925
94.099361
92.607613
91.090693
89.606065
88.128119
86.691922
85.318669
84.000843
82.75657
81.580003
80.496675
79.460473
78.522991
102.56723
101.36361
100.11878
98.835537
97.52513
96.150267
94.734198
93.296824
91.832274
90.382815
88.922147
87.50574
86.121801
84.804077
83.53584
82.346612
81.22062
80.163445
79.180549
102.58105
101.47939
100.33264
99.162307
97.934865
96.639447
95.313208
93.941841
92.536431
91.117406
89.686287
88.283639
86.900349
85.579547
84.299167
83.090589
81.934835
80.859009
79.833748
102.56183
101.54579
100.50011
99.410555
98.25961
97.060805
95.81375
94.515185
93.170301
91.799421
90.412109
89.024245
87.656135
86.33919
85.04754
83.824424
82.653774
81.549652
80.49073
102.49715
101.58595
100.63174
99.617543
98.560988
97.45196
96.277499
95.0364
93.745701
92.429501
91.077532
89.719341
88.374989
87.052442
85.770446
84.546021
83.355374
82.225747
81.150089
102.40944
101.58341
100.70641
99.780514
98.807446
97.774057
96.676692
95.51163
94.285608
93.011747
91.702707
90.384655
89.057273
87.747216
86.474686
85.241589
84.042324
82.90136
81.806033
102.3202
101.55987
100.76013
99.913283
99.013662
98.048438
97.020725
95.925729
94.75923
93.539078
92.284307
91.003855
89.708575
88.416684
87.148728
85.917251
84.72193
83.570933
82.463878
102.1907
101.51192
100.79699
100.02596
99.197397
98.299811
97.338605
96.300613
95.190699
94.026141
92.81831
91.578003
90.319203
89.048634
87.796328
86.572164
85.377749
84.22226
83.113532
102.07132
101.447
100.79911
100.09496
99.332851
98.505935
97.611031
96.635283
95.590273
94.478183
93.317557
92.116875
90.893665
89.653207
88.420487
87.206953
86.02198
84.869369
83.765127
101.97348
101.40411
100.81318
100.16835
99.458827
98.678733
97.835818
96.920137
95.941905
94.88801
93.780416
92.616522
91.427813
90.220851
89.013547
87.816623
86.644576
85.502944
84.409849
101.85827
101.34723
100.81254
100.22537
99.57812
98.85118
98.051047
97.186141
96.256999
95.26027
94.207906
93.091646
91.941568
90.761332
89.582683
88.403058
87.246743
86.119976
85.039113
101.777
101.30344
100.80254
100.26006
99.661101
98.988179
98.24587
97.429146
96.539315
95.59343
94.584702
93.517701
92.410633
91.272196
90.122154
88.96695
87.833641
86.727966
85.663423
101.70787
101.28734
100.82796
100.32166
99.750472
99.116916
98.424008
97.652847
96.818355
95.924125
94.951254
93.918885
92.843187
91.744027
90.623599
89.497999
88.385911
87.304648
86.264222
101.65447
101.27097
100.85285
100.38649
99.848007
99.246046
98.58489
97.849313
97.056664
96.208883
95.300773
94.321878
93.273198
92.197571
91.107902
90.008943
88.919841
87.862829
86.842482
101.63146
101.27696
100.88531
100.44601
99.946239
99.389983
98.769132
98.069822
97.30046
96.469908
95.582944
94.639948
93.644313
92.613904
91.555395
90.48306
89.423416
88.390905
87.39666
101.65092
101.31627
100.94787
100.53007
100.04643
99.513978
98.92499
98.274867
97.559873
96.770081
95.91767
94.994598
94.015301
93.010712
91.973909
90.924732
89.890116
88.880397
87.915994
101.65738
101.36975
101.0372
100.64987
100.19744
99.683271
99.102389
98.467057
97.769191
97.009644
96.200066
95.307702
94.357955
93.374254
92.357833
91.333259
90.312391
89.320235
88.376963
101.69123
101.43045
101.11443
100.74821
100.34304
99.863811
99.323495
98.731984
98.047686
97.304173
96.50772
95.640035
94.721062
93.75158
92.749634
91.741811
90.739698
89.767343
88.845629
101.76734
101.54714
101.25803
100.90283
100.50933
100.04143
99.513119
98.932195
98.275598
97.544799
96.74045
95.8859
94.976001
94.017886
93.032344
92.025098
91.027257
90.070946
89.163518
101.79755
101.62489
101.38701
101.09482
100.74291
100.32045
99.840136
99.294963
98.684813
97.988443
97.211044
96.369705
95.440887
94.4661
93.465238
92.438647
91.430536
90.466041
89.549842
101.8715
101.72981
101.52634
101.2483
100.8999
100.48556
100.00537
99.44667
98.814531
98.114654
97.331846
96.484947
95.57104
94.60326
93.598642
92.5702
91.56449
90.598945
89.692504
101.92991
101.87378
101.75886
101.5727
101.32313
101.00119
100.5952
100.11584
99.54061
98.882508
98.131157
97.245896
96.262566
95.224421
94.128776
93.025251
91.957329
90.921941
89.938038
74.721693
74.119688
73.558713
73.00936
72.469599
71.873309
71.198132
70.393223
69.435865
68.284476
66.913717
65.285873
63.34315
61.010741
58.218508
54.862496
50.921728
46.328689
41.032078
75.295819
74.624502
73.991618
73.361248
72.730155
72.023007
71.225689
70.27162
69.152856
67.815711
66.250413
64.43148
62.275887
59.760719
56.827063
53.421326
49.517013
45.01862
40.01431
75.841729
75.086472
74.361234
73.635271
72.881542
72.054187
71.111665
70.012729
68.720128
67.208345
65.438969
63.424584
61.068147
58.41848
55.399632
51.990713
48.299002
44.073706
39.4516
76.393098
75.552342
74.726638
73.904679
73.024444
72.092091
71.007485
69.798593
68.355822
66.721638
64.815673
62.700595
60.2939
57.639991
54.776088
51.604611
48.323664
44.805497
41.117648
76.947814
76.031399
75.104462
74.194083
73.204477
72.175747
70.978223
69.671592
68.13576
66.435086
64.503245
62.379487
60.10541
57.639542
55.151117
52.582916
50.070541
47.670842
45.433522
77.524987
76.520162
75.501915
74.496932
73.432819
72.309436
71.050263
69.664525
68.108384
66.392683
64.55586
62.561904
60.579083
58.568962
56.683605
54.97496
53.532211
52.416761
51.692085
78.126506
77.011645
75.921038
74.817255
73.708186
72.504684
71.224254
69.80241
68.284314
66.639197
64.986126
63.302863
61.750131
60.363131
59.253048
58.485305
58.138058
58.253602
58.861262
78.727473
77.513175
76.357029
75.182232
74.028788
72.784973
71.499789
70.108618
68.68748
67.228914
65.852134
64.598916
63.598374
62.900783
62.60765
62.7614
63.394543
64.525532
66.143307
79.32532
78.031636
76.813163
75.599915
74.411623
73.167631
71.910131
70.616918
69.353313
68.16595
67.164008
66.411834
66.019846
66.028159
66.499276
67.447515
68.883373
70.772441
73.059492
79.932451
78.579578
77.307012
76.06695
74.862642
73.661405
72.482765
71.341758
70.306219
69.459219
68.892461
68.673999
68.877556
69.529134
70.650339
72.231098
74.248728
76.612477
79.203877
80.542951
79.145064
77.837977
76.596264
75.407616
74.273414
73.215745
72.281478
71.534857
71.068403
70.954357
71.251398
71.993561
73.185086
74.821417
76.854088
79.203912
81.748562
84.291075
81.164861
79.733412
78.41207
77.185567
76.045762
75.016708
74.122947
73.431025
73.002659
72.927209
73.249465
74.004584
75.203593
76.831809
78.827456
81.107328
83.536263
85.990161
88.27492
81.792181
80.351297
79.031798
77.834977
76.772179
75.880975
75.178838
74.756921
74.655602
74.952628
75.674569
76.82636
78.388977
80.320883
82.499956
84.825837
87.133305
89.350512
91.321929
82.422797
80.983175
79.687245
78.551202
77.588944
76.84988
76.357711
76.213791
76.434295
77.078292
78.142469
79.619331
81.443739
83.522108
85.707468
87.906848
89.986035
91.899133
93.544667
83.065945
81.637337
80.373883
79.31377
78.469434
77.898433
77.638643
77.765694
78.285631
79.237735
80.580475
82.29754
84.257874
86.346924
88.423918
90.405401
92.210433
93.816808
95.16484
83.701484
82.299829
81.089937
80.117712
79.402887
79.016165
78.982988
79.358735
80.149803
81.354676
82.909281
84.764382
86.723688
88.706606
90.593709
92.328088
93.875888
95.207389
96.280074
84.337988
82.962841
81.80847
80.946686
80.37988
80.170395
80.368173
80.985159
82.007326
83.418487
85.121594
86.989576
88.870029
90.694522
92.370799
93.872059
95.168857
96.237445
97.074945
84.975052
83.626868
82.545954
81.788269
81.365053
81.336783
81.724686
82.542578
83.766436
85.306119
87.040205
88.847586
90.608464
92.270055
93.746089
95.018993
96.08887
96.95178
97.617168
85.578925
84.264477
83.279707
82.644514
82.373832
82.520268
83.109998
84.109526
85.457657
87.082026
88.829907
90.547954
92.167214
93.620601
94.887023
95.95719
96.823556
97.490766
97.992002
86.156982
84.896594
83.988784
83.432154
83.293995
83.595408
84.35348
85.496987
86.962362
88.598021
90.253059
91.842199
93.317676
94.629181
95.741761
96.625653
97.320914
97.853218
98.262003
86.71005
85.517731
84.69873
84.28749
84.301267
84.73938
85.648881
86.92833
88.455061
90.062144
91.653305
93.145236
94.472448
95.568612
96.447924
97.177936
97.768659
98.211536
98.523601
87.19507
86.035954
85.276644
84.934052
85.044734
85.662607
86.700378
88.037176
89.572995
91.14383
92.662868
94.025026
95.190535
96.181716
97.018582
97.672414
98.14091
98.464278
98.720899
87.68738
86.593656
85.932969
85.733075
85.997377
86.738027
87.916563
89.382135
90.937615
92.447863
93.831053
95.049486
96.087356
96.931175
97.575704
98.041717
98.386723
98.665321
98.930614
88.017474
86.952756
86.328449
86.183927
86.54453
87.394261
88.656331
90.12755
91.62198
93.079216
94.452449
95.647739
96.613889
97.365801
97.936275
98.364093
98.705553
98.975111
99.190213
88.400622
87.359819
86.841483
86.872498
87.420164
88.498752
89.941498
91.502761
93.023896
94.440343
95.668028
96.63584
97.377285
97.955942
98.373431
98.660586
98.902223
99.103603
99.14611
88.548913
87.54928
87.054545
87.082918
87.661372
88.786263
90.263471
91.834388
93.341158
94.732087
95.945084
96.92234
97.662481
98.185051
98.55557
98.880565
99.170175
99.348678
99.457244
88.707793
87.652538
87.28733
87.553315
88.54473
90.077753
91.813686
93.472735
94.97251
96.264995
97.269722
97.94895
98.414447
98.76723
99.069795
99.254165
99.36825
99.444572
99.479159
34.72526
27.384873
19.08633
9.8874511
0.444396
-9.1660899
-18.047765
-26.203984
-33.202845
-38.302511
-42.249515
-43.787766
-42.771735
-39.302308
-34.867268
-29.449608
-24.234545
-20.157672
-17.847833
34.110015
27.062223
19.354711
10.999337
2.1088098
-6.845266
-15.060862
-22.478417
-28.986514
-33.582791
-36.368208
-36.831142
-34.611597
-30.65836
-25.541111
-20.429214
-15.913884
-12.33511
-10.458119
34.272204
28.265096
21.528868
14.2075
6.4979499
-1.5252192
-8.872099
-15.020055
-20.027133
-22.893741
-23.788118
-22.931502
-20.280568
-16.796903
-12.485286
-8.1867377
-4.0374919
-0.45204111
1.4826518
37.097603
32.358401
27.026518
21.09368
14.869981
8.4779244
2.2217164
-2.6551545
-6.2302494
-8.2916692
-8.6360601
-7.6342232
-5.2869669
-1.8559552
2.4873833
7.2757014
12.259381
16.394226
18.600624
42.97597
39.725537
35.926117
31.752904
27.280437
22.810809
18.351794
14.557704
11.725398
9.7922219
9.2283307
10.094132
12.479736
16.601551
22.186654
28.315983
34.418631
38.881244
40.985953
50.830867
49.005911
46.552315
44.00648
41.409575
38.913212
36.535226
34.38375
32.840813
32.192849
32.889911
35.043883
38.558514
43.212591
48.443503
53.88341
58.882913
62.587521
64.350347
59.345079
58.675657
57.270127
56.029991
54.98717
54.186926
53.686966
53.501899
53.898204
54.610218
56.229746
58.928801
62.651588
67.154929
71.941932
76.921888
81.111353
84.287228
85.997117
67.699709
67.835181
67.221275
66.952505
67.082637
67.53303
68.360398
69.492862
71.059483
73.203316
75.770646
79.051557
82.936729
87.464488
92.144806
96.808271
100.72818
103.71579
105.55066
75.290302
75.93465
75.862143
76.234049
77.109122
78.317954
79.869259
81.751998
83.942866
86.645246
89.919698
93.675793
97.787298
102.1678
106.84262
111.13153
114.97408
117.45654
118.63944
81.628821
82.517943
82.808109
83.546803
84.797091
86.346549
88.157415
90.288517
92.719269
95.493747
98.67594
102.24798
106.13583
110.20799
114.29003
118.02631
120.96469
122.95609
123.72156
86.511835
87.526847
88.118944
89.016
90.363721
91.95767
93.738687
95.779389
98.041709
100.52099
103.27924
106.31606
109.57841
112.96116
116.29763
119.33629
121.81095
123.47235
124.16612
90.190065
91.233971
91.971888
92.897003
94.160648
95.637057
97.250637
99.044836
101.00867
103.11497
105.40749
107.8866
110.49685
113.20134
115.88685
118.36569
120.42972
121.83187
122.44509
92.945849
93.906722
94.653727
95.537655
96.652468
97.954844
99.338029
100.85156
102.49089
104.20062
106.04811
107.9885
109.9854
112.02245
114.01811
115.84776
117.37203
118.40291
118.86039
94.885076
95.727873
96.422307
97.206594
98.16091
99.270917
100.42357
101.67933
103.00542
104.36254
105.82111
107.30516
108.80668
110.31059
111.75055
113.08168
114.1917
114.98066
115.32946
96.241639
96.954346
97.566833
98.23402
99.029118
99.938324
100.87427
101.89161
102.93045
103.99365
105.11682
106.23497
107.3595
108.45767
109.485
110.43925
111.22375
111.79947
112.03361
97.115946
97.709467
98.232851
98.79155
99.45117
100.18941
100.9432
101.74888
102.5506
103.38332
104.22935
105.06266
105.88934
106.67211
107.40321
108.06849
108.6209
109.01327
109.19082
97.71515
98.196784
98.62487
99.083442
99.62343
100.20863
100.80943
101.43797
102.05925
102.7005
103.33432
103.96002
104.57305
105.15657
105.70233
106.18936
106.60028
106.88714
107.03164
98.102619
98.486501
98.847507
99.23101
99.658289
100.11098
100.58945
101.07727
101.56265
102.05782
102.54416
103.02847
103.50092
103.94749
104.35728
104.72046
105.02086
105.23752
105.3449
98.35836
98.667992
98.95077
99.257169
99.60588
99.974029
100.35321
100.73117
101.11517
101.49874
101.87599
102.2518
102.61065
102.94757
103.25078
103.5106
103.71844
103.87802
103.94613
98.579917
98.820235
99.0389
99.283565
99.556618
99.841389
100.13614
100.4366
100.73993
101.03624
101.33176
101.61242
101.87812
102.13093
102.35454
102.54506
102.69405
102.81459
102.86341
98.751312
98.932939
99.104495
99.300361
99.514493
99.738217
99.974576
100.20969
100.44055
100.67001
100.8945
101.10363
101.30273
101.49333
101.66044
101.80304
101.91579
102.01587
102.0502
98.926453
99.070214
99.193738
99.333997
99.497689
99.67448
99.854247
100.03026
100.20566
100.38182
100.55054
100.71252
100.86481
101.00803
101.13304
101.23907
101.32196
101.39252
101.42006
99.119054
99.191466
99.240798
99.337096
99.474577
99.613849
99.750304
99.887345
100.02423
100.1584
100.28884
100.4155
100.53034
100.63608
100.73161
100.80924
100.86735
100.91774
100.93284
99.373232
99.337924
99.335714
99.418561
99.525689
99.626016
99.721281
99.818567
99.916039
100.01387
100.11383
100.21034
100.29762
100.37294
100.43579
100.49093
100.5391
100.57527
100.59362
99.192241
99.331681
99.469507
99.563877
99.612937
99.666724
99.736674
99.809872
99.882405
99.952288
100.01808
100.08084
100.13942
100.19878
100.25607
100.29803
100.32384
100.33887
100.33703
99.624359
99.674431
99.695167
99.721019
99.755793
99.79867
99.837748
99.874228
99.911262
99.946088
99.979178
100.01173
100.04086
100.06732
100.09424
100.11896
100.14013
100.1581
100.16081
99.569537
99.672546
99.745666
99.804768
99.849174
99.881707
99.906106
99.925363
99.93997
99.950299
99.959786
99.967097
99.972209
99.977287
99.984499
99.997356
100.01947
100.05876
100.10519
-17.816197
-20.043824
-23.742899
-28.749014
-34.076274
-38.478535
-41.889483
-42.953328
-41.50745
-37.498685
-32.431636
-25.44268
-17.268305
-8.3734069
1.2622948
10.701496
19.890393
28.222331
35.606102
-10.632153
-12.715472
-16.285215
-20.822333
-25.747231
-30.976101
-34.757361
-36.958577
-36.43826
-33.589056
-28.917304
-22.340351
-14.836468
-6.5591427
2.4407774
11.401989
19.824398
27.613243
34.726803
1.2508775
-1.1582978
-5.0585356
-9.3990286
-13.710096
-18.063807
-21.522364
-24.041113
-24.734477
-23.647045
-20.61482
-15.451101
-9.1563142
-1.773344
6.3345219
14.165687
21.61951
28.482013
34.605657
17.976498
15.081229
10.623638
5.5006855
0.70454498
-3.5128188
-6.7429307
-9.0456897
-9.9624359
-9.5252568
-7.3799137
-3.6563197
1.3470824
7.6859628
14.253898
20.648831
26.76101
32.254446
37.13823
40.372317
37.179277
31.923335
25.636139
19.501931
13.96314
9.9649647
7.7543692
7.1577864
7.9132973
9.9601277
12.997801
16.977485
21.65486
26.343863
31.016251
35.387175
39.349886
42.766927
64.072633
61.731918
57.507721
51.957503
46.068549
40.582311
35.871958
32.394858
30.355499
29.808256
30.673589
32.498752
34.893502
37.562585
40.315857
43.147358
45.8822
48.459523
50.442968
86.061629
84.215764
80.608142
75.921871
70.446066
65.260023
60.528453
56.740704
54.026508
52.472901
51.917474
51.739758
52.184081
52.888785
53.911369
55.157356
56.545424
58.055902
58.857753
105.40056
103.32716
99.851299
95.599181
90.598409
85.763247
81.120812
77.215883
73.990896
71.547274
69.543878
68.087211
67.108378
66.41436
66.117888
66.144228
66.520338
67.229839
67.20017
118.30286
116.44294
113.58104
109.55106
105.1851
100.56073
96.226332
92.206779
88.510074
85.331581
82.759542
80.67729
78.898126
77.438914
76.330583
75.547702
75.262798
75.409695
74.839841
123.62921
122.55277
120.30186
117.11779
113.25461
109.11771
105.0547
101.21553
97.673421
94.56257
91.852189
89.485131
87.422086
85.688412
84.200808
82.983619
82.314316
82.10802
81.283879
124.04363
123.10318
121.26954
118.69115
115.60195
112.24316
108.86683
105.62052
102.59149
99.877184
97.424411
95.197168
93.200255
91.461957
89.898022
88.557304
87.713024
87.240293
86.284709
122.39035
121.62601
120.10379
117.95719
115.43764
112.73115
110.02663
107.41948
104.93641
102.67554
100.57902
98.629608
96.867924
95.279691
93.830508
92.568601
91.670488
91.010639
90.00424
118.84511
118.30475
117.19892
115.61789
113.75548
111.73979
109.6928
107.69605
105.74329
103.91212
102.21014
100.57179
99.079389
97.711603
96.426935
95.322941
94.459306
93.738621
92.770923
115.32649
114.93058
114.09747
112.95424
111.60139
110.14868
108.63252
107.13024
105.635
104.17965
102.82895
101.49935
100.25536
99.111522
98.011148
97.069214
96.299709
95.618569
94.776885
112.03546
111.77149
111.1713
110.3694
109.40291
108.3684
107.26096
106.13359
105.00846
103.8844
102.82595
101.78355
100.77243
99.843492
98.938904
98.150872
97.490289
96.887002
96.177029
109.19024
109.00731
108.59988
108.03655
107.36492
106.62949
105.84123
105.0109
104.17272
103.32441
102.49454
101.69002
100.88637
100.13696
99.401142
98.747855
98.192309
97.672804
97.085027
107.03695
106.89639
106.60479
106.18584
105.69386
105.14333
104.55638
103.9404
103.31077
102.67417
102.03376
101.41068
100.78169
100.18435
99.599836
99.064082
98.606505
98.173069
97.695768
105.36114
105.25399
105.03656
104.73222
104.36463
103.95097
103.50034
103.02609
102.53957
102.05072
101.55581
101.06936
100.58052
100.10445
99.652848
99.225741
98.842409
98.477653
98.089407
103.96214
103.89242
103.73376
103.52566
103.26291
102.95858
102.6175
102.25733
101.88125
101.50163
101.11785
100.73402
100.355
99.976884
99.611446
99.264831
98.956459
98.666222
98.349551
102.8702
102.82026
102.70264
102.55474
102.36375
102.14065
101.88619
101.62015
101.33997
101.04416
100.74646
100.44369
100.14318
99.850214
99.568148
99.296893
99.055698
98.828451
98.570065
102.05711
102.01711
101.92222
101.81007
101.6671
101.50049
101.31076
101.11179
100.90262
100.67886
100.44846
100.21823
99.983628
99.74828
99.527534
99.316005
99.12358
98.952284
98.766657
101.42642
101.39516
101.32867
101.24521
101.14014
101.0149
100.87213
100.72043
100.55814
100.3893
100.21237
100.03705
99.862463
99.682998
99.507659
99.345264
99.204657
99.080094
98.937082
100.93429
100.9194
100.87238
100.81352
100.73652
100.6408
100.53444
100.4202
100.29437
100.16408
100.02991
99.892874
99.756448
99.620003
99.481121
99.345595
99.250038
99.196272
99.116087
100.58925
100.57647
100.545
100.50183
100.44268
100.37471
100.29917
100.21056
100.11528
100.01736
99.921643
99.825644
99.72943
99.634183
99.533982
99.429107
99.35265
99.355778
99.384269
100.32888
100.33661
100.31949
100.29661
100.25837
100.20547
100.14716
100.09028
100.0273
99.960045
99.889243
99.816056
99.742806
99.673981
99.620304
99.570321
99.475685
99.338327
99.199216
100.1544
100.15458
100.12884
100.10666
100.08269
100.05829
100.03331
100.00609
99.975282
99.943701
99.910655
99.874819
99.838507
99.799859
99.757422
99.722723
99.696117
99.674348
99.62563
100.0944
100.05507
100.0119
99.987595
99.972723
99.964972
99.959752
99.95472
99.947958
99.939513
99.930723
99.918522
99.901299
99.87806
99.84626
99.801983
99.742792
99.668873
99.564692
41.948294
47.278709
51.892204
55.85265
59.203503
61.998793
64.328415
66.255556
67.866929
69.217443
70.351011
71.296812
72.088942
72.755107
73.354801
73.892237
74.43297
74.96948
75.539103
40.708764
45.784729
50.328965
54.266057
57.695244
60.643115
63.167415
65.32315
67.141145
68.699484
70.034109
71.150029
72.099061
72.892616
73.602178
74.234
74.854966
75.46436
76.106057
39.900037
44.617154
48.928891
52.679581
56.13396
59.191197
61.871711
64.240741
66.272665
68.048697
69.568595
70.864907
71.967295
72.912773
73.738932
74.4884
75.201224
75.904303
76.63213
41.307402
45.126543
48.757362
52.125057
55.370276
58.291465
60.995793
63.437489
65.57907
67.507379
69.155273
70.609269
71.828045
72.921076
73.855278
74.729353
75.538275
76.345542
77.161102
45.386154
47.774597
50.301715
52.926209
55.596981
58.161981
60.696075
63.0271
65.188389
67.155545
68.877281
70.432464
71.753058
72.964015
73.998169
74.98322
75.886067
76.79607
77.694461
51.461563
52.330459
53.581891
55.149026
56.972643
58.958136
61.057198
63.107758
65.156151
67.041619
68.788982
70.372432
71.777798
73.054751
74.188435
75.252774
76.251363
77.255777
78.246832
58.516199
58.040865
58.052209
58.522162
59.408964
60.628301
62.114305
63.746894
65.50097
67.212321
68.903617
70.457426
71.90802
73.206894
74.425873
75.541206
76.639787
77.7222
78.822251
65.760482
64.246157
63.220768
62.699208
62.656155
63.056233
63.856118
64.946005
66.277167
67.721802
69.240684
70.705642
72.135227
73.444011
74.706948
75.872455
77.045845
78.195828
79.398229
72.689748
70.47103
68.663784
67.319984
66.467407
66.09507
66.185786
66.671028
67.506033
68.584189
69.83642
71.15432
72.497189
73.784674
75.051221
76.254883
77.472446
78.686779
79.971419
78.884813
76.324008
74.014983
72.067858
70.565701
69.53032
68.96767
68.854249
69.157693
69.805025
70.722105
71.81832
73.015004
74.2349
75.465166
76.68665
77.935688
79.208985
80.554348
84.036727
81.500229
78.985756
76.681908
74.709311
73.143821
72.030263
71.369479
71.153337
71.348159
71.888001
72.700136
73.692005
74.798206
75.96942
77.184126
78.437577
79.746257
81.139815
88.077831
85.792966
83.352822
80.947435
78.709076
76.766731
75.202429
74.074504
73.393562
73.148718
73.298082
73.797101
74.549832
75.494674
76.564444
77.737173
78.980772
80.306725
81.73548
91.160457
89.197637
86.986949
84.690947
82.390778
80.249136
78.367492
76.865026
75.778408
75.127625
74.90048
75.074069
75.558248
76.314734
77.250939
78.351905
79.569388
80.897913
82.33722
93.433553
91.788531
89.875106
87.800637
85.615088
83.455401
81.411364
79.638137
78.216078
77.21475
76.635062
76.484714
76.692751
77.242358
78.026868
79.033238
80.193832
81.504859
82.94287
95.097234
93.745078
92.134559
90.329099
88.353579
86.292661
84.225973
82.305739
80.635563
79.347287
78.453752
77.996645
77.934241
78.254522
78.871215
79.760743
80.848056
82.133178
83.560203
96.247994
95.16617
93.831282
92.281954
90.544194
88.668299
86.700543
84.765435
82.952608
81.44216
80.291405
79.557953
79.24406
79.337151
79.772466
80.530535
81.532474
82.765549
84.178275
97.064063
96.218756
95.144211
93.849039
92.347738
90.674338
88.861852
86.994129
85.154937
83.490304
82.128867
81.157477
80.598032
80.4615
80.721559
81.328891
82.225724
83.400541
84.795859
97.609752
96.950626
96.085171
95.013459
93.735451
92.258427
90.609037
88.858515
87.0768
85.369595
83.872508
82.693144
81.927419
81.599458
81.678869
82.142524
82.940164
84.038841
85.407362
97.986862
97.495542
96.827656
95.965341
94.8951
93.629726
92.17853
90.566045
88.862946
87.140212
85.552505
84.246376
83.292608
82.754789
82.664896
82.974606
83.64848
84.658241
85.989919
98.254601
97.86218
97.332486
96.636604
95.753702
94.641082
93.334869
91.870458
90.292482
88.656131
87.049207
85.621385
84.519619
83.805765
83.559987
83.743854
84.33347
85.271725
86.549676
98.528374
98.221995
97.781427
97.194304
96.468188
95.591638
94.496287
93.172691
91.691321
90.116184
88.534462
87.041293
85.800632
84.937882
84.543575
84.577017
85.023576
85.870435
87.086494
98.731572
98.475895
98.154852
97.688505
97.036793
96.204226
95.218545
94.061077
92.707745
91.19984
89.648506
88.14375
86.84049
85.843968
85.274121
85.207452
85.587727
86.374694
87.555222
98.928215
98.672154
98.395766
98.055002
97.592786
96.953423
96.113715
95.081704
93.871788
92.500652
91.006152
89.475416
88.044584
86.903831
86.209396
85.988138
86.224433
86.915904
88.034396
99.195656
98.988618
98.716675
98.376705
97.952684
97.386118
96.638189
95.679784
94.494138
93.133313
91.692954
90.219389
88.776615
87.550477
86.743816
86.428974
86.611672
87.264982
88.352268
99.156489
99.112756
98.913086
98.67129
98.385372
97.97378
97.401981
96.663916
95.701821
94.483893
93.082509
91.582276
90.048001
88.637903
87.601381
87.101218
87.109875
87.659448
88.725288
99.462229
99.35411
99.177601
98.890319
98.565941
98.198111
97.682901
96.952374
95.982135
94.777717
93.39954
91.911122
90.365802
88.920659
87.835474
87.304166
87.318012
87.843118
88.86652
99.476943
99.445404
99.371248
99.259088
99.075996
98.773428
98.422053
97.963447
97.29331
96.297029
95.016109
93.532858
91.89653
90.18942
88.694087
87.752
87.537805
87.938294
89.019384
76.135184
76.799541
77.553524
78.412642
79.366529
80.414406
81.561697
82.821635
84.18356
85.654801
87.213761
88.847213
90.57658
92.352051
94.189776
96.066364
97.964363
99.892199
101.81277
76.766426
77.47869
78.285837
79.194474
80.195256
81.292521
82.482542
83.769055
85.145534
86.614729
88.170614
89.777996
91.468766
93.197739
94.958345
96.748334
98.537827
100.34573
102.12433
77.370945
78.143544
79.002549
79.957388
80.993974
82.136881
83.366485
84.682128
86.082755
87.54771
89.097717
90.68265
92.325661
94.004479
95.688651
97.386231
99.066451
100.75481
102.40009
77.98331
78.816404
79.727436
80.725491
81.817317
82.982943
84.239107
85.567445
86.986226
88.446369
89.981174
91.552385
93.14333
94.760705
96.362238
97.968766
99.533548
101.09375
102.61921
78.600427
79.47847
80.447591
81.475558
82.607888
83.799193
85.08462
86.420657
87.845275
89.305449
90.811773
92.354758
93.888266
95.43844
96.950616
98.458503
99.931238
101.36078
102.76637
79.225751
80.144456
81.16064
82.226869
83.384255
84.607792
85.908241
87.259948
88.675763
90.138108
91.603364
93.102931
94.573469
96.048678
97.476528
98.871721
100.2489
101.57437
102.86505
79.860709
80.826365
81.865491
82.974446
84.147475
85.394599
86.693809
88.058168
89.454042
90.898277
92.329278
93.774397
95.193374
96.587892
97.943436
99.229566
100.49179
101.72501
102.91276
80.490011
81.501915
82.561143
83.69898
84.89176
86.1555
87.455157
88.81776
90.202273
91.613553
93.015721
94.401632
95.757052
97.067259
98.339121
99.546731
100.70046
101.83221
102.92319
81.122348
82.16919
83.258665
84.412243
85.618147
86.894662
88.193237
89.540476
90.91147
92.281972
93.634289
94.962671
96.242269
97.471582
98.651413
99.782692
100.8567
101.88812
102.89179
81.7587
82.823414
83.938136
85.114487
86.323365
87.591056
88.89739
90.221062
91.56179
92.896923
94.192868
95.464489
96.688728
97.844905
98.938069
99.980015
100.98049
101.92225
102.82217
82.392083
83.475602
84.604073
85.790261
87.008189
88.266707
89.558648
90.866986
92.168547
93.460251
94.716257
95.925037
97.075064
98.157634
99.176267
100.13499
101.04616
101.90843
102.72314
83.025957
84.122742
85.262105
86.445825
87.662882
88.914626
90.19116
91.469893
92.735722
93.975942
95.178032
96.326774
97.403758
98.416057
99.368135
100.25365
101.08638
101.87387
102.62579
83.654003
84.754831
85.897005
87.078973
88.292484
89.53074
90.787216
92.030218
93.254695
94.44689
95.594878
96.686815
97.705747
98.652542
99.540249
100.35793
101.1167
101.82025
102.49133
84.283143
85.378567
86.519148
87.692798
88.898478
90.118409
91.343596
92.547813
93.736674
94.882844
95.979442
97.007169
97.966669
98.848759
99.668064
100.41614
101.10608
101.74375
102.35832
84.905937
85.993642
87.125318
88.285969
89.473745
90.66743
91.860697
93.03206
94.184515
95.28
96.318084
97.280047
98.182585
99.012256
99.775539
100.47276
101.10567
101.68757
102.24876
85.513869
86.589323
87.708006
88.854456
90.024049
91.189935
92.358249
93.496731
94.596579
95.636851
96.620678
97.532716
98.383666
99.172714
99.882552
100.51714
101.09259
101.61818
102.12153
86.116593
87.178745
88.276518
89.402467
90.548523
91.68872
92.81427
93.911028
94.9619
95.952585
96.890668
97.768079
98.566567
99.2973
99.959358
100.54417
101.07394
101.56363
102.02165
86.69607
87.73652
88.812404
89.915585
91.032556
92.144497
93.22819
94.290289
95.314026
96.271739
97.154859
97.980259
98.733416
99.409616
100.03285
100.59308
101.08811
101.53529
101.94179
87.256618
88.275822
89.330397
90.411364
91.502403
92.585613
93.651137
94.686007
95.654604
96.549472
97.380974
98.161488
98.885892
99.53312
100.12326
100.64851
101.10049
101.50882
101.88319
87.79252
88.785606
89.817139
90.872678
91.936282
92.986237
94.006006
94.987999
95.917802
96.795809
97.614339
98.369714
99.060855
99.667913
100.20751
100.69807
101.12486
101.50179
101.84983
88.296491
89.261846
90.269199
91.29961
92.343197
93.371598
94.365059
95.333958
96.247806
97.089192
97.863573
98.564781
99.205948
99.78272