/*--------------------------------*- C++ -*----------------------------------*\
  =========                 |
  \\      /  F ield         | OpenFOAM: The Open Source CFD Toolbox
   \\    /   O peration     | Website:  https://openfoam.org
    \\  /    A nd           | Version:  11
     \\/     M anipulation  |
\*---------------------------------------------------------------------------*/
FoamFile
{
    format      ascii;
    class       volScalarField;
    location    "0.3475";
    object      p;
}
// * * * * * * * * * * * * * * * * * * * * * * * * * * * * * * * * * * * * * //

dimensions      [0 2 -2 0 0 0 0];

internalField   nonuniform List<scalar> 
880
(
80.0000000000004
80.00000011847482
80.01117553964036
81.75624996649731
80.00000000008637
80.00000035021101
80.01460964038144
82.60442386929637
80.00000000060172
80.00000137912316
80.02751804187382
83.63112366678146
80.00000000979846
80.0000062904558
80.05786688724295
85.17801530607025
79.99999994947046
80.00000000219465
80.00000492942981
80.0000925692482
80.0000307753961
80.00010552181577
80.00085495021867
80.00120999787001
80.13264330201849
80.21739626656536
80.36003455585995
80.49083560882163
88.0835468148304
91.10745538047058
93.67418807147199
94.88499971898939
80.00023642711555
80.00173303436257
80.00614525592025
80.01992645699272
80.01165540965461
80.04871388437027
80.09783585328893
80.20567374028242
81.20411722335635
81.81713829224526
82.58512677910045
83.59011526955699
96.04614489851197
97.64510324336064
98.00112915393468
97.34286567170703
90.89220144874633
87.48625303625029
85.91537066677556
84.83611290513163
85.48981354965274
86.15437025604071
86.55951966521859
86.60910062822641
80.58718490593338
81.03225402516473
81.51877640130432
81.88572900953658
80.0708215939423
80.17361247235084
80.331321029977
80.55275229265062
80.8066639276537
81.06021070705663
81.30527606075903
81.47651963981423
82.15736828871103
82.3198608079316
82.415876299047
82.43069489479768
86.28297586310551
85.84542418611696
85.25618003374204
84.6004812001275
83.63258146024259
83.06028651540568
82.58743406729896
82.26729545889704
82.17763940362151
84.17252952217927
82.38995862793719
81.55681055359844
86.62081930655187
83.84886728516774
82.29699054183831
81.5194849020404
115.4151666804092
85.00882685458106
82.07119363275339
81.27054720243041
155.0262571316476
91.94853333267861
82.47029535466577
81.21381850591207
81.03508421981921
83.0464262842182
101.1685728014019
173.8529430485671
80.64098065735726
84.18323822287226
111.3369067872525
173.5182277334209
80.82659505851359
86.81119691650525
125.2129295658784
176.20566341152
81.48927385893676
91.62941618497096
139.1280450527359
174.1930565237785
169.0227809525265
148.1260950471348
99.34104477051909
82.95575819447561
162.2675367025528
150.9957104389961
108.4847301553078
85.64349725628223
154.6962379132349
148.973027603103
117.185717925074
90.0237785438292
146.2063442678099
139.4916548031345
119.5305883796804
95.67129946279967
101.3243607363463
116.72647480369
127.1696286450711
136.5519244469275
100.8365290431943
108.4856145645271
114.0172116173774
123.4439019488679
98.92087686981424
101.0414065858285
101.2744106669329
107.2221284825684
96.27280133025373
94.90200370857298
89.69664712044663
88.50565931108774
94.1983980263801
89.15929685685134
79.34327561009613
66.68612954425672
90.72084483968951
83.88574348024868
70.86871606200933
43.32005903286469
87.98395684421112
81.55085449972292
64.82783829446903
26.21298130417822
85.69239015997148
80.54215435568339
61.13399984048648
14.97402834884715
18.25916817421065
62.34886747394718
79.73245522293227
83.65848875863988
26.5539983172779
62.72601877268425
79.16317709878504
82.28346062629133
27.99863902677721
62.33482672859697
78.37395492859164
81.34319534382188
26.5401841810272
61.75282934886675
77.778110979621
80.87071481637044
31.85403716261665
64.03485772240033
77.41394228357247
80.09633331033297
37.58441195550089
66.27690255702917
77.2738360695801
79.68212224078898
43.76276499300848
69.35045410604522
77.51982914140878
79.71870929082486
51.53749050463863
71.36000953282456
77.9144086258772
79.79484204499244
51.6766738042485
59.63642788325088
74.18501513837083
79.43474654638858
50.20145148258309
60.71905643552194
74.33522894743155
79.4203905530056
47.85654917746542
62.43976054891787
74.67337168313122
79.41118872673576
46.59794057533571
64.41733914127195
75.24561823107742
79.44171174093329
51.5374905046196
71.36000953268203
77.91440862594639
79.7948420446495
43.76276499301888
69.3504541057715
77.51982914133717
79.71870929041009
37.58441195550156
66.27690255678695
77.2738360691977
79.68212224028969
31.85403716266967
64.03485772218087
77.41394228344997
80.09633331010106
83.65848875867897
79.73245522305304
62.34886747402493
18.25916817396205
82.28346062621499
79.16317709879648
62.7260187726779
26.55399831707791
81.34319534379759
78.37395492862801
62.33482672820241
27.99863902670275
80.87071481626917
77.77811097979492
61.75282934866328
26.54018418105423
14.97402834874186
61.13399984040862
80.54215435565064
85.69239015999898
26.21298130410206
64.82783829451198
81.55085449992724
87.9839568442103
43.32005903280974
70.86871606218489
83.88574348039775
90.72084483986067
66.68612954431948
79.34327561004922
89.15929685670481
94.19839802654241
101.3243607365618
116.7264748042368
127.1696286455382
136.5519244469403
100.8365290430805
108.4856145644072
114.0172116174896
123.4439019490249
98.92087686937712
101.0414065858259
101.2744106669107
107.222128482599
96.27280133018171
94.90200370845153
89.69664712042524
88.50565931120303
146.2063442677895
139.4916548033099
119.5305883800563
95.67129946365546
154.6962379132408
148.9730276032675
117.185717925222
90.02377854392388
162.2675367025231
150.995710439058
108.4847301551202
85.64349725642339
169.0227809524212
148.126095047351
99.34104477081387
82.95575819457086
81.03508421982644
83.04642628414648
101.1685728012904
173.8529430483737
80.64098065787195
84.18323822316262
111.3369067872231
173.5182277332046
80.82659505921157
86.81119691720052
125.2129295660673
176.2056634112896
81.48927385911549
91.62941618482508
139.1280450529418
174.1930565236431
81.21381850582384
81.27054720237609
81.51948490230951
81.55681055365677
82.47029535417234
82.07119363263472
82.29699054171628
82.38995862780426
91.94853333222264
85.00882685452245
83.84886728483131
84.17252952201747
155.0262571312555
115.4151666800806
86.6208193065998
82.17763940362661
81.47651964004073
82.43069489496422
84.6004812003728
82.26729545912301
81.30527606063546
82.41587629918946
85.25618003397446
82.58743406737763
81.06021070701362
82.31986080796992
85.84542418611608
83.06028651497029
80.80666392737839
82.15736828850794
86.28297586331284
83.63258146024501
80.07082159376195
80.58718490566534
85.48981354993715
90.89220144892022
80.17361247202257
81.03225402488023
86.15437025641477
87.48625303632318
80.33132103015497
81.51877640110133
86.55951966527672
85.9153706662928
80.55275229244323
81.8857290093359
86.60910062858943
84.83611290474744
97.34286567163507
83.59011526962568
80.20567374013505
80.01992645727012
98.00112915387933
82.58512677920001
80.09783585302615
80.00614525591597
97.64510324353165
81.81713829218602
80.04871388368561
80.0017330340914
96.04614489859391
81.2041172231682
80.01165540939758
80.00023642753771
94.88499971896044
80.49083560893712
80.00120999792489
80.00009256968374
93.67418807119799
80.36003455580084
80.00085494995105
80.00000492962684
91.10745537993631
80.21739626648909
80.0001055216462
80.00000000208726
88.08354681415283
80.13264330196571
80.0000307753069
79.9999999501343
80.00000000001673
80.00000011857949
80.01117553962705
81.75624996657058
80.00000000015829
80.00000035001446
80.01460964036538
82.60442386968282
80.00000000081829
80.00000137898945
80.02751804187378
83.63112366702809
80.00000001015029
80.00000629029884
80.0578668872047
85.17801530590339
83.3072198715398
84.81675866467469
87.2831222295154
92.33356742387046
84.81675866469151
86.80851373378781
90.58006699042438
98.16900287408131
87.28312222919249
90.58006699033052
96.82357135048439
106.2845360463208
92.33356742383475
98.16900287359061
106.2845360464007
116.6846752035806
127.5763617957189
118.5504570968067
114.5840660761209
106.3367461456261
125.82653117755
123.1821848897459
123.1397414648963
119.0310666300701
125.9712205646614
125.1275821894371
124.6678709138545
123.2182308633682
123.4295519372307
123.013482369249
122.9212677672702
122.0491974247895
119.363403811887
117.7165269972751
114.1506596779652
109.3942432314997
119.6380230834391
117.8750837303143
114.2961718985423
109.8423547095148
119.9752459311574
118.0670916243285
114.2919770492996
110.2719984544081
120.1543438208008
117.9369381046921
114.4114787874291
108.5276273314225
82.9181537658841
72.05592862681274
70.85340581730949
71.22958793908199
75.88977106759735
69.17472023592839
69.92662332942696
70.63398797687267
70.04762059933542
69.03375493046589
70.49996440399151
71.18499682973022
60.75906052442629
66.7387119302242
69.52337901503698
70.45887241456442
71.3024969724697
71.72378950138807
72.50322035991482
73.45986870799265
70.85093550985603
71.31654792946819
72.15467610352709
73.30930127954771
71.29027934964621
71.60750405589792
72.31338980646584
73.25761156580269
70.68029955507372
71.09008792502712
71.97706234368323
73.29047002799307
77.54977302326799
110.0757189944136
159.9485545036349
180.8349699518238
79.54915558205388
117.6297919885777
158.8666914882821
171.9463478354566
81.35440607921399
121.3530799275422
157.6997539035054
170.4040485806234
82.42192026470525
126.7007331661989
158.7869033426621
169.8647009457254
218.6759368185391
211.12016171321
204.7396104418232
193.6312669824061
219.8966537281096
213.9916335455615
206.1457793912614
195.3419429597607
218.971839817566
215.5856236582304
206.6498305078892
196.3961497077217
213.7090792794164
217.5023867834866
208.3571565833105
197.7831242759465
181.6402463846876
169.5107423304922
159.3603081957952
153.1554558831016
183.7421450995603
172.2031629051932
160.4315136187611
153.5200603639511
185.3513359979647
174.3782293681989
161.3971378934399
153.665779250269
187.3570197083289
176.4587460839987
163.6952880887442
155.0469230076751
148.0418511605388
140.1816201741469
126.7398159740973
105.8803746009126
148.5902382722504
141.6284205774639
128.8494909639332
114.4430378310939
148.5262932173225
141.9683816482124
130.3315568919439
119.7483186877828
149.6637431340737
144.2342753487725
133.5882728939785
134.5202249822881
64.73217060657599
16.68272956626792
2.770600382939388
1.259419686802169
50.05341191743949
10.50922379408595
2.335956999463555
1.551530751869039
34.804497771971
6.710861003411147
2.106823086668316
1.753615207081886
19.57329936623173
3.212974035677777
1.869289634551033
1.971762840806432
2.049890372454638
4.800478909489739
7.230810323843556
11.06989375354606
2.977139549706734
5.576677570838747
8.174746867045195
12.23276051941217
3.481710329872067
5.860318735887405
8.884640903734089
12.81729847700653
4.00575852163383
6.483874004819457
10.22627330592369
13.86242334050931
12.86942144103101
19.41174046088473
26.29046895601746
35.06060349308212
12.44388492357969
18.32183480767837
24.90509423192319
33.41975843417686
12.64582802038347
16.6968770534694
23.00204641132627
32.46289676762787
11.95594115769424
14.85068006617839
19.27427578054355
31.39365494306465
35.83873919611366
33.85132312111426
32.97241688790299
32.97100324699044
32.16097547189382
31.87570132392432
32.26329168435638
32.30446235909482
30.7121776219282
32.69382953201274
33.17397673561486
33.25486606652559
28.18406887895382
31.29205150887839
31.74511521117116
32.75416409616954
33.45122652925246
34.04163537362244
34.47419464266377
34.67978737143983
33.22869122304583
33.34844062993263
33.44334962498942
33.69757184691192
32.87100767396753
33.49427549085877
34.1067883758349
34.51772604163648
34.29996043474411
35.3965120131838
36.31470709931781
36.75905975033996
34.67978737144682
33.69757184691624
34.51772604164542
36.7590597503467
34.47419464267965
33.44334962500419
34.10678837585593
36.31470709933859
34.04163537364634
33.34844062995568
33.49427549089084
35.39651201322006
33.45122652928099
33.22869122307211
32.87100767400441
34.29996043479584
32.97100324705166
32.9724168879447
33.85132312117089
35.83873919613562
32.30446235913843
32.26329168440867
31.87570132398235
32.16097547194011
33.25486606656011
33.17397673565483
32.69382953206434
30.71217762198394
32.7541640962033
31.74511521120977
31.2920515089264
28.18406887900555
31.3936549431354
19.27427578063352
14.85068006626804
11.95594115778363
32.46289676768897
23.00204641141451
16.69687705356405
12.64582802047239
33.41975843423825
24.90509423201898
18.32183480777408
12.44388492368754
35.06060349312798
26.29046895611136
19.41174046098195
12.86942144115581
11.06989375360694
7.230810323880706
4.800478909458056
2.049890372446333
12.23276051947509
8.174746867091379
5.576677570833946
2.977139549702691
12.81729847707312
8.884640903790002
5.860318735898224
3.481710329865998
13.86242334057789
10.22627330598911
6.483874004846871
4.005758521633176
1.259419686818596
2.770600382896764
16.68272956617587
64.7321706066385
1.551530751872275
2.335956999448783
10.50922379405464
50.05341191742889
1.753615207079123
2.106823086651811
6.710861003400923
34.80449777195857
1.971762840799168
1.869289634538509
3.212974035673859
19.57329936623504
105.8803746009593
126.7398159739556
140.1816201739604
148.0418511602535
114.4430378311266
128.8494909637371
141.6284205772441
148.5902382720122
119.74831868778
130.3315568917927
141.9683816479755
148.5262932171248
134.520224982245
133.5882728938008
144.2342753485492
149.6637431339161
153.1554558830028
159.3603081957874
169.5107423306309
181.6402463843175
153.5200603638706
160.4315136187613
172.2031629055539
183.7421450992341
153.6657792502061
161.3971378934282
174.3782293682935
185.3513359974587
155.0469230076116
163.695288088513
176.4587460827436
187.357019707807
193.6312669817881
204.7396104413741
211.1201617129151
218.6759368184928
195.3419429592277
206.1457793908809
213.9916335452891
219.8966537280451
196.3961497071909
206.6498305075779
215.5856236580102
218.9718398174911
197.7831242754864
208.3571565830949
217.5023867833
213.7090792793184
180.83496995178
159.9485545033412
110.0757189944431
77.54977302354386
171.9463478353573
158.8666914880722
117.6297919885967
79.54915558234549
170.4040485804887
157.6997539033375
121.3530799275219
81.35440607951888
169.8647009455499
158.7869033425047
126.700733166168
82.42192026501367
73.45986870820801
72.50322035978688
71.72378950087484
71.30249697222504
73.30930127979602
72.1546761033416
71.31654792893079
70.85093550963282
73.2576115660668
72.31338980620203
71.60750405536817
71.29027934942638
73.29047002824437
71.97706234345203
71.09008792445778
70.68029955484857
71.22958793861029
70.85340581700477
72.05592862692602
82.91815376603147
70.6339879763927
69.92662332905401
69.17472023614073
75.88977106769154
71.18499682926821
70.49996440359523
69.03375493072987
70.04762059939249
70.45887241411577
69.52337901454236
66.73871193046823
60.75906052450951
109.3942432315033
114.1506596779948
117.716526997621
119.363403811945
109.8423547094908
114.2961718986462
117.875083730658
119.6380230834772
110.271998454403
114.2919770494918
118.0670916246777
119.9752459311811
108.5276273313176
114.411478787602
117.9369381050728
120.1543438207987
122.0491974242688
123.218230862533
119.0310666292218
106.3367461455401
122.9212677667406
124.6678709129599
123.1397414636504
114.5840660758616
123.0134823686961
125.1275821885263
123.1821848883116
118.5504570957443
123.4295519366562
125.9712205637754
125.8265311758992
127.5763617932543
55.13303190723973
71.57471287317431
77.80492741260041
79.80855407465245
52.50357571150434
70.18844024273498
77.20776553635743
79.72807479803527
49.79084058879665
68.59083126400849
76.62530378281204
79.62791576499413
47.00824063113178
66.4250189311242
75.90049903040295
79.5236716757225
79.43474654630396
74.1850151383412
59.63642788324394
51.67667380425379
79.42039055293506
74.33522894753587
60.7190564355446
50.20145148258858
79.41118872672098
74.67337168313404
62.43976054888147
47.85654917747471
79.4417117409975
75.24561823098996
64.41733914122628
46.59794057534646
79.52367167558553
79.62791576482208
79.72807479799209
79.80855407441138
75.90049903021063
76.62530378270617
77.20776553616048
77.80492741258371
66.42501893110941
68.59083126404002
70.18844024284414
71.57471287329972
47.00824063110772
49.79084058875421
52.50357571149676
55.13303190723705
)
;

boundaryField
{
    back
    {
        type            empty;
    }
    inlet
    {
        type            zeroGradient;
    }
    front
    {
        type            empty;
    }
    top
    {
        type            zeroGradient;
    }
    outlet
    {
        type            fixedValue;
        value           uniform 80;
    }
    bottom
    {
        type            zeroGradient;
    }
    wall
    {
        type            zeroGradient;
    }
}


// ************************************************************************* //
