/*--------------------------------*- C++ -*----------------------------------*\
  =========                 |
  \\      /  F ield         | OpenFOAM: The Open Source CFD Toolbox
   \\    /   O peration     | Website:  https://openfoam.org
    \\  /    A nd           | Version:  11
     \\/     M anipulation  |
\*---------------------------------------------------------------------------*/
FoamFile
{
    format      ascii;
    class       volScalarField;
    location    "0.174";
    object      T;
}
// * * * * * * * * * * * * * * * * * * * * * * * * * * * * * * * * * * * * * //

dimensions      [0 0 0 1 0 0 0];

internalField   nonuniform List<scalar> 
880
(
300
300
300.0000000152467
300.001400933394
300
300
300.0000000722994
300.0050415101474
300
299.9999999999999
300.0000004956195
300.0215703930915
300.0000000000001
299.9999999994821
300.0000063032211
300.0734659710477
300
300
299.9999999989136
299.9999999980966
300.0000000838606
299.9999991561598
300.0000104053602
299.9999458004182
299.9999449966058
300.0003429753422
300.0620203253887
299.9134010567573
301.9779528590869
306.4741453242082
310.2520571179372
311.8119659408301
300.0000101673458
300.0001858370604
300.0002511050732
300.0002785761303
300.0004861648954
300.0011537815067
300.0041375855075
300.004282415436
300.1767834053388
300.3611379410066
300.6165425084291
300.822176275796
313.7167895363248
315.6697597350569
317.515157458354
319.7748665494855
318.8863283594002
315.8334983440172
313.0725741236415
311.4673483473954
301.4843651189695
302.9112604938229
303.6315175080115
303.7109807416108
300.013422345865
300.0491219063488
300.1025597138575
300.1431365815546
300.0008465532228
300.0027416865074
300.0072949414251
300.0109457915834
300.0113315627842
300.0097817715166
300.0068967967331
300.0036795199073
300.1595358184043
300.1474652807515
300.1247701622606
300.0943107877245
303.5389929850313
303.0547803157888
302.490750742598
301.920546236121
310.4034397659162
309.3679642666324
307.7946769914427
306.164599691887
304.7393163908749
301.3721769068497
300.0583065207187
300.0013056393615
303.6108778636453
300.8690653242314
300.0256309494873
300.0002387673969
302.0847205096296
300.3503414799042
300.0054699011814
299.999960234136
306.7080285518514
300.138537389095
300.0008177541958
300.0000995884563
299.9999334605104
300.0000816811184
300.3041452566593
333.3425107497725
300.0001260387293
300.0059958822494
301.4603238224737
354.5001413021782
300.0007142126676
300.0162254003318
303.2977749389343
365.1929567722128
300.0026801819785
300.0539871257316
306.0008695159227
373.9600628557108
380.9391807777749
309.5853829698062
300.1078385582695
300.0057529507124
387.8268927089737
314.0424294251601
300.2250093965042
300.0133329166956
394.4415468895937
319.7232452010367
300.4083059349842
300.0207154191385
401.0391454174215
326.1354398109929
300.677970099461
300.0374802057623
300.0538981846494
301.0599571484901
333.2763885573113
405.082493436814
300.088217967677
301.7097986105076
339.0226352983333
404.3186422692348
300.2297431053548
301.9404783208844
334.614147900819
390.637829750217
299.9499960609027
301.2678668277783
324.0684047829922
366.7353630351419
300.2094280526073
302.2908027502037
320.3118058334426
342.9509645344386
300.2611794714761
302.2797494063364
311.2879328731549
320.3650895153959
300.124885494693
301.5557785586274
308.0904722233598
309.9077056901929
300.0218662482029
301.0550729022881
309.0240544257794
320.0020665612525
328.7095806531926
307.4478107003465
300.2692754189077
299.9919248881258
324.8207726821942
304.5003259536417
299.8436982297783
299.9760085043814
319.8941886475735
301.5285752844281
299.6289490845167
299.9734231931774
312.5840225185883
298.9540177505915
299.5346719608314
299.9863409997313
302.4043388277213
297.9335214334533
299.7011110498345
299.9963225307281
287.5412047809695
297.7419016358567
299.9026396873182
299.999277835727
277.2943131871012
297.8223142864547
299.956127583781
299.9997576995468
276.4585593272328
298.8763958090686
299.9927746958563
299.9999092808524
302.4782277573929
299.135974958536
299.8557764024993
299.997202092401
300.5322030313318
299.0928085480914
299.8580965069367
299.9971813422933
297.8357214915694
298.9758425120066
299.8785956107768
299.9974036287943
296.3880209162061
299.0098514738977
299.8846271357339
299.9971627729065
276.4585593267126
298.8763958084097
299.9927746941405
299.9999092842914
277.2943131868848
297.8223142868059
299.9561275804727
299.9997576982803
287.5412047802839
297.7419016371481
299.9026396879179
299.9992778367128
302.4043388275036
297.9335214354413
299.7011110500014
299.9963225295348
299.9919248887552
300.2692754201915
307.4478107001019
328.7095806549841
299.9760085054009
299.8436982303585
304.5003259542438
324.8207726835832
299.9734231917639
299.628949086641
301.5285752834397
319.8941886480736
299.986341000119
299.5346719619697
298.9540177531639
312.5840225179925
320.0020665560609
309.0240544239499
301.0550729000806
300.0218662471337
309.907705689212
308.0904722218178
301.5557785576444
300.1248854908055
320.3650895157667
311.2879328717619
302.2797494065852
300.2611794716453
342.9509645346624
320.3118058329962
302.2908027484083
300.2094280597289
300.0538981838039
301.0599571511004
333.2763885581166
405.0824934378618
300.0882179676789
301.7097986140129
339.0226352991925
404.3186422692664
300.2297430966506
301.940478320982
334.6141479007234
390.6378297504363
299.9499960740887
301.2678668284531
324.0684047830043
366.735363035245
401.0391454190432
326.1354398114008
300.6779701005929
300.0374802062622
394.4415468919756
319.7232452062976
300.408305940792
300.0207154192287
387.8268927086802
314.0424294233681
300.2250093961935
300.0133329156204
380.9391807786192
309.5853829682217
300.1078385540006
300.0057529494714
299.9999334629864
300.0000816814504
300.3041452566537
333.3425107483769
300.0001260388996
300.0059958846709
301.4603238235778
354.5001413014633
300.000714211595
300.0162253941219
303.2977749396877
365.1929567732248
300.0026801801214
300.053987133131
306.0008695164667
373.9600628559522
300.0000995865105
299.9999602355344
300.0002387666539
300.0013056381478
300.0008177517324
300.0054699029945
300.0256309508287
300.0583065193533
300.1385373896349
300.3503414803657
300.8690653230429
301.3721769071991
306.7080285517921
302.0847205098079
303.6108778633828
304.7393163911323
300.0036795174524
300.0943107879274
301.9205462377587
306.1645996925553
300.0068967968273
300.1247701620583
302.4907507444836
307.7946769915542
300.0097817729527
300.147465281108
303.0547803150538
309.367964266035
300.0113315627472
300.1595358186948
303.5389929859026
310.4034397655267
300.000846549766
300.0134223441872
301.4843651202468
318.8863283594523
300.0027416837943
300.049121905919
302.9112604954271
315.8334983432118
300.0072949395689
300.1025597155612
303.6315175089124
313.0725741233986
300.0109457901033
300.1431365829692
303.7109807416101
311.4673483467924
319.7748665501906
300.8221762788917
300.0042824144803
300.0002785647503
317.5151574586318
300.6165425109405
300.0041375844421
300.0002511078515
315.6697597360804
300.36113794157
300.0011537815516
300.0001858460931
313.7167895340178
300.1767833994626
300.0004861647307
300.0000101683893
311.8119659397207
299.9134010553673
299.99994580097
299.999999999147
310.2520571166568
300.0620203228622
300.0000104057425
299.9999999987731
306.4741453242261
300.0003429746934
299.9999991563958
300
301.9779528601018
299.9999449957984
300.0000000839461
299.9999999999999
300
299.9999999999999
300.0000000160617
300.001400937004
300.0000000000002
300
300.0000000726437
300.0050415124105
300
299.9999999999998
300.00000049572
300.0215703976444
300
299.999999999464
300.0000063014661
300.073465968148
300.0038943250532
300.0134229540332
300.0439385039665
300.4310915706205
300.0134229595092
300.0225091099622
300.0767486630555
301.4296409987963
300.0439385099717
300.076748662606
300.6111768131793
307.7160974593061
300.4310915479542
301.4296409407709
307.7160973356823
328.0724509069399
356.587008284094
338.1034242827557
325.0022419905517
312.6149289562092
353.5800391566065
348.3917597343774
343.5475391446108
334.7916851571758
351.2997455787763
349.3283294422993
347.1121370578844
343.3684701456328
350.5940232771186
349.4727361573677
348.5499882879919
346.4148258240447
347.5183290940248
347.1029302687061
347.0876496076647
348.2255402153653
348.4802915405493
347.0567599952507
346.4653434937962
347.5196786360815
348.7844209382536
347.0503760158709
346.0506320371238
346.5578887779861
349.0782475292822
347.0739889208743
346.048055305368
341.5129905924797
330.4594920016544
310.5694845046369
300.9733953450635
301.2846871807319
321.5546049226149
303.3029425637098
299.1878541108038
301.6156301164197
311.0278958773223
298.1048109297987
299.9541480663596
302.9324126047537
288.1351597531413
291.3636538126515
299.0043369995179
302.7183148434873
302.4618739673416
303.2395049067442
303.1854638100967
302.7615826015564
303.7833899460844
304.0363494824672
303.8762242728716
303.3006462707397
305.2080338992727
305.0718691104293
304.717662318192
304.0203387236844
304.761897254798
304.8429502743786
304.7396134438365
304.1493343657272
302.3431419304787
301.9986966310696
302.8548963404511
345.0513812099956
302.5737419905878
302.0910466619724
303.8956755686741
362.3250673794499
302.9494167991371
302.3075294423588
305.4790237432801
372.4259220057323
303.000526153791
302.2272252049296
309.0038474135191
380.1379534318708
419.9879909893389
427.9759934191812
427.181916014335
426.8809196598681
431.1872014472547
431.7935705542275
429.0560679037326
426.8925895117533
432.0981686311852
431.2876905842963
429.7897411111844
427.1501737486346
437.6155594956239
433.7244686300733
431.1847756377974
427.5419065227366
425.6852782476932
424.4937866912041
424.5107834888091
425.6213005110837
424.4847328407577
422.6159063667156
422.0000620556648
422.5747983247174
423.4875399481156
420.5305168627546
418.8773827544015
419.1163721366089
424.0117450062481
420.1820361501829
417.5283833994545
417.454846261052
426.5711015221065
423.249927805917
410.976529343263
393.048688749027
423.1771800976206
420.4013160905464
409.7319337149523
410.8163266810964
419.2346697979864
417.1547348079876
413.0008850609369
426.7815897594264
417.2242685616414
416.386986110029
419.1144576499424
409.1623521279438
358.4306984817814
300.1919013166662
204.829085608354
184.1355168409627
351.3629598185775
266.8601260716945
174.7289215295496
142.8174136333382
316.6906328437737
212.4797435590404
148.3801711846894
133.0589659935184
241.5040157234218
138.9433883918666
143.5428332174313
132.0105508688461
205.1649597089556
234.1668096706879
255.7230214300465
258.9214092050187
159.5562523428129
197.0186937753592
231.0915219375423
249.4954418337033
143.8957041569733
175.4361773896069
214.4591486572487
247.4705259505347
141.2341110727129
170.4385923739352
213.8571036804881
251.8456235735624
288.7223796195739
270.0603359741748
252.6185808694028
246.6587406234617
289.719576705474
276.541652768514
257.4383842355301
253.7481428671177
281.4336010267867
281.6439681272776
269.2343618621063
269.4692179183668
269.886548286704
282.9324488514772
278.1250073017815
287.1472206971917
226.3033906358233
210.4017544565856
212.1130987211605
213.6030816098609
234.840774477642
230.065267409828
227.1900248305343
207.1757354596844
240.6848558778039
235.2485324543075
219.208800963939
195.0597393106289
228.2326455958929
227.0988507228873
209.6801288130494
185.8284917829298
174.1631649407005
172.516280019366
173.2380801973163
172.5347716386752
178.4316047070605
174.4513929186361
175.891754212772
176.8043232781745
195.4948430763979
198.9678465255154
201.8684875435401
202.0667118181737
228.1212576405371
234.3704664653293
233.9972882793263
233.747468371014
172.5347716387426
176.8043232781665
202.0667118180228
233.7474683709214
173.2380801974814
175.8917542127112
201.8684875435813
233.9972882794106
172.5162800195022
174.4513929187701
198.9678465256368
234.3704664650564
174.1631649408406
178.4316047072879
195.4948430765639
228.12125763999
213.6030816094735
212.1130987206656
210.4017544559314
226.3033906346771
207.175735459632
227.1900248304891
230.0652674098592
234.840774476787
195.0597393107217
219.2088009639308
235.2485324541686
240.6848558773704
185.8284917829774
209.6801288129921
227.0988507229328
228.2326455957203
287.1472206967134
278.125007300825
282.9324488495827
269.8865482851969
269.4692179177723
269.2343618613332
281.6439681255633
281.4336010253761
253.7481428664845
257.4383842347859
276.5416527671005
289.7195767048195
246.6587406228323
252.618580868844
270.060335972812
288.7223796193483
258.9214092044265
255.7230214306682
234.1668096720891
205.1649597091149
249.4954418323852
231.0915219376502
197.018693776605
159.5562523430654
247.4705259489566
214.4591486565583
175.4361773901643
143.8957041571685
251.8456235717028
213.8571036794028
170.4385923739225
141.2341110729081
184.1355168388929
204.8290856071805
300.1919013166175
358.4306984818047
142.8174136329494
174.7289215282796
266.8601260711954
351.3629598179411
133.0589659932335
148.3801711833428
212.4797435586854
316.6906328438663
132.0105508688738
143.5428332159403
138.9433883908081
241.5040157233651
393.0486887489672
410.9765293434005
423.2499278057532
426.5711015228464
410.8163266811414
409.7319337153662
420.401316090972
423.177180098692
426.7815897596753
413.0008850614691
417.1547348090828
419.2346697995061
409.1623521282449
419.1144576510208
416.3869861113462
417.2242685632938
425.6213005127418
424.510783488886
424.4937866910843
425.6852782478992
422.5747983264281
422.000062055919
422.615906366524
424.4847328407894
419.1163721381551
418.877382754929
420.5305168625141
423.4875399482903
417.4548462626375
417.5283834000543
420.1820361499986
424.0117450064616
426.8809196605715
427.1819160150146
427.9759934189079
419.9879909888813
426.8925895127547
429.0560679043238
431.7935705540178
431.1872014475348
427.1501737496986
429.7897411116189
431.287690584091
432.0981686321857
427.5419065237235
431.1847756383258
433.724468629842
437.6155594965944
345.0513812087587
302.8548963400834
301.9986966311258
302.3431419311688
362.325067378621
303.8956755679229
302.0910466622495
302.5737419913853
372.4259220044256
305.4790237421373
302.3075294430951
302.9494168000548
380.1379534307886
309.0038474112181
302.2272252058146
303.0005261548974
302.7615826018759
303.1854638102421
303.2395049062424
302.4618739667329
303.3006462710574
303.876224273021
304.0363494820139
303.7833899454224
304.0203387241372
304.7176623182376
305.0718691100022
305.2080338985763
304.1493343663888
304.7396134439471
304.8429502739011
304.7618972542822
301.2846871799239
300.9733953445927
310.5694845044623
330.4594920027018
301.6156301152249
299.1878541102149
303.3029425633845
321.5546049237489
302.932412603321
299.9541480659032
298.1048109293231
311.0278958781398
302.7183148418196
299.0043369987693
291.3636538120667
288.1351597536198
348.2255402163885
347.0876496076172
347.1029302696581
347.5183290920907
347.5196786367969
346.4653434933376
347.0567599958937
348.480291538382
346.5578887781464
346.0506320366029
347.050376016279
348.7844209367822
341.5129905929813
346.0480553048124
347.0739889208669
349.0782475281192
346.4148258223806
343.368470139565
334.7916851451331
312.6149289691908
348.5499882863907
347.1121370529352
343.5475391336948
325.0022419801671
349.4727361571032
349.3283294409098
348.3917597344401
338.1034242786758
350.5940232786213
351.2997455814045
353.5800391661923
356.5870082874126
273.3517821769977
298.1978614993333
299.956268873149
299.9996879941979
272.0385582622853
298.0250354929656
299.9510045816972
299.9995685272672
278.2765905972457
298.3415665320906
299.9490184983401
299.9994226560686
289.8195272648587
298.8007923484702
299.9252132270665
299.9985884428611
299.9972020932474
299.8557764037143
299.1359749578696
302.4782277585684
299.9971813434716
299.8580965083471
299.092808546684
300.5322030314536
299.9974036260789
299.8785956125055
298.9758425108836
297.8357214898787
299.9971627679227
299.8846271376563
299.0098514705361
296.3880209145005
299.998588440062
299.9994226516227
299.9995685194824
299.9996879882828
299.9252132284911
299.9490184989414
299.9510045816317
299.9562688712833
298.8007923482585
298.34156652946
298.0250354936589
298.1978614983893
289.8195272631343
278.2765905961745
272.0385582621094
273.3517821766554
)
;

boundaryField
{
    back
    {
        type            empty;
    }
    inlet
    {
        type            zeroGradient;
    }
    front
    {
        type            empty;
    }
    top
    {
        type            zeroGradient;
    }
    outlet
    {
        type            fixedValue;
        value           uniform 300;
    }
    bottom
    {
        type            zeroGradient;
    }
    wall
    {
        type            zeroGradient;
    }
}


// ************************************************************************* //
