/*--------------------------------*- C++ -*----------------------------------*\
  =========                 |
  \\      /  F ield         | OpenFOAM: The Open Source CFD Toolbox
   \\    /   O peration     | Website:  https://openfoam.org
    \\  /    A nd           | Version:  11
     \\/     M anipulation  |
\*---------------------------------------------------------------------------*/
FoamFile
{
    format      ascii;
    class       volScalarField;
    location    "17.7";
    object      p;
}
// * * * * * * * * * * * * * * * * * * * * * * * * * * * * * * * * * * * * * //

dimensions      [0 2 -2 0 0 0 0];

internalField   nonuniform List<scalar> 
4455
(
148.50979
148.63015
148.834
149.14478
149.55934
150.14625
150.83659
152.11477
152.5462
148.27916
148.42496
148.66413
149.00387
149.46042
150.08305
150.90415
152.19802
153.16119
147.99855
148.18376
148.46095
148.83344
149.31633
149.97812
150.838
152.24218
153.34566
147.67574
147.91151
148.22697
148.6304
149.13388
149.84187
150.76218
152.27322
153.62106
147.3233
147.61186
147.96553
148.39559
148.92233
149.67132
150.67712
152.29181
153.98638
146.95107
147.29117
147.68049
148.13202
148.68691
149.47826
150.55866
152.29703
154.31352
146.5675
146.95598
147.37666
147.84515
148.42333
149.25486
150.40386
152.28342
154.66102
146.1851
146.61107
147.05844
147.54078
148.13941
149.00681
150.21195
152.23705
154.96504
145.81182
146.26366
146.72955
147.22429
147.83869
148.74004
149.99947
152.16106
155.24805
145.45453
145.12132
144.81831
144.54968
144.31759
144.12304
143.96803
143.85438
143.78678
145.91888
145.58003
145.25606
144.95016
144.6672
144.41123
144.18508
143.99038
143.82571
146.39235
146.04871
145.70986
145.3803
145.06242
144.75978
144.47454
144.20972
143.96408
146.8911
146.54131
146.18921
145.83918
145.49304
145.15295
144.82027
144.49803
144.18164
147.51524
147.16484
146.80762
146.44459
146.07637
145.70774
145.34296
144.98943
144.63697
148.44549
148.10945
147.75456
147.38316
146.98909
146.58119
146.16249
145.74539
145.32087
149.76054
149.47707
149.16224
148.80679
148.39695
147.95399
147.48988
147.02494
146.55801
152.05824
151.82857
151.48773
151.05982
150.54758
149.98025
149.37669
148.748
148.08985
155.53927
155.48983
154.94766
154.11757
153.13893
152.07684
150.96579
149.84622
148.71711
143.77932
143.75481
143.7012
143.63175
143.5427
143.44097
143.31514
143.17466
143.00656
143.72526
143.63075
143.51551
143.37964
143.22224
143.04467
142.84575
142.6259
142.38308
143.80288
143.6754
143.53932
143.39026
143.22486
143.04163
142.83924
142.61735
142.37505
143.95265
143.78528
143.61984
143.44422
143.25123
143.03836
142.80419
142.54884
142.27204
144.36966
144.18534
144.01487
143.83698
143.63962
143.41968
143.17659
142.91182
142.62702
144.97075
144.73677
144.53184
144.31991
144.08525
143.82395
143.53587
143.2256
142.89949
146.16882
145.89707
145.65305
145.39235
145.10083
144.77939
144.43347
144.07052
143.701
147.48635
146.94491
146.39684
145.834
145.25461
144.66069
144.06284
143.47233
142.91582
147.71346
146.80865
145.90933
145.03695
144.19185
143.37416
142.59302
141.85728
141.20266
140.75619
140.33243
140.18786
140.39346
140.91744
141.63241
142.43817
143.2959
144.18811
142.44114
142.03203
141.68042
141.40238
141.20396
141.09054
141.06321
141.14502
141.29935
143.35119
143.02525
142.71062
142.41519
142.14387
141.9004
141.68615
141.50266
141.35064
142.57006
142.24623
141.9179
141.5873
141.25596
140.92578
140.59806
140.27483
139.9571
142.33193
142.0316
141.71894
141.39488
141.05916
140.71243
140.35415
139.98525
139.60528
141.97883
141.67054
141.34251
140.99555
140.6299
140.24572
139.84236
139.41982
138.97708
142.11513
141.83759
141.53882
141.2183
140.87533
140.50913
140.11851
139.70266
139.26009
142.11869
141.83078
141.51951
141.18468
140.82699
140.44345
140.03373
139.59405
139.12452
142.79537
142.54402
142.27982
142.00081
141.70497
141.38062
141.0266
140.63675
140.21183
139.74859
139.24817
138.70642
138.12453
137.49589
136.82153
136.09335
135.31277
134.46966
138.62205
138.08736
137.51709
136.91199
136.26749
135.58402
134.85557
134.08253
133.25743
138.79022
138.29118
137.76252
137.2016
136.60787
135.97745
135.30954
134.59882
133.84423
138.51437
138.03029
137.52519
136.99671
136.44506
135.86621
135.26001
134.6203
133.94645
139.21534
138.81454
138.40398
137.98125
137.54716
137.0967
136.63018
136.13981
135.6254
139.64668
139.34364
139.04913
138.76074
138.4792
138.19821
137.91744
137.62642
137.32436
141.23132
141.14189
141.08303
141.04967
141.04206
141.05101
141.07534
141.10291
141.13113
141.52602
141.81453
142.1628
142.56122
143.0061
143.4881
144.00336
144.5415
145.09735
145.1099
146.05407
147.02052
148.00741
149.0233
150.06685
151.14152
152.24488
153.37806
154.53406
145.65927
141.14516
136.99753
135.07648
133.23003
133.0389
132.38084
133.56563
155.71071
146.21963
141.14021
136.6448
134.4925
132.46992
132.18151
131.44351
132.58843
156.90406
146.75863
141.10512
136.24942
133.86041
131.65545
131.26361
130.44616
131.53977
158.10545
147.26639
141.03012
135.80842
133.17916
130.785
130.2836
129.37762
130.40568
159.2856
147.71475
140.89735
135.30112
132.43316
129.84585
129.2316
128.23873
129.18793
160.43442
148.0885
140.69197
134.7218
131.62056
128.83604
128.10553
127.0158
127.87271
161.44233
148.34508
140.39085
134.05422
130.72332
127.74166
126.8937
125.70737
126.46313
162.2761
148.46305
139.97285
133.28652
129.73688
126.56123
125.59137
124.31025
124.95364
162.68527
148.35358
139.397
132.39662
128.6391
125.28167
124.17585
122.82529
123.35867
121.69654
121.24342
122.64124
123.87743
127.37749
131.32763
138.5814
147.91658
162.60416
120.02646
119.55108
120.95946
122.32993
125.88408
129.96488
137.24888
146.50658
159.57063
118.12949
117.73885
119.13489
120.62965
124.17491
128.31856
135.49303
144.56776
156.89351
115.9805
115.7915
117.16998
118.78887
122.27787
126.45941
133.50885
142.47606
154.42894
113.56798
113.69972
115.06342
116.78423
120.2289
124.45235
131.38868
140.28717
151.93917
111.03417
111.46647
112.81871
114.66234
118.04427
122.3152
129.14819
137.97801
149.31864
108.3523
109.0945
110.43472
112.39948
115.72403
120.0321
126.76082
135.51099
146.6102
105.55712
106.5899
107.91052
110.00877
113.26893
117.59293
124.21694
132.88187
143.85494
102.57743
103.95465
105.23705
107.47904
110.66867
114.98841
121.50056
130.09521
141.06497
138.22383
127.15712
118.62394
112.22249
107.92662
104.82391
102.42393
101.19159
99.452901
135.31683
124.0681
115.58169
109.30479
105.03644
102.04071
99.466586
98.303418
96.141323
132.34387
120.81671
112.39425
106.24738
102.01736
99.144677
96.379673
95.293188
92.697769
129.29152
117.40535
109.05079
103.05752
98.870171
96.129235
93.158816
92.160938
89.085778
126.1385
113.81275
105.57529
99.743698
95.621596
93.006874
89.832298
88.911704
85.357356
122.85184
110.04916
101.95628
96.315677
92.274569
89.775675
86.39745
85.547653
81.475931
119.41972
106.09335
98.216222
92.793791
88.858146
86.461984
82.888312
82.085186
77.499247
115.79933
101.96408
94.36518
89.193149
85.3787
83.060956
79.299828
78.522449
73.400007
111.99165
97.655444
90.438829
85.536744
81.858346
79.604768
75.670871
74.877619
69.279232
65.225442
71.120421
71.953824
76.01251
78.224191
81.709108
86.245545
92.86531
107.53667
61.286107
67.238574
68.176472
72.305227
74.485677
77.72019
81.791473
87.424964
102.09602
57.098987
63.28165
64.370207
68.551204
70.758796
73.762349
77.357571
81.857595
96.068784
52.739958
59.273897
60.552868
64.795805
67.084171
69.8922
73.067785
76.395567
89.477873
48.315454
55.210332
56.711818
61.03235
63.475154
66.144888
68.970042
71.158845
82.168815
44.006724
51.106617
52.877619
57.303529
59.954149
62.551711
65.10987
66.425117
73.838799
39.753468
46.969856
49.037695
53.579185
56.528589
59.138265
61.528803
62.448056
64.029387
35.665396
42.834566
45.221689
49.897271
53.215311
55.932138
58.230171
59.605328
53.007719
31.034514
38.737794
41.413478
46.270601
50.035154
52.972827
55.147374
58.345977
42.385757
26.256443
34.723165
37.590717
42.666048
46.829411
50.212924
51.695831
57.174876
35.550258
22.158582
30.969897
33.852926
39.173115
43.825994
47.709651
47.980289
54.801651
30.078643
18.771442
27.298117
30.315044
35.838131
41.013357
45.445472
44.509931
51.02961
28.673887
15.55703
23.724511
26.939151
32.434124
38.253715
43.290925
41.489666
46.927813
40.170282
12.518356
20.1542
23.623146
28.934892
35.453054
41.058264
38.50158
41.654359
41.430438
9.653032
16.672367
20.382853
25.255681
32.588812
38.779014
35.40131
37.36195
32.862276
7.0971339
13.219885
17.239981
21.455057
29.655251
36.421731
32.512411
36.73366
32.572863
4.877944
9.8293533
14.211819
17.52446
26.643366
34.080117
30.25658
34.656291
30.944661
3.0783752
6.4685837
11.281914
13.56979
23.547506
31.692351
28.737761
30.53784
30.120582
29.784203
28.215335
28.36812
30.058557
20.575857
9.7526542
8.5293686
3.24326
1.7221404
29.793254
26.78719
28.214119
28.517017
17.691187
6.1156417
5.9158296
0.22681604
0.86150402
29.969272
26.27569
28.062008
26.865683
14.588034
2.3868239
3.359289
-2.5758114
0.46371371
30.360582
26.264435
27.709668
25.145212
11.306684
-1.3387352
0.83993562
-5.1022051
0.53624475
30.622106
26.268102
27.147147
23.479616
7.8651824
-5.0595228
-1.5479329
-7.2900815
0.97245933
30.705736
25.960951
26.318328
21.963807
4.3403449
-8.7149933
-3.8407203
-9.128034
1.8017085
30.571709
25.384387
25.23537
20.422951
0.65582681
-12.330331
-5.965031
-10.577486
3.038736
30.227819
24.694706
24.194349
18.889805
-3.1142099
-15.850799
-7.9729702
-11.630408
4.7320202
30.204613
24.008675
23.051397
17.087868
-7.2103441
-19.339201
-9.7798649
-12.192959
6.9613674
29.774823
23.519239
21.825935
13.836904
-13.989628
-24.76175
-12.432798
-12.17162
11.42787
29.47815
21.531767
18.918185
7.4070453
-26.308674
-31.493773
-14.232349
-9.4029723
19.412279
29.834889
19.756285
16.35812
-0.67697784
-38.739205
-36.508475
-14.200055
-3.952446
28.964726
30.001358
17.541326
13.426066
-10.337915
-50.929182
-39.221906
-11.673784
4.094492
39.228077
29.012963
15.238327
8.5799362
-20.653679
-62.167386
-39.296508
-6.8511624
14.274218
49.623842
27.229933
13.133355
3.689444
-31.945662
-72.581329
-36.692252
0.35101737
25.973804
59.158923
25.017685
10.087929
-2.8930359
-43.16582
-81.033851
-31.18237
9.2135569
38.18625
67.672522
22.993724
8.2258044
-8.5522025
-54.820865
-87.766954
-22.759981
19.699335
50.450282
74.625036
21.139289
3.8024484
-17.045329
-64.195557
-90.307718
-11.28636
30.312609
61.587291
79.963859
27.465076
-0.5081582
-82.042583
-97.57949
-87.260247
-23.29598
39.129513
70.809697
120.52085
27.244212
0.19588323
-72.736633
-90.251803
-95.42754
-34.504403
40.64111
73.942875
120.15256
27.085976
0.79224316
-63.124729
-84.801341
-102.82874
-46.667196
39.584917
73.754304
118.13274
26.552343
1.0122671
-53.59269
-83.089381
-109.99436
-55.16176
36.081653
71.051787
115.53346
26.333874
1.5631262
-44.597588
-83.333361
-116.92211
-62.503631
33.509933
67.820828
112.80055
25.823245
1.3348249
-37.501509
-84.15764
-123.76377
-67.355055
31.69295
63.91726
110.30322
25.405082
1.8076143
-30.953303
-85.395389
-128.52741
-70.713423
31.094701
60.661321
108.03758
24.978117
1.7110528
-26.594223
-86.933092
-130.83853
-74.877428
31.268803
57.374854
106.0504
24.492464
1.8615859
-22.737752
-89.359612
-133.92676
-81.100951
31.82849
55.617992
104.356
31.538813
-24.851809
-125.84821
-146.19884
-38.673001
10.806226
37.308342
66.27699
81.766086
37.078078
-12.450246
-111.03759
-147.83281
-53.337949
0.7325422
29.015092
56.248748
77.148767
41.916412
-0.20027023
-93.697431
-142.16455
-65.051423
-10.249669
20.28303
45.29239
71.096516
45.781143
11.364978
-77.218047
-132.42039
-73.657154
-20.518033
11.743625
34.136019
63.635063
48.901953
22.593899
-58.289167
-118.30512
-78.357887
-29.724334
3.4243541
22.946425
55.058
51.234255
33.167579
-40.325632
-102.39265
-79.182579
-36.819797
-3.9206038
12.36239
45.423547
52.644467
42.304201
-21.24114
-84.186411
-75.772607
-41.560178
-10.233363
2.7147814
35.408561
54.049291
49.819844
-5.0069414
-65.050149
-68.310934
-43.140637
-14.368302
-5.1376725
25.440722
55.505091
56.611027
13.535882
-42.715417
-56.653807
-41.6022
-16.334761
-10.774865
16.251989
-1.9835932
-4.7343544
-2.1808329
-7.0986885
-0.41383899
9.0330704
48.628303
68.615389
60.049442
-1.9964701
-7.3993204
-4.927026
-11.899763
-5.9080675
4.4455873
45.5473
68.305098
59.94346
-1.6251777
-9.6268453
-7.3866543
-16.565637
-11.663577
-0.17051915
42.705465
67.285026
59.616694
-0.76956971
-11.394663
-9.595364
-21.027061
-17.559137
-4.8036811
39.275382
65.688202
59.112779
0.55031055
-12.677652
-11.471184
-25.246016
-23.585705
-9.5949263
35.911163
64.549141
58.502341
2.3565709
-13.511096
-13.075664
-29.165298
-29.60566
-14.538948
32.828373
63.236733
57.896824
4.5536043
-13.863855
-14.337075
-32.717838
-35.586156
-20.166827
29.939351
62.138884
57.291095
7.1333106
-13.728034
-15.311883
-35.80513
-41.299996
-25.7751
26.148129
60.677797
56.358352
10.310445
-13.016397
-15.943092
-38.454568
-47.661337
-32.059234
21.679937
59.854415
55.697717
60.216089
69.135035
49.889324
13.602715
5.2821657
-1.861014
0.85783683
-1.6610723
-1.3827574
60.313482
70.335263
51.16913
19.330052
11.068335
3.690947
4.2540617
1.7446887
-0.20962548
62.747577
72.475458
52.668531
24.388043
16.511528
9.259776
7.8564186
5.3416001
1.5270802
62.265203
71.381974
54.347314
29.465459
21.687013
14.717122
11.692504
9.1356033
3.7805553
67.809478
73.453841
56.113615
34.280318
26.591349
19.995409
15.72988
13.086163
6.5090815
68.666119
76.844156
57.362283
38.820103
31.241048
24.981023
19.942949
17.24471
9.5804168
57.576528
78.504559
58.803526
42.932676
35.586646
29.711153
24.280108
21.508872
12.97977
57.775931
79.262536
61.048793
46.565475
39.801645
34.287047
28.826443
25.976411
16.704829
61.991332
78.331804
64.575753
50.943866
44.390759
39.115023
33.62482
30.617123
21.345753
68.570645
75.95138
77.372132
83.569548
87.696403
94.329662
101.24182
108.15468
121.06473
63.683101
71.30736
72.771479
79.153218
83.398296
90.174404
97.279784
103.55039
116.49968
58.595057
66.503603
68.029883
74.519534
78.956874
85.848156
93.252336
98.946734
111.49099
53.359989
61.569802
63.213356
69.716203
74.356304
81.372765
89.218205
94.363232
106.08478
48.034066
56.504352
58.307296
64.755638
69.62895
76.757386
85.225579
90.0327
100.11087
42.79663
51.332257
53.384926
59.683664
64.752708
71.995748
81.306422
86.011596
93.357655
37.575364
46.057659
48.446676
54.5269
59.764878
67.056028
77.364504
82.609261
85.356851
32.55426
40.794809
43.502839
49.35497
54.661447
61.896156
73.314752
79.970709
76.414912
26.93714
35.62956
38.55676
44.196937
49.552189
56.5351
69.127347
78.477125
67.264595
124.83813
112.18234
104.9174
98.157756
91.710079
87.70339
81.801408
80.381695
73.479724
128.0862
115.85702
108.34269
101.71842
95.499089
91.563307
86.022874
84.606205
78.350925
131.20116
119.37395
111.68712
105.14823
99.137346
95.276456
90.108386
88.666565
83.103869
134.16601
122.77407
114.93849
108.448
102.64349
98.812038
94.014073
92.54638
87.645606
137.03098
126.0154
118.09083
111.62008
106.00492
102.19936
97.764027
96.258473
91.999604
139.78681
129.13138
121.13106
114.6603
109.22377
105.41796
101.3257
99.783748
96.119263
142.47964
132.09629
124.05334
117.56916
112.28584
108.47932
104.7224
103.12921
100.04073
145.10119
134.94019
126.8477
120.34231
115.19223
111.37536
107.92557
106.29389
103.72408
147.67886
137.64569
129.51666
122.97665
117.93493
114.12469
110.95377
109.2885
107.20812
129.27577
128.99935
130.55512
132.12587
135.80273
140.00233
147.05443
156.03206
169.64728
127.71285
127.41121
128.99681
130.72202
134.47997
138.82512
145.90747
154.74699
166.85842
125.90756
125.69281
127.2883
129.16353
132.94368
137.37821
144.36706
153.03462
164.43328
123.8433
123.82956
125.4299
127.45267
131.22241
135.72982
142.61964
151.17885
162.2399
121.49594
121.80656
123.42036
125.59074
129.35656
133.94525
140.75282
149.24586
159.98746
119.00196
119.62529
121.2579
123.59012
127.35641
132.03723
138.77936
147.19847
157.62707
116.32592
117.28059
118.93657
121.44264
125.22181
129.99495
136.67709
145.02255
155.16758
113.50041
114.77762
116.45065
119.15388
122.94525
127.80904
134.43634
142.69114
152.7012
110.45072
112.11377
113.7898
116.71098
120.51862
125.47221
132.04675
140.23883
150.20731
130.8151
132.27525
133.64377
134.90657
136.07157
137.1364
138.11648
139.01032
139.83284
130.47161
131.83752
133.10543
134.27631
135.36124
136.36055
137.28845
138.14451
138.93991
131.95263
133.22034
134.38068
135.45196
136.43678
137.34719
138.1851
138.96087
139.67621
133.38105
134.51337
135.54599
136.49396
137.35862
138.15415
138.88218
139.55533
140.17501
136.89627
137.83602
138.66945
139.4176
140.08472
140.68853
141.23051
141.72564
142.17476
140.89528
141.62203
142.23391
142.75352
143.19229
143.56422
143.8746
144.14259
144.37096
147.71222
148.14966
148.43978
148.62218
148.71588
148.74286
148.7165
148.65323
148.56232
156.33843
156.36415
156.15998
155.83347
155.39189
154.88528
154.31984
153.72868
153.11744
169.66146
169.20779
168.36998
167.366
166.23312
165.06977
163.88829
162.71412
161.55139
140.58289
139.67446
140.33984
140.75163
142.59024
144.57495
148.45478
152.50711
160.41095
141.27303
140.35739
140.9533
141.28629
142.97257
144.75589
148.33592
151.90202
159.29119
141.90239
140.98874
141.52363
141.78708
143.33152
144.92615
148.21705
151.31605
158.19892
142.48128
141.576
142.05216
142.25475
143.66731
145.08655
148.10115
150.7527
157.13111
143.00906
142.11935
142.54432
142.6952
143.98708
145.24659
147.99849
150.22187
156.09329
143.49427
142.62486
143.00122
143.10883
144.29067
145.40668
147.91111
149.72676
155.08494
143.93647
143.09265
143.42683
143.49955
144.5826
145.57255
147.84723
149.27586
154.10936
144.34234
143.52732
143.82204
143.86748
144.86229
145.74371
147.80803
148.87234
153.15772
144.71152
143.92883
144.18965
144.21502
145.13195
145.9218
147.79741
148.52534
152.23143
146.8146
146.37875
146.46487
146.5215
147.07562
147.64124
148.84564
148.63643
147.75749
146.64993
146.18997
146.28962
146.32994
146.90104
147.4509
148.65406
148.34061
147.3924
146.47495
145.98308
146.09724
146.12355
146.71708
147.25924
148.474
148.10634
147.29939
146.28845
145.75746
145.88695
145.90209
146.52339
147.0666
148.3089
147.94007
147.53995
146.08923
145.5129
145.65779
145.66475
146.31898
146.87312
148.16174
147.84356
148.07474
145.86877
145.24664
145.40884
145.41092
146.10368
146.67932
148.03684
147.82113
148.79631
145.62461
144.95766
145.13876
145.13954
145.87695
146.48579
147.93606
147.87479
149.5977
145.3512
144.64247
144.84652
144.85031
145.63937
146.29422
147.86196
148.02412
150.44552
145.04792
144.30056
144.53046
144.54214
145.39075
146.10548
147.81514
148.23832
151.32566
148.14076
149.00578
149.05768
147.83671
147.24526
146.70143
146.62581
146.54998
146.9469
148.69886
149.4475
149.27986
148.02567
147.40353
146.86705
146.77244
146.70492
147.05057
149.31842
149.91796
149.49263
148.19978
147.54441
147.01534
146.90351
146.84321
147.13553
149.97623
150.3871
149.68433
148.35295
147.66603
147.14617
147.01982
146.96666
147.21112
150.67175
150.83954
149.84636
148.48002
147.7667
147.25944
147.12187
147.07552
147.27106
151.38834
151.26424
149.97352
148.58032
147.84704
147.35664
147.21104
147.17076
147.32325
152.12247
151.6562
150.06459
148.65754
147.91087
147.44125
147.28976
147.25185
147.36365
152.86574
152.021
150.13507
148.72814
147.97332
147.52214
147.3624
147.31948
147.39558
153.60761
152.38975
150.24307
148.83147
148.0614
147.61342
147.43444
147.37417
147.41055
154.44052
152.8208
150.48063
149.04403
148.23101
147.75868
147.53481
147.43209
147.41209
155.38527
153.27916
150.77782
149.3072
148.44756
147.95391
147.68708
147.52714
147.44828
156.30447
153.69453
151.06385
149.56511
148.66508
148.1483
147.84525
147.63766
147.5118
157.18337
154.0662
151.32579
149.81347
148.88263
148.3451
148.00948
147.76333
147.59879
157.99684
154.37488
151.5413
150.04052
149.0911
148.53918
148.1771
147.90168
147.70654
158.66667
154.59584
151.70327
150.24268
149.28635
148.72676
148.34518
148.04935
147.83181
158.99973
154.68882
151.79375
150.41055
149.46289
148.90402
148.51045
148.2024
147.97186
158.70326
154.65309
151.843
150.54805
149.6234
149.06903
148.66894
148.35635
148.12257
157.74125
154.4834
151.86345
150.65344
149.76659
149.21846
148.8161
148.50671
148.27848
148.69338
148.79084
148.97395
149.27134
149.68279
150.25888
150.92577
152.17597
152.63116
148.82749
148.90573
149.0881
149.39551
149.83562
150.43497
151.22015
152.47024
153.37516
148.90081
148.97574
149.16801
149.49048
149.94327
150.56672
151.3774
152.71153
153.65503
148.91551
149.00472
149.21396
149.55004
150.01488
150.66799
151.52597
152.96056
154.10259
148.88197
148.9962
149.22364
149.57287
150.05341
150.73802
151.65663
153.22828
154.59712
148.81008
148.95101
149.19682
149.56028
150.05932
150.78249
151.76079
153.49847
155.10827
148.70653
148.8737
149.13744
149.51558
150.02999
150.79154
151.83237
153.76243
155.65184
148.5779
148.77051
149.05175
149.44217
149.97007
150.76991
151.86406
154.00754
156.23268
148.43261
148.64653
148.94411
149.34261
149.88143
150.72246
151.8693
154.2333
156.86152
155.38034
156.09426
156.82732
157.6903
158.69444
159.83544
161.1376
162.60421
164.21759
156.01745
156.68681
157.45086
158.3468
159.37657
160.53594
161.83588
163.31051
164.92919
156.66706
157.36492
158.15999
159.07645
160.11389
161.27836
162.57347
164.05205
165.72681
157.42054
158.13851
158.9507
159.87053
160.90333
162.05616
163.35096
164.85993
166.59675
158.26051
158.98839
159.79404
160.69422
161.70321
162.84805
164.13471
165.69003
167.5395
159.11386
159.83466
160.62569
161.51347
162.50408
163.64041
164.93118
166.4974
168.33623
159.94482
160.63605
161.3945
162.2556
163.22998
164.35599
165.66224
167.29103
169.12188
160.68168
161.34487
162.08792
162.92308
163.86284
164.96087
166.22539
167.84262
169.17334
161.20429
161.83039
162.5502
163.3655
164.25959
165.29145
166.46281
168.21219
169.5975
166.3319
166.77955
165.89674
165.30907
164.44416
163.66923
162.90266
162.16849
161.5052
160.27182
161.47766
161.33492
161.83879
161.64698
161.56516
161.29273
160.95987
160.47779
157.65785
158.21889
158.19506
158.59202
158.61218
158.75093
158.71715
158.7048
158.50564
155.69178
156.05667
155.9404
156.22901
156.1516
156.30998
156.26407
156.33427
156.2393
154.12037
154.3368
154.26419
154.42568
154.35613
154.43883
154.39174
154.43477
154.38
152.62582
152.7774
152.68241
152.83952
152.72662
152.82646
152.73796
152.78241
152.69331
151.26983
151.33034
151.2662
151.33283
151.26075
151.29419
151.23238
151.24859
151.17121
149.92377
149.93552
149.8404
149.89677
149.78569
149.82885
149.73438
149.75552
149.65521
148.62675
148.5659
148.49004
148.45407
148.36705
148.33378
148.25492
148.2418
148.14049
146.71034
145.31762
143.78938
142.03522
140.01762
137.46021
134.39179
130.79602
127.92864
146.82553
145.4167
143.86507
142.08051
139.97538
137.38851
134.18685
130.62916
127.12852
146.81313
145.4078
143.81784
142.01885
139.83114
137.20345
133.90265
130.19346
126.14992
146.91981
145.46782
143.89358
142.01769
139.84269
137.06965
133.68105
129.62881
125.11188
146.9222
145.50623
143.87584
142.04091
139.77918
136.99688
133.44221
129.11599
124.1107
147.04236
145.58236
143.97064
142.08596
139.81865
136.95511
133.32081
128.58687
123.20097
147.0585
145.65038
144.00649
142.17328
139.85084
137.0354
133.25935
128.38479
122.27961
147.16301
145.70861
144.086
142.20906
139.92591
137.02397
133.27205
128.14033
123.75048
147.26613
145.84546
144.22036
142.39995
140.10676
137.34347
133.45417
128.43856
120.86122
128.40273
131.09002
134.39642
136.72862
138.27873
139.71828
141.10761
142.47164
143.77047
127.2123
130.2096
134.0071
136.46913
138.08818
139.60535
141.0798
142.48456
143.81114
125.77877
129.42179
133.69483
136.21318
137.8619
139.42875
140.95682
142.40377
143.75417
123.88734
128.57053
133.43984
136.02934
137.78918
139.42824
141.01261
142.47064
143.82937
121.50969
127.48612
132.92871
135.55554
137.41291
139.16448
140.82994
142.34299
143.7317
118.66616
127.35295
133.13411
135.63068
137.5375
139.30365
140.96436
142.45773
143.83609
113.00407
125.5834
132.47016
134.98549
137.09909
139.02704
140.7795
142.31672
143.72595
108.72613
126.10439
132.97578
135.21409
137.28098
139.18788
140.9105
142.42398
143.81494
97.884163
124.52839
132.55139
134.83847
137.05154
139.05934
140.82622
142.34946
143.75851
145.03277
146.26065
147.5176
148.7921
150.12571
151.49425
152.94184
154.46284
156.10168
145.06867
146.30788
147.55916
148.84717
150.17851
151.56717
153.02115
154.56502
156.20753
145.03097
146.2887
147.55608
148.86209
150.2041
151.61019
153.07187
154.63536
156.29217
145.09456
146.35893
147.62194
148.93516
150.27627
151.69105
153.15744
154.73511
156.40136
145.02025
146.30483
147.58725
148.91446
150.2717
151.70164
153.18574
154.78135
156.46456
145.10913
146.38652
147.65911
148.984
150.33633
151.76792
153.25047
154.85142
156.53829
145.0212
146.31911
147.6123
148.9525
150.31772
151.76101
153.2552
154.86874
156.56668
145.1006
146.38768
147.67398
149.00717
150.36996
151.80999
153.30431
154.91743
156.61763
145.05342
146.35119
147.64289
148.98497
150.34964
151.79657
153.29192
154.91179
156.61293
157.85461
159.75426
161.79497
163.99017
166.32655
168.83275
171.4357
174.16834
176.11146
157.98664
159.8973
161.9789
164.2185
166.64595
169.25535
172.01916
174.88864
176.99502
158.09889
160.03342
162.15766
164.44399
166.96103
169.67585
172.58883
175.55928
177.87981
158.22822
160.1789
162.33992
164.65943
167.24973
170.03305
173.07568
176.16087
178.75732
158.31129
160.28226
162.47322
164.82604
167.47476
170.32267
173.50136
176.71907
179.62941
158.39624
160.37824
162.59236
164.96728
167.66628
170.5628
173.88348
177.22607
180.4886
158.44116
160.43323
162.67053
165.06112
167.80411
170.7341
174.18627
177.65691
181.34415
158.4945
160.49022
162.73849
165.13686
167.91238
170.85948
174.43429
177.9863
182.3362
158.49633
160.4977
162.75096
165.16309
167.94462
170.92152
174.55218
178.19608
182.47884
177.09124
169.63439
166.60258
163.29191
159.94427
156.66764
153.5329
150.43975
147.42284
178.2915
170.47309
167.35409
163.90255
160.47952
157.12103
153.97496
150.83124
147.80491
179.41334
171.23274
168.04675
164.51965
161.01934
157.60916
154.43135
151.26883
148.22684
180.55974
171.93246
168.65929
165.01369
161.50362
158.01832
154.84733
151.62383
148.60032
181.76643
172.80641
169.39598
165.6538
162.07476
158.57979
155.35532
152.14566
149.0813
182.96994
173.39505
169.89409
166.05206
162.47206
158.88216
155.66804
152.38694
149.34358
184.44016
174.50223
170.67464
166.78603
163.14638
159.53249
156.28211
152.99549
149.93982
185.22523
174.7858
170.90898
166.95987
163.32583
159.66072
156.41195
153.095
150.04325
187.76545
176.47735
171.92637
167.8581
164.17487
160.45568
157.1659
153.81935
150.7561
144.36768
141.30166
138.182
135.03253
131.81086
128.53275
125.14859
121.68337
118.08357
144.70521
141.65706
138.50135
135.37533
132.12071
128.86705
125.45306
122.01099
118.37941
145.13316
142.08292
138.93991
135.81378
132.57423
129.32733
125.93367
122.5103
118.90989
145.45307
142.43358
139.25202
136.15582
132.88765
129.66743
126.25797
122.85364
119.24882
145.95534
142.90864
139.74782
136.64088
133.38508
130.17138
126.76423
123.38979
119.77179
146.16872
143.15104
139.96275
136.87908
133.60879
130.40914
127.00654
123.62987
120.04704
146.76246
143.74754
140.55438
137.48564
134.20718
131.03805
127.61706
124.29949
120.65786
146.85002
143.83972
140.645
137.57684
134.30497
131.12809
127.72826
124.38682
120.81
147.54764
144.54318
141.34104
138.2919
135.01383
131.86691
128.46114
125.16985
121.54865
113.96727
109.10974
104.25103
98.988885
93.868037
88.897314
84.103267
77.480999
67.35396
114.33081
109.5614
104.8314
99.7062
94.705355
89.948968
85.49397
79.773903
70.863076
114.91333
110.24786
105.65618
100.65235
95.769037
90.946637
86.655302
80.89208
73.970104
115.34509
110.82166
106.31953
101.47442
96.646732
91.882573
87.933802
83.6116
77.253884
115.93153
111.47554
107.15483
102.38333
97.732987
92.84696
89.332413
84.083626
85.468252
116.27418
112.02891
107.70161
103.15515
98.414383
93.676754
89.366926
88.06193
86.630213
116.99575
112.79347
108.77172
104.26503
99.831483
94.94284
91.015648
84.39143
110.44973
117.16287
113.14863
109.03506
104.77761
100.21436
95.46488
89.948893
86.625992
98.258274
118.0499
114.18376
110.3996
106.29349
102.1927
97.609001
94.670304
74.787377
141.19953
45.033179
28.734624
26.867078
25.345825
23.136621
26.445886
31.096003
33.386638
34.881625
46.122927
27.866206
27.066658
26.189574
25.805347
28.01352
31.34948
33.371506
35.044021
46.273212
26.56873
27.661853
26.125259
24.40501
28.29756
31.654351
33.570269
35.219196
44.090653
24.196494
28.527238
26.04673
26.854978
28.982907
31.948709
33.80143
35.44684
38.711348
20.951177
29.837062
26.341731
26.281179
29.387966
32.279629
34.030305
35.69707
33.520558
22.823518
31.275371
25.668375
27.515773
30.095558
32.523204
34.271031
35.890665
36.172478
34.133317
29.07177
26.648997
27.702546
30.630699
32.847498
34.507426
36.070359
36.395377
18.737128
29.572805
25.753276
28.142748
31.06178
32.982539
34.680169
36.195939
-49.974503
43.349292
26.365262
26.789735
29.213662
31.614788
33.35451
34.899355
36.303236
35.597404
35.540256
35.067442
33.923048
32.091172
29.463258
27.193559
19.862445
22.225849
35.877186
35.866012
35.477012
34.278194
32.249472
29.359023
26.712555
19.900928
23.008978
36.012055
35.999652
35.467846
34.047971
31.898603
28.702943
25.412037
20.346491
23.027474
36.213065
36.149743
35.560723
34.078012
31.682123
28.239857
24.58948
19.969854
24.137398
36.42297
36.367965
35.690325
34.042835
31.44485
27.887954
24.062316
21.073649
25.496703
36.616533
36.535201
35.752516
34.044412
31.235912
27.615687
23.986278
22.365783
26.817857
36.768528
36.697402
35.803122
33.921523
30.941012
27.231956
24.204589
23.648395
28.693935
36.881855
36.787781
35.799551
33.907497
30.795991
27.187816
24.202516
24.675512
29.457791
36.940178
36.810219
35.696087
33.529774
30.202161
26.640907
24.275905
26.242379
31.519766
23.095839
23.29872
24.453276
26.786805
29.087311
30.871191
30.401933
29.086354
27.464109
23.49512
22.707326
23.609811
26.176596
28.703538
30.7058
30.902418
30.08398
29.731741
23.99946
23.092521
23.736244
25.898372
28.295395
30.342377
30.870829
30.804576
31.832836
24.824455
22.566402
23.091878
25.312404
28.134276
29.715879
30.30177