/*--------------------------------*- C++ -*----------------------------------*\
  =========                 |
  \\      /  F ield         | OpenFOAM: The Open Source CFD Toolbox
   \\    /   O peration     | Website:  https://openfoam.org
    \\  /    A nd           | Version:  11
     \\/     M anipulation  |
\*---------------------------------------------------------------------------*/
FoamFile
{
    format      ascii;
    class       volScalarField;
    location    "0.3592373";
    object      p;
}
// * * * * * * * * * * * * * * * * * * * * * * * * * * * * * * * * * * * * * //

dimensions      [0 2 -2 0 0 0 0];

internalField   nonuniform List<scalar> 
880
(
80.0000000000004
80.00000016385775
80.01345700071396
81.88036255816579
80.00000000017729
80.0000004813165
80.01669079880163
82.76391626137291
80.00000000090172
80.00000187777135
80.03089549978368
83.82261127426028
80.0000000120275
80.00000824578666
80.06381032530091
85.40758367778935
79.9999999446778
80.00000002780087
80.00000611613109
80.00009435566859
80.00003799778548
80.00014606981672
80.00091100798595
80.00134651676892
80.14460004811698
80.23457647800329
80.38549215593619
80.5377943452166
88.34440565123131
91.39564044580973
94.00071031120504
95.2350282861042
80.00023343429541
80.00190273483453
80.00718982050788
80.0222813218185
80.0126243548611
80.05407686566073
80.10847877895154
80.22876002590861
81.27050679337817
81.90767915206673
82.71483890383415
83.76515051330711
96.38512685392134
97.95092951142729
98.27353128953845
97.50852063764046
90.98667037460153
87.50957500374565
85.83750481416408
84.74257181857485
85.69177598945684
86.37144794345129
86.77400185280143
86.80862332234135
80.63880705195162
81.12355393819605
81.63902124726863
82.02325567899446
80.07908960212933
80.1912906667818
80.36116358239923
80.5996655080142
80.87776610343579
81.15710079094829
81.4336420685031
81.64007181302584
82.31288129271358
82.48083831676375
82.56763224835117
82.5733716292625
86.44909066655053
85.94969891151042
85.29455537780305
84.61630708501329
83.58709227615239
82.89852163578766
82.506977468572
82.07910865332884
82.0834353769371
84.14365518363331
82.52052569265021
81.76640156218065
87.74244361263287
83.86378408966019
82.36951441435819
81.74669626707045
120.5577302760984
85.26207708340281
82.18752732938238
81.49459977790929
158.3480005362153
93.05773683603326
82.67021528908138
81.40189368217816
81.3730009900369
83.39326900971101
102.7715434263818
175.0766811463174
80.87273455014686
84.75165935289695
113.734503890455
174.2794953633314
81.08515337626325
87.90164543476695
128.3729528963299
176.1372286539786
81.89143481716033
93.58581200160467
142.2712540988062
173.4126577968801
167.7072643144847
149.9509439082624
102.2401483677793
83.66790016439877
160.7381828842055
151.1909551398601
111.8302778335414
86.84039978104009
153.3429490019615
148.9208386674233
120.125945435314
91.94300085174736
145.6346107430657
138.9086965599962
121.4590334745108
98.31275785657431
103.9492419757832
117.3639377766972
126.5675599281422
136.6078245539419
103.1379079184423
109.2149401539779
113.4275243850173
123.6649777902413
100.8369544479227
101.4843378344008
100.6812521849875
107.3274525176948
97.84675940749699
95.22413640943556
89.17504522145738
88.30750271238381
95.46851702334335
89.32758702329357
78.72364266674309
66.39560956313714
91.68581444075045
83.96084437358448
69.93152120816885
43.06373582206513
88.80556121135407
81.54220838536339
63.23934754044166
26.39394282768309
86.35657312886859
80.46176309429963
58.99073236051477
14.84821144559729
15.60525935442524
60.56882702163404
79.58678273966616
84.17255612050886
24.76284191793966
61.36474923101011
78.99416130533004
82.70516176635162
27.3395499871975
61.04500011203592
78.13595994987469
81.71388992454696
25.8393735847044
60.43834029282801
77.52975749090456
81.17540809052795
31.26901654144564
63.06636709476682
77.20205816665943
80.23977849557838
36.95806667895187
65.60875299810841
77.11654492119146
79.68640499155006
43.5963593456537
68.84962257206016
77.31445517475635
79.66584565070565
51.41998810866945
71.09834001621881
77.6992512801237
79.73913744167302
53.28238306450019
58.94005440636671
73.28902712100025
79.26090088668883
51.93679076462386
60.14520482944891
73.51416302498829
79.25268011290524
49.49686566163078
61.86251284859264
74.01475947028713
79.25458165505529
47.17470992845561
63.82092240578471
74.73196183541731
79.31310009716059
51.41998810870265
71.09834001618873
77.69925128003939
79.73913744134002
43.59635934578974
68.84962257166708
77.31445517450368
79.66584564991686
36.9580666789957
65.60875299797144
77.11654492078988
79.686404991136
31.26901654148433
63.06636709433055
77.20205816651605
80.23977849542682
84.17255612070279
79.58678273983948
60.56882702154019
15.60525935415084
82.70516176622903
78.99416130530895
61.36474923078632
24.76284191762144
81.71388992469591
78.13595995020599
61.04500011160545
27.33954998716425
81.17540809072638
77.52975749120952
60.43834029273202
25.83937358464055
14.8482114457382
58.99073236053859
80.46176309449238
86.35657312905523
26.39394282756306
63.23934754039925
81.54220838552055
88.80556121115485
43.06373582192906
69.93152120868152
83.96084437375309
91.68581444111361
66.39560956333847
78.72364266658737
89.32758702273873
95.4685170237172
103.9492419761492
117.3639377773198
126.5675599286981
136.6078245538232
103.1379079182869
109.2149401538081
113.4275243853808
123.6649777901306
100.8369544475814
101.484337834306
100.6812521850986
107.3274525177466
97.84675940746109
95.22413640914381
89.17504522119545
88.30750271259669
145.6346107430105
138.9086965598134
121.4590334748639
98.31275785732757
153.3429490017843
148.9208386673042
120.1259454354756
91.94300085178354
160.7381828842404
151.1909551395221
111.8302778332862
86.8403997814186
167.7072643142264
149.950943908538
102.2401483681469
83.66790016435381
81.37300098985848
83.39326900960938
102.7715434264077
175.0766811458689
80.87273455056435
84.7516593529995
113.7345038904298
174.279495362876
81.08515337691851
87.9016454355836
128.3729528960354
176.137228653658
81.89143481727477
93.58581200176926
142.2712540987446
173.4126577967771
81.40189368220364
81.4945997777395
81.74669626747148
81.76640156224246
82.6702152886824
82.18752732911786
82.36951441472023
82.52052569254322
93.05773683552407
85.26207708335536
83.86378408935114
84.14365518350159
158.3480005355038
120.5577302757193
87.74244361290538
82.08343537694526
81.64007181332218
82.57337162950226
84.61630708518538
82.07910865319685
81.43364206817962
82.56763224839864
85.29455537764962
82.50697746848429
81.1571007909766
82.48083831679317
85.94969891175556
82.89852163544418
80.87776610316679
82.31288129233619
86.44909066661782
83.58709227626129
80.07908960199751
80.63880705163785
85.69177598952966
90.98667037455023
80.19129066668368
81.12355393786179
86.37144794359648
87.50957500342093
80.36116358281515
81.63902124661467
86.77400185289827
85.83750481344917
80.59966550790314
82.0232556789427
86.80862332232013
84.74257181827655
97.50852063753825
83.76515051352487
80.22876002583058
80.02228132192812
98.27353128945951
82.71483890394357
80.1084787787432
80.00718982048951
97.95092951122244
81.90767915189537
80.05407686490447
80.00190273492061
96.38512685407342
81.27050679313547
80.01262435461979
80.00023343430144
95.23502828591567
80.53779434540351
80.00134651672906
80.00009435611517
94.00071031075777
80.38549215592954
80.00091100790313
80.000006116419
91.39564044541622
80.23457647795466
80.00014606986902
80.0000000276608
88.34440565097267
80.14460004792831
80.00003799730158
79.99999994537085
80.00000000002807
80.00000016396199
80.01345700073134
81.88036255806904
80.00000000026193
80.00000048100623
80.01669079908065
82.76391626104898
80.00000000110963
80.00000187755403
80.03089549975684
83.82261127458642
80.00000001233936
80.00000824570162
80.06381032535216
85.40758367801364
83.52401630076481
85.09531181069397
87.64373003036054
92.7868849733098
85.0953118109769
87.15064399971764
90.99722491493129
98.69109896751404
87.64373003051836
90.99722491482389
97.31200109969524
106.8208673317995
92.78688497359882
98.69109896699293
106.8208673323766
117.1820226895853
127.9924523484985
119.0252314109944
115.1013940739113
106.8656310091595
126.2797405735445
123.6456850435484
123.6041072001263
119.530159973882
126.3198648393126
125.494367534241
125.0507091084136
123.6401739847426
123.7373872676193
123.33030448131
123.2435030300273
122.3929105401195
119.6768281643962
117.85595713434
114.2518274335814
109.3400980632353
119.9429465857445
118.039825308721
114.3868064513883
109.8050833310423
120.278632464924
118.2215948997054
114.3690016164184
110.2398948971534
120.4534113313884
118.1133358370948
114.5207856208293
108.5601490290622
82.83049215382881
71.90501977107184
70.60488785202196
70.98544956499414
75.82086116336394
69.03041812586332
69.65703398926061
70.38169241061681
69.99730771898955
68.89582507881562
70.22940342531979
70.92985001663978
60.73660662704516
66.5979515204789
69.23777895981289
70.19839137515454
70.93002386977142
71.29229618472165
72.10767916098139
73.05110400033709
70.47270706732135
70.85088849001539
71.73548636014959
72.92898553609967
70.90445069974449
71.13416461250087
71.87246482667535
72.8067067451389
70.29686130262176
70.61802745414892
71.55364007078913
72.84651264991277
78.67377436777387
114.035476653632
165.0710660821725
181.4274770955493
81.36366061004315
121.5220691634886
162.5396060595139
173.2947165627998
83.4947601712128
125.2967983435306
161.3143286773505
171.9960169198451
84.86398738776259
130.7127491378558
161.6595677131984
171.9731785438261
218.1624857491197
209.3372772544367
201.7902132628977
190.5371939395473
219.3304231254554
212.1163102495187
203.9473909443759
192.3777599930386
218.3262497938038
213.6469648296849
205.0479131399854
193.4985133193449
213.2095183005775
215.5718914733103
206.9708796599358
195.2365959396872
178.1479724689086
167.8952603797015
158.2744693794225
153.3866740025445
180.1462190811749
169.2794268114523
158.9645318276925
153.7600157155587
181.2947402992949
169.4884669208161
159.5122415375002
153.7252852107732
183.7010828608813
170.9138914813427
161.1737228217582
154.8234783359419
148.5698423975262
140.6582400626532
126.7741662534802
105.8850710057407
149.2636687722893
142.1819352109369
128.8939371984455
114.3599799329131
149.2080215927591
142.6098334269425
130.6898217999293
119.6674569233618
150.3701690207023
144.9550007199526
134.043747845543
134.5834665964205
64.62301126144403
16.54897080954724
2.690604842700969
1.283632629680139
49.95161172124763
10.39445125635442
2.242182866746178
1.46440878502425
34.73867502971132
6.571934528430163
1.963415029289042
1.620797806841796
19.5511352437232
3.06098522063881
1.726184360213524
1.813250097931923
1.929268678428852
4.153434910777325
6.785704020653638
10.67154148225911
2.736339544651563
5.087831649015134
7.800666032833872
11.94479223591604
3.199532907827303
5.472936070778622
8.645975320455472
12.64693884061934
3.753839588860553
6.19943669020417
10.09294077862852
13.79309047498547
12.51724600063617
18.94023568888011
26.03301174381838
34.74101442368151
12.12979677680397
17.87726220139933
24.71998351341631
33.23095246300588
12.44050533296275
16.35103978431077
22.87548601017427
32.23953171667622
11.69545000951347
14.46072291976807
19.06066149195226
30.28202499694385
35.03375843998634
33.20764901884413
32.54785207214481
33.17749581146179
31.86519458330139
31.78645371438327
32.2476080717686
32.35380199261496
31.01257057779535
32.6571562537443
32.98668414501019
33.02246866847813
29.23692345317933
31.45584438215182
31.77608587615439
32.50247626782168
32.92037629763595
33.23125641443912
33.49122413233992
33.61775411352178
32.97860284054187
32.93617140926825
32.84466302666656
32.95083376536411
32.92858284696047
33.39766381482979
33.83627894193363
34.09490187981299
34.75155881519698
35.80226474751018
36.54011601176785
36.5421493233773
33.61775411352367
32.9508337653668
34.09490187981101
36.54214932338181
33.49122413232565
32.84466302664438
33.83627894192819
36.54011601179456
33.23125641443353
32.93617140928273
33.39766381490269
35.80226474753454
32.92037629770557
32.9786028405419
32.92858284702379
34.75155881521717
33.17749581160034
32.54785207219171
33.20764901891409
35.0337584400495
32.3538019926343
32.24760807181683
31.78645371440813
31.86519458335813
33.02246866855376
32.98668414512534
32.65715625376888
31.01257057785224
32.50247626785728
31.77608587618347
31.45584438221226
29.2369234532301
30.28202499703068
19.06066149208656
14.46072291986919
11.69545000959926
32.23953171675399
22.87548601022577
16.35103978441757
12.44050533310653
33.23095246308398
24.71998351351541
17.8772622015129
12.12979677691083
34.74101442374408
26.03301174392917
18.94023568895316
12.51724600080207
10.6715414823219
6.785704020684169
4.153434910742855
1.929268678462434
11.94479223597396
7.800666032882721
5.087831649004743
2.736339544659651
12.64693884068392
8.64597532053212
5.472936070765911
3.199532907824691
13.79309047505061
10.09294077866453
6.199436690224077
3.753839588866642
1.283632629720719
2.690604842665459
16.54897080939482
64.62301126128857
1.464408785047096
2.242182866729732
10.39445125626379
49.95161172131675
1.620797806844701
1.963415029277045
6.571934528445311
34.73867502981125
1.813250097927238
1.726184360200215
3.060985220638632
19.55113524376918
105.8850710057985
126.7741662535862
140.6582400623324
148.5698423977662
114.3599799326899
128.8939371980059
142.1819352108656
149.2636687718837
119.6674569235951
130.6898217998173
142.6098334274847
149.208021592716
134.5834665966449
134.0437478450579
144.9550007202911
150.370169020548
153.3866740024729
158.274469379203
167.8952603795466
178.1479724681493
153.7600157155034
158.9645318277596
169.2794268105804
180.1462190804115
153.7252852110686
159.5122415370654
169.4884669201394
181.2947402988092
154.8234783356765
161.1737228216535
170.913891480979
183.7010828602709
190.5371939390682
201.790213262689
209.3372772541715
218.1624857493049
192.3777599927068
203.9473909441013
212.1163102491818
219.3304231255268
193.4985133192272
205.0479131397496
213.6469648295907
218.3262497936603
195.2365959395767
206.9708796598168
215.5718914727015
213.2095183009444
181.4274770955502
165.0710660819123
114.0354766536938
78.67377436805556
173.2947165627152
162.5396060593405
121.5220691635291
81.36366061034192
171.996016919755
161.3143286772026
125.2967983435204
83.49476017152517
171.9731785434731
161.6595677130553
130.7127491378416
84.86398738808607
73.05110400055925
72.10767916068502
71.29229618420638
70.93002386930635
72.92898553635585
71.73548636007494
70.85088848948983
70.47270706710007
72.8067067454172
71.87246482655043
71.13416461199452
70.90445069952348
72.84651265018823
71.55364007056207
70.61802745362468
70.29686130219416
70.98544956455007
70.60488785167757
71.9050197712059
82.83049215396605
70.38169241018682
69.65703398884391
69.03041812608299
75.82086116345084
70.92985001621157
70.22940342488754
68.89582507907089
69.99730771903917
70.19839137471808
69.23777895929881
66.59795152071939
60.73660662712495
109.3400980632692
114.2518274336004
117.8559571346745
119.6768281642265
109.8050833311564
114.3868064516179
118.0398253087787
119.94294658546
110.2398948971034
114.36900161639
118.2215948997053
120.278632464693
108.5601490290333
114.5207856211431
118.1133358373792
120.4534113312296
122.3929105395214
123.6401739835801
119.5301599734023
106.8656310091488
123.2435030290445
125.0507091077696
123.6041071989938
115.1013940733466
123.3303044805582
125.4943675332598
123.6456850422473
119.0252314097251
123.7373872669156
126.3198648383569
126.2797405716627
127.9924523463719
54.09177598965866
71.27150222687871
77.56388512166505
79.75943577251481
50.81837381295993
69.89465022435392
76.93566471554507
79.66603032729735
48.22184900163767
68.23882349163948
76.32173560867469
79.54988945387554
46.39892859751242
65.93394915451501
75.50434277695122
79.42095231639611
79.26090088654104
73.28902712106195
58.94005440629518
53.28238306465428
79.25268011275448
73.51416302497807
60.14520482929841
51.93679076464895
79.25458165495898
74.01475947039681
61.86251284840164
49.4968656617691
79.31310009700489
74.73196183538668
63.82092240565014
47.17470992857967
79.42095231602411
79.54988945380948
79.66603032695356
79.75943577214927
75.50434277668677
76.32173560856191
76.93566471502527
77.56388512117682
65.93394915469544
68.23882349149278
69.89465022451715
71.27150222707893
46.3989285975239
48.22184900155968
50.81837381295932
54.09177598979338
)
;

boundaryField
{
    back
    {
        type            empty;
    }
    inlet
    {
        type            zeroGradient;
    }
    front
    {
        type            empty;
    }
    top
    {
        type            zeroGradient;
    }
    outlet
    {
        type            fixedValue;
        value           uniform 80;
    }
    bottom
    {
        type            zeroGradient;
    }
    wall
    {
        type            zeroGradient;
    }
}


// ************************************************************************* //
