/*--------------------------------*- C++ -*----------------------------------*\
  =========                 |
  \\      /  F ield         | OpenFOAM: The Open Source CFD Toolbox
   \\    /   O peration     | Website:  https://openfoam.org
    \\  /    A nd           | Version:  11
     \\/     M anipulation  |
\*---------------------------------------------------------------------------*/
FoamFile
{
    format      ascii;
    class       surfaceScalarField;
    location    "0.3592373";
    object      phi;
}
// * * * * * * * * * * * * * * * * * * * * * * * * * * * * * * * * * * * * * //

dimensions      [0 3 -1 0 0 0 0];

internalField   nonuniform List<scalar> 
1652
(
1.706212168242977
0.5337381654478366
-1.763034163104749e-13
1.17247400376836
0.5337381584212146
9.350298313393068e-13
0.6387445850760455
0.5335571545400883
4.898303984646191e-13
0.5291695199097859
-8.919753824443433e-12
0.1057111340872188
1.706212168247671
1.067476330876201
1.172474005829483
1.067476302840148
0.6387502463810217
1.067105507138967
1.053469952470374
0.1085008307627323
1.706212168244342
1.601214496297515
1.172474013702359
1.601214386895371
0.6388068711628866
1.600473898366715
1.575038119085611
0.1089061383026309
1.706212168319533
2.13495266152512
1.172474043756446
2.134952228723596
0.6388942762498167
2.133493276270566
2.097351324061191
0.1052259055835008
2.651191214816899
1.723711780177983
3.167429763782173
1.723711779125781
3.683668090045843
1.723711851207494
1.723712858920088
4.199906971634221
2.651189460771346
1.207473399364601
3.16742159404123
1.207473287103805
3.683647048365148
1.207475968355613
1.20751180814109
4.199820705161054
2.649581361548472
0.6899954889915141
3.166040554492163
0.688841504179751
3.682702428081202
0.687290330905957
0.6887247565195093
4.194525728789631
2.650874540355513
0.116837865436465
3.273932107711304
0.041724608129732
3.912955214678771
0.01811960974633053
4.554446621783046
0.01129148207398928
4.164891486844351
0.03501639692059388
4.129861133523566
0.03500481651935428
4.094845354173158
0.03485880913203332
0.03478328158690625
4.059707998678833
4.164989933031088
0.06971402123096443
4.13035590570143
0.06893656044630125
4.096344160638862
0.06750052707913434
0.06567960570718423
4.062546351000338
4.174765264109761
0.08242248365693788
4.160204219254224
0.07410489112440061
4.152940744078382
0.06155645453472131
0.0529817187458082
4.147974929655271
4.603056403887491
0.006229204651546305
4.647547520982999
0.005264133932399662
4.680683973097249
0.006631576141099105
4.712917001318724
0.00774120450528154
4.670365444094077
0.1044175710845916
-0.06872497508325387
4.585724731217402
0.1015336406535662
-0.01838188617330724
4.503680286828685
0.09666920899658255
-0.008941770048789988
0.0878584755677046
4.431572580263854
-0.006796809758014055
4.220096478572298
0.0136074543164672
4.275163170324621
0.02651448577299048
4.314339965089105
0.03726917531420082
0.04540993591899101
4.338142630692573
4.068844791278354
0.001073231943961694
4.081319814759159
0.002963617772460903
4.098854835930018
0.005655625738734793
0.009950145531466892
4.118433471333971
4.059561395714438
4.059934641796337
4.061254175178881
4.064432388037176
4.069795863192337
-0.01554495126875144
4.077679563114493
-0.02162149210557829
4.087623609363138
-0.02801786411892071
-0.03210805754951196
4.096917283324989
4.138847595532837
-0.05369596462621778
4.158817467370316
-0.0600354231428718
4.176997532391878
-0.06322000111024817
-0.06156527498971193
4.190974819979567
4.34763385524126
-0.07864944139479563
4.345713670986532
-0.06822784382252195
4.333663742789232
-0.05402394157735424
-0.04809069513438874
4.319208237512517
4.365059601426147
-0.007518739530020468
4.31642537025494
-0.005960744405849122
4.27321586944605
-0.003535202345552935
4.244284218504865
-0.002871862519882529
0.04263142403535658
4.228674882047253
-0.01747992168155374
0.05775060555636691
4.308730532829528
0.03447602319526444
4.199832106478155
4.101809110728801
0.04041926004394536
4.249422621026198
-0.1456636980037017
0.04760743758715935
4.30161550470758
0.03368352102285221
4.206144217340831
4.102833037906377
0.0781826766604195
3.985002918953414
-0.1400050620058448
0.04627175634046982
4.308885310574605
0.02810076908520032
4.211434441351802
4.098034398671511
0.1746615660767145
3.682272218858463
-0.04233655606015552
0.0656579987447739
4.316410927972454
0.02803781235805436
4.226445814371112
4.100477045278916
0.0703321726284527
3.979814821986349
0.1235561356464198
4.132435666427698
0.08027879963281026
4.217518721395579
3.560890528878186
0.1473564979675565
0.06627743589631452
3.876833225429014
0.08925309073963872
4.042792909172137
0.008554619085603399
4.094876079989097
3.434665153777988
0.1117999942037989
0.05279790961820707
3.784938286449095
0.01845204032830028
3.955720424474191
-0.0701378399179049
3.934667604188191
3.332935357891423
0.05847373013786372
0.02148938202468031
3.705442607087143
-0.08849398130198161
3.861475014378842
-0.1185520749352184
3.745428498692081
3.239256064508758
0.02716048150777062
0.1401538187630034
3.155191978589743
0.002272495980398692
0.1880864571547015
3.584086115668271
0.03402767888903513
3.734484417875382
3.642165502911729
0.1485179031936146
3.077803057680863
-0.006619679803774425
0.255995178947046
3.472521372657342
0.1028861926877371
3.584916131878922
3.592148898929437
0.1404618073688251
2.995520688064883
0.002475266514995522
0.2945975206381041
3.346352165915494
0.1909927217763134
3.45009170073278
3.557359498924121
0.1099858020513483
2.89087147132013
0.01568640349319472
0.2666313588762343
3.221602635628134
0.2510988450124864
3.304256273068185
3.51547274482637
-0.2198605147871096
3.464405570175787
-0.1874176251167463
3.230011812199436
-0.04683118813226417
3.107244559955845
2.789610992125446
0.04415745975482765
-0.1620750941709518
3.402433645970937
-0.1271062637598576
3.139808657442277
0.001551338537687963
3.004997720774429
2.707307373454002
0.06647367103470503
-0.1025098260910087
3.328925676645065
-0.0527429425990309
3.057281385058821
0.06928481907054751
2.91161483109908
2.641312329245747
0.1219613858497685
-0.03597111531144948
3.224304542559301
0.03387167867615581
2.967053799804432
0.1556889582660052
2.819841720295847
2.569307861598185
0.2296404732671766
-0.346834244579694
3.45481414775052
-0.5764961510721829
3.185793852609007
-0.7153241530414606
3.000044157600999
2.633113785116728
-0.7690707926978411
-0.3002085685403235
3.659651975206853
-0.525781965771002
3.407277297008784
-0.6286982389516933
3.176610368455548
2.281262085827266
-0.2632236048277772
-0.2736584075750188
3.844645783911073
-0.4821409169981413
3.621430560360036
-0.5140375083789249
3.331023482662487
1.803007611263945
-0.02966560112563715
-0.2402585140325661
4.011169558799085
-0.4394776453557948
3.827814107519441
-0.3630692498170274
3.438903811635968
1.417726196872167
-0.01228117619455595
0.1576804607243351
1.459261876108362
-0.01047810701507776
0.2075842297634602
3.529868198394924
0.1042119335597418
3.938194652475306
4.062977354694597
0.1656291371065979
1.439674462247627
-0.007978934181043859
0.1877442735073318
3.625674101079886
0.09472367726803077
4.050910162802361
4.108050275756319
0.1503821948695739
1.34331711646723
-0.003393881041869346
0.1686297583391282
3.723210619803294
0.08924760889268146
4.160213449504773
4.149925520854332
0.1199113185435134
1.254282057074264
0.002202888659277789
0.1500455805340663
3.816528040693161
0.08903413399986054
4.257716036731976
4.196626697188924
-0.2359523197094232
1.57020176859704
-0.0156725489561282
-0.1845881020523362
3.985441037377228
-0.04698261166885898
4.197997287060181
4.097718155224961
-0.2649894707337609
1.927846217039671
0.005973782927749249
-0.1781057422302763
4.069002704507717
-0.03211456810726454
4.113304157344502
4.060050871827441
-0.2623644865090167
2.245153623198746
0.03358705855118659
-0.1344458744994017
4.102206554615824
-0.02063094594663006
4.06747637369048
4.056535995133095
-0.2321307658613561
0.08786573656732995
2.498256194461273
-0.1113843977000653
4.099524838189486
-0.01648783368318507
4.039832587751228
4.056691354820132
0.3370435891604396
-0.4386165760616054
-0.01287168492677
5.607514452776741e-12
0.8928673630628261
-0.4130664697625539
-3.304023721284466e-13
1.633809232340319
-0.4646875973647226
7.500666754367558e-13
-0.5171011458058805
-1.256195147902872e-11
0.3341160355533759
-0.891836059566216
-0.01277405753842007
0.9068201036785296
-0.8655171684038865
1.634735094052454
-0.9425088344492023
-1.03575903453776
0.3307524837358014
-1.351359875329131
-0.01558019582500634
0.9266013051890087
-1.343381276877563
1.638842506341668
-1.451593450585475
-1.556743674795961
0.324081231701911
-0.01607246832619925
-1.70381699430493
0.9567801091644556
-1.851430064728077
1.647526256182743
-1.983871157283181
-2.082285601906191
-0.2321307658618376
-2.245153623202778
0.08786573656736224
2.49825619445595
-0.1113843976960569
-4.102206554617473
4.099524838190944
-0.01648783367946094
-4.067476373687636
4.039832587750448
-4.056535995124277
4.056691354815873
-0.2623644865072206
-1.927846217042841
0.03358705855197716
-0.1344458745026379
-4.06900270451994
-0.02063094594812509
-4.113304157349587
-4.060050871832516
-0.2649894707350133
-1.570201768602876
0.005973782928091045
-0.1781057422326153
-3.98544103738242
-0.03211456811234314
-4.197997287061327
-4.097718155220903
-0.2359523197089335
-1.254282057076091
-0.01567254895589113
-0.1845881020565667
-3.816528040705823
-0.04698261167370443
-4.25771603673255
-4.196626697181876
-0.1042119335549401
4.062977354713365
-4.011169558824317
-0.2075842297510994
3.938194652497521
-3.8278141075495
-0.1576804607180833
3.529868198372053
-3.438903811606215
1.459261876080133
-1.417726196849984
-0.0104781070153069
-0.09472367726226499
4.108050275759705
-0.1877442734928081
4.050910162815712
-0.1656291371016397
3.625674101067257
1.439674462237272
-0.007978934181162464
-0.08924760888727057
4.149925520848254
-0.1686297583213962
4.160213449514717
-0.1503821948645936
3.723210619801154
1.343317116465877
-0.003393881041600957
-0.08903413399284499
-0.1500455805180563
-0.1199113185384449
0.002202888659153454
0.3630692498208041
-1.803007611250785
-0.01228117619455578
0.4394776453707311
-3.331023482648794
0.2402585140477171
-3.621430560386143
-3.844645783930182
0.5140375083830353
-2.281262085814735
-0.0296656011248781
0.4821409170125939
-3.176610368451034
0.2736584075865863
-3.407277297030711
-3.659651975222231
0.6286982389589705
-2.63311378511384
-0.2632236048265268
0.5257819657859476
-3.000044157598855
0.3002085685505292
-3.185793852620183
-3.454814147756906
0.7153241530487927
-2.569307861598743
-0.7690707926997964
0.576496151084645
-2.819841720297148
0.3468342445825006
-2.967053799810916
-3.224304542558387
-0.2198605147858409
3.464405570188296
-3.515472744841338
-0.1874176251102307
3.230011812214785
-3.304256273091016
-0.0468311881269472
3.10724455994517
-3.221602635608986
2.789610992116104
-2.89087147130843
0.04415745975093033
-0.1620750941635385
3.402433645977359
-0.1271062637517703
3.139808657450601
0.001551338544468983
3.004997720765335
2.707307373445991
0.06647367103450685
-0.1025098260884214
3.328925676648325
-0.05274294259146017
3.057281385065519
0.06928481907487288
2.911614831094893
2.641312329242825
0.1219613858488947
-0.03597111530687813
0.03387167868557617
0.15568895826909
0.2296404732675775
0.109985802054176
-2.9955206880534
0.01568640349425787
0.2666313588811101
-3.346352165907628
0.2510988450158609
-3.450091700747274
-3.557359498935481
0.140461807371437
-3.077803057676178
0.002475266514641361
0.2945975206444768
-3.472521372654062
0.1909927217812105
-3.584916131886279
-3.592148898936765
0.1485179031967062
-3.155191978582385
-0.006619679804988343
0.2559951789525531
-3.584086115671852
0.1028861926872712
-3.734484417878862
-3.642165502913858
0.1401538187651736
-3.239256064511521
0.002272495980094713
0.1880864571624941
-3.745428498692725
0.03402767889296232
-3.861475014379399
-3.705442607084996
0.07033217262973956
3.979814821987363
-4.10047704527721
0.12355613564689
4.132435666428559
-4.226445814369065
0.08027879963639972
4.217518721399336
-4.316410927974921
3.560890528881603
-3.682272218861105
0.1473564979660352
0.06627743589831825
3.876833225430472
0.08925309074064114
4.042792909174082
0.008554619087736248
4.094876079992948
3.434665153778004
0.1117999942018255
0.0527979096196185
3.784938286450884
0.0184520403365831
3.955720424477629
-0.07013783991787348
3.934667604194779
3.332935357890578
0.05847373013712842
0.02148938202690875
-0.08849398129573582
-0.1185520749346304
0.02716048150855233
-4.098034398671047
-0.0280378123572248
-4.102833037907909
-0.02810076908432013
-4.101809110730207
-0.03368352102235361
-0.03447602319552723
-4.096917283326138
-4.211434441353179
-0.06565799874739592
-4.206144217339566
-0.04627175634096631
-4.199832106473036
-0.04760743758609848
-0.05775060555606121
-4.19097481997487
-4.30888531057807
-0.174661566073735
-4.301615504711615
-0.07818267665915141
-4.308730532829361
-0.04041926004517699
-0.04263142403519876
-4.319208237513656
-3.985002918961853
-0.04233655606042108
-4.249422621027539
-0.1400050620065625
-4.228674882046158
-0.1456636980007222
-4.244284218505265
-0.017479921681431
-0.03210805754809631
-4.087623609361573
-0.06156527498831937
-4.176997532387086
-0.04809069513298136
-4.333663742793785
-4.273215869446391
-0.002871862520847646
-0.02801786412002194
-4.077679563115159
-0.06322000110812714
-4.158817467365092
-0.05402394157547968
-4.345713670992503
-4.316425370253295
-0.003535202343543292
-0.02162149210375464
-4.069795863193861
-0.06003542314372673
-4.138847595526534
-0.06822784382144598
-4.347633855249925
-4.365059601425778
-0.00596074440626862
-0.01554495126582711
-4.064432388043446
-0.05369596462727505
-4.118433471327073
-0.07864944139459562
-4.338142630704096
-4.431572580265061
-0.007518739528128399
-0.001073231945748931
4.059561395715422
-4.059707998672907
-0.01360745431855509
4.06884479126136
-4.062546350980659
-0.1044175710881177
4.220096478589296
-4.147974929673324
4.670365444103369
-4.712917001330871
-0.06872497508328021
-0.002963617773956151
4.059934641796437
-0.02651448577810422
4.081319814745909
-0.1015336406569143
4.275163170338173
4.585724731224993
-0.01838188617447267
-0.005655625745413562
4.061254175180309
-0.03726917532381685
4.098854835918001
-0.09666920900067288
4.314339965101597
4.503680286832979
-0.00894177005066038
-0.009950145533463961
-0.04540993592273512
-0.08785847557054222
-0.006796809757794703
-0.05298171875088381
-4.680683973105178
0.007741204504848109
-0.06567960572088466
-4.15294074408548
-0.03478328159192268
-4.096344160630541
-4.094845354172342
-0.06155645454042102
-4.64754752098797
0.006631576140675832
-0.06750052709209603
-4.16020421925339
-0.03485880913525086
-4.130355905705403
-4.129861133532203
-0.0741048911316709
-4.603056403890168
0.005264133931263903
-0.06893656045811164
-4.1747652641037
-0.03500481652007992
-4.164989933049561
-4.164891486841754
-0.08242248366102523
-4.554446621765569
0.006229204653553033
-0.06971402124356785
-4.194525728776119
-0.03501639692404301
-4.199820705187795
-4.199906971640551
-0.6887247565176804
-3.912955214648724
0.01129148207421155
-1.207511808133243
-3.682702428069673
-1.723712858925506
-3.683647048382998
-3.683668090045721
-0.6872903309038993
-3.273932107678097
0.01811960974984905
-1.207475968348145
-3.166040554487925
-1.723711851209043
-3.167421594055821
-3.167429763785837
-0.6888415041793834
-2.650874540327815
0.04172460812558021
-1.207473287100119
-2.649581361547594
-1.723711779126116
-2.651189460774024
-2.651191214823005
-0.6899954889915065
-2.097351324049447
0.1168378654297682
-1.207473399364845
-2.133493276275988
-1.723711780188847
-2.13495222872889
-2.134952661529126
1.706212168246033
0.5337381654428739
1.172474003772976
0.5337381584278658
0.6387445850792801
0.5335571545405851
0.5291695198989408
0.1057111340907708
1.706212168248594
1.067476330870285
1.172474005829729
1.067476302839482
0.6387502463816386
1.067105507147096
1.053469952459279
0.108500830763974
1.706212168246498
1.601214496294727
1.172474013702244
1.601214386893115
0.6388068711621359
1.600473898369004
1.575038119086
0.1089061383018554
1.706212168319974
1.172474043754054
0.6388942762468857
0.1052259055820007
0.1054762319998173
0.1054762320039583
0.1054653921595312
0.1079721225102637
0.1059225141452477
0.1078287802945491
0.1026793051514805
0.107787146313459
0.1079721225076889
0.1054653921638724
0.1076782122777554
0.1076782122802196
0.1081688409380903
0.1066956976655841
0.0990395083898948
0.1111325209039452
0.1078287802957082
0.1059225141485937
0.1066956976660288
0.1081688409407983
0.1063680706127017
0.1063680706127805
0.09589779012593075
0.1089243873671162
0.1026793051561227
0.1077871463153124
0.09903950839245214
0.111132520905652
0.09589779013055277
0.1089243873666014
0.09567817022540293
0.09567817023036941
-0.03916483075336374
0.1340424824821361
-0.0625320326410605
0.1313125543470266
-0.08851460900986169
0.1359908505174156
0.1348760668610846
-0.005682162293481396
0.1388609357694371
-0.01617533201744248
0.1408669254513975
-0.02705987606972909
0.1458977427666995
0.1484336058085302
-0.0009897335208101099
0.1391851915532188
-0.007344028435039229
0.1464985093514432
-0.01313439047914239
0.1509051629127154
0.1525076626716875
-0.001218719310328853
0.1398031387886816
-0.006135057716553594
0.150775802359959
-0.009219358549304557
0.1533082217744796
0.1538215382712131
0.1533031168091922
0.006169573451775934
0.1533720831207867
0.004948540101182952
0.1526200923585061
0.007183193088924011
0.006669560828200805
0.1537744769962751
0.153520671505557
0.005391474452229372
0.1538379602247887
0.004325676965433345
0.1539161439305053
0.006914480931892342
0.003199577712637791
0.1574316220334836
0.1528814090388424
0.002725278378692741
0.1538629238170635
0.003033507752498277
0.1547047579017608
0.005885410238204714
-0.009752649133464242
0.1676840121108822
0.1419776264541047
0.1446515504509512
0.1502910743418599
0.1404652897497397
0.1402988918168574
-0.05510089250311381
0.13109277047991
-0.008870381410095746
0.1296687635959698
-0.006961208340612091
-0.006209407750008777
0.1296550856476311
0.1446496156294583
-0.04222971277380388
0.1388102722418726
-0.002739834397600033
0.1356409823159472
-0.0032094043258519
-0.003925130049231756
0.1339572619606013
0.1511964599080885
-0.02570026346340429
0.1456023013262167
0.003129659327305745
0.141637268310101
0.001326784419572291
8.871032404422774e-05
0.1382175560534342
0.1147562578283489
0.1181759076481429
0.1201040454641286
0.1208093795857871
0.1299200841694502
-0.006882542979559814
0.1308441514519449
-0.005824213950511414
0.1320143996411398
-0.003767074929207193
-0.003038492596906778
0.1331207374261159
0.1327149539372296
-0.004747774728543708
0.1322448570363162
-0.004284423286335021
0.1322700869281101
-0.00283033494536572
-0.002528165348237826
0.1326950990838273
0.1355128423688839
-0.001149126879927381
0.1336078537271226
-0.001296573867183959
0.1325487191917533
-0.0007878314670974884
-0.001115499407955217
0.132194853798368
0.120560442478527
0.1203302989692988
0.120469142758566
0.1203652547873041
0.1377885713186522
-0.02482878531626329
0.1348825358461302
-0.1505005428586719
0.1107594972736658
-0.1229656476501109
-0.01104198145122387
0.08051127455651907
0.132202757910324
-0.02831643720099214
0.1023248735129081
-0.1270274774039399
0.05610808108363892
-0.08144715850386008
-0.002616557528689722
0.04679664192403768
0.1239352422830582
-0.02441169175007257
0.05391242530671912
-0.06299659833952131
0.002564322495658855
-0.03524042409749312
-0.006634783054600912
0.004849181857199403
0.09095614672288342
0.02205290705168954
-0.01732389600930212
-0.02687792566302151
0.104742988417554
0.1254178058490963
0.1177022085220373
0.1030275462762725
0.1245918684425073
0.05756168119700977
0.02675349995804466
0.1298439981910515
0.08613648117175227
0.08814303676275415
0.1121676465814697
0.0810422356249475
0.1233710861766104
0.0504037035169469
0.02496203496105465
0.1295953174117729
0.05318270161596825
0.04164873926930301
0.097645157657575
0.04051984618201088
0.1175438991890061
0.0337839427488279
0.02014574051374363
0.126144191898363
0.01606346046091531
0.06047006282993385
0.09669636436586371
0.1200202744855374
0.135066507297362
0.003068058961684605
0.1400248527464899
-0.006417211974322434
0.1434898097408006
0.00138166388453409
0.01112161470166928
0.1477709694171967
0.1347762250339894
0.005054650177136022
0.1395686014237288
-0.002602929786938435
0.1424687919330295
0.001754778422673908
0.006795073887959857
0.1464998330114221
0.1319895071100445
0.006205188796423844
0.1376969184747828
0.0001345884175970591
0.1417125344878676
0.001461586496647738
0.003119772940701315
0.1452932514944511
0.1330968845863592
0.1388412675170297
0.1429866550375109
0.1462795049261398
0.1586638487612809
0.03178754429881592
0.172659163473271
0.05121755786140414
0.1922475698710872
0.1023173025267984
0.1805134494553994
0.2412399763984216
0.1566728755511091
0.01993622282102925
0.1704612123821188
0.03610931974695242
0.1914989008602326
0.08113530235294864
0.1229079777589102
0.2492073282493936
0.1538903240547706
0.009770587769675099
0.1672302657130543
0.02142001886914435
0.1942631693884467
0.05345213762961226
0.034288417200601
0.2830991301885912
0.1546647513491045
0.1746625605650401
0.2273712822580186
0.261530886319236
0.1220014304691614
-0.6494854649824059
0.01214932372200995
-0.1526509055967505
-0.002597105491697954
-0.013846918476631
-0.009765680668093836
-0.003860716125169695
0.08463896259979652
-0.4845211077083344
0.001807037983651822
-0.06912178088449419
-0.004315321225567876
-0.006798972530160357
-0.006316579931360092
-0.00674826949589905
0.04503313650291164
-0.2463298468626577
-0.002596038954416229
-0.02080253851956178
-0.00588148219121742
-0.002576855395736112
-0.003320579851593564
-0.008045764662288696
0.0151795690273732
-0.004926149009826039
-0.006659494338908317
-0.009082452629910601
-0.005367078115655888
-0.007899551384467842
-0.006842743402691645
-0.005047390989404578
-0.008519318201090156
-0.0008105509760800954
0.003538100994434353
-0.009128796600138631
-0.008192565879767881
-0.005611305861942039
-0.009147302644441031
-0.002763178704890363
-0.009653885055298621
0.0007065788105796375
0.003168494764598975
-0.008476752698437319
-0.009688772920619475
-0.002882237912159753
-0.009469016679003071
-0.001545652117888468
-0.008702839176690109
0.0009290429600808808
0.00263495696211713
-0.007328886897038278
-0.01079234888776488
-0.01094987921135993
-0.009120768393841549
-0.005723280495246997
-0.008421312717126395
-0.01576930561091827
0.001942948075238576
-0.002849683908957318
0.02247352400192665
0.01462005925351811
0.07047372137327654
0.04243657530883471
-0.009509174237195009
-0.01396211114142587
-0.007053918276680428
-0.003681941938558683
0.008908770419039626
4.056099435126304e-05
0.04770547801335237
0.0338857497701793
-0.01176766611523774
-0.008575122503660153
-0.01145461286171606
-0.002555948848842013
-0.003607572198805926
-0.006446041400516939
0.02557337618110478
0.02032646538766228
-0.01309203286361809
-0.01388675905774801
-0.01901305141553549
0.00897559750028077
0.04129053385827445
-0.006356719549670466
0.01063474804680687
0.03999940617936049
-0.0074453605390725
0.01126594649400013
0.03677223577124405
-0.0123731506938201
0.01704042924186991
-0.01696907230329357
0.02817968741007857
0.02546621211571762
0.03266448710850761
-0.00378379803317249
0.0307832815600152
-0.004784060962847766
0.02748556061665171
-0.008732137829140764
-0.01083075053650483
0.02109973710567151
0.01849749349450559
-0.001709129297537155
0.01641333318244915
-0.002220605846355212
0.01257202742187197
-0.004436939875194897
-0.00501513675793416
0.00683778597929275
0.006533001754079358
0.004582709639475074
0.0002902146762799457
-0.004408714161770182
-0.006411070012216198
0.002584391863071561
-0.006056223606188668
0.0007783952973120199
-0.003634244930863777
-0.0008802465752947089
-0.001874209014220751
-6.219330606072049e-14
0.003495826376578005
0.006009673144515844
0.00102795910134143
0.003639462363006423
-4.024834903264274e-05
0.0009232107514366289
-0.0009164635849633826
-2.81302758864399e-14
0.01669104630591295
0.01018018997618438
0.01132014179327302
0.00892807229355521
0.005680748994944598
0.006652490481733813
0.005072947289993645
1.677130656574377e-14
0.02173982999049888
0.01431328553280761
0.007707623236640655
5.656586310465173e-14
-0.00187420901422837
0.003634244930764238
-0.0009164635849655614
4.024834901377589e-05
0.005072947289993072
-0.005680748994908308
-0.007707623236522729
0.01287168492666562
-0.0008802465752976163
0.006056223606102119
0.0009232107514321915
-0.001027959101444605
0.006652490481766679
-0.01132014179337819
-0.01431328553276031
0.01277405753853502
0.0007783952972882507
0.006411070012077101
0.003639462363004921
-0.00349582637653318
0.00892807229368351
-0.01669104630593399
-0.02173982999050025
0.01558019582479062
0.00258439186314401
0.004408714161816693
0.006009673144513845
-0.006837785979371472
0.01018018997628129
-0.02109973710563075
-0.02817968741030351
0.01607246832599341
-0.03677223577116408
-0.01696907230307357
0.02546621211596549
-0.03999940617937235
-0.01237315069378492
0.0170404292418232
-0.0412905338582883
-0.00744536053904047
0.01126594649406191
-0.006356719549747591
-0.04243657530887306
0.01063474804677352
-0.02748556061669266
-0.01083075053652861
-0.03078328155994829
-0.008732137829194707
-0.03266448710857223
-0.004784060962885826
-0.003783798033236169
-0.03388574977025267
-0.0125720274219462
-0.005015136757890334
-0.01641333318241708
-0.004436939875103928
-0.01849749349467449
-0.0022206058464182
-0.00170912929756557
-0.0203264653877432
-0.0002902146762831653
-0.004582709639526811
-0.00653300175410354
-0.008975597500372648
0.01901305141539446
-0.02557337618117041
0.01388675905773225
0.006446041400870961
0.01309203286360323
0.002555948848784351
0.008575122503429927
0.005723280495264133
0.00360757219880508
-0.04770547801340513
0.0114546128616336
-4.056099458922546e-05
0.01176766611511953
0.003681941938464571
0.01396211114154197
0.007328886897053454
-0.008908770419169029
-0.07047372137330814
0.007053918276572729
-0.01462005925375341
0.009509174237092804
0.002849683908988807
0.01576930561059612
0.008476752698420095
-0.02247352400212189
-0.001942948075312815
0.008421312716935119
0.009128796600146469
0.008519318201094493
0.003538100994446111
0.00684274340276576
-0.0008105509760367446
0.005367078115712379
-0.005047390989542008
-0.007899551384521933
0.003860716125124764
0.009653885055289385
0.003168494764588296
0.00914730264447952
0.0007065788105476943
0.008192565879779222
-0.002763178704959443
-0.005611305861982127
0.006748269495905614
0.008702839176645579
0.002634956962128683
0.009469016679035849
0.0009290429602205399
0.009688772920626205
-0.001545652117967727
-0.002882237912203536
0.008045764662288263
0.009120768393905155
0.01094987921139327
0.01079234888778985
0.009082452629911178
0.002597105491670977
-0.009765680668021271
-0.01214932372148902
-0.01384691847636916
-0.1220014304681995
-0.1526509055960663
-0.6494854649829985
-0.241239976397508
0.004315321225610293
-0.006316579931284343
-0.001807037983465787
-0.006798972530060863
-0.08463896259912591
-0.06912178088425197
-0.4845211077082873
-0.2492073282494484
0.005881482191246261
-0.003320579851581061
0.002596038954484275
-0.00257685539568984
-0.04503313650261318
-0.02080253851941914
-0.2463298468625929
-0.2830991301886297
0.006659494338914364
0.004926149009858018
-0.01517956902731529
-0.2615308863194521
-0.1922475698711901
0.1805134494564569
-0.1726591634730215
0.1023173025287902
-0.1586638487614459
0.05121755786373516
0.03178754430041131
-0.1477709694172265
-0.1914989008600085
0.1229079777573807
-0.1704612123822746
0.08113530235202721
-0.1566728755508999
0.03610931974861464
0.01993622281962226
-0.146499833011379
-0.1942631693881007
0.03428841720095921
-0.1672302657132446
0.05345213763071394
-0.1538903240543983
0.02142001887274447
0.009770587770257078
-0.1452932514946287
-0.2273712822573635
-0.1746625605657051
-0.1546647513488998
-0.1462795049261822
-0.1434898097408649
0.01112161470161233
-0.1400248527463816
0.001381663884302164
-0.1350665072967908
-0.00641721197337275
0.003068058961396614
-0.1298439981909675
-0.1424687919331811
0.006795073886358027
-0.139568601423276
0.001754778425975378
-0.1347762250336491
-0.002602929786953645
0.005054650176649966
-0.1295953174116185
-0.1417125344876303
0.003119772942861143
-0.1376969184745072
0.001461586495812295
-0.1319895071096401
0.0001345884175125711
0.006205188797419603
-0.1261441918983163
-0.1429866550376167
-0.1388412675169025
-0.1330968845860627
-0.1200202744853833
-0.124591868442717
0.02675349995793819
-0.117702208522036
0.05756168119685523
-0.1047429884177551
0.1030275462755984
0.1254178058493787
-0.08051127455664629
-0.1233710861766404
0.02496203496027527
-0.1121676465814831
0.05040370351550127
-0.08613648117206711
0.08104223562293811
0.0881430367641185
-0.04679664192414146
-0.1175438991889339
0.02014574051387974
-0.09764515765791129
0.03378394274858565
-0.05318270161603185
0.04051984618398119
0.04164873926696
-0.004849181857734364
-0.09669636436552481
-0.06047006282952111
-0.01606346046120827
0.02687792566357633
-0.1107594972741384
-0.01104198145124585
-0.1348825358465867
-0.1229656476507575
-0.1377885713188514
-0.1505005428576321
-0.02482878531591381
-0.1331207374263911
-0.05610808108399337
-0.002616557529588726
-0.102324873513559
-0.08144715850427592
-0.1322027579105867
-0.1270274774034864
-0.02831643720070551
-0.1326950990840255
-0.002564322495871102
-0.006634783054390914
-0.05391242530732826
-0.0352404240975327
-0.1239352422833343
-0.06299659833944377
-0.02441169174991537
-0.1321948537985088
0.01732389600929707
-0.02205290705173911
-0.09095614672301436
-0.1203652547872655
-0.1320143996412142
-0.003038492596235093
-0.1308441514517476
-0.003767074928978015
-0.1299200841695241
-0.005824213950686746
-0.006882542979976702
-0.1296550856474737
-0.1322700869281712
-0.002528165347707639
-0.1322448570361728
-0.002830334944890295
-0.1327149539371312
-0.004284423286593064
-0.004747774728481341
-0.1339572619605819
-0.1325487191916352
-0.001115499407724235