/*--------------------------------*- C++ -*----------------------------------*\
  =========                 |
  \\      /  F ield         | OpenFOAM: The Open Source CFD Toolbox
   \\    /   O peration     | Website:  https://openfoam.org
    \\  /    A nd           | Version:  11
     \\/     M anipulation  |
\*---------------------------------------------------------------------------*/
FoamFile
{
    format      ascii;
    class       volVectorField;
    location    "0.3592373";
    object      U;
}
// * * * * * * * * * * * * * * * * * * * * * * * * * * * * * * * * * * * * * //

dimensions      [0 1 -1 0 0 0 0];

internalField   nonuniform List<vector> 
880
(
(24.99999999999999 -2.80633903862045e-12 0)
(24.99999998203183 -1.217492491736531e-08 0)
(24.99829020635843 -0.0005554017416605097 0)
(24.71736040067317 0.007624740006648091 0)
(24.99999999998872 -2.831512815274047e-11 0)
(24.99999994445427 -7.040047312455284e-08 0)
(24.99747953480059 -0.001722107721814661 0)
(24.6326936098347 -0.1593360918894558 0)
(24.99999999963697 -2.437919805219434e-10 0)
(24.99999976102305 -2.871945020018637e-07 0)
(24.99514547267847 -0.003584514392557161 0)
(24.51359905259034 -0.2644845913808241 0)
(24.99999999829957 1.052155859011365e-09 0)
(24.9999988181946 -1.16787749308769e-06 0)
(24.98908567504373 -0.007016845865849868 0)
(24.13724179162778 -0.4137218477260624 0)
(25.0000000111903 -4.114229179123865e-09 0)
(24.99999998001881 8.77822017483549e-09 0)
(24.99999953213299 -9.298739794568424e-07 0)
(24.99999314126271 -1.184401763222165e-05 0)
(24.99999376783827 -4.448774800535904e-06 0)
(24.99996304584868 -1.867028791584452e-05 0)
(24.99985588985295 1.067092231543328e-05 0)
(25.00017477393679 -0.001107693761344463 0)
(24.97171049017416 -0.01019842450294266 0)
(24.95164262919508 -0.006360511283629631 0)
(24.9241460866531 0.01073092033306848 0)
(24.91407705454584 -0.0668347249361699 0)
(23.40263737422018 -0.09542154199947313 0)
(22.69016886392763 0.6348515172030584 0)
(22.26854943995918 1.33502876203493 0)
(22.24429717368388 1.746230458086805 0)
(24.99988402637514 -6.197080618544662e-06 0)
(24.99960661180658 -0.0003640906494398657 0)
(24.99925374050766 -0.001529076173169405 0)
(24.99747566542961 -0.004522279869753901 0)
(24.99801874396038 -0.0006931097576054225 0)
(24.99019671553596 -0.0003535739700975778 0)
(24.97715008839145 0.005493430940488602 0)
(24.9544190260268 0.008911124316793247 0)
(24.75585966545941 -0.0108021460505408 0)
(24.63017625172373 0.09839519734935141 0)
(24.46164885245393 0.2785207817266743 0)
(24.31834373861962 0.4062593134770295 0)
(21.98166715865501 2.340710139003801 0)
(21.98732124217756 2.779774905217061 0)
(21.88511689982863 3.317364769560162 0)
(22.33925447153069 3.758413795071024 0)
(23.38567203867526 4.323118100480992 0)
(24.11422148200137 4.173026453769553 0)
(24.45809578442538 3.766271585683261 0)
(24.81732763945703 3.316638051250606 0)
(24.07885559109354 0.7464009341033148 0)
(24.09385445823546 1.104404251793829 0)
(24.19611412442118 1.349491466289098 0)
(24.38213038195161 1.47556355610026 0)
(24.87563980938189 0.03529379962937031 0)
(24.77190096230398 0.1155052032392447 0)
(24.67953741935347 0.2412746039787608 0)
(24.63421186027296 0.3945589901878787 0)
(24.98787358931125 -0.01055581968675903 0)
(24.97236260159496 -0.02426034146157024 0)
(24.9502464764774 -0.0440442378121076 0)
(24.924050491648 -0.07056249661718171 0)
(24.90149010802249 -0.101017776270656 0)
(24.88770988898295 -0.1311324539794323 0)
(24.8828450269323 -0.1445284587217686 0)
(24.88832609406098 -0.1379827552923754 0)
(24.63263476065807 0.5574778353268632 0)
(24.67445460221376 0.7120280516220281 0)
(24.76091990592966 0.8382283078425743 0)
(24.87668930047603 0.8925730254733756 0)
(24.54953662370881 1.6087767522157 0)
(24.75257610379413 1.654948753531094 0)
(24.9405244570195 1.627186284735186 0)
(25.09323129388799 1.555470393483964 0)
(24.99115118270851 2.905794851924582 0)
(25.17872629502113 2.489600881288463 0)
(25.29112373240704 2.094360041709304 0)
(25.36345154466343 1.778077348368686 0)
(25.42831298411706 1.377473089834093 0)
(25.24434969732731 1.453735542852583 0)
(24.99915804394958 0.9127434582885176 0)
(24.89607384387994 -0.1212269199042013 0)
(24.54803429845759 1.5595015621091 0)
(25.34338391171128 1.289321884020014 0)
(25.14340278679694 0.8617835134791111 0)
(24.90333197469987 -0.09618364571681619 0)
(19.15440589374344 1.728678157350356 0)
(25.15904466640573 1.297221133661855 0)
(25.25814668771689 0.7517651978209148 0)
(24.91621881910707 -0.08053509765952628 0)
(14.1271259223069 2.095961463447967 0)
(23.70232602592875 1.628803788787719 0)
(25.27711772190997 0.7747461931293245 0)
(24.94896314386805 -0.09185158096939551 0)
(24.95453174089309 -0.06679644790437683 0)
(25.21733287308212 0.7182282336829525 0)
(22.05147117394766 2.269357713010541 0)
(12.48984058434816 3.860306169311008 0)
(24.83136472534988 -0.08882964359934835 0)
(24.99459610457693 0.8082442552074862 0)
(20.60599145869263 3.314566780311551 0)
(12.79857378903832 5.640554204132648 0)
(24.7895049014173 -0.1158519960328238 0)
(24.47444623868766 1.156909293301356 0)
(18.82495437357769 4.649487031828293 0)
(12.64751987690068 7.078642752889291 0)
(24.69831453620238 -0.1634674654638254 0)
(23.59933831634069 1.928825612639378 0)
(17.58775071250088 6.058378016898721 0)
(13.13583030582252 8.144175685332874 0)
(14.04754571620903 8.855723954564873 0)
(16.96791512005116 7.29380126926772 0)
(22.43002275226106 3.156643141406143 0)
(24.51831409183928 -0.1864962250887477 0)
(15.13573157874255 9.393289680650877 0)
(17.24087358335132 8.219379948159384 0)
(21.21728703103832 4.641954941523453 0)
(24.19844230750818 -0.07129628443989393 0)
(16.37659159226646 9.684260471540739 0)
(18.11055365116426 8.754313008364855 0)
(20.70754554143597 5.995934375349996 0)
(23.69387607770941 0.2364232871685784 0)
(17.54806478921019 9.75678382756516 0)
(19.39762837506083 8.854123868631104 0)
(20.8760856416058 7.035987533578815 0)
(23.19626790840366 0.7229248296679076 0)
(22.91097147126406 0.8509712746393107 0)
(22.04903418556624 7.091149602362585 0)
(21.12109550268676 8.806650024939978 0)
(18.96386145139103 9.897790523809736 0)
(23.45621370571219 0.6463908282335992 0)
(23.50851203863264 6.648123293166145 0)
(23.10798657071657 8.415242335298734 0)
(20.90706730919437 9.810493398904178 0)
(24.04000244983106 0.3441217409241271 0)
(24.93162692605245 5.87507647865062 0)
(25.19364668163541 7.620150327270259 0)
(23.44736042699817 9.238277847929824 0)
(24.51868788702784 -0.2494385119952275 0)
(26.06332989997465 4.606850627512561 0)
(27.16639079987399 6.226688402417196 0)
(26.40060295837038 7.61639008747334 0)
(24.88419867206356 -0.307562262656304 0)
(26.92926693490218 3.628092533807724 0)
(29.04980229439647 4.804324790856886 0)
(30.68347143695001 4.759031705837176 0)
(25.30047347617406 -0.4989518344852521 0)
(27.49766583842612 2.601740979679213 0)
(30.11085828563032 3.390623996493485 0)
(34.00252273765282 0.7046244946966995 0)
(25.54327913657126 -0.5425598800050687 0)
(27.54996855502437 1.647316250768912 0)
(30.83478558718184 1.256059348981698 0)
(36.34819318852595 -4.253921224374595 0)
(25.65369844182953 -0.5437399793469123 0)
(27.22446389065001 1.02278975460136 0)
(30.31239369427256 -0.3107813919415569 0)
(37.77945247522315 -9.251982409193086 0)
(34.01919673778052 -7.328103622926747 0)
(29.13041585621299 -1.417315736185665 0)
(26.9423379479612 0.3554864292436022 0)
(25.69371976702057 -0.546752977295712 0)
(25.63452774433727 -3.215029419365913 0)
(28.24647279555394 -1.936573042183941 0)
(26.64811775741699 -0.100146045121805 0)
(25.62906022742244 -0.4720589897773557 0)
(23.08907908077601 -3.612733037517878 0)
(27.75006973806174 -2.84173163055616 0)
(26.39350546335677 -0.5594336436159119 0)
(25.50627297965001 -0.3592940286092038 0)
(19.90314982180743 -3.659487444453751 0)
(26.97783751360514 -3.450134255278835 0)
(26.04931504104908 -0.9532403970308801 0)
(25.38980274636457 -0.275109740153376 0)
(18.0853085358435 -4.760142089260825 0)
(25.72430024796341 -4.391146149603418 0)
(25.48602300614469 -1.289828991456847 0)
(25.18022157401218 -0.2156728524377775 0)
(15.43326932004268 -6.813599468912467 0)
(24.08650122112819 -4.635066910808123 0)
(24.8965231153021 -1.125742709775758 0)
(25.00123695526248 -0.1079278678330611 0)
(14.37829041853361 -6.976646732096414 0)
(23.02532727415527 -4.048554188945382 0)
(24.65192864965664 -0.7359148423916914 0)
(24.9708106247995 -0.04913628937139913 0)
(14.33664984788396 -5.86126901537749 0)
(22.80033167355346 -3.60048676016759 0)
(24.67303535960752 -0.6014602108939652 0)
(24.97608453145061 -0.03607992162029911 0)
(14.22224945296217 -0.66325145636768 0)
(20.34302409073149 -0.1132519351160765 0)
(23.64824572122434 0.01057921138004953 0)
(24.85559150158426 0.001982466552396853 0)
(14.20383097985255 -1.755742307679334 0)
(20.33966707168142 -0.5378124687940555 0)
(23.66315897373382 0.0006291491283754953 0)
(24.85253461679748 0.004365020307251934 0)
(14.41814742299265 -3.256063416286172 0)
(20.34758030255584 -0.9879204819968451 0)
(23.7024816782497 -0.07176029935239239 0)
(24.85178466594154 0.0002501476675135022 0)
(14.46995721277404 -4.649571250138679 0)
(20.55617961573994 -1.352452956906522 0)
(23.8022177412517 -0.1947217536506786 0)
(24.86017122236068 -0.0113908343631659 0)
(14.33664984789235 5.861269015354524 0)
(22.80033167357951 3.600486760160285 0)
(24.67303535973554 0.6014602108472247 0)
(24.97608453156242 0.03607992160093538 0)
(14.37829041853405 6.976646732056794 0)
(23.0253272742505 4.048554189000233 0)
(24.65192864973929 0.7359148423770897 0)
(24.97081062494492 0.04913628941764297 0)
(15.43326932008103 6.813599468930087 0)
(24.08650122114675 4.635066910846517 0)
(24.89652311529196 1.125742709819983 0)
(25.00123695528172 0.1079278678833664 0)
(18.08530853587273 4.76014208926397 0)
(25.72430024810545 4.39114614967961 0)
(25.48602300616817 1.289828991491542 0)
(25.18022157398449 0.2156728524855839 0)
(25.69371976698999 0.5467529772373281 0)
(26.94233794795534 -0.3554864292776254 0)
(29.13041585624635 1.417315736178293 0)
(34.01919673770671 7.328103623054927 0)
(25.62906022743814 0.4720589897262688 0)
(26.648117757424 0.1001460451145091 0)
(28.24647279564433 1.936573042191832 0)
(25.63452774442954 3.215029419472343 0)
(25.50627297957404 0.3592940285627291 0)
(26.39350546327032 0.5594336436404911 0)
(27.750069738147 2.841731630688814 0)
(23.08907908069396 3.612733037559565 0)
(25.38980274625235 0.2751097401324353 0)
(26.04931504096998 0.9532403970022375 0)
(26.97783751362392 3.450134255355743 0)
(19.90314982189848 3.659487444486292 0)
(37.77945247521046 9.251982409323043 0)
(30.31239369424326 0.3107813919359667 0)
(27.22446389063768 -1.022789754607559 0)
(25.65369844179713 0.543739979299226 0)
(36.348193188537 4.253921224423942 0)
(30.83478558723304 -1.256059348940834 0)
(27.54996855505075 -1.647316250774772 0)
(25.54327913659966 0.542559880018268 0)
(34.00252273767954 -0.7046244946553796 0)
(30.11085828550776 -3.390623996467217 0)
(27.49766583843043 -2.601740979653524 0)
(25.30047347603066 0.4989518345537373 0)
(30.68347143689212 -4.759031705814698 0)
(29.04980229443056 -4.804324790826136 0)
(26.92926693504067 -3.628092533784559 0)
(24.88419867190915 0.3075622627437191 0)
(22.91097147118231 -0.8509712746202904 0)
(22.04903418550779 -7.091149602366797 0)
(21.12109550263693 -8.806650024940376 0)
(18.96386145141915 -9.897790523815022 0)
(23.45621370570474 -0.6463908281893644 0)
(23.50851203863999 -6.648123293161786 0)
(23.10798657064678 -8.415242335272984 0)
(20.9070673092315 -9.810493398916622 0)
(24.04000244987032 -0.3441217409039435 0)
(24.93162692607984 -5.875076478659872 0)
(25.19364668157761 -7.620150327237878 0)
(23.44736042699486 -9.238277847916693 0)
(24.51868788697839 0.2494385120647501 0)
(26.06332990005493 -4.606850627492157 0)
(27.16639079991043 -6.226688402390386 0)
(26.40060295832719 -7.616390087456432 0)
(17.54806478923173 -9.756783827571519 0)
(19.3976283751114 -8.854123868665232 0)
(20.87608564156688 -7.03598753357634 0)
(23.1962679082758 -0.7229248296843505 0)
(16.37659159230536 -9.684260471562197 0)
(18.11055365121633 -8.754313008385779 0)
(20.70754554141893 -5.995934375358239 0)
(23.69387607768933 -0.2364232871654504 0)
(15.13573157875265 -9.393289680664067 0)
(17.24087358343182 -8.219379948172721 0)
(21.21728703106087 -4.641954941498383 0)
(24.19844230740481 0.07129628444686757 0)
(14.04754571624156 -8.855723954567615 0)
(16.96791512005891 -7.293801269237608 0)
(22.43002275217485 -3.156643141372268 0)
(24.51831409183336 0.1864962250903917 0)
(24.9545317409402 0.06679644792713227 0)
(25.21733287311448 -0.7182282336575065 0)
(22.05147117395423 -2.269357713022208 0)
(12.48984058440323 -3.860306169321368 0)
(24.83136472526487 0.08882964359765633 0)
(24.99459610457761 -0.8082442551640112 0)
(20.60599145871941 -3.314566780312027 0)
(12.7985737890838 -5.640554204157668 0)
(24.78950490127601 0.115851996026254 0)
(24.47444623853738 -1.156909293236366 0)
(18.82495437364614 -4.649487031809093 0)
(12.64751987694064 -7.078642752901692 0)
(24.69831453615359 0.1634674654670075 0)
(23.59933831631646 -1.928825612559441 0)
(17.58775071258245 -6.058378016880714 0)
(13.13583030582808 -8.144175685331629 0)
(24.94896314384361 0.09185158098320707 0)
(24.91621881914616 0.08053509767216867 0)
(24.90333197461623 0.09618364574643881 0)
(24.89607384387119 0.1212269199005645 0)
(25.27711772198909 -0.7747461931307972 0)
(25.25814668778599 -0.7517651978118739 0)
(25.14340278667941 -0.8617835134648292 0)
(24.99915804394535 -0.912743458304867 0)
(23.70232602603233 -1.628803788807492 0)
(25.159044666436 -1.297221133667021 0)
(25.34338391177712 -1.289321884033301 0)
(25.24434969735616 -1.453735542845497 0)
(14.1271259223866 -2.095961463453625 0)
(19.15440589381002 -1.728678157346016 0)
(24.54803429839412 -1.559501562081208 0)
(25.42831298410884 -1.377473089808481 0)
(24.88832609400589 0.1379827552995718 0)
(24.87668930039646 -0.8925730254517311 0)
(25.09323129387782 -1.555470393458828 0)
(25.36345154474581 -1.778077348322204 0)
(24.88284502700242 0.1445284587025538 0)
(24.76091990590655 -0.8382283078358709 0)
(24.94052445711089 -1.627186284717725 0)
(25.29112373245514 -2.094360041670214 0)
(24.88770988896922 0.1311324539701034 0)
(24.67445460220897 -0.7120280515699954 0)
(24.75257610378431 -1.654948753539169 0)
(25.17872629507464 -2.489600881288276 0)
(24.90149010807621 0.1010177761897534 0)
(24.63263476071446 -0.557477835305826 0)
(24.549536623751 -1.608776752213736 0)
(24.99115118271706 -2.905794851915214 0)
(24.98787358931602 0.01055581960162429 0)
(24.87563980949217 -0.03529379953554567 0)
(24.07885559113386 -0.7464009340963942 0)
(23.3856720387081 -4.323118100465519 0)
(24.97236260159739 0.02426034134560302 0)
(24.77190096237669 -0.1155052031678716 0)
(24.09385445828264 -1.104404251760287 0)
(24.11422148208789 -4.173026453783077 0)
(24.95024647636019 0.04404423778516637 0)
(24.67953741951775 -0.2412746039082518 0)
(24.19611412446174 -1.349491466289685 0)
(24.45809578457412 -3.766271585738355 0)
(24.92405049166258 0.07056249654904471 0)
(24.6342118602782 -0.3945589901341353 0)
(24.38213038206714 -1.475563556067498 0)
(24.81732763950821 -3.316638051275711 0)
(22.33925447155593 -3.758413795058752 0)
(24.31834373858617 -0.4062593134797402 0)
(24.95441902609461 -0.008911124221981231 0)
(24.99747566543004 0.00452227985649092 0)
(21.88511689986517 -3.31736476954527 0)
(24.46164885244199 -0.2785207817307152 0)
(24.97715008845809 -0.005493430902512138 0)
(24.99925374054018 0.001529076142144474 0)
(21.98732124226148 -2.779774905211514 0)
(24.63017625178455 -0.09839519735529269 0)
(24.99019671569613 0.0003535739771035974 0)
(24.9996066117532 0.0003640905277734092 0)
(21.98166715862465 -2.340710138983704 0)
(24.75585966553614 0.01080214604304244 0)
(24.99801874403671 0.0006931097727572999 0)
(24.99988402642962 6.197094884870621e-06 0)
(22.24429717366807 -1.746230458072769 0)
(24.91407705452911 0.0668347249406608 0)
(25.0001747739793 0.001107693780631127 0)
(24.99999314123308 1.184406086568392e-05 0)
(22.26854943990758 -1.335028762021862 0)
(24.92414608666505 -0.01073092033624824 0)
(24.99985588987492 -1.067092315291706e-05 0)
(24.99999953209123 9.298832496250776e-07 0)
(22.6901688637743 -0.6348515172118514 0)
(24.95164262922244 0.006360511274737001 0)
(24.99996304584651 1.867027866715933e-05 0)
(24.99999998004261 -8.823637683213755e-09 0)
(23.40263737398139 0.09542154195242558 0)
(24.97171049025138 0.01019842449765997 0)
(24.99999376800767 4.448787857938745e-06 0)
(25.00000001114298 4.117397915639678e-09 0)
(25.00000000000002 5.955209610117619e-12 0)
(24.99999998201898 1.215821538727469e-08 0)
(24.99829020635127 0.0005554017237621782 0)
(24.71736040064055 -0.007624739849924405 0)
(24.99999999997173 4.182545703639378e-11 0)
(24.99999994453042 7.037700069696648e-08 0)
(24.99747953473526 0.001722107699433857 0)
(24.63269360968482 0.1593360919601847 0)
(24.99999999962681 2.564988256169945e-10 0)
(24.99999976109916 2.871982005962188e-07 0)
(24.99514547270288 0.003584514379203555 0)
(24.51359905223757 0.2644845913114148 0)
(24.99999999828481 -1.02626414863167e-09 0)
(24.99999881823999 1.167890147695229e-06 0)
(24.98908567504927 0.007016845855561419 0)
(24.13724179133678 0.413721847670287 0)
(24.52527191970698 1.098672436731377e-10 0)
(24.35979369495426 0.1495549039200191 0)
(23.97404474903559 0.1736328289642174 0)
(23.03855049926105 0.01871680840185788 0)
(24.3597936951709 -0.1495549037031118 0)
(24.08843411626182 4.096729960716532e-11 0)
(23.40957289017548 -0.06031095432143928 0)
(21.96066510987604 -0.4863802654205248 0)
(23.97404474947801 -0.1736328288712908 0)
(23.40957289054149 0.06031095439742176 0)
(22.12861823809675 6.328906958577255e-11 0)
(20.03096116852876 -0.5819753588281549 0)
(23.03855049963401 -0.01871680842245796 0)
(21.96066511045717 0.4863802653633956 0)
(20.03096116878723 0.5819753587812726 0)
(17.78918927097887 -2.400775952605653e-10 0)
(17.25878655101625 2.521584684795842 0)
(17.89935270204913 2.917349616306341 0)
(19.54339720883811 2.65584394418924 0)
(21.08693738998187 1.887815864612166 0)
(18.24491201755074 4.246788010986344 0)
(18.30812659818255 4.203002576634016 0)
(19.04065996697781 4.114781101750451 0)
(20.07397818864306 3.952547190196939 0)
(17.68385853991036 5.193200408221148 0)
(18.85057585853402 4.491073181018018 0)
(19.527924464208 4.691878958053027 0)
(20.05233661723772 4.563749773665671 0)
(18.33525377984651 5.754219155275404 0)
(19.70555669039408 4.717193810947631 0)
(20.20571669617109 4.89123255414433 0)
(20.49070110385923 4.80557415179415 0)
(20.79096551873118 4.932705607288442 0)
(21.02925814545603 5.061730966649368 0)
(21.40435177571123 5.120578903000802 0)
(22.16084914732909 5.280348329187712 0)
(20.72900313911092 4.994247060074561 0)
(21.03868983446418 5.101569538508842 0)
(21.53836787147141 5.117412741435401 0)
(22.65128636496571 5.500671341770542 0)
(20.47284772224685 4.931258723040342 0)
(20.97343879968455 5.105922407762661 0)
(21.55536596360072 5.15819024412133 0)
(24.1013691614251 5.943006801631236 0)
(18.97616866631447 5.851119521042184 0)
(19.59932986663846 5.875947067119667 0)
(20.50317416044514 5.734757718722406 0)
(25.83118898956153 7.12589762335775 0)
(25.81525321041876 3.187582036608258 0)
(26.40945105890744 0.8090350003303736 0)
(25.72185596792724 0.4870792683031155 0)
(25.59509806199421 0.3820585388328145 0)
(28.37610561548234 2.198782534730984 0)
(28.69592333290122 0.3397477742955121 0)
(27.56801982272662 0.2832497337378352 0)
(26.89269665011329 0.3137578215310499 0)
(31.54901976617193 1.904715528476679 0)
(30.14995144508839 0.04577670648658513 0)
(28.75773828728656 0.05144592788404644 0)
(27.77933226322483 0.0938662389717059 0)
(25.07990649980554 1.987932941150215 0)
(24.21747537429621 0.6522728570940719 0)
(24.07232485700913 0.08970197754105999 0)
(24.15978689940662 -0.2164447100768586 0)
(25.66543026682623 0.3867733963358372 0)
(25.71344295170779 0.3198129816632258 0)
(25.70095944951411 0.2051373569215623 0)
(25.653436094841 0.1716677355577914 0)
(26.53712627853288 0.3417376335681284 0)
(26.22460447540356 0.2915141270220228 0)
(25.94663709950568 0.1915941877249615 0)
(25.72127696369372 0.1306863123198158 0)
(27.15030486622642 0.1478463849713323 0)
(26.59225134210845 0.1471934730794648 0)
(26.09881378840824 0.09830296943237168 0)
(25.66598762344218 0.08514143121849264 0)
(24.13124357528008 -0.4622503991366281 0)
(23.90332454578325 -0.620734050514861 0)
(23.70232697956435 -0.7154385757341259 0)
(23.3699475155873 -0.6662489369578912 0)
(25.20552763685586 0.7717282146178659 0)
(20.09238754234799 5.098307898652142 0)
(13.71993420874589 3.924522018642651 0)
(9.345205567577944 1.059321847054161 0)
(24.6275935588739 1.255379510404527 0)
(16.07223491020432 4.951626447943755 0)
(8.863790621317548 2.740816209937588 0)
(4.47102957171683 -0.1764395046145777 0)
(23.43566765183359 1.295060667559056 0)
(11.69330238055819 3.634461691633931 0)
(3.13965057572724 2.029127682826216 0)
(-0.7690318845571064 0.2418310696852036 0)
(19.41393988191778 -0.7286203258316566 0)
(7.302797632975191 -0.7957836114723726 0)
(0.2337091843722525 0.5430018970953071 0)
(-2.595590926436229 0.1743944563182532 0)
(8.569152923355505 2.693895982837131 0)
(10.5853634381057 4.559499535455354 0)
(11.49761144908678 6.280351846335232 0)
(12.44952379803413 7.625634801940931 0)
(6.136681648926473 1.993687389444612 0)
(9.511371199878598 4.411051296739149 0)
(11.20128895736866 6.226226910693995 0)
(12.40431594188242 7.672156810644177 0)
(2.933313604711135 0.0119801646243112 0)
(7.442483357090711 3.331964987105448 0)
(10.26714405824612 6.036195509052695 0)
(12.02123135501396 7.596918520549059 0)
(0.2395603751815973 -0.1062559484579999 0)
(3.470286966782707 2.475986785076081 0)
(7.538053140377863 3.9761907957204 0)
(10.63465878632695 5.463979807906547 0)
(13.63848993844909 8.986492225147241 0)
(14.77053611285375 10.00815345229399 0)
(15.91945220774606 10.56578401934535 0)
(16.81353006097406 10.85599159146445 0)
(13.55816504077277 8.921003375775557 0)
(14.71383213247959 9.954782468202845 0)
(15.82396835452783 10.54167065618879 0)
(16.69639807547195 10.88141953982299 0)
(13.23585702145212 8.764175022964366 0)
(14.51737945873467 9.775720176923324 0)
(15.74209211406422 10.47462342969573 0)
(16.62306884422059 10.96197820175895 0)
(13.11738482262568 6.748232801645181 0)
(14.67204946378814 8.448535397111662 0)
(15.76611562355417 10.30179709186395 0)
(16.6456557969741 10.93921226210385 0)
(17.82791966380245 11.2756842060402 0)
(19.42337516275669 11.76984799314813 0)
(21.77504888811666 11.69322991557515 0)
(24.77798055714724 10.42096548432341 0)
(17.62277880325873 11.27976283188431 0)
(19.07492195198337 11.72985204363135 0)
(21.21153651140217 11.74952406087881 0)
(24.97582639344285 12.47347770524614 0)
(17.47370079555597 11.36885648657042 0)
(18.7229712968672 11.78345949899046 0)
(21.34547279683775 12.58553909343414 0)
(31.48515868758957 18.45884224681261 0)
(17.43735089857343 11.39312121219226 0)
(18.64011640494141 11.79210992790488 0)
(22.06806853846836 13.1748386796245 0)
(43.2439445711056 25.5157390220385 0)
(30.59388151653259 5.261214288049744 0)
(32.03812699848054 -3.582408766974472 0)
(12.65433597233235 8.691228779523852 0)
(7.857695983433602 30.8408346877994 0)
(32.23135491076323 4.900233339263441 0)
(26.46681401811005 -1.952398159608426 0)
(8.976512685430402 17.41678289772483 0)
(8.448178610946735 29.02685560265972 0)
(31.97401135196269 3.292519616763119 0)
(17.20847893714296 -4.302874463438839 0)
(3.828897211102535 21.32887677579819 0)
(4.612006816587985 29.02658196711876 0)
(20.30819307960888 -8.299020336578049 0)
(7.328070280645306 -0.5716299984337125 0)
(2.088266316775143 24.81809280958106 0)
(2.648161884759108 28.73395753112514 0)
(7.017461332791598 24.62069837835409 0)
(2.69957964043384 17.69712945968494 0)
(-0.7734036540194796 14.87154699073213 0)
(-2.833092864336771 9.937951663239257 0)
(6.712206984503132 23.57249069181995 0)
(1.915076838075214 19.24746408841412 0)
(-0.4568120757899211 14.98171314622867 0)
(-1.25357770216868 7.687179662756055 0)
(3.278212747593784 22.61476421382559 0)
(1.430413942793059 18.10667833465669 0)
(-0.3153875360733609 12.35861651386666 0)
(-0.8159269529528982 4.900437042113263 0)
(0.7861792779223913 22.03875716554009 0)
(-0.4547198537794996 17.366576176623 0)
(-1.909241106399642 10.96804533888105 0)
(-1.738861723088854 3.28519097034764 0)
(-6.073829687622943 3.289750746290468 0)
(-2.016737543691134 0.2621749497755786 0)
(2.428977449740465 -2.420483734419977 0)
(4.456990104749742 -6.632193416375306 0)
(-6.812455183224839 3.051132687700903 0)
(-5.955773145614046 0.3487632291593211 0)
(-1.266778334351313 -0.7973395526166461 0)
(2.679130297710233 -5.575487960624575 0)
(-6.212912025045338 2.126701739331673 0)
(-7.80643261037814 0.6687301292258819 0)
(-4.517934058067647 0.3046677763751453 0)
(0.03242061926687607 -4.086210601205155 0)
(-4.585755993746303 2.184287345878293 0)
(-7.136654917949249 2.668600568888426 0)
(-5.229517483422941 3.072719997694042 0)
(-0.6499652519708409 -1.052226473811421 0)
(2.361371778094524 -6.935599134950842 0)
(2.293282748921872 -7.54110499205405 0)
(3.156916325609918 -7.215758049682553 0)
(4.462973754794857 -6.469132009088145 0)
(1.465748200383409 -6.803506131246856 0)
(1.926629658126849 -6.275229124808199 0)
(3.127027086746224 -5.840672224669452 0)
(3.899670462409764 -4.924358609210095 0)
(0.4567293168704895 -4.750751982508472 0)
(0.6584956286085393 -3.491297536639246 0)
(1.655331882587232 -3.003642997157081 0)
(2.137338362896025 -1.923654535381845 0)
(1.658861024782958 -1.986321694574535 0)
(1.311089649744117 -0.7524917314902846 0)
(1.877031899998982 -0.3122923603681867 0)
(1.653195917888506 0.6367082271778793 0)
(0.7800796648195062 1.14731427754245 0)
(-0.03299009816365283 1.284710654844396 0)
(-0.6587074225837521 0.9682830079346929 0)
(-0.9812999753490963 0.3366271803495653 0)
(1.586999067549957 -0.9804338380975174 0)
(0.5863081731243164 -0.4815300436249793 0)
(-0.2570295492012569 -0.05723399197831856 0)
(-0.675057512082928 -0.02422289216290531 0)
(3.363732093076065 -3.805971198380392 0)
(2.444047715983281 -2.796837655067926 0)
(1.338022170415615 -1.704867060319196 0)
(0.6067241284102787 -0.6385152711254207 0)
(5.107000571580413 -4.816654426131707 0)
(4.969847091090224 -3.302376553217218 0)
(4.187862083214297 -2.022001314890352 0)
(3.720942126699655 -0.7293602210097021 0)
(-0.9812999753513864 -0.3366271803266804 0)
(-0.6750575120829554 0.02422289217268467 0)
(0.6067241284105489 0.6385152711200979 0)
(3.720942126700958 0.7293602209902034 0)
(-0.6587074225879429 -0.9682830079156916 0)
(-0.2570295492021739 0.05723399198784571 0)
(1.33802217042012 1.704867060316771 0)
(4.187862083242162 2.022001314871122 0)
(-0.03299009816746726 -1.284710654830999 0)
(0.5863081731229225 0.4815300436321857 0)
(2.444047715982355 2.796837655065838 0)
(4.969847091110922 3.302376553218294 0)
(0.7800796648167575 -1.147314277531377 0)
(1.586999067552392 0.9804338381025841 0)
(3.363732093066168 3.80597119838187 0)
(5.107000571584452 4.816654426141397 0)
(4.462973754774269 6.469132009059511 0)
(3.15691632561199 7.215758049669223 0)
(2.293282748925065 7.541104992043442 0)
(2.3613717781086 6.93559913493597 0)
(3.899670462409582 4.924358609210287 0)
(3.127027086755047 5.840672224663147 0)
(1.926629658143344 6.275229124801476 0)
(1.465748200404203 6.803506131232944 0)
(2.13733836289634 1.923654535379046 0)
(1.655331882589774 3.00364299714819 0)
(0.6584956286195875 3.491297536640478 0)
(0.4567293168841582 4.750751982502549 0)
(1.653195917889742 -0.6367082271737364 0)
(1.877031900006631 0.3122923603725424 0)
(1.311089649753118 0.7524917314972661 0)
(1.65886102479157 1.986321694582443 0)
(-0.6499652519533775 1.052226473813724 0)
(-5.229517483385341 -3.072719997665425 0)
(-7.136654917912576 -2.668600568857495 0)
(-4.58575599371893 -2.184287345869821 0)
(0.03242061928218988 4.086210601203111 0)
(-4.517934058048136 -0.3046677763527933 0)
(-7.806432610321161 -0.6687301292085104 0)
(-6.212912024976911 -2.126701739299555 0)
(2.679130297723495 5.575487960616113 0)
(-1.266778334319424 0.7973395526409072 0)
(-5.955773145543146 -0.3487632291335364 0)
(-6.812455183172268 -3.051132687648944 0)
(4.456990104762453 6.632193416370414 0)
(2.428977449764753 2.420483734441373 0)
(-2.016737543605822 -0.2621749497547667 0)
(-6.073829687518846 -3.289750746218247 0)
(-2.833092864330235 -9.937951663124579 0)
(-0.773403654077095 -14.87154699073334 0)
(2.699579640470855 -17.69712945993972 0)
(7.017461332515063 -24.62069837845169 0)
(-1.25357770216442 -7.68717966269215 0)
(-0.4568120758008616 -14.98171314619874 0)
(1.915076838164028 -19.24746408849913 0)
(6.712206984533612 -23.57249069180909 0)
(-0.815926952954485 -4.900437042088431 0)
(-0.3153875360778464 -12.35861651383459 0)
(1.430413942819488 -18.10667833470007 0)
(3.278212747611144 -22.61476421383306 0)
(-1.738861723083706 -3.285190970355267 0)
(-1.909241106407087 -10.96804533890619 0)
(-0.4547198537807908 -17.36657617662382 0)
(0.7861792779320748 -22.038757165544 0)
(7.857695983066797 -30.84083468781008 0)
(12.65433597206251 -8.691228779828336 0)
(32.03812699845044 3.582408767024685 0)
(30.5938815165712 -5.261214288041531 0)
(8.448178610795164 -29.02685560265697 0)
(8.976512685380893 -17.41678289793407 0)
(26.46681401816602 1.952398159584648 0)
(32.23135491068962 -4.900233339233786 0)
(4.612006816602849 -29.02658196718311 0)
(3.828897211049401 -21.32887677591626 0)
(17.20847893708452 4.302874463379641 0)
(31.97401135188029 -3.292519616749624 0)
(2.64816188476495 -28.73395753119802 0)
(2.088266316753952 -24.81809280971426 0)
(7.328070280668545 0.5716299983694665 0)
(20.30819307960072 8.299020336551253 0)
(24.77798055713548 -10.420965484303 0)
(21.77504888809084 -11.69322991554192 0)
(19.42337516280526 -11.76984799315058 0)
(17.82791966377511 -11.2756842060197 0)
(24.97582639348131 -12.47347770525253 0)
(21.21153651145308 -11.74952406088433 0)
(19.07492195198196 -11.72985204361421 0)
(17.62277880331808 -11.27976283191326 0)
(31.48515868751635 -18.45884224675979 0)