/*--------------------------------*- C++ -*----------------------------------*\
  =========                 |
  \\      /  F ield         | OpenFOAM: The Open Source CFD Toolbox
   \\    /   O peration     | Website:  https://openfoam.org
    \\  /    A nd           | Version:  11
     \\/     M anipulation  |
\*---------------------------------------------------------------------------*/
FoamFile
{
    format      ascii;
    class       volVectorField;
    location    "0.3592365";
    object      U;
}
// * * * * * * * * * * * * * * * * * * * * * * * * * * * * * * * * * * * * * //

dimensions      [0 1 -1 0 0 0 0];

internalField   nonuniform List<vector> 
880
(
(24.99999999999999 -2.806209968298174e-12 0)
(24.99999998203183 -1.217453222486951e-08 0)
(24.99829022654695 -0.0005554030742107938 0)
(24.71736197636388 0.00762466167213372 0)
(24.99999999998872 -2.831411474414239e-11 0)
(24.99999994445427 -7.039890714350439e-08 0)
(24.99747956102195 -0.001722094658584491 0)
(24.63269547645455 -0.1593359857940801 0)
(24.99999999963697 -2.437849697606896e-10 0)
(24.99999976102305 -2.87189139327395e-07 0)
(24.99514551339764 -0.00358449018429437 0)
(24.51360137656997 -0.2644844964936643 0)
(24.99999999829957 1.052133556092608e-09 0)
(24.9999988181946 -1.167859592522728e-06 0)
(24.98908574951794 -0.00701680421521037 0)
(24.13724464944659 -0.4137218563324707 0)
(25.0000000111903 -4.114280808735759e-09 0)
(24.99999998001881 8.778682598383062e-09 0)
(24.99999953213299 -9.298585987023771e-07 0)
(24.99999314126271 -1.184384584129708e-05 0)
(24.99999376795497 -4.448715164183781e-06 0)
(24.99996304599063 -1.867021522706758e-05 0)
(24.99985589049828 1.067198939011967e-05 0)
(25.00017477373364 -0.001107687603966604 0)
(24.97171064684714 -0.01019838049417477 0)
(24.95164286312438 -0.006360456282394303 0)
(24.92414645410035 0.01073096716196187 0)
(24.91407758561624 -0.06683450787062557 0)
(23.40264072386195 -0.09542194064022504 0)
(22.69017265972077 0.6348507488580998 0)
(22.26855389154073 1.335027582760747 0)
(22.24430150587169 1.746229189044328 0)
(24.99988402697087 -6.197491439281569e-06 0)
(24.99960661583052 -0.0003640891422233253 0)
(24.99925375078482 -0.001529061152927393 0)
(24.99747569025876 -0.004522248949894487 0)
(24.99801875816389 -0.0006931041479523154 0)
(24.99019678214569 -0.0003535566765856611 0)
(24.97715024203949 0.005493424294025403 0)
(24.95441933387856 0.008911111010540053 0)
(24.7558605189837 -0.01080204666515166 0)
(24.63017751797565 0.09839502616018239 0)
(24.46165063684379 0.2785203086770502 0)
(24.31834602008561 0.4062584484869887 0)
(21.98167139683172 2.340708664596705 0)
(21.98732541134891 2.779772812298682 0)
(21.88512092736422 3.31736289481525 0)
(22.33925796267163 3.758410810613351 0)
(23.38567494188214 4.323115346564931 0)
(24.11422329464296 4.173023432392486 0)
(24.45809760174659 3.766268436630996 0)
(24.81732880817637 3.316635498086939 0)
(24.07885816904594 0.7463997891015899 0)
(24.09385672475558 1.104403458498633 0)
(24.1961170166989 1.349489825322652 0)
(24.38213260089703 1.475562437776415 0)
(24.87564051369763 0.03529369800322083 0)
(24.77190227310114 0.1155048502986565 0)
(24.67953905761951 0.2412739007299035 0)
(24.63421368161282 0.3945579058096724 0)
(24.98787368715314 -0.01055574751396178 0)
(24.97236280864365 -0.02426021072015848 0)
(24.95024683045651 -0.04404407061005065 0)
(24.92405105697628 -0.0705622789424451 0)
(24.90149088792143 -0.1010174968073013 0)
(24.88771082690214 -0.1311320131750081 0)
(24.88284602769349 -0.144527709702281 0)
(24.88832700387526 -0.1379818179224115 0)
(24.63263666983402 0.5574764401985413 0)
(24.6744565827766 0.7120262153045493 0)
(24.76092198006112 0.8382257329514321 0)
(24.87669121211914 0.8925699071986599 0)
(24.54953885979388 1.608774953494496 0)
(24.75257828552343 1.654946296555049 0)
(24.94052614258658 1.627183628929287 0)
(25.09323269711405 1.55546732924074 0)
(24.99115115392549 2.905792636764503 0)
(25.17872747706114 2.489598960826124 0)
(25.29112387527175 2.094358384465848 0)
(25.36345294337301 1.778075947354248 0)
(25.42831475081447 1.377470366072267 0)
(25.24435119437154 1.453732014578735 0)
(24.99915972032346 0.912739909796267 0)
(24.89607439024886 -0.121226009436838 0)
(24.54805468189413 1.559496169144035 0)
(25.34338514902798 1.289317763781403 0)
(25.14340425162422 0.8617795364963821 0)
(24.9033322749077 -0.09618287932325212 0)
(19.15446169989227 1.728677428349042 0)
(25.15905087872019 1.297215710642029 0)
(25.2581473307491 0.7517614889169619 0)
(24.91621890642637 -0.08053440260344417 0)
(14.12715410062299 2.095956159546188 0)
(23.70234229117247 1.628795498252698 0)
(25.27711903485373 0.7747415566728365 0)
(24.94896408958651 -0.09185100590673011 0)
(24.95453010032064 -0.06679515180365718 0)
(25.21733400516357 0.7182226961683744 0)
(22.05149121407474 2.269346838348254 0)
(12.48985820848135 3.860299057596348 0)
(24.83136593298122 -0.08882861608170646 0)
(24.99459887300056 0.808236507889718 0)
(20.60601706369898 3.314552643246127 0)
(12.7985875965444 5.640549704392456 0)
(24.78950725255857 -0.1158506781700527 0)
(24.47445345706542 1.156897252402207 0)
(18.82498547243902 4.649469937059629 0)
(12.64753185427736 7.078642271720706 0)
(24.69831854408364 -0.1634661221998518 0)
(23.59935299268155 1.928806538142 0)
(17.58777603058673 6.058363360022089 0)
(13.13583316811776 8.144179519079636 0)
(14.04754528190806 8.855730350482183 0)
(16.96792509265614 7.293792862275673 0)
(22.43004248521872 3.156617628938547 0)
(24.51832075454209 -0.1864962754296609 0)
(15.13572958313264 9.393296383923714 0)
(17.2408809501984 8.219372763601392 0)
(21.21730987491429 4.641927008887367 0)
(24.19845250498797 -0.07130049580621887 0)
(16.37658921803492 9.684267334789348 0)
(18.11055368287513 8.754313156803059 0)
(20.70756166207171 5.995909477100224 0)
(23.69389164879894 0.2364143532169531 0)
(17.54806291186942 9.75678886216112 0)
(19.39761989926384 8.854128009282741 0)
(20.87608922209179 7.035969562837968 0)
(23.1962848882787 0.722911102273628 0)
(22.91098407056063 0.8509598751895064 0)
(22.04903979179769 7.091142715050362 0)
(21.12108934925589 8.806653117738183 0)
(18.96385886526252 9.897792671934772 0)
(23.45622167895102 0.6463809677381662 0)
(23.50851289801103 6.648120194079044 0)
(23.10798278752293 8.415244091971616 0)
(20.90706467923551 9.810493214214086 0)
(24.04000568975603 0.3441133349435061 0)
(24.93162743781789 5.87507401271539 0)
(25.19364614667274 7.620151395473189 0)
(23.44735751932716 9.238276219389657 0)
(24.51868727666666 -0.2494435150739533 0)
(26.06332621089292 4.606849870371584 0)
(27.16639013047662 6.226688015991241 0)
(26.40060008210562 7.616386862060607 0)
(24.88419575911753 -0.3075639412550003 0)
(26.92926091533575 3.628093087961666 0)
(29.04979588538477 4.804324924205783 0)
(30.68346645310408 4.759027467121205 0)
(25.30046860879952 -0.4989510675621283 0)
(27.49765877286883 2.601741094266096 0)
(30.11084610700874 3.39062299077613 0)
(34.00251559098194 0.7046188777855513 0)
(25.54327371645453 -0.5425574307630271 0)
(27.54995883880765 1.647316773475139 0)
(30.8347681794955 1.256059006277992 0)
(36.34819525683703 -4.253941586887422 0)
(25.65369252453376 -0.5437368404350152 0)
(27.22445372955305 1.022790868111765 0)
(30.31236944008957 -0.3107772937909842 0)
(37.77931066243968 -9.25190943834275 0)
(34.01922657534413 -7.328047580869966 0)
(29.13040248073655 -1.417308150795895 0)
(26.94232926945102 0.3554881057062779 0)
(25.69371334634328 -0.5467495820449497 0)
(25.63445730065119 -3.215018759827081 0)
(28.24646409621036 -1.936569712722636 0)
(26.64810919895438 -0.1001443911006562 0)
(25.62905396605825 -0.4720546383121829 0)
(23.08905672260449 -3.612738287889346 0)
(27.75006054210806 -2.841728731648346 0)
(26.39349692557881 -0.5594315051872039 0)
(25.50626706798305 -0.3592891567411086 0)
(19.90312473196117 -3.659483419060315 0)
(26.97782905059923 -3.450133805504223 0)
(26.04930673424328 -0.9532382235433058 0)
(25.38979695297867 -0.2751054745377508 0)
(18.08528150235459 -4.760154848918684 0)
(25.72428544188895 -4.391146181377931 0)
(25.48601540093174 -1.289823740507979 0)
(25.1802177807743 -0.2156693200393273 0)
(15.43325166880154 -6.813626170141115 0)
(24.08649131804472 -4.635059730765719 0)
(24.8965194598148 -1.12573535240084 0)
(25.0012361379553 -0.1079260867735563 0)
(14.37828807099423 -6.976669620076805 0)
(23.02532177343527 -4.048545085676504 0)
(24.65192849154634 -0.7359083182431332 0)
(24.97081075773281 -0.04913552440868706 0)
(14.33665856145224 -5.861274482558464 0)
(22.80033424083993 -3.600472452927289 0)
(24.6730363888909 -0.6014548753758617 0)
(24.97608480427682 -0.03607938558166628 0)
(14.22226915392434 -0.6632568897795026 0)
(20.34304200622321 -0.1132480078049693 0)
(23.64825882265586 0.01057959619419457 0)
(24.8555940543562 0.001982444711869649 0)
(14.2038562411083 -1.755756880366332 0)
(20.3396840023248 -0.5378009410321791 0)
(23.66317141756965 0.0006308719605109374 0)
(24.85253710198688 0.004365033128543417 0)
(14.41817426720444 -3.256081644680674 0)
(20.34759746292371 -0.9879050314631179 0)
(23.70249266276319 -0.07175704942405386 0)
(24.85178698491739 0.0002502613721738507 0)
(14.46998798120978 -4.649570539909783 0)
(20.55619612733219 -1.352435134513834 0)
(23.80222694316312 -0.1947175736807791 0)
(24.86017319605699 -0.0113904671061416 0)
(14.3366585614658 5.86127448253758 0)
(22.8003342408652 3.600472452919811 0)
(24.67303638901054 0.6014548753289437 0)
(24.97608480438749 0.03607938556230085 0)
(14.37828807100994 6.976669620044472 0)
(23.02532177351963 4.04854508572933 0)
(24.65192849161351 0.7359083182280793 0)
(24.97081075784508 0.04913552445486702 0)
(15.43325166884665 6.813626170161446 0)
(24.08649131806514 4.635059730804552 0)
(24.89651945980492 1.125735352445071 0)
(25.00123613798517 0.1079260868239054 0)
(18.08528150238251 4.760154848921414 0)
(25.72428544200887 4.391146181450142 0)
(25.48601540095326 1.289823740542557 0)
(25.18021778075867 0.2156693200872349 0)
(25.69371334631177 0.5467495819865383 0)
(26.94232926946153 -0.3554881057405116 0)
(29.13040248076046 1.417308150788068 0)
(34.01922657526895 7.328047580997916 0)
(25.62905396606717 0.4720546382609735 0)
(26.64810919896203 0.1001443910933613 0)
(28.24646409627477 1.936569712728825 0)
(25.634457300725 3.215018759931212 0)
(25.50626706791803 0.3592891566947812 0)
(26.39349692552178 0.5594315052124543 0)
(27.75006054219371 2.841728731781048 0)
(23.08905672253135 3.612738287932379 0)
(25.38979695288402 0.2751054745170078 0)
(26.04930673417122 0.9532382235148945 0)
(26.9778290506208 3.450133805581803 0)
(19.90312473203388 3.659483419089514 0)
(37.77931066248573 9.251909438487093 0)
(30.31236944007722 0.3107772937855708 0)
(27.22445372956806 -1.02279086811897 0)
(25.65369252451174 0.5437368403875495 0)
(36.34819525684726 4.253941586936687 0)
(30.83476817953265 -1.256059006236503 0)
(27.54995883884223 -1.647316773481489 0)
(25.54327371645809 0.542557430775661 0)
(34.00251559099804 -0.7046188777439698 0)
(30.11084610692354 -3.390622990754023 0)
(27.49765877288931 -2.60174109424216 0)
(25.30046860866114 0.4989510676306616 0)
(30.68346645305454 -4.759027467100472 0)
(29.04979588542326 -4.804324924175824 0)
(26.92926091545162 -3.628093087935555 0)
(24.88419575898428 0.3075639413426966 0)
(22.91098407047083 -0.8509598751701749 0)
(22.04903979173475 -7.091142715053223 0)
(21.12108934921097 -8.806653117740801 0)
(18.96385886528569 -9.897792671937431 0)
(23.45622167893747 -0.6463809676937624 0)
(23.50851289801572 -6.648120194073938 0)
(23.10798278746336 -8.415244091949644 0)
(20.9070646792561 -9.810493214217903 0)
(24.04000568980121 -0.3441133349234228 0)
(24.93162743784928 -5.87507401272562 0)
(25.19364614662811 -7.620151395445045 0)
(23.44735751932292 -9.238276219376292 0)
(24.5186872766266 0.2494435151435752 0)
(26.06332621096426 -4.606849870349816 0)
(27.16639013049873 -6.22668801596109 0)
(26.40060008206392 -7.616386862044417 0)
(17.54806291188875 -9.7567888621665 0)
(19.3976198992896 -8.854128009305557 0)
(20.87608922205276 -7.035969562835375 0)
(23.19628488814424 -0.7229111022898793 0)
(16.37658921807122 -9.684267334809574 0)
(18.11055368291522 -8.754313156818341 0)
(20.70756166205359 -5.995909477108242 0)
(23.69389164876782 -0.2364143532137198 0)
(15.13572958314273 -9.393296383936852 0)
(17.24088095026621 -8.219372763608586 0)
(21.21730987493469 -4.641927008861848 0)
(24.1984525048948 0.07130049581322002 0)
(14.04754528194045 -8.855730350484849 0)
(16.96792509266061 -7.293792862244151 0)
(22.43004248513292 -3.156617628904669 0)
(24.51832075452729 0.1864962754312358 0)
(24.95453010035731 0.0667951518263866 0)
(25.21733400518164 -0.7182226961425563 0)
(22.05149121408782 -2.26934683836062 0)
(12.48985820852861 -3.86029905760421 0)
(24.83136593288847 0.08882861607998623 0)
(24.99459887298957 -0.8082365078458759 0)
(20.60601706372508 -3.314552643246568 0)
(12.79858759658692 -5.64054970441632 0)
(24.78950725240486 0.115850678163425 0)
(24.47445345693795 -1.156897252338179 0)
(18.8249854724874 -4.649469937035528 0)
(12.64753185430986 -7.078642271728646 0)
(24.69831854403454 0.1634661222030301 0)
(23.59935299268452 -1.928806538064276 0)
(17.58777603065783 -6.058363360000369 0)
(13.13583316812892 -8.144179519082154 0)
(24.9489640895638 0.09185100592054912 0)
(24.91621890645434 0.08053440261605169 0)
(24.90333227482864 0.09618287935288963 0)
(24.89607439024005 0.1212260094332014 0)
(25.27711903493278 -0.7747415566743038 0)
(25.25814733081654 -0.7517614889078705 0)
(25.14340425153533 -0.861779536483074 0)
(24.99915972031115 -0.9127399098123121 0)
(23.70234229127071 -1.628795498272094 0)
(25.15905087874365 -1.29721571064689 0)
(25.34338514908818 -1.289317763794486 0)
(25.24435119439745 -1.453732014571483 0)
(14.12715410069158 -2.095956159550242 0)
(19.15446169995895 -1.728677428344719 0)
(24.54805468184755 -1.559496169117242 0)
(25.42831475080656 -1.377470366046675 0)
(24.88832700382291 0.1379818179296219 0)
(24.87669121205148 -0.8925699071774618 0)
(25.09323269710372 -1.55546732921559 0)
(25.36345294343276 -1.778075947306165 0)
(24.88284602776017 0.1445277096830493 0)
(24.76092198003028 -0.8382257329444761 0)
(24.94052614264437 -1.627183628909747 0)
(25.29112387530234 -2.094358384425223 0)
(24.88771082689168 0.1311320131656981 0)
(24.67445658277128 -0.712026215252509 0)
(24.75257828554807 -1.654946296565387 0)
(25.17872747711363 -2.489598960825842 0)
(24.90149088797519 0.1010174967263992 0)
(24.63263666987277 -0.5574764401771607 0)
(24.54953885981192 -1.608774953491001 0)
(24.99115115394291 -2.905792636756038 0)
(24.98787368715448 0.01055574742882545 0)
(24.87564051380054 -0.03529369790938559 0)
(24.07885816906666 -0.7463997890941234 0)
(23.38567494188868 -4.323115346544244 0)
(24.97236280866368 0.02426021060420862 0)
(24.77190227318186 -0.1155048502273176 0)
(24.09385672478798 -1.104403458464431 0)
(24.11422329470416 -4.173023432401285 0)
(24.95024683035289 0.04404407058312652 0)
(24.67953905775676 -0.241273900659144 0)
(24.19611701674647 -1.349489825323619 0)
(24.45809760187656 -3.766268436683212 0)
(24.92405105699967 0.07056227887433254 0)
(24.63421368162557 -0.394557905756059 0)
(24.38213260099709 -1.475562437743001 0)
(24.81732880822531 -3.316635498111691 0)
(22.3392579626965 -3.758410810601076 0)
(24.31834602006698 -0.4062584484899739 0)
(24.95441933395684 -0.008911110915731263 0)
(24.99747569023335 0.004522248936626479 0)
(21.88512092739652 -3.317362894799671 0)
(24.46165063683351 -0.278520308681114 0)
(24.97715024209767 -0.005493424256047963 0)
(24.99925375081862 0.001529061121904407 0)
(21.98732541140483 -2.779772812290476 0)
(24.63017751803043 -0.09839502616609536 0)
(24.99019678230218 0.0003535566835912133 0)
(24.99960661581223 0.0003640890205545123 0)
(21.98167139681649 -2.340708664578387 0)
(24.75586051905419 0.01080204665765133 0)
(24.99801875824037 0.0006931041631043804 0)
(24.99988402699043 6.197505706481228e-06 0)
(22.24430150584952 -1.7462291890298 0)
(24.91407758561023 0.06683450787514478 0)
(25.00017477376667 0.001107687623253161 0)
(24.99999314123308 1.18438890751759e-05 0)
(22.2685538914892 -1.335027582747668 0)
(24.92414645411226 -0.01073096716514167 0)
(24.99985589053779 -1.067199022743881e-05 0)
(24.99999953209123 9.298678689647491e-07 0)
(22.69017265956874 -0.6348507488669353 0)
(24.95164286315093 0.006360456273501115 0)
(24.99996304601494 1.86702059776062e-05 0)
(24.99999998004261 -8.824099073250612e-09 0)
(23.40264072363164 0.09542194059321223 0)
(24.97171064691621 0.01019838048888926 0)
(24.99999376808193 4.448728222025648e-06 0)
(25.00000001114298 4.11744865233724e-09 0)
(25.00000000000002 5.954963430094247e-12 0)
(24.99999998201898 1.215782273992645e-08 0)
(24.99829022654078 0.0005554030563119385 0)
(24.71736197633344 -0.007624661515406896 0)
(24.99999999997173 4.182447764919967e-11 0)
(24.99999994453042 7.037543475699662e-08 0)
(24.99747956098864 0.001722094636205904 0)
(24.63269547627322 0.1593359858646264 0)
(24.99999999962681 2.56491775793807e-10 0)
(24.99999976109916 2.871928377788871e-07 0)
(24.99514551341311 0.003584490170939981 0)
(24.51360137622054 0.2644844964242773 0)
(24.99999999828481 -1.02624199408149e-09 0)
(24.99999881823999 1.167872246993027e-06 0)
(24.98908574952344 0.007016804204921931 0)
(24.13724464916417 0.4137218562768416 0)
(24.5252745266521 1.098707555240238e-10 0)
(24.35979688758714 0.1495548338867062 0)
(23.97404895962723 0.1736329113192874 0)
(23.03855577991969 0.01871731233973792 0)
(24.35979688780344 -0.1495548336697523 0)
(24.08843814115829 4.096616202423641e-11 0)
(23.4095779265346 -0.06031085310483388 0)
(21.96067117731254 -0.4863797656037412 0)
(23.97404896007058 -0.1736329112263666 0)
(23.40957792688806 0.06031085318076807 0)
(22.1286240644812 6.328708004191991e-11 0)
(20.03096729604383 -0.5819752260961901 0)
(23.03855578031506 -0.01871731236036873 0)
(21.96067117786376 0.4863797655459628 0)
(20.03096729632584 0.5819752260499444 0)
(17.78919477060707 -2.400772903090033e-10 0)
(17.25879124209183 2.521585193611071 0)
(17.8993577391744 2.917350387027928 0)
(19.54340287318542 2.655844221370747 0)
(21.08694299428677 1.887815267327843 0)
(18.24491666680031 4.246788736942537 0)
(18.30813132255978 4.203003485540309 0)
(19.04066484283327 4.114782083045815 0)
(20.07398337495954 3.952547700120269 0)
(17.68386377231566 5.193201965601082 0)
(18.85058010011931 4.491073776444527 0)
(19.52792910237951 4.691879547875916 0)
(20.05234171673005 4.563750066552656 0)
(18.3352591793538 5.754220751240803 0)
(19.70556076682415 4.717194896807126 0)
(20.2057209281336 4.891233575455207 0)
(20.49070554483479 4.805575067826959 0)
(20.79096975013434 4.932706432031552 0)
(21.02926150390234 5.061731297975062 0)
(21.40435467069619 5.120579706007054 0)
(22.16085086990702 5.280348771945243 0)
(20.72900701508769 4.994247990121779 0)
(21.03869278869843 5.101570253447306 0)
(21.53837040185908 5.117413561416026 0)
(22.6512881151402 5.50067189159596 0)
(20.47285149285546 4.931259630796825 0)
(20.97344151807085 5.105923259512818 0)
(21.55536856383983 5.1581912139734 0)
(24.10137082263253 5.943007156194345 0)
(18.97617367917503 5.851120644492806 0)
(19.5993333470928 5.875948907142038 0)
(20.50317638991421 5.734759673780069 0)
(25.83119018592886 7.125898260060175 0)
(25.8152554179757 3.187582017418628 0)
(26.4094521858045 0.8090348257176643 0)
(25.72185708019118 0.4870788450793624 0)
(25.59509864085 0.382058462182946 0)
(28.37610738418415 2.19878238568559 0)
(28.69592310083709 0.3397475692656362 0)
(27.56801941525634 0.2832496849317623 0)
(26.89269673946822 0.3137579269798165 0)
(31.54902193237313 1.9047152082271 0)
(30.14995040033234 0.04577650097151204 0)
(28.7577366471203 0.05144591624187918 0)
(27.77933185238504 0.09386634883478875 0)
(25.07990671204468 1.987933940465288 0)
(24.21747413158592 0.6522698191974576 0)
(24.07232432222945 0.08970328109509509 0)
(24.15978629700054 -0.2164445922127204 0)
(25.66542783438898 0.3867735495872809 0)
(25.71344018031789 0.3198133846042152 0)
(25.70095742396689 0.2051388558145128 0)
(25.65343397370016 0.1716691489719881 0)
(26.53712361584881 0.3417379942853828 0)
(26.22460074993434 0.2915143967219367 0)
(25.94663419513916 0.1915952804551619 0)
(25.72127445766063 0.1306870004988876 0)
(27.1503018425791 0.1478464157867158 0)
(26.59224691103847 0.1471935113442346 0)
(26.09881051661984 0.09830388993208417 0)
(25.66598389641047 0.08514210832297688 0)
(24.13123954317527 -0.4622501790483511 0)
(23.90332032704618 -0.6207336944258458 0)
(23.70232277575493 -0.7154383596983257 0)
(23.36994278962385 -0.6662479624782224 0)
(25.2055424726741 0.7717108662100262 0)
(20.09244781894532 5.098283934157006 0)
(13.71997852117361 3.924543339916311 0)
(9.345224883299991 1.059329596840087 0)
(24.62761976364713 1.255355887784894 0)
(16.07231579121091 4.951611383529175 0)
(8.863836556231071 2.740840379742403 0)
(4.471047178378074 -0.1764348701245408 0)
(23.4357118831086 1.295041257594398 0)
(11.69339502071251 3.634456154563979 0)
(3.139698247032921 2.029148310642968 0)
(-0.7690210401771009 0.2418304275542142 0)
(19.41400457331645 -0.7286140424013631 0)
(7.30287419842247 -0.7957939066547258 0)
(0.2337367778344641 0.5429935538917221 0)
(-2.595584442718763 0.1743976319595136 0)
(8.56916475958311 2.693900326644224 0)
(10.58535951490187 4.559498037919165 0)
(11.49760370052146 6.280345817252961 0)
(12.44951804167803 7.625633008563311 0)
(6.136697618226478 1.993694940733526 0)
(9.511376428399803 4.411053508915816 0)
(11.20128328434839 6.226220667601413 0)
(12.40430889777421 7.672156790341728 0)
(2.933330007719276 0.01198724219765286 0)
(7.442496818115851 3.33197258086831 0)
(10.26714655918286 6.036197074576386 0)
(12.0212260190534 7.596919662007602 0)
(0.2395650176040207 -0.1062482025983224 0)
(3.470300088456661 2.47599414331846 0)
(7.538064319318832 3.976202199649805 0)
(10.63465554264922 5.463986020189816 0)
(13.63848783379613 8.986483395728216 0)
(14.77053495059269 10.00814759403809 0)
(15.91944916554294 10.56578634672636 0)
(16.81353115217157 10.85599288184519 0)
(13.55816133952731 8.920999275582743 0)
(14.71382108117462 9.954784949713856 0)
(15.82396629585169 10.54167305774956 0)
(16.69640062887467 10.88142244759165 0)
(13.23585797134655 8.764172798712412 0)
(14.51737843937535 9.775723246299631 0)
(15.74209440948144 10.47462853402212 0)
(16.62307374889285 10.96198275728212 0)
(13.11737561196046 6.748234670274653 0)
(14.67202818506751 8.448563663498771 0)
(15.76611879523586 10.30180664867477 0)
(16.64566191985109 10.93921606973586 0)
(17.82792276058451 11.27568616633053 0)
(19.42337784171525 11.7698498784575 0)
(21.77504669109737 11.69322523490527 0)
(24.77797837453791 10.4209600322242 0)
(17.62278330821708 11.27976655975194 0)
(19.074925188593 11.72985540343396 0)
(21.21153591262626 11.74952306124083 0)
(24.97582406727082 12.47347295602475 0)
(17.47370704160872 11.36886120120271 0)
(18.72297543530102 11.78346292538777 0)
(21.34547457700158 12.58553911809179 0)
(31.48515400911354 18.45883749525941 0)
(17.43735805627804 11.39312605975591 0)
(18.64012027559813 11.79211422428613 0)
(22.06806969359304 13.17483979773262 0)
(43.24393795256233 25.51573418293934 0)
(30.59387682933814 5.261207877026242 0)
(32.03811425531565 -3.582407063775443 0)
(12.65433380771334 8.69127728762002 0)
(7.857753744398954 30.84079817654429 0)
(32.23134954184756 4.900229069979174 0)
(26.46679825008078 -1.952388950232981 0)
(8.976526153561547 17.41678910007817 0)
(8.448213726361248 29.02681865645779 0)
(31.97400742925711 3.292518049531296 0)
(17.20846240787497 -4.30285798915577 0)
(3.828911540989892 21.32885997791614 0)
(4.611992683486403 29.02653730486995 0)
(20.30819283105445 -8.299022432386009 0)
(7.328059384566389 -0.5716245181368431 0)
(2.088278848909996 24.81805561604671 0)
(2.648156893246087 28.73391698898913 0)
(7.017597716076041 24.62064349105336 0)
(2.699518850497154 17.69701614637827 0)
(-0.7734252320313078 14.87150341513728 0)
(-2.833106007353781 9.937937704180438 0)
(6.712183188587284 23.5724787117638 0)
(1.915021115946134 19.24740826593511 0)
(-0.4568428998735024 14.98167930748687 0)
(-1.253589475221049 7.687162837693016 0)
(3.27819456540319 22.6147392849567 0)
(1.430391321413988 18.10665578247392 0)
(-0.3154095773962373 12.35859253594907 0)
(-0.8159267750146258 4.900426525411297 0)
(0.7861735507334101 22.03872875788331 0)
(-0.454723742613353 17.36655957411152 0)
(-1.909240907192976 10.96802690467107 0)
(-1.738856727354929 3.285184405421024 0)
(-6.073799388265622 3.289733166565226 0)
(-2.016687693668099 0.262138411686388 0)
(2.429023526816048 -2.420517147001665 0)
(4.457021278623096 -6.632207021153608 0)
(-6.812414129770429 3.05111006483818 0)
(-5.955717168754978 0.3487253879623809 0)
(-1.266720104144698 -0.7973757208025636 0)
(2.679167092332115 -5.575516059851013 0)
(-6.212873970655407 2.126685849742728 0)
(-7.806380224016032 0.6687062705513781 0)
(-4.517867800173836 0.3046495447159252 0)
(0.03248683956768412 -4.086225735918865 0)
(-4.585733461826555 2.184277110201106 0)
(-7.136618050089533 2.668564718280364 0)
(-5.229443466732413 3.072710744173462 0)
(-0.6498632809542099 -1.052232438558516 0)
(2.361399296323845 -6.935595299611919 0)
(2.293309326546676 -7.541106840582939 0)
(3.156939919548977 -7.215774953021255 0)
(4.462997196797097 -6.469169758965017 0)
(1.465770984757587 -6.803522285068563 0)
(1.926653772739245 -6.275253256248829 0)
(3.127050179220385 -5.840702634797358 0)
(3.899693641212074 -4.924398833326311 0)
(0.4567578773841069 -4.750786470819183 0)
(0.6585283782820708 -3.491323399738702 0)
(1.655362652372259 -3.003659985553551 0)
(2.137356906494255 -1.923672872635362 0)
(1.658916423555826 -1.986390612851588 0)
(1.31113073828913 -0.7525182201756445 0)
(1.877069277947364 -0.3122936127158822 0)
(1.653206052169653 0.6367193543807362 0)
(0.7800734006942729 1.147323984271121 0)
(-0.03300214661499135 1.284718145812439 0)
(-0.6587217370491889 0.9682870590022501 0)
(-0.9813154166065093 0.3366276898242678 0)
(1.587009762946013 -0.9804510803481175 0)
(0.5863148153023027 -0.4815376632240792 0)
(-0.2570330285605998 -0.05723641510424902 0)
(-0.6750677062020656 -0.02422535671253434 0)
(3.363756206606459 -3.806012687465333 0)
(2.444071266069732 -2.796871731759826 0)
(1.338047593858542 -1.704883690233435 0)
(0.6067393555673147 -0.6385219105501475 0)
(5.10702567799435 -4.816695891302144 0)
(4.969883224443097 -3.302408329202138 0)
(4.187903467141915 -2.022006906787072 0)
(3.720960443693735 -0.7293634657629489 0)
(-0.9813154166088044 -0.3366276898013855 0)
(-0.675067706202143 0.0242253567223148 0)
(0.6067393555675822 0.6385219105447849 0)
(3.720960443695068 0.7293634657434481 0)
(-0.6587217370529908 -0.9682870589825896 0)
(-0.2570330285614731 0.05723641511376694 0)
(1.338047593862937 1.704883690230922 0)
(4.187903467170317 2.022006906768295 0)
(-0.0330021466188169 -1.284718145799482 0)
(0.5863148153007438 0.481537663231157 0)
(2.444071266069499 2.796871731758457 0)
(4.969883224463242 3.302408329202921 0)
(0.7800734006917711 -1.147323984260519 0)
(1.587009762948709 0.9804510803532528 0)
(3.363756206598988 3.806012687469487 0)
(5.107025677996426 4.816695891310016 0)
(4.462997196780253 6.469169758940406 0)
(3.156939919552462 7.215774953010305 0)
(2.293309326549895 7.541106840571993 0)
(2.361399296338484 6.935595299599132 0)
(3.899693641211612 4.92439883332627 0)
(3.12705017922922 5.840702634791057 0)
(1.926653772754871 6.27525325623932 0)
(1.465770984778695 6.803522285055975 0)
(2.13735690649578 1.923672872633653 0)
(1.655362652375722 3.003659985546292 0)
(0.6585283782928277 3.491323399738393 0)
(0.4567578773977783 4.750786470813278 0)
(1.653206052171539 -0.6367193543768911 0)
(1.877069277955024 0.3122936127202383 0)
(1.311130738298452 0.752518220182824 0)
(1.658916423564418 1.986390612859505 0)
(-0.6498632809367112 1.052232438560748 0)
(-5.22944346669589 -3.072710744145447 0)
(-7.13661805005278 -2.66856471824945 0)
(-4.585733461799202 -2.18427711019264 0)
(0.03248683958299685 4.086225735916823 0)
(-4.517867800151238 -0.3046495446933866 0)
(-7.806380223959025 -0.6687062705339969 0)
(-6.212873970592308 -2.126685849712424 0)
(2.679167092345412 5.575516059842593 0)
(-1.266720104112443 0.7973757208266115 0)
(-5.955717168684147 -0.3487253879365906 0)
(-6.812414129719922 -3.051110064787118 0)
(4.45702127863571 6.632207021148688 0)
(2.429023526840347 2.420517147023052 0)
(-2.016687693582051 -0.2621384116654821 0)
(-6.073799388166949 -3.289733166496124 0)
(-2.833106007347263 -9.937937704066004 0)
(-0.7734252320891452 -14.8715034151431 0)
(2.699518850535674 -17.69701614663933 0)
(7.017597715806021 -24.6206434911725 0)
(-1.253589475216799 -7.687162837629014 0)
(-0.4568428998845409 -14.98167930745943 0)
(1.915021116035077 -19.24740826602144 0)
(6.712183188620708 -23.5724787117624 0)
(-0.8159267750162457 -4.900426525386723 0)
(-0.3154095774008945 -12.35859253592391 0)
(1.430391321439469 -18.10665578250572 0)
(3.278194565420895 -22.61473928496632 0)
(-1.738856727350018 -3.285184405429015 0)
(-1.909240907199265 -10.96802690468974 0)
(-0.45472374261476 -17.36655957411655 0)
(0.7861735507436647 -22.03872875790303 0)
(7.857753744036696 -30.84079817657317 0)
(12.65433380744822 -8.691277287927715 0)
(32.03811425526265 3.582407063823037 0)
(30.59387682934709 -5.261207877013283 0)
(8.44821372621632 -29.02681865647777 0)
(8.976526153508681 -17.41678910028071 0)
(26.46679825010711 1.952388950207096 0)
(32.23134954180213 -4.900229069953626 0)
(4.611992683502658 -29.0265373049433 0)
(3.828911540936072 -21.32885997803034 0)
(17.20846240783514 4.302857989101136 0)
(31.97400742920186 -3.292518049520566 0)
(2.648156893251702 -28.73391698905943 0)
(2.088278848888263 -24.81805561617375 0)
(7.328059384589237 0.5716245180725648 0)
(20.30819283106009 8.299022432364756 0)
(24.77797837452593 -10.42096003220387 0)
(21.77504669108839 -11.69322523488094 0)
(19.42337784175779 -11.76984987845648 0)
(17.82792276057288 -11.27568616632047 0)
(24.97582406729808 -12.47347295602516 0)
(21.21153591265229 -11.74952306123237 0)
(19.07492518859545 -11.72985540341876 0)
(17.62278330826627 -11.27976655977528 0)
(31.48515400907282 -18.45883749522596 0)