/*--------------------------------*- C++ -*----------------------------------*\
  =========                 |
  \\      /  F ield         | OpenFOAM: The Open Source CFD Toolbox
   \\    /   O peration     | Website:  https://openfoam.org
    \\  /    A nd           | Version:  11
     \\/     M anipulation  |
\*---------------------------------------------------------------------------*/
FoamFile
{
    format      ascii;
    class       volVectorField;
    location    "0.01";
    object      U;
}
// * * * * * * * * * * * * * * * * * * * * * * * * * * * * * * * * * * * * * //

dimensions      [0 1 -1 0 0 0 0];

internalField   nonuniform List<vector> 
880
(
(25 -2.115675674478769e-16 0)
(25 -1.438696573570838e-16 0)
(25 3.838084358186705e-16 0)
(25 1.152849496684468e-14 0)
(25 2.0310133715419e-16 0)
(25 -2.723533302584357e-16 0)
(25.00000000000002 2.030621708083653e-15 0)
(25.00000000002053 -2.485335235970794e-12 0)
(25 0 0)
(25.00000000000001 5.169139350875255e-16 0)
(25 -2.585429764317903e-15 0)
(25.00000000221516 -2.907705711428503e-10 0)
(25 0 0)
(25 -4.918640927013147e-16 0)
(25 3.553903047602494e-20 0)
(25.00000001170411 -3.629615689428514e-08 0)
(25 -1.702737410521882e-16 0)
(25 -1.410229419426928e-16 0)
(25.00000000000001 7.77769475925661e-16 0)
(25 -6.479947660543234e-16 0)
(25 0 0)
(25 0 0)
(25.00000000000003 2.834226125100939e-15 0)
(25 -2.407755766753663e-15 0)
(25 3.563780776977081e-17 0)
(25 -4.67459827901893e-17 0)
(25 7.328492222270045e-13 0)
(24.99999999998649 -3.033659906205072e-11 0)
(24.99999890139323 4.507360452174081e-06 0)
(24.99999839351075 7.659374983769668e-06 0)
(24.99999858456929 7.193454261005321e-06 0)
(24.99999872113652 6.467439572158165e-06 0)
(25 1.470646527432716e-16 0)
(25 -9.291172389847006e-17 0)
(25.00000000000001 7.18656991619562e-16 0)
(25 -7.999865131320739e-16 0)
(25 7.301265932982149e-14 0)
(25.00000000000001 7.663672754735026e-14 0)
(25 8.257310715972929e-14 0)
(25 4.684205236657875e-14 0)
(24.99999999987264 7.385089061652866e-10 0)
(24.99999999988636 7.705926440441036e-10 0)
(24.99999999987835 8.052726876830247e-10 0)
(24.999999999695 4.667240146089855e-11 0)
(24.99999880014959 6.35761329523284e-06 0)
(24.9999987667549 6.545440172918559e-06 0)
(24.99999875083714 6.652366778318039e-06 0)
(24.99999799185013 3.511489275718792e-06 0)
(25.00000069149913 4.540489767919638e-05 0)
(25.00000481751356 1.53276840056066e-05 0)
(25.00000053499813 7.459651113213065e-07 0)
(25.00000000379335 3.789396230276102e-09 0)
(25.00000000009993 1.12114793413021e-08 0)
(25.00000000081456 4.358005666273226e-09 0)
(25.00000000011262 2.782094105366417e-10 0)
(25.00000000000019 1.706351551843655e-12 0)
(25.00000000000213 1.854882658795611e-12 0)
(25 7.630062614442622e-13 0)
(25 5.231834149400649e-14 0)
(25 4.919146861735826e-16 0)
(25 -2.377214061978497e-15 0)
(25 3.397285057536073e-16 0)
(25 1.206066846597023e-16 0)
(25 3.677005380393228e-17 0)
(25.00000000000001 7.943648486813629e-16 0)
(25.00000000000001 2.017301192024725e-17 0)
(25 -1.702842874523933e-16 0)
(24.99999999999999 -2.270457166032029e-16 0)
(25 -5.672770187593807e-16 0)
(25 -1.358337619857722e-17 0)
(25 -4.719223953192111e-16 0)
(25 -2.053156105105416e-16 0)
(25.00000000000002 1.25755831761932e-15 0)
(25 -1.91854152735062e-15 0)
(25.00000000000002 9.370467342730679e-16 0)
(25 -9.800582748265067e-16 0)
(25.00000000000242 2.110357998561617e-12 0)
(25 1.25170911508213e-14 0)
(25.00000000000001 6.915150808967186e-16 0)
(25 -4.604076359214928e-16 0)
(25 1.331233266484356e-16 0)
(25 -2.663187223871302e-16 0)
(25 2.667490545846873e-16 0)
(25 3.405231657617242e-16 0)
(24.99999999999998 -1.216492509864059e-12 0)
(25 -4.710024112028946e-15 0)
(25 1.35467925419707e-16 0)
(25 0 0)
(25.0000000017083 3.552911661919993e-09 0)
(25.00000000000789 1.258383079871123e-11 0)
(25 -3.799754717453112e-16 0)
(25 0 0)
(25.00000127536715 -1.018886944591381e-05 0)
(25.00000000011303 -2.043285745597326e-09 0)
(25 -2.869251376645131e-13 0)
(25.00000000000001 -2.311325395022789e-17 0)
(25.00000000000002 8.00366219757224e-16 0)
(25.00000000000001 -4.024661834524407e-16 0)
(25.00000000000002 6.224495732733911e-13 0)
(24.99999993678624 1.922312144808432e-08 0)
(25 -2.345673966639688e-16 0)
(25 2.686285206797858e-16 0)
(24.99999999999828 8.50784228668877e-12 0)
(24.99999994419597 9.503192838329447e-08 0)
(25 0 0)
(25 7.643048103032507e-16 0)
(24.99999999999661 9.849730937152531e-12 0)
(24.99999994082242 1.013557973245766e-07 0)
(25 0 0)
(25 8.800490099605062e-16 0)
(24.99999999999537 1.128402832716228e-11 0)
(24.99999993788597 1.063924806655563e-07 0)
(24.99999993465104 1.119249509075205e-07 0)
(24.99999999999359 1.300791588946413e-11 0)
(25 1.097121448178383e-15 0)
(25 1.271061128744188e-16 0)
(24.99999993106695 1.180538966389397e-07 0)
(24.99999999999908 1.506742894726315e-11 0)
(25 -1.097677454839936e-15 0)
(25 0 0)
(24.99999992710481 1.248346712024826e-07 0)
(24.99999999999805 1.771010038026082e-11 0)
(25.00000000000001 -8.043321558616175e-16 0)
(25 -2.036313721789851e-16 0)
(24.99999992077606 1.351875725432417e-07 0)
(24.99999999999001 2.099548970018578e-11 0)
(25 2.794032517436777e-15 0)
(25 0 0)
(25.00000000000001 -1.912989727531132e-16 0)
(25 3.554397509554144e-15 0)
(24.99999999998856 2.540832106743625e-11 0)
(24.99999990184683 1.578594382881495e-07 0)
(25 5.308454152791069e-16 0)
(25 3.49628819489478e-15 0)
(24.99999999998734 2.668946228576368e-11 0)
(24.99999991117759 1.42960924864021e-07 0)
(25 6.402461752552397e-17 0)
(25 5.31408203184583e-15 0)
(24.99999999998559 3.053992193777812e-11 0)
(24.99999990618964 1.44704759248558e-07 0)
(25 -2.396779306741773e-13 0)
(24.99999999999807 -2.72568245759299e-11 0)
(25.00000000365469 8.067368284941175e-11 0)
(24.99999929765711 2.919367017597038e-06 0)
(24.99999999888773 -2.777127506065975e-10 0)
(25.00000022687128 1.893637362775093e-07 0)
(25.00002026725812 6.878233019185517e-06 0)
(24.99402287935997 -0.001015641321417885 0)
(24.99999999849499 -3.597286804013523e-10 0)
(25.00000029816188 2.251315462113185e-07 0)
(25.00002302377039 5.834394154581002e-06 0)
(24.98392708286216 -0.000448681757881685 0)
(24.99999999890476 -2.60670401997046e-10 0)
(25.00000023420536 1.709017112152425e-07 0)
(25.00001941826302 4.460111688601146e-06 0)
(24.98379819205559 -3.623441096534436e-05 0)
(24.9999999992225 -1.895617627288656e-10 0)
(25.00000017828233 1.305820108277286e-07 0)
(25.00001565160486 3.764979874854776e-06 0)
(24.98504051556171 0.00021512541378978 0)
(24.98983843859449 0.0001821058667995669 0)
(25.00001793441882 8.946749820640591e-06 0)
(25.00000009475403 1.088297983623317e-07 0)
(24.99999999957192 -1.438197777188603e-10 0)
(24.99088809760912 7.081075032773378e-06 0)
(25.00001832386755 8.253677663068512e-06 0)
(25.00000008547061 9.347172964296523e-08 0)
(24.99999999965204 -1.13663968983054e-10 0)
(24.99133035411237 -5.656156307254558e-05 0)
(25.0000162066628 7.161755307683116e-06 0)
(25.00000007235516 7.923213548357559e-08 0)
(24.99999999970847 -9.354277205258159e-11 0)
(24.98376097837202 0.0004567716372177439 0)
(25.00001018608407 3.71420523838284e-06 0)
(25.00000007359017 7.442243605119087e-08 0)
(24.99999999962523 -1.208713786547835e-10 0)
(25.00004167101269 3.432488375972153e-05 0)
(25.00000138887928 4.088392715978878e-07 0)
(25.00000000095081 2.810448571702673e-10 0)
(24.99999999999704 -1.121972108364125e-12 0)
(25.00002634413197 -4.779741641426917e-06 0)
(25.00000000917441 4.678653655153739e-09 0)
(25.00000000000001 9.596055405825476e-13 0)
(25 6.104923344453397e-16 0)
(25.0000010335209 -2.895838546501196e-07 0)
(25.00000000026423 -1.925776884637272e-10 0)
(25 -9.128795502338043e-13 0)
(25 1.02507860036063e-16 0)
(24.99999496755107 -6.98290518160025e-06 0)
(24.99999999923961 -2.344845332070935e-09 0)
(25 -4.67160438935611e-13 0)
(25 -1.849220429126638e-16 0)
(25.00054748052415 -6.852570873894901e-12 0)
(25.00000087208822 -2.601536746983927e-14 0)
(25.00000000052997 -2.344740287515709e-14 0)
(25.00000000000001 1.621851276559097e-16 0)
(25.00054732137035 2.285599688556152e-07 0)
(25.00000087191477 1.29957448361e-10 0)
(25.00000000053419 3.805230318408042e-13 0)
(25 -1.042718279555707e-16 0)
(25.00053702851671 1.006793677757666e-05 0)
(25.0000008596863 7.078130133726788e-09 0)
(25.00000000053783 2.46399700018823e-12 0)
(25 4.95019715056993e-16 0)
(25.00046245968095 4.578362899174394e-05 0)
(25.00000075715187 3.979526434667552e-08 0)
(25.0000000004834 1.388825385327177e-11 0)
(25 2.753966632683268e-15 0)
(24.99999496756081 6.982904738218339e-06 0)
(24.99999999924596 2.345107811175628e-09 0)
(25 4.618806229870914e-13 0)
(25 5.776179520127835e-16 0)
(25.0000010335316 2.895843044294769e-07 0)
(25.00000000027045 1.928731111307538e-10 0)
(25.00000000000001 9.273032264267486e-13 0)
(25 1.576222234377563e-16 0)
(25.00002634413574 4.779743290855069e-06 0)
(25.00000000917298 -4.678271902996958e-09 0)
(25.00000000000001 -9.680616891064776e-13 0)
(25 -7.250389195754513e-15 0)
(25.00004167099796 -3.432488388642237e-05 0)
(25.00000138886248 -4.088386335598995e-07 0)
(25.00000000094996 -2.81025461554128e-10 0)
(25.00000000000002 1.122028951424837e-12 0)
(24.9999999995636 1.43767422841604e-10 0)
(25.00000009473689 -1.088295178704023e-07 0)
(25.00001793441018 -8.946750388995035e-06 0)
(24.98983843858975 -0.0001821058679726665 0)
(24.99999999964504 1.140178249565377e-10 0)
(25.00000008546847 -9.3472402905116e-08 0)
(25.00001832386112 -8.253677000414447e-06 0)
(24.99088809760179 -7.081077348393436e-06 0)
(24.9999999997162 9.358624160033612e-11 0)
(25.00000007234377 -7.923221827861859e-08 0)
(25.00001620666305 -7.161755953058143e-06 0)
(24.99133035408929 5.656156357904104e-05 0)
(24.99999999962465 1.207002298912988e-10 0)
(25.0000000735874 -7.442193503705516e-08 0)
(25.00001018606435 -3.714206666199736e-06 0)
(24.9837609783857 -0.0004567716347772331 0)
(24.98504051557377 -0.0002151254149083366 0)
(25.00001565161354 -3.764980813552592e-06 0)
(25.00000017828771 -1.305827682228164e-07 0)
(24.99999999922323 1.894004716458498e-10 0)
(24.98379819207397 3.62344112629538e-05 0)
(25.0000194182752 -4.460111909833373e-06 0)
(25.00000023422131 -1.709019408043286e-07 0)
(24.99999999891375 2.605234312020161e-10 0)
(24.98392708286648 0.0004486817592235118 0)
(25.00002302378739 -5.834393881035382e-06 0)
(25.00000029816244 -2.25130879110642e-07 0)
(24.99999999850233 3.600446163983641e-10 0)
(24.99402287935411 0.001015641321008713 0)
(25.00002026726381 -6.878232455059481e-06 0)
(25.00000022687762 -1.893634064025481e-07 0)
(24.99999999887678 2.775686315374378e-10 0)
(25.00000000000001 3.67911075281632e-16 0)
(25 -5.245131557407387e-15 0)
(24.99999999998343 -2.552563887032592e-11 0)
(24.99999990183416 -1.578596878705982e-07 0)
(25 -9.272469138710949e-16 0)
(25 -3.152029033735362e-15 0)
(24.9999999999871 -2.654456739717628e-11 0)
(24.99999991118303 -1.429600154120948e-07 0)
(24.99999999999999 -8.361516169104124e-17 0)
(25 -4.988914169875793e-15 0)
(24.9999999999886 -3.051341466353061e-11 0)
(24.999999906192 -1.447047095221344e-07 0)
(25 2.396785282174976e-13 0)
(24.99999999999968 2.74043013859796e-11 0)
(25.00000000366071 -8.033633535021773e-11 0)
(24.99999929765713 -2.919367480007261e-06 0)
(24.99999992075189 -1.351878531660909e-07 0)
(24.99999999999311 -2.108447270376508e-11 0)
(25 -2.035360454050721e-15 0)
(25 0 0)
(24.99999992708424 -1.248352805502661e-07 0)
(24.99999999999283 -1.770117784115023e-11 0)
(25 -1.874237549497358e-15 0)
(25 0 0)
(24.99999993106796 -1.180542565744152e-07 0)
(24.99999999999386 -1.511217273060191e-11 0)
(25 -9.866929302289554e-16 0)
(25 0 0)
(24.99999993464214 -1.119250748324278e-07 0)
(24.99999999999863 -1.300311755148095e-11 0)
(25 6.972379041776537e-16 0)
(25 0 0)
(25 1.143756119520943e-16 0)
(25 2.415114572318267e-16 0)
(25 -6.190282320628017e-13 0)
(24.99999993680548 -1.922261419476587e-08 0)
(25 0 0)
(25 -3.476980188506294e-16 0)
(24.99999999999762 -8.514997570235632e-12 0)
(24.99999994419241 -9.503194974266641e-08 0)
(25 0 0)
(25 -6.947896357657467e-16 0)
(24.9999999999965 -9.848448070323997e-12 0)
(24.99999994081443 -1.013559665701039e-07 0)
(25 -1.236649992256555e-16 0)
(25 -2.552006482429732e-16 0)
(24.9999999999971 -1.127589849103662e-11 0)
(24.99999993788302 -1.063925578719383e-07 0)
(25 1.2657798700641e-17 0)
(25 0 0)
(25 1.103215136975839e-16 0)
(25 4.020525549612028e-16 0)
(25 2.868485491019223e-13 0)
(25 -1.402854510131538e-15 0)
(25 5.86015980636518e-18 0)
(25 0 0)
(25.00000000011221 2.043248428330997e-09 0)
(25.00000000000286 -1.256158283573754e-11 0)
(25 4.240954699943444e-15 0)
(25 1.004924321709633e-15 0)
(25.00000127536761 1.018886918985288e-05 0)
(25.0000000017083 -3.552905919174111e-09 0)
(24.99999999999982 1.224649255244884e-12 0)
(25 -2.950908697529216e-16 0)
(25.00000000000002 -1.021172167281055e-15 0)
(25 -1.355356729319867e-16 0)
(25.00000000000002 -1.204558354856638e-15 0)
(25 -1.365388709614597e-16 0)
(25 -3.519208607356558e-18 0)
(25 -1.354950244247471e-16 0)
(25 0 0)
(25.00000000000001 5.359309579895768e-16 0)
(25 0 0)
(25 2.71003598351595e-16 0)
(25 1.715253193393616e-16 0)
(25 -1.412398868792657e-14 0)
(25 1.135228583016511e-16 0)
(25.00000000000001 6.566088883615377e-17 0)
(25 2.647225909991745e-16 0)
(25.00000000000233 -2.125986363188887e-12 0)
(25 1.456725317728717e-16 0)
(25.00000000000001 -1.850418558427079e-12 0)
(25.00000000010971 -1.121151916371228e-08 0)
(25.0000006915021 -4.540489864740841e-05 0)
(25 1.198824088239064e-15 0)
(25 -7.674104323676374e-13 0)
(25.00000000081304 -4.357441025190256e-09 0)
(25.00000481752809 -1.532768456793708e-05 0)
(25.00000000000001 2.203478679637181e-16 0)
(25 -5.159141068801727e-14 0)
(25.00000000011578 -2.78226512882497e-10 0)
(25.00000053499942 -7.459645711555607e-07 0)
(25 0 0)
(25 -5.410587315325159e-16 0)
(25.00000000000038 -1.671772717839223e-12 0)
(25.00000000380061 -3.789055437151476e-09 0)
(24.99999799184432 -3.511488355500137e-06 0)
(24.99999999969049 -4.776724906921314e-11 0)
(25 -4.722264045086355e-14 0)
(25 4.969043744329396e-16 0)
(24.99999875084206 -6.652366478163343e-06 0)
(24.99999999986075 -8.054847870549353e-10 0)
(25 -8.579961295450029e-14 0)
(25 1.73311616699518e-15 0)
(24.99999876674225 -6.545441589101971e-06 0)
(24.9999999998769 -7.696766917317282e-10 0)
(24.99999999999999 -7.713252745048839e-14 0)
(25.00000000000002 -1.843175727118358e-15 0)
(24.99999880015399 -6.357611920172837e-06 0)
(24.99999999989247 -7.37259412384022e-10 0)
(25 -7.037679489867206e-14 0)
(25 -2.177122912559322e-16 0)
(24.99999872112661 -6.467441167392961e-06 0)
(24.99999999998675 2.935933191771967e-11 0)
(25 -1.794622864937853e-16 0)
(25 0 0)
(24.99999858457393 -7.193452814496575e-06 0)
(25.00000000000001 -6.954806705487495e-13 0)
(25 2.210792395337727e-16 0)
(25.00000000000001 2.378636307007912e-16 0)
(24.99999839350116 -7.659375488049623e-06 0)
(25 -6.048138310132648e-17 0)
(25 0 0)
(25.00000000000001 1.183037664079993e-15 0)
(24.99999890139547 -4.507359838940077e-06 0)
(25 5.304046205986062e-16 0)
(25 -2.180045225201478e-16 0)
(25.00000000000002 -1.164117383313301e-15 0)
(25 4.229235673278322e-16 0)
(25 2.877968740882311e-16 0)
(25 0 0)
(25 -3.010514214133307e-14 0)
(24.99999999999999 -2.843418720158383e-19 0)
(25 4.084755247213553e-16 0)
(25 -1.422460094272691e-16 0)
(25.00000000001818 2.262146416406377e-12 0)
(25 -3.901045448509561e-16 0)
(25 -2.584569675440429e-16 0)
(25 -2.275315766279415e-16 0)
(25.0000000022197 2.903348599828886e-10 0)
(25 -1.812223857260291e-16 0)
(25 -1.773347388930492e-17 0)
(25.00000000000002 7.268620208136449e-17 0)
(25.00000001171208 3.62954970460893e-08 0)
(24.99999999999675 -2.786865768287133e-16 0)
(25.00000000352249 -1.137003964494322e-09 0)
(25.00000061480933 6.818885788407984e-08 0)
(25.00000359919191 -3.314149378452804e-06 0)
(25.00000000353273 1.137242430050624e-09 0)
(24.99999998286626 6.213087375273734e-12 0)
(25.00000548399483 -1.624618589319751e-05 0)
(24.99996885948561 -0.00050871511741061 0)
(25.00000061480907 -6.819367096385303e-08 0)
(25.00000548399877 1.624618375197594e-05 0)
(24.99999810969685 1.091200013676512e-14 0)
(24.98127121705532 0.0003895301494948081 0)
(25.0000035991841 3.314147903535432e-06 0)
(24.9999688594805 0.000508715114279703 0)
(24.98127121706119 -0.0003895301525915625 0)
(23.8484361965477 5.558633995744979e-12 0)
(24.11061677292582 1.032067101610458 0)
(24.48834859340996 1.372990094602116 0)
(24.98841931945972 0.09729606832250687 0)
(24.99976333442217 0.001222577427108481 0)
(24.42813033717247 1.869163251344589 0)
(24.49339925744847 2.092514789869253 0)
(24.98953098674949 0.1770025757306044 0)
(24.99960710180177 0.002479220912183011 0)
(24.45362703607442 1.910239127877603 0)
(24.51107207072393 2.130112269077786 0)
(24.99109083154134 0.1815993523730084 0)
(24.99961716007797 0.002562352359444606 0)
(24.45575692015619 1.912649462517239 0)
(24.5144459445448 2.127781430294536 0)
(24.99091336899931 0.1805976685978448 0)
(24.99961803646929 0.00253164316987669 0)
(24.99964448844603 0.002595703539584417 0)
(24.99964144830458 0.002647061440911498 0)
(24.99964203604828 0.002649722442384926 0)
(24.9992861231582 0.001910608590326622 0)
(24.99328055301719 0.1926857809919707 0)
(24.99468012884509 0.1958113593173237 0)
(24.99474812192002 0.1958983743927848 0)
(24.99240936570695 0.1964515227476908 0)
(24.45597066400235 2.247599584572299 0)
(24.45991500170859 2.278050818132478 0)
(24.46047718125132 2.27928287907952 0)
(24.56177989964223 2.536752794041693 0)
(24.43354908991605 1.895128255538347 0)
(24.46398704919188 1.903188114318729 0)
(24.46682452065395 1.903829367109547 0)
(25.39055734541998 2.271260535397276 0)
(25.00029375213957 0.009117291185516026 0)
(25.00128125574057 0.002323488926451635 0)
(25.00007422779951 5.331364050642287e-05 0)
(25.00000034149961 9.27731232595425e-08 0)
(25.03104983903609 0.1234604547940904 0)
(25.0093896011089 0.008514080481405792 0)
(25.00019163897695 -5.669820923891119e-05 0)
(25.00000347994058 -1.189833424366576e-06 0)
(25.12146989961427 0.4545165878421828 0)
(25.01483470139948 0.001814084421836088 0)
(25.00102641411092 -0.000823156130013784 0)
(25.0000451710124 -2.089153357469139e-05 0)
(24.65064792001563 0.1233048842190082 0)
(24.97253918281631 0.0003182587129560945 0)
(24.99409808748493 -0.0004005752989994653 0)
(24.9998559828242 -1.546652597593553e-05 0)
(25.00000000009134 2.514223721225474e-10 0)
(24.99999999999241 1.196429618665028e-11 0)
(25 1.272162985448236e-13 0)
(25.00000000000001 -4.339174384576557e-15 0)
(25.00000001338885 1.630241655693198e-08 0)
(24.99999999938735 3.056218267909784e-10 0)
(24.99999999999153 9.305133812847294e-12 0)
(25 3.096289249666222e-14 0)
(25.00000007578405 6.12383931831368e-08 0)
(25.0000000030739 1.227792443706549e-08 0)
(25.00000000021656 2.416842898842974e-10 0)
(25 1.188278324008047e-12 0)
(25.00000003459055 4.626755340093749e-08 0)
(25.00000005597233 1.44668098244491e-08 0)
(25.00000000283157 4.793758725512739e-10 0)
(24.99999999998142 1.475003516604034e-12 0)
(25.00000000000001 -1.716760067435554e-16 0)
(25.00000000000001 3.394483827794429e-14 0)
(24.99999999989088 -4.071163612797119e-11 0)
(25.00066540843697 -0.002532221166240932 0)
(25 3.208361913166359e-15 0)
(25 4.114894973165885e-15 0)
(24.99999999999981 -2.206463592733627e-12 0)
(25.0335753702545 -0.1290761341782041 0)
(25 1.441526504961246e-14 0)
(25 4.567876010915135e-17 0)
(25.00000000000001 2.144199065156984e-14 0)
(25.1602731443902 -1.446985656588893 0)
(25 7.139323745626341e-14 0)
(25 1.181937917824289e-16 0)
(25.00000000000001 5.080810421306917e-15 0)
(18.08010561813937 -2.503652417669099 0)
(24.99995322848372 7.712168194328599e-05 0)
(24.99993736251495 0.0001229532689060529 0)
(24.99993682185164 0.0001254030810119913 0)
(24.99993682796166 0.0001254582337148629 0)
(24.95901087807162 0.09179717110299647 0)
(24.95045394979698 0.1249472336744429 0)
(24.95042308263014 0.1256831217072517 0)
(24.95042233992608 0.1256350966225981 0)
(22.58601665295945 4.126510147684265 0)
(22.15057540011187 4.652573389053981 0)
(22.14703598319014 4.624638102593548 0)
(22.14588654095949 4.620063743647659 0)
(22.52937890275781 5.228828390853216 0)
(21.53358040457957 5.150497154925933 0)
(21.44908174307853 5.114767646892327 0)
(21.43874223194758 5.11256725963793 0)
(24.99993680968545 0.0001254675896368425 0)
(24.99993678745977 0.0001254835610850664 0)
(24.99993676217323 0.0001255020304738659 0)
(24.99993585398054 0.0001298977847749446 0)
(24.9504211024081 0.1256320859003353 0)
(24.95042109034912 0.1256321125964155 0)
(24.95042110110665 0.1256321136503385 0)
(24.95094631544526 0.1276602606089611 0)
(22.14585636292944 4.620040021359777 0)
(22.14585639286539 4.62004250154189 0)
(22.1458564730683 4.620042748768391 0)
(22.13842286964075 4.634835885510994 0)
(21.43865786798247 5.112577660356479 0)
(21.43866262448948 5.112580627321056 0)
(21.43866332716012 5.112580907432586 0)
(21.4333616726663 5.111323108412081 0)
(24.99993481062523 0.0001169245282052184 0)
(24.99994531558442 9.640625679694123e-05 0)
(24.99995667911653 8.335012648817496e-05 0)
(24.9999274065607 4.291126716393983e-05 0)
(24.95426572631787 0.104108829098199 0)
(24.95860007387255 0.09158693754334442 0)
(24.96453011367326 0.08011754856693293 0)
(24.97264595355721 0.05295743248914725 0)
(22.46984959191014 4.162965679958058 0)
(22.58123566543124 3.943579543006186 0)
(22.70903562665029 3.722627166988932 0)
(23.39864257435799 3.975276382965935 0)
(21.52222702501789 5.068420966871481 0)
(21.58051372347117 4.942893656129351 0)
(21.58049254635529 4.814659296346358 0)
(26.28567650851571 5.846888687891021 0)
(24.63434511482394 -0.09729098172684722 0)
(23.90384701795859 -0.03397867854951984 0)
(23.79707326951755 -0.0004945275734739888 0)
(23.80478376511382 -0.001919592837818295 0)
(23.29170363762227 -0.8602608823289839 0)
(19.46748820764786 -0.2208535401024465 0)
(18.93436119180906 -0.002532003516542555 0)
(18.92704540141524 -0.03660074445727495 0)
(21.81556498851261 -2.64645837232853 0)
(13.64890206976658 -0.6015965745066639 0)
(12.56108316242587 -0.005249897688571388 0)
(12.55032500971704 -0.1214953852365013 0)
(13.55748088127134 -6.462307119698791 0)
(4.510982478643164 -0.6565449787023613 0)
(3.69272919114583 -0.01136524556766476 0)
(3.685516098426445 -0.05364566230617945 0)
(23.69370504310182 -0.001186859931693173 0)
(23.69804012721119 0.0003292753867993846 0)
(23.68568410063671 -0.007884416573946713 0)
(22.90396246557235 0.1286374174065913 0)
(18.68043104831823 -0.04854583121990644 0)
(18.6837106807281 -0.001079274886814782 0)
(18.65434962493523 -0.03430369725104315 0)
(15.26306163915322 1.045930691625108 0)
(12.67469428265439 -0.1500690253460399 0)
(12.7046611706112 -0.00381859977368732 0)
(12.59682538574378 -0.02558850514238405 0)
(5.101194773176582 3.756203239964241 0)
(3.976163258587546 -0.05223512112804547 0)
(3.982101811616228 -0.002861166049417955 0)
(3.890236120390294 0.009815540678982524 0)
(-1.20750762606618 4.30223774878921 0)
(24.95980192917552 0.01103871443305456 0)
(25.00151306761823 -0.0001906741334427561 0)
(25.00027659863789 -0.0001843999912970824 0)
(24.99855302139724 -0.001969051736583005 0)
(24.68712876474019 0.04282439627064841 0)
(25.00160533896456 -0.0004677894646554871 0)
(25.00192742083167 -0.002783667535780582 0)
(25.01569902812897 -0.01968926974363051 0)
(24.34805772419839 -0.1354594334654283 0)
(25.01397291589557 -0.01527003843642974 0)
(25.02874994534006 -0.01751901355613851 0)
(25.75251173497192 -0.1379217452391575 0)
(21.4550673008917 2.182135529398327 0)
(24.78097051017631 0.09797881472360374 0)
(25.08603894073032 0.00201141124484495 0)
(28.73452892442052 -0.2471560832075396 0)
(25.00964887359927 0.004554730898589036 0)
(25.02395312016327 0.001607838351152798 0)
(25.02625856297995 0.0003540348907149217 0)
(25.03257805440772 0.006311724528027967 0)
(25.00230549110398 -0.06192781366014196 0)
(24.99633873453241 -0.01750388549564333 0)
(24.98165034246965 -0.003012885146973432 0)
(25.00341446617407 0.009257791991688644 0)
(24.32356508528879 -1.751453915781474 0)
(24.08269310000216 -0.5468921560153838 0)
(23.90945924094399 -0.08449974767568344 0)
(23.97561894162064 -0.1798043547979361 0)
(13.63687052576412 -8.131193165994915 0)
(11.14757591136915 -2.810311282385876 0)
(10.53481949918909 -0.3235825076931846 0)
(10.43906874267299 -0.4852900128758341 0)
(9.472892893188536 -0.5083299074253148 0)
(9.42467439519177 -0.07480909554889958 0)
(9.409219246110105 -0.003926924829946716 0)
(9.409067213872923 -3.313680621670616e-05 0)
(24.24699665473271 -0.2101969945011375 0)
(24.36699912452242 -0.0380974093260068 0)
(24.36589862530843 -0.003620781053697013 0)
(24.36480497335645 -9.204634781403845e-05 0)
(25.09368982522438 0.01747341695146137 0)
(25.13363234710208 0.00460551295978733 0)
(25.13494054934495 3.121860017298277e-05 0)
(25.134809003636 -1.301870821655679e-06 0)
(25.06035552670281 0.01316182310999815 0)
(25.07286920159738 0.002713086593318694 0)
(25.0741644038583 8.648961961513273e-05 0)
(25.07416601834507 9.776077768118319e-08 0)
(9.409067213874058 3.313680918505932e-05 0)
(24.36480497335953 9.204633973515279e-05 0)
(25.13480900363155 1.301876246484382e-06 0)
(25.07416601834522 -9.775985409389701e-08 0)
(9.409219246109046 0.003926924846872496 0)
(24.36589862532445 0.003620781048925961 0)
(25.13494054932608 -3.121859154943252e-05 0)
(25.07416440385997 -8.648961888669213e-05 0)
(9.42467439518863 0.0748090955250708 0)
(24.36699912452239 0.03809740935135864 0)
(25.13363234711347 -0.00460551298965465 0)
(25.07286920160001 -0.002713086602925428 0)
(9.472892893190355 0.5083299074238733 0)
(24.2469966547151 0.2101969944987522 0)
(25.09368982523451 -0.01747341694331937 0)
(25.06035552671543 -0.01316182311063502 0)
(25.03257805441535 -0.006311724524953465 0)
(25.02625856298349 -0.000354034889644746 0)
(25.02395312017262 -0.001607838355305347 0)
(25.00964887361926 -0.004554730895865841 0)
(25.00341446619069 -0.009257791989417152 0)
(24.9816503424672 0.00301288515476737 0)
(24.99633873451 0.01750388549027486 0)
(25.00230549112243 0.06192781365742699 0)
(23.97561894161582 0.1798043547950657 0)
(23.90945924093855 0.08449974767057647 0)
(24.08269310000566 0.546892156015456 0)
(24.32356508528708 1.751453915782273 0)
(10.43906874267411 0.4852900128779789 0)
(10.53481949918956 0.3235825076973045 0)
(11.14757591136803 2.810311282386446 0)
(13.63687052576424 8.131193165994077 0)
(28.7345289244186 0.2471560832062067 0)
(25.08603894072962 -0.002011411243289657 0)
(24.78097051017582 -0.09797881472389418 0)
(21.45506730088427 -2.182135529397777 0)
(25.75251173497295 0.1379217452356459 0)
(25.02874994534918 0.01751901354642042 0)
(25.01397291589537 0.01527003843667067 0)
(24.34805772419515 0.1354594334642417 0)
(25.01569902813128 0.01968926974109251 0)
(25.00192742084727 0.002783667545011485 0)
(25.00160533896534 0.0004677894643626955 0)
(24.68712876474101 -0.04282439626977028 0)
(24.99855302140002 0.001969051734511328 0)
(25.00027659864247 0.0001843999919508615 0)
(25.00151306762103 0.0001906741333376505 0)
(24.95980192917299 -0.0110387144287347 0)
(22.90396246557578 -0.1286374174090278 0)
(23.6856841006479 0.007884416575805214 0)
(23.69804012721591 -0.0003292753871768875 0)
(23.69370504311291 0.001186859929225445 0)
(15.26306163915193 -1.045930691623896 0)
(18.65434962493273 0.03430369725485451 0)
(18.68371068071105 0.001079274886952933 0)
(18.68043104830531 0.04854583122258647 0)
(5.101194773154274 -3.756203239966855 0)
(12.59682538574218 0.02558850514050177 0)
(12.70466117060609 0.00381859977332245 0)
(12.67469428265177 0.1500690253460271 0)
(-1.207507626074702 -4.302237748798548 0)
(3.890236120381521 -0.009815540680426584 0)
(3.982101811616531 0.002861166049053138 0)
(3.976163258589153 0.0522351211327608 0)
(23.80478376513598 0.001919592840629052 0)
(23.79707326950427 0.0004945275739441437 0)
(23.90384701794078 0.03397867854861509 0)
(24.63434511481499 0.09729098172583928 0)
(18.92704540138866 0.03660074445284896 0)
(18.93436119180324 0.002532003515618991 0)
(19.46748820764349 0.2208535401003288 0)
(23.29170363762823 0.8602608823296505 0)
(12.55032500971869 0.1214953852342109 0)
(12.56108316242661 0.005249897690625017 0)
(13.64890206974775 0.6015965745037377 0)
(21.8155649885259 2.646458372325572 0)
(3.685516098425757 0.05364566230191074 0)
(3.692729191146937 0.0113652455623614 0)
(4.510982478644572 0.656544978705095 0)
(13.55748088129032 6.462307119696409 0)
(24.99992740655891 -4.29112674487924e-05 0)
(24.99995667911006 -8.335013011395644e-05 0)
(24.99994531559183 -9.640625529243546e-05 0)
(24.99993481061518 -0.000116924526634036 0)
(24.97264595357068 -0.0529574324809307 0)
(24.96453011366521 -0.08011754856912245 0)
(24.9586000738724 -0.09158693754786698 0)
(24.95426572630544 -0.1041088290982109 0)
(23.39864257437564 -3.975276382961396 0)
(22.7090356266535 -3.722627166980486 0)
(22.5812356654309 -3.943579543003221 0)
(22.46984959191959 -4.162965679942496 0)
(26.28567650853142 -5.846888687895132 0)
(21.58049254636195 -4.814659296345726 0)
(21.5805137234798 -4.942893656127475 0)
(21.52222702503282 -5.068420966872419 0)
(24.99993585397689 -0.0001298977775626159 0)
(24.99993676215743 -0.0001255020304751329 0)
(24.99993678746123 -0.0001254835613248734 0)
(24.99993680967404 -0.000125467590485085 0)
(24.95094631544791 -0.1276602606015202 0)
(24.95042110109259 -0.1256321136519759 0)
(24.95042109033631 -0.1256321126062933 0)
(24.95042110240599 -0.1256320858894008 0)
(22.13842286966154 -4.634835885498929 0)
(22.14585647306816 -4.620042748757219 0)
(22.14585639286273 -4.620042501533043 0)
(22.14585636293739 -4.620040021355215 0)
(21.43336167269202 -5.111323108413456 0)
(21.43866332716951 -5.112580907430277 0)
(21.43866262449124 -5.112580627320318 0)
(21.43865786799202 -5.112577660358236 0)
(24.99993682797934 -0.0001254582250106121 0)
(24.99993682184011 -0.0001254030833102203 0)
(24.9999373625116 -0.0001229532689003884 0)
(24.99995322848447 -7.712169029988774e-05 0)
(24.95042233993344 -0.1256350966300327 0)
(24.95042308261795 -0.1256831217106009 0)
(24.95045394981298 -0.1249472336572064 0)
(24.95901087805537 -0.09179717112172568 0)