/*--------------------------------*- C++ -*----------------------------------*\
  =========                 |
  \\      /  F ield         | OpenFOAM: The Open Source CFD Toolbox
   \\    /   O peration     | Website:  https://openfoam.org
    \\  /    A nd           | Version:  11
     \\/     M anipulation  |
\*---------------------------------------------------------------------------*/
FoamFile
{
    format      ascii;
    class       volScalarField;
    location    "0.2075";
    object      p;
}
// * * * * * * * * * * * * * * * * * * * * * * * * * * * * * * * * * * * * * //

dimensions      [0 2 -2 0 0 0 0];

internalField   nonuniform List<scalar> 
880
(
79.99999999999999
80.00000000985499
80.00068993937559
80.33198767534422
80.00000000000001
80.00000000900621
80.00145571326016
80.65974860162001
80.00000000000003
80.00000009616971
80.00404901566033
81.28913553381042
80.00000000002045
79.99999998667965
80.01202112990717
82.35400104327449
79.99999999889111
79.99999999968082
79.9999998971401
80.0000145618075
80.00000029296855
80.00000483576511
80.00017757131046
80.00012066316157
80.03651137518018
80.06922173635556
80.14438830356521
80.0852994412439
84.81231064559068
87.42863955540204
89.48003819876084
90.44356627040621
80.00006053507822
80.00024838531075
80.00109421939929
80.00281625305007
80.00276719371367
80.00793500370297
80.01814678813099
80.03030863813235
80.45622079060161
80.78263923191639
81.13953501207217
81.56769959130642
91.62628239202249
93.25590610394272
94.37949782998834
94.60238737587181
89.89246416309742
87.53134223126384
86.79598766706859
86.24721836225031
82.96557217161775
83.47754200773086
83.87762628556774
84.03116725174326
80.11733069534201
80.22891346570952
80.3476002066302
80.46335903061066
80.0101469583023
80.02708072754562
80.05631167948863
80.08810690318269
80.10652825806154
80.10930172450587
80.09603681304692
80.07515614101203
80.56621496617107
80.65243571499698
80.65691247664259
80.59806509133145
84.00413704135244
83.92499130448142
83.72912546079593
83.41544259726363
85.70790443017208
85.26673017202366
85.17489118267557
85.24881035024862
85.12641016887176
83.1111430616679
80.51833685468327
80.05133625907109
84.63046659050259
82.63810345651216
80.41531878047071
80.03077678586286
88.45781041425441
82.18300342675144
80.26119771303544
80.01043333368929
109.2324833372841
82.69194658881335
80.15139760395319
80.00220062572683
80.00175644366115
80.08935884599893
84.78339363496391
140.6428861722084
80.00707867389193
80.14501052616514
87.23769630380944
144.9734627823202
80.02092272770989
80.31813262530149
91.47138183237128
151.058049113613
80.05597420013534
80.7114681924549
97.00741255613003
154.6759759990037
157.8325208192703
104.0081149879716
81.41344613035436
80.12370581446666
158.9627452852382
111.8519233651433
82.64634928395064
80.2550750085878
159.4752330912574
120.1767026715025
84.51068423752986
80.46501704704441
158.2550180778626
125.8259010547378
87.19241792475187
80.82323808562232
81.36298947694829
90.08544963044508
128.2129963054492
151.4593256130622
81.73976526167451
89.80760670999886
118.3196914101723
137.146495252263
81.86907242983767
87.36978362299106
107.5201115002345
120.3975462227262
81.11898362393883
84.54704093348676
96.20076709610822
100.6680984831574
81.27698697396002
84.34963796193384
87.71384287420744
77.09598131196296
81.01500980800574
82.28419230778495
81.33381366217209
52.71795305325078
80.55448284025411
81.31071737382734
78.75193817875231
40.7164999627349
80.2273351967892
80.72421545757425
76.38267296036422
39.41833794074514
41.80837771255572
74.45342818180085
80.1599488649458
80.00293700811854
40.73265775530587
73.46642374706093
79.67374997748435
79.97089321429765
41.23009380560498
72.94432023726239
79.32936553500475
79.95819684938847
39.54674319827974
71.19428993797047
78.99276796104608
79.9505356656491
43.665322933795
71.59360658824176
79.04031118373203
79.96780831347127
47.63565544327738
72.63343166143434
79.35242532379726
79.98624056021454
49.7244760369683
73.73552704105373
79.59865460874613
79.99427827045255
53.41766839061396
75.53540408693401
79.85606682904506
79.99788251468202
58.46563713197354
76.00514926704733
79.61189296970254
79.9862168448641
57.44088148090296
75.63187238404255
79.61671567174837
79.98806530904002
56.28234520445218
75.04652018593116
79.61058775376277
79.98975103955371
55.23421509849319
74.51535682946319
79.59869240581142
79.99099975366966
53.41766839053791
75.53540408685387
79.85606682917435
79.99788251434715
49.72447603698601
73.73552704092411
79.59865460856197
79.99427827019974
47.63565544321865
72.63343166130689
79.35242532356465
79.98624055999059
43.66532293377814
71.59360658802201
79.04031118370305
79.96780831343975
80.00293700826903
80.15994886503579
74.45342818185605
41.80837771233841
79.97089321426566
79.67374997753804
73.46642374700173
40.73265775512007
79.95819684952654
79.32936553510743
72.94432023693865
41.23009380544116
79.95053566573017
78.99276796132746
71.19428993778881
39.54674319824873
39.41833794065396
76.38267296034357
80.72421545744399
80.22733519697088
40.71649996265054
78.75193817871343
81.31071737375723
80.55448284040946
52.71795305309571
81.33381366222814
82.28419230781317
81.01500980829432
77.09598131197988
87.71384287407538
84.3496379614937
81.2769869735455
81.36298947679772
90.08544963083861
128.2129963062273
151.4593256132517
81.73976526159696
89.80760670991459
118.3196914104677
137.1464952524807
81.86907242970194
87.36978362336565
107.5201115002019
120.3975462227671
81.11898362364876
84.5470409331122
96.20076709619907
100.6680984832177
158.2550180779097
125.8259010550036
87.19241792480813
80.82323808619236
159.4752330913518
120.1767026719432
84.51068423854332
80.46501704686845
158.9627452851515
111.8519233653553
82.64634928365993
80.25507500882436
157.8325208193867
104.0081149876025
81.41344613017418
80.12370581450028
80.00175644371643
80.08935884599235
84.78339363488064
140.6428861720597
80.00707867425338
80.14501052656453
87.23769630375718
144.9734627821297
80.02092272820281
80.31813262523764
91.47138183208594
151.0580491131049
80.05597420022166
80.71146819295798
97.00741255664838
154.6759759991652
80.00220062572687
80.01043333363749
80.0307767860818
80.05133625908897
80.15139760350814
80.26119771288379
80.41531878038882
80.51833685458699
82.69194658865283
82.18300342681462
82.63810345633117
83.11114306150837
109.2324833371238
88.45781041428286
84.63046659053553
85.12641016886239
80.07515614112587
80.59806509149185
83.41544259742813
85.24881035039282
80.09603681295353
80.65691247683213
83.72912546095461
85.17489118267316
80.10930172449153
80.65243571507403
83.92499130439811
85.26673017171714
80.10652825790739
80.56621496607936
84.00413704151359
85.70790443017114
80.01014695826152
80.11733069507791
82.96557217170482
89.89246416323171
80.02708072725058
80.22891346574903
83.47754200792056
87.53134223123423
80.0563116796241
80.34760020642514
83.87762628547783
86.79598766683807
80.0881069030614
80.46335903051038
84.03116725193024
86.24721836193821
94.60238737574977
81.56769959122848
80.03030863792351
80.00281625326075
94.37949782990721
81.13953501216437
80.01814678785695
80.00109421931445
93.2559061039955
80.78263923206184
80.00793500322671
80.00024838512989
91.62628239195118
80.4562207905084
80.00276719358311
80.00006053540739
90.44356627034307
80.08529944138527
80.00012066320056
80.00001456207922
89.4800381987291
80.14438830351061
80.00017757114935
79.99999989716721
87.42863955538053
80.06922173628654
80.00000483563447
79.99999999967665
84.81231064553687
80.03651137506446
80.00000029291995
79.99999999909757
79.99999999999999
80.00000000986311
80.0006899394175
80.33198767489905
80
80.00000000887071
80.00145571323922
80.65974860160007
80.00000000000048
80.00000009604608
80.00404901560277
81.28913553373243
80.00000000002473
79.99999998650104
80.01202112984213
82.3540010431567
80.71927226678962
81.38625821296712
82.67368616048945
86.37093559390641
81.3862582130597
82.30831068123142
84.96216539983428
91.20212418032052
82.67368616054368
84.96216539983295
90.21647850431243
99.01788253125204
86.37093559395717
91.20212418035906
99.01788253135571
109.846795079297
121.5873467282868
111.9210512284584
107.4518669834968
99.11862657705278
119.1642568818765
116.4355256136536
116.3912399722075
111.8851936667387
119.3886255567107
118.5051526016124
118.1203031974999
116.2616513999813
118.3470851774334
117.9796928247102
117.8473187164513
116.6285621278608
114.8878390339275
114.4076298338503
113.1250034570729
110.2852266349115
115.7107697392216
114.6444740014074
113.2651037848754
110.489726701555
115.9064890559871
114.7347218514996
113.3551828748587
110.7812881314747
116.2991458007443
114.8501833363513
113.3790417583868
108.1830489030011
84.96382413471365
74.88450943154398
75.16406314675187
76.28515420964581
77.6007809828052
72.22079485155507
74.48451619371133
75.89515906472091
71.25778129749685
72.19512623302109
75.03137435293131
76.42729475009101
61.9751371911146
69.913635301328
74.02327938807771
75.56197295698686
77.20131651132573
78.09366692014935
79.18730013017937
80.22416318748152
76.8477078826598
77.89176982777512
79.02816612438184
80.18015756991109
77.19866877065407
78.08367441966979
78.89350604786648
80.12731908600549
76.49620050408733
77.68172768903233
78.96687829617221
80.16137910046784
81.03188112512001
83.41318486997595
112.8837505623357
153.1199776296144
81.03438660115472
84.8492908593534
120.3619749162603
150.7448525335817
81.05802218360286
86.02961787447143
124.7732140267038
147.0037473523853
81.07885936982812
86.53793039721322
129.3209367770822
149.240032032165
202.5628668685941
192.4029063219114
187.3236946877633
182.5713461686478
204.2810955828429
194.9232505477153
188.7171918776318
183.4106043272139
204.0752364584743
196.7705940172356
189.8036427644801
183.710166923231
201.2661991967586
198.5309935810106
191.434195318271
184.6575335968742
183.5805856734699
184.0463082221189
182.1828902758093
177.8199488416953
184.0797635805838
184.9994224328342
184.5389177505312
179.7593261256642
183.5680894540674
184.8668004873895
185.7087612736173
182.1291551977203
184.1771120456429
186.4086434820751
186.1043345936121
182.0459470039224
164.0585250528424
147.6677261114289
131.0379310065994
111.0906545644233
165.6779543044433
148.8134260449583
130.922809766937
118.4577820405437
169.0576064135389
151.7158672432006
133.3010687888793
122.6085803285394
169.2208916177434
155.9123128499401
137.339661151844
136.8932879290565
67.2705251797924
15.6589026584428
4.152036548837718
4.713453797690836
51.74873982258844
10.23314070744429
4.175280005755624
4.638507251061962
35.81801660066153
6.37519950182319
4.274237655012018
5.219413824981523
20.10873853579073
3.590200608667059
4.453012799213449
5.488540993940902
7.660257688193765
11.02897270934612
14.79261397203324
18.27746473868972
7.617101518148617
11.74083369697844
15.76922063378931
19.64768668756153
8.069421084658865
12.2320476689843
16.27940752969485
21.17772690685175
8.469464915602757
13.10132820694149
18.03006858166109
23.35979733271665
28.34823028032806
31.60108297923068
32.24787398257236
33.67058149047673
27.76200822936691
32.54289642789051
33.46714305616059
35.0961807558347
26.78392387967553
32.32567461283855
33.88474941358207
35.96206893934772
24.68657140062302
30.71264690461834
33.5635355883246
38.23099570504383
29.28293593391649
28.93303046317045
31.08706057122985
30.32486617066299
25.76932882217772
23.73728845040081
25.70914011223487
25.2579538041451
22.81882155958333
21.18982591565446
23.37799119053388
23.28631462627496
17.13493512907194
18.11842821600239
20.44623276663534
21.14913251613029
21.91895867405355
22.56353849856282
23.24381656339783
23.67393013093764
23.33094654524989
23.48451250760252
23.75883594029398
24.04584497851395
24.621241843555
24.27116675894947
23.91873514262086
23.79245652286662
28.89361982052168
27.23440442444899
25.74159823985287
24.8720773233971
23.67393013093589
24.04584497851199
23.79245652286645
24.87207732339642
23.24381656339539
23.75883594029319
23.91873514261982
25.74159823984556
22.56353849856364
23.4845125076038
24.27116675895105
27.23440442443989
21.91895867405862
23.3309465452511
24.62124184355363
28.8936198205215
30.32486617067577
31.08706057123047
28.93303046316245
29.28293593390922
25.25795380414646
25.70914011223707
23.73728845040263
25.76932882217568
23.2863146262774
23.37799119053152
21.18982591564677
22.81882155958225
21.14913251613134
20.44623276663006
18.1184282159911
17.13493512906198
38.23099570502806
33.56353558830479
30.71264690460494
24.68657140068829
35.96206893934406
33.88474941357183
32.32567461281552
26.78392387971336
35.09618075582846
33.46714305616414
32.54289642787241
27.76200822939036
33.67058149046831
32.24787398258386
31.60108297920988
28.3482302803287
18.27746473881771
14.79261397211562
11.0289727093799
7.66025768818539
19.64768668769075
15.76922063389317
11.74083369705245
7.617101518164026
21.17772690697341
16.27940752979566
12.23204766906054
8.069421084677938
23.35979733280853
18.03006858177008
13.10132820703673
8.469464915636456
4.713453797707707
4.152036548815693
15.65890265832211
67.27052517973144
4.638507251080449
4.175280005753734
10.23314070741196
51.74873982252019
5.219413824996878
4.274237655013291
6.375199501823514
35.81801660063624
5.488540993950737
4.453012799217153
3.590200608671295
20.10873853579077
111.0906545644327
131.0379310066392
147.6677261114765
164.0585250528308
118.4577820405591
130.9228097669669
148.813426045002
165.6779543045323
122.6085803285507
133.3010687889226
151.7158672432648
169.0576064137025
136.8932879290809
137.339661151899
155.9123128500367
169.2208916179976
177.8199488417868
182.182890275718
184.0463082218542
183.5805856736246
179.7593261259105
184.5389177505618
184.9994224326764
184.0797635807681
182.1291551980459
185.7087612737162
184.8668004872745
183.5680894542993
182.0459470043192
186.1043345937952
186.4086434821129
184.1771120458713
182.571346168199
187.3236946874104
192.4029063214264
202.5628668683389
183.4106043266842
188.7171918772998
194.9232505472082
204.2810955826295
183.7101669226062
189.8036427641864
196.7705940167504
204.0752364583102
184.6575335961156
191.4341953179889
198.5309935805287
201.2661991966103
153.1199776294229
112.883750562227
83.41318486999816
81.03188112518094
150.7448525334207
120.3619749161478
84.84929085935168
81.03438660123081
147.0037473522607
124.7732140265786
86.02961787445413
81.0580221836757
149.2400320320341
129.3209367769676
86.53793039719255
81.07885936990881
80.22416318769778
79.18730013016648
78.0936669198795
77.20131651130922
80.18015757014361
79.02816612431222
77.89176982749001
76.84770788264582
80.12731908623975
78.89350604780311
78.08367441938027
77.19866877064641
80.1613791007119
78.96687829609166
77.68172768873909
76.49620050408571
76.28515420940401
75.16406314653645
74.88450943162272
84.96382413484123
75.89515906444835
74.48451619351762
72.22079485168003
77.60078098291612
76.42729474981785
75.03137435275261
72.19512623317078
71.25778129758321
75.56197295671005
74.02327938788423
69.91363530148924
61.9751371912119
110.2852266348734
113.1250034570134
114.407629833985
114.8878390339374
110.489726701491
113.2651037848787
114.6444740015737
115.7107697392138
110.7812881314043
113.3551828748698
114.7347218516563
115.9064890559654
108.18304890295
113.3790417584219
114.8501833365119
116.299145800709
116.6285621276875
116.2616513999056
111.8851936667542
99.11862657711271
117.847318716322
118.1203031974299
116.3912399721679
107.4518669834833
117.9796928245989
118.5051526015134
116.4355256136045
111.9210512283639
118.3470851773638
119.3886255566183
119.1642568817884
121.5873467281153
55.29472929542344
75.63032470983467
79.75266524959142
79.99635454515581
53.20764077795031
74.93699537075959
79.65337903671207
79.99384826181917
53.18345538893932
74.45951528068586
79.60974765822364
79.99265345755009
52.99562801331523
74.25509889943507
79.59862855997353
79.99191680712578
79.9862168449732
79.61189296965674
76.00514926703741
58.46563713185733
79.98806530904
79.61671567161291
75.63187238403607
57.44088148083833
79.9897510396802
79.61058775364341
75.04652018590374
56.28234520446633
79.99099975370954
79.59869240573522
74.51535682943198
55.23421509854564
79.9919168069748
79.992653457524
79.99384826183055
79.99635454499118
79.59862855983015
79.60974765812989
79.65337903653445
79.75266524957162
74.25509889940759
74.45951528069561
74.93699537084217
75.63032470985594
52.99562801327203
53.18345538887192
53.20764077788024
55.29472929533126
)
;

boundaryField
{
    back
    {
        type            empty;
    }
    inlet
    {
        type            zeroGradient;
    }
    front
    {
        type            empty;
    }
    top
    {
        type            zeroGradient;
    }
    outlet
    {
        type            fixedValue;
        value           uniform 80;
    }
    bottom
    {
        type            zeroGradient;
    }
    wall
    {
        type            zeroGradient;
    }
}


// ************************************************************************* //
