/*--------------------------------*- C++ -*----------------------------------*\
  =========                 |
  \\      /  F ield         | OpenFOAM: The Open Source CFD Toolbox
   \\    /   O peration     | Website:  https://openfoam.org
    \\  /    A nd           | Version:  11
     \\/     M anipulation  |
\*---------------------------------------------------------------------------*/
FoamFile
{
    format      ascii;
    class       volScalarField;
    location    "0.06";
    object      Ma;
}
// * * * * * * * * * * * * * * * * * * * * * * * * * * * * * * * * * * * * * //

dimensions      [0 0 0 0 0 0 0];

internalField   nonuniform List<scalar> 
880
(
1.11801663592382
1.11801663592382
1.118016635740992
1.118016548030806
1.11801663592382
1.11801663592382
1.118016629790088
1.118016901288269
1.11801663592382
1.118016635923818
1.118016601366953
1.117989464496076
1.118016635923821
1.118016635923442
1.118015886353687
1.1169637769435
1.11801663592382
1.11801663592382
1.118016635923759
1.118016635759481
1.118016635927133
1.118016635885518
1.118016636222119
1.118016628934325
1.118008418919373
1.117995245125338
1.117998679789833
1.117966996202746
1.109726753644279
1.098582961003793
1.093798079917227
1.093455755229573
1.118016628408924
1.118016618112528
1.118016615615288
1.118016625156581
1.118016404365569
1.118016377519115
1.118016384770233
1.118016278688976
1.117847075682831
1.117833692026236
1.117831848780881
1.117776106847679
1.093249609237408
1.093766822004252
1.094212170596923
1.092461493619048
1.110431622960352
1.12280912849623
1.126154900594718
1.124225597052015
1.117752454400124
1.117803504013947
1.117997905853181
1.118095037405398
1.118016011682326
1.118016102264779
1.118016515596137
1.118016781155142
1.118016584691283
1.118016573352755
1.118016584299417
1.118016610871412
1.118016630637949
1.118016635574931
1.118016635919056
1.118016635923821
1.118016707718766
1.118016643473199
1.118016636076824
1.118016635924707
1.118056185869243
1.118022001820453
1.118016794628819
1.118016636654061
1.120821615947621
1.118590286908722
1.118052070498098
1.118017065611508
1.118016634497664
1.118016635917737
1.118016635923245
1.11801663592382
1.118016653281297
1.118016637333646
1.118016636029684
1.118016635923977
1.117985496953551
1.118016469625087
1.118016635672875
1.118016635807549
1.106674089340288
1.118004455861402
1.118017784020383
1.118016674091234
1.118016619921479
1.118015851060658
1.117433687691129
1.007857036578235
1.118016592427696
1.118014366058748
1.116669308711551
0.9777020132948528
1.11801652075015
1.118013380647223
1.116124883987081
0.9672313743796197
1.118016469007866
1.118012531715977
1.115783102802041
0.9686734408954061
0.9641352017290472
1.115364148495614
1.118011253205863
1.118016424008373
0.960889405839717
1.114938537275773
1.118009943978124
1.118016334068093
0.9523092033965795
1.114222438976643
1.118007150196586
1.118016274019127
0.9462008506942762
1.113552844729228
1.118004984038119
1.118016038167523
1.118016025641184
1.118002767856858
1.112532539206416
0.9335733829225735
1.118015788496704
1.117998315300213
1.111730919693164
0.9396375915826766
1.118015595568351
1.117997394767628
1.112301153985533
0.9721689725498718
1.118016027026528
1.118004178513728
1.115867366088077
1.051603699767197
1.118015200337727
1.117994594077191
1.120134392809886
1.155721191390332
1.118016962577306
1.118018159432719
1.118386092609794
1.118809541060566
1.118016599227346
1.117995708127137
1.114272077835761
1.028233945694275
1.11801656291769
1.11795154865379
1.108457174171785
0.9309320903113562
0.908389705982983
1.109809822277716
1.117983095089809
1.118016603619547
0.9190575303900075
1.11020798364397
1.11798076860619
1.118016592613545
0.9423031589971972
1.112884327036966
1.118000964512099
1.11801662369588
0.9274714218439744
1.111959150367887
1.117995776454885
1.1180166126589
1.008023605173587
1.115284295589819
1.118009012221219
1.118016629023942
1.07611689948767
1.117341102079394
1.118015405146045
1.118016634855169
1.111365848654663
1.11797733519302
1.118016652368632
1.118016636066928
1.119796627139796
1.118059835083267
1.118016842514155
1.118016636226108
1.090126636316102
1.117377661872708
1.118012343224584
1.11801662214213
1.090557200796475
1.11738668350319
1.118012363685831
1.118016622168109
1.090841318369408
1.117398338453897
1.118012397406286
1.118016622233014
1.089591789999041
1.117405559951046
1.118012480878172
1.118016622565311
1.119796627139661
1.118059835084238
1.118016842515343
1.11801663622723
1.111365848654642
1.117977335194545
1.118016652370081
1.118016636067248
1.076116899488311
1.117341102080509
1.118015405146155
1.118016634855524
1.008023605172605
1.115284295590822
1.118009012220771
1.11801662902386
1.118016603618372
1.117983095089711
1.109809822278211
0.9083897059821322
1.118016592613878
1.117980768605732
1.110207983641379
0.9190575303882477
1.118016623695591
1.118000964512408
1.112884327037762
0.9423031589971579
1.118016612658717
1.117995776453963
1.111959150367979
0.9274714218432489
0.9309320903089294
1.108457174171438
1.1179515486543
1.118016562917686
1.028233945692949
1.114272077835597
1.117995708126655
1.118016599227671
1.118809541060061
1.118386092609482
1.118018159433114
1.118016962576347
1.155721191390306
1.120134392810758
1.117994594078222
1.118015200336949
1.118016025641478
1.118002767855407
1.112532539205095
0.9335733829228673
1.118015788496296
1.117998315301212
1.111730919692443
0.9396375915816452
1.118015595569047
1.117997394767211
1.112301153985486
0.9721689725500626
1.118016027026421
1.118004178514013
1.115867366088073
1.05160369976737
0.9462008506939743
1.113552844730373
1.118004984037704
1.118016038165827
0.9523092033961523
1.114222438975883
1.118007150196537
1.118016274019162
0.9608894058394951
1.1149385372766
1.11800994397812
1.118016334067988
0.9641352017288263
1.115364148492967
1.118011253205259
1.11801642400807
1.118016619921219
1.118015851060424
1.117433687691244
1.007857036578368
1.118016592426621
1.118014366057915
1.116669308713035
0.97770201329537
1.118016520748864
1.118013380646058
1.116124883985433
0.9672313743790784
1.118016469007984
1.118012531716604
1.115783102804184
0.968673440896978
1.118016674091113
1.118016635807694
1.118016635923902
1.118016635923825
1.118017784021792
1.118016635673417
1.118016636030098
1.118016635923478
1.118004455862218
1.118016469624727
1.118016637334077
1.118016635917994
1.106674089340728
1.117985496953448
1.118016653280931
1.118016634497671
1.118016635923843
1.118016635924586
1.118016636653783
1.118017065611269
1.118016635918997
1.118016636076395
1.118016794628646
1.118052070497821
1.118016635574964
1.118016643472927
1.118022001821281
1.118590286909807
1.118016630638383
1.118016707718924
1.118056185868693
1.120821615947733
1.11801658469087
1.118016011683407
1.117752454400058
1.110431622959734
1.118016573353559
1.118016102264304
1.117803504013513
1.12280912849595
1.11801658429908
1.118016515596761
1.117997905853615
1.12615490059517
1.118016610871582
1.118016781155446
1.118095037405131
1.124225597053039
1.092461493619512
1.117776106847896
1.118016278689598
1.118016625156203
1.094212170597463
1.117831848779925
1.118016384771451
1.118016615615284
1.093766822003793
1.117833692024971
1.11801637752066
1.118016618113018
1.093249609238268
1.11784707568454
1.118016404366013
1.118016628407891
1.093455755229983
1.117966996201398
1.118016628934275
1.118016635759061
1.093798079917581
1.117998679790554
1.118016636222989
1.118016635923778
1.098582961004309
1.117995245125637
1.118016635885707
1.11801663592382
1.109726753644924
1.118008418919897
1.118016635927156
1.11801663592382
1.118016635923821
1.11801663592382
1.118016635740531
1.11801654803079
1.11801663592382
1.11801663592382
1.118016629790111
1.118016901288107
1.11801663592382
1.11801663592382
1.118016601366902
1.117989464495923
1.11801663592382
1.118016635923832
1.118015886354039
1.116963776944119
1.118016596337066
1.118013064952715
1.117698753738872
1.111528196676024
1.118013064954118
1.117900424308997
1.115115164997761
1.087608175285088
1.117698753738908
1.115115164997999
1.094064802426139
1.011292026833674
1.111528196675233
1.087608175284384
1.011292026833077
0.8850633648331608
0.8376401181788258
0.8867592994871535
0.9749357131493642
1.042861666768275
0.9011346286931237
0.9111659617977927
0.9434916864712084
0.9892062303649645
0.9384129517170866
0.9561529486370459
0.9806325675519254
1.006136667068738
0.9558727665373066
0.997797616717413
1.009772083663745
1.019086457493864
1.024402347995139
1.0288735237648
1.030019209468458
1.026746505987837
1.025295344823612
1.032723025181043
1.034818193687532
1.042027238291315
1.020418441603388
1.029287113264299
1.031230979468528
1.091874362200666
0.9678355742391825
0.9768989077436326
0.982490955680708
1.163184048069693
1.158666255443993
1.188464815789448
1.160122119665254
1.140080175128791
1.2517688179912
1.239995571502328
1.188520876722888
1.156808992785044
1.387217009273398
1.282334089256345
1.20929266403111
1.170167050661555
1.126726112942739
1.036379494151306
1.051187311132669
1.088548854278351
1.127334451419789
1.120471735989251
1.118285589656751
1.118024921328384
1.135459317679956
1.122697183833494
1.118534998039144
1.118032215829612
1.142855874112864
1.125065916777555
1.118831341681295
1.118041617268206
1.106281482814129
1.115280860233468
1.117775989127928
1.118011133866613
1.118016686991611
1.118016619217871
1.117208141713331
0.967886733263948
1.118016720362385
1.118016634404271
1.115942523072082
0.8582840802537436
1.11801676598184
1.118016639079537
1.110322420377235
0.7602528163148911
1.118016595253096
1.118016640678839
1.091709062534746
0.575613442371678
0.7064649640584455
0.7606328278340658
0.7868184695054037
0.8041376970048546
0.615991112462863
0.7262492371750414
0.7806491417478443
0.8048610236693059
0.5207020458735064
0.6727589517715923
0.7641337982934324
0.8024808391488396
0.389327317355803
0.5512704538472656
0.6521213673268974
0.7140613359350798
0.8103606660181152
0.8123872291296313
0.8113877871276113
0.8109203764232461
0.8150409719944101
0.8187595438827552
0.8190538624057355
0.8191853134815793
0.8155152904955462
0.818867860609241
0.8190996537246867
0.8192969411975546
0.7449226734926928
0.7542367169399214
0.7556069270450672
0.7534367465787745
0.8098046249782452
0.823210947250171
0.8658220254757479
0.9575906822225855
0.8192178762791902
0.8334650863895815
0.8851481990366787
0.987645407553733
0.8195212267609726
0.8317509484098722
0.9075995898037693
1.234600894977429
0.7604769815025518
0.7824557539933937
0.9153357879966075
1.672918818720113
1.138269622872824
0.951445759480834
0.3945063895081306
0.1356030183722083
1.136826043022573
0.8334786331762407
0.3530847446371614
0.07876717365526544
1.289792515326982
0.6193840241538479
0.2625591213781577
0.07599013047719169
1.020864022128676
0.2608735810028534
0.1443242459253751
0.07271002620747964
0.09662450833061961
0.1274508602500557
0.1507306146756377
0.1378715693407963
0.04519466779246864
0.09218594671204702
0.1328424852588026
0.1820204992486468
0.0230291814782486
0.1102895603640175
0.1810674173369245
0.2507624113742991
0.01618193214462559
0.1046262827581806
0.1939255102297723
0.283680831345764
0.8595356960313896
1.05819248578021
1.145037577518057
1.17656728906211
0.546966611647564
0.8726307706066855
1.068235570084086
1.181787305679182
0.1589440155627621
0.494691166102187
0.8413453384926209
1.205583681887106
0.06420319100282136
0.2576507284165954
0.6745980962978658
1.39262627674274
1.246963778589828
1.405534972032109
1.144022038222211
0.8995074460952673
1.442283355005332
2.119006451829035
1.785097836218331
1.047849186777778
1.610125751311064
2.336688730640059
1.564018021902837
0.6821568199810861
1.343376816831138
1.528459729913702
0.4450483092443267
0.172463877010398
0.1949683238539585
0.1623195106383394
0.1208774133962383
0.133961257405341
0.5404805120758669
0.5004367417666905
0.2344579923985355
0.1014484345924619
0.8149659926921546
0.7152437818481634
0.4840812593477313
0.2570423754454777
0.7172484010410737
0.6043793794543371
0.4864718887852144
0.4015040251344046
0.1339612574053248
0.1014484345925502
0.2570423754454573
0.4015040251341729
0.1208774133961655
0.2344579923987828
0.4840812593478219
0.4864718887851531
0.1623195106384534
0.5004367417666983
0.7152437818481382
0.6043793794545113
0.194968323854012
0.5404805120759798
0.8149659926922811
0.7172484010411853
0.8995074460950551
1.144022038221098
1.405534972031105
1.246963778589698
1.047849186777498
1.785097836217554
2.119006451828396
1.442283355005422
0.6821568199806433
1.564018021902277
2.336688730639138
1.610125751310896
0.1724638770103921
0.4450483092437197
1.528459729912749
1.343376816830947
1.392626276742573
0.6745980962978434
0.2576507284166402
0.06420319100249273
1.205583681887024
0.8413453384925217
0.4946911661022321
0.1589440155630552
1.181787305679149
1.068235570083916
0.8726307706067697
0.5469666116478001
1.17656728906205
1.145037577518024
1.05819248578068
0.8595356960304801
0.1378715693409527
0.1507306146753682
0.1274508602506573
0.09662450832953522
0.1820204992481544
0.1328424852589353
0.092185946712006
0.04519466779194251
0.2507624113740854
0.1810674173369884
0.1102895603641308
0.02302918147816205
0.2836808313457247
0.1939255102298879
0.1046262827582632
0.01618193214454024
0.1356030183694858
0.3945063895042524
0.9514457594768055
1.138269622872234
0.07876717365567824
0.3530847446349812
0.8334786331723762
1.136826043022465
0.07599013047673343
0.2625591213764578
0.6193840241517894
1.289792515326734
0.07271002620724742
0.1443242459245249
0.2608735810027886
1.02086402212913
0.9575906822229243
0.8658220254759512
0.8232109472500709
0.8098046249790601
0.9876454075538602
0.8851481990368537
0.8334650863896114
0.8192178762795539
1.234600894977403
0.9075995898038595
0.8317509484099497
0.8195212267609774
1.672918818719808
0.9153357879966383
0.7824557539933323
0.7604769815020817
0.8109203764231467
0.8113877871273701
0.8123872291298516
0.8103606660182332
0.8191853134814788
0.8190538624054509
0.8187595438827351
0.8150409719946405
0.8192969411974105
0.8190996537244567
0.8188678606092641
0.8155152904958028
0.7534367465788551
0.7556069270448985
0.754236716940304
0.7449226734931851
0.8041376970060718
0.7868184695052348
0.7606328278345131
0.7064649640583311
0.8048610236699949
0.7806491417476246
0.7262492371752526
0.6159911124628368
0.8024808391490625
0.7641337982934654
0.6727589517717218
0.5207020458734558
0.71406133593453
0.6521213673274031
0.5512704538472292
0.3893273173553595
0.9678867332639249
1.117208141712702
1.118016619217118
1.118016686992598
0.8582840802535685
1.115942523071733
1.11801663440409
1.118016720363703
0.7602528163148434
1.110322420377925
1.118016639080313
1.118016765982556
0.5756134423706315
1.091709062534789
1.118016640680896
1.118016595255061
1.118024921327599
1.118285589656759
1.120471735989872
1.127334451419959
1.118032215828689
1.118534998039491
1.122697183833898
1.135459317679978
1.118041617267623
1.118831341681631
1.125065916778026
1.142855874112771
1.11801113386357
1.117775989130326
1.115280860230398
1.106281482815533
1.140080175129855
1.160122119665488
1.188464815789079
1.158666255443159
1.15680899278573
1.188520876723316
1.239995571502002
1.251768817990515
1.170167050662142
1.20929266403166
1.282334089255938
1.387217009272943
1.088548854277789
1.05118731113331
1.036379494151383
1.126726112942935
1.026746505988126
1.030019209469069
1.028873523764739
1.024402347995513
1.042027238291637
1.034818193687527
1.032723025180688
1.025295344823877
1.091874362200818
1.031230979468336
1.029287113263956
1.020418441603538
1.163184048069488
0.9824909556799498
0.976898907742938
0.9678355742394421
1.019086457493927
1.006136667069015
0.9892062303654241
1.042861666768683
1.009772083663536
0.9806325675520042
0.9434916864717769
0.9749357131501131
0.9977976167172655
0.9561529486370843
0.9111659617982384
0.8867592994882305
0.9558727665385323
0.9384129517186162
0.9011346286936399
0.8376401181797395
1.110038516099335
1.117920734328192
1.118016127343981
1.118016634599274
1.10931637428061
1.117840729595397
1.118015568158412
1.118016632637151
1.096860762350772
1.117656984259076
1.11801445401664
1.118016629101034
1.083550232543905
1.117402019264795
1.118012820718469
1.118016624133806
1.118016622141178
1.118012343224493
1.117377661872671
1.090126636315216
1.118016622168525
1.118012363685328
1.117386683502942
1.09055720079631
1.118016622232994
1.118012397407027
1.117398338453733
1.090841318370574
1.118016622564986
1.118012480878658
1.117405559950477
1.089591790000167
1.118016624134731
1.118016629100552
1.118016632636771
1.118016634600083
1.118012820719405
1.11801445401678
1.11801556815801
1.118016127343521
1.117402019265098
1.11765698425911
1.117840729594667
1.117920734328691
1.083550232544374
1.096860762350803
1.109316374279949
1.110038516099002
)
;

boundaryField
{
    back
    {
        type            empty;
    }
    inlet
    {
        type            calculated;
        value           nonuniform List<scalar> 
16
(
1.11801663592382
1.11801663592382
1.11801663592382
1.11801663592382
1.11801663592382
1.11801663592382
1.118016635923757
1.118016635875789
1.118016635875724
1.118016635923778
1.11801663592382
1.11801663592382
1.11801663592382
1.11801663592382
1.11801663592382
1.11801663592382
)
;
    }
    front
    {
        type            empty;
    }
    top
    {
        type            calculated;
        value           uniform 0;
    }
    outlet
    {
        type            calculated;
        value           nonuniform List<scalar> 
16
(
1.118016618356593
1.118016618391015
1.118016618474047
1.118016618894577
1.118016634197593
1.118016631705844
1.11801662722099
1.118016620897208
1.118016618355748
1.118016618391383
1.118016618474039
1.118016618894287
1.118016620898051
1.118016627220532
1.118016631705505
1.118016634198339
)
;
    }
    bottom
    {
        type            calculated;
        value           uniform 0;
    }
    wall
    {
        type            calculated;
        value           uniform 0;
    }
}


// ************************************************************************* //
