/*--------------------------------*- C++ -*----------------------------------*\
  =========                 |
  \\      /  F ield         | OpenFOAM: The Open Source CFD Toolbox
   \\    /   O peration     | Website:  https://openfoam.org
    \\  /    A nd           | Version:  11
     \\/     M anipulation  |
\*---------------------------------------------------------------------------*/
FoamFile
{
    format      ascii;
    class       volScalarField;
    location    "0.045";
    object      rho;
}
// * * * * * * * * * * * * * * * * * * * * * * * * * * * * * * * * * * * * * //

dimensions      [0 0 0 0 0 0 0];

internalField   nonuniform List<scalar> 
880
(
0.2239950333699092
0.2239950333699093
0.2239950333906691
0.223995035502537
0.2239950333699093
0.2239950333699093
0.2239950335805261
0.223995081396693
0.2239950333699093
0.2239950333699093
0.2239950406548062
0.2239998608124493
0.2239950333699091
0.2239950333699093
0.2239950217403853
0.2240750238437354
0.2239950333699093
0.2239950333699093
0.2239950333699092
0.2239950333743866
0.2239950333699093
0.2239950333699093
0.2239950333718556
0.2239950334530446
0.2239955430591401
0.2239964719875986
0.2239985977119137
0.2239908438386701
0.2248578448245272
0.2267945540158446
0.2283081364073907
0.2289266231183816
0.2239950336377903
0.223995033751153
0.223995033779723
0.2239950337386032
0.2239950475772051
0.2239950556149357
0.2239950573454727
0.223995050863352
0.2240128275174329
0.2240158834028158
0.2240162700525653
0.2240150242366412
0.2292721298061445
0.2298432027534264
0.2298324043406623
0.2304280621178723
0.2290191501658984
0.2275823568168395
0.2260007964130987
0.2246373032745775
0.2240329325230305
0.2240291345958228
0.2240147877482301
0.2240006387709436
0.2239950922976149
0.2239950858264899
0.2239950632951425
0.223995041319038
0.2239950343938016
0.2239950341943423
0.2239950337356342
0.2239950334349358
0.223995033372854
0.2239950333699288
0.2239950333699092
0.2239950333699093
0.2239950340243674
0.2239950333803327
0.2239950333698016
0.2239950333699004
0.223995562871052
0.2239950436385866
0.2239950333832495
0.2239950333663389
0.2240734128805764
0.223997363229089
0.2239950430474109
0.2239950328828268
0.2239950331336821
0.2239950333690801
0.2239950333699093
0.2239950333699092
0.2239950283681537
0.2239950329978821
0.2239950333676398
0.2239950333699092
0.2239988452007707
0.2239950577492381
0.2239950335353027
0.2239950333769347
0.2248529711562647
0.2239903069805934
0.2239947329857217
0.2239950326743932
0.2239950330475673
0.2239950142460757
0.2240201548924647
0.2353121576886534
0.223995035099359
0.2239951277145725
0.224071417130541
0.240741930343449
0.2239950362184951
0.2239951902544408
0.2241111037458434
0.2449170196144853
0.2239950370686449
0.2239952337237623
0.2241346580449393
0.2471104744339674
0.2484438163000988
0.2241580851939215
0.2239952853379256
0.2239950381495786
0.2501749494264572
0.2241908188500222
0.2239953608293507
0.2239950396832965
0.2516451660050954
0.2242243252213782
0.2239954456059234
0.2239950416061638
0.2537023572168247
0.2242807766937636
0.2239956111108419
0.2239950452632551
0.2239950447507258
0.2239955845299091
0.2243064080960145
0.256355728963823
0.2239950478446883
0.2239957259088504
0.2243530206975791
0.2573873730809221
0.2239950514840209
0.223995832578271
0.2243575531373314
0.2534521776896123
0.2239950430875603
0.2239954555228686
0.2241730213434788
0.2388989404467839
0.223995009307328
0.223996171700169
0.2240985693345318
0.2238212508922422
0.2239950269108146
0.2239926513741685
0.2236257257354962
0.2058740795625468
0.2239950282335288
0.2239916392126713
0.2231395806578253
0.1878824165548569
0.2239950283950873
0.2239902888658499
0.2225514311762363
0.1737875061908951
0.178639348669079
0.2231648722413755
0.2239925994471405
0.2239950294922342
0.181268617587234
0.2232527655898503
0.2239929636914132
0.2239950303789817
0.1874051381176901
0.2235013926909925
0.2239938217427327
0.2239950316815127
0.1844087180920722
0.2234081477810389
0.2239936546732966
0.2239950315964206
0.2028242362335865
0.2238259525349554
0.2239946725646153
0.2239950328644619
0.217396614513694
0.2239715797251744
0.2239949951863782
0.2239950333272811
0.2220938346853557
0.2239882002396532
0.2239950201848474
0.2239950333534149
0.2222548689923793
0.2239865425000294
0.2239950142547135
0.2239950333393067
0.2187440551037723
0.2239387918672806
0.2239948088702824
0.2239950329037123
0.2187846931203357
0.223938889961998
0.2239948091824904
0.223995032904264
0.2188651429665987
0.2239390480048682
0.223994809937665
0.2239950329046719
0.2191182510161238
0.2239402394510715
0.2239948137764079
0.2239950329108213
0.2222548689923809
0.2239865424999173
0.223995014254582
0.2239950333391447
0.2220938346853923
0.2239882002394521
0.2239950201846228
0.2239950333533643
0.2173966145135794
0.2239715797250311
0.2239949951863583
0.2239950333272433
0.202824236233713
0.2238259525347993
0.2239946725646898
0.2239950328644741
0.2239950294923248
0.2239925994471963
0.2231648722413475
0.1786393486685363
0.2239950303789579
0.2239929636914361
0.2232527655902056
0.1812686175869996
0.2239950316815423
0.2239938217426858
0.2235013926908095
0.1874051381174443
0.2239950315964457
0.2239936546734498
0.2234081477810457
0.1844087180920918
0.1737875061907597
0.222551431176184
0.2239902888657505
0.2239950283951328
0.1878824165547272
0.2231395806578131
0.2239916392127668
0.2239950282334893
0.2058740795624304
0.2236257257355257
0.2239926513741125
0.2239950269109152
0.2238212508922157
0.224098569334403
0.2239961717000087
0.2239950093074482
0.2239950447506802
0.2239955845300389
0.224306408096224
0.2563557289637735
0.2239950478447212
0.2239957259087853
0.2243530206976991
0.2573873730812127
0.2239950514838991
0.2239958325783332
0.2243575531373334
0.2534521776895917
0.2239950430876058
0.2239954555228089
0.2241730213434705
0.2388989404467739
0.253702357216949
0.224280776693573
0.2239956111108971
0.2239950452634848
0.2516451660052147
0.2242243252213999
0.2239954456059325
0.2239950416061661
0.2501749494264252
0.2241908188500879
0.2239953608293619
0.2239950396833078
0.2484438162999267
0.224158085193981
0.223995285337976
0.2239950381496303
0.2239950330476007
0.2239950142461231
0.2240201548923711
0.2353121576885742
0.2239950350995102
0.2239951277147373
0.2240714171305491
0.2407419303435636
0.2239950362186777
0.2239951902545053
0.2241111037457381
0.2449170196142287
0.2239950370686212
0.2239952337237322
0.2241346580450626
0.2471104744340913
0.2239950326744104
0.2239950333769202
0.2239950333699093
0.2239950333699092
0.2239947329855141
0.2239950335352269
0.2239950333675839
0.2239950333699093
0.2239903069804793
0.2239950577492964
0.2239950329978255
0.2239950333690592
0.2248529711562011
0.2239988452007833
0.2239950283682651
0.2239950331336811
0.2239950333699092
0.2239950333699091
0.2239950333663677
0.2239950328828637
0.2239950333699092
0.223995033369821
0.2239950333832717
0.2239950430474542
0.2239950333699295
0.2239950333803602
0.2239950436384943
0.2239973632289482
0.223995033372822
0.2239950340243418
0.2239955628710938
0.2240734128805445
0.223995034393827
0.2239950922974679
0.2240329325230449
0.2290191501660011
0.2239950341941963
0.2239950858265676
0.2240291345958899
0.2275823568168709
0.2239950337356762
0.2239950632950455
0.2240147877481487
0.2260007964129985
0.2239950334349074
0.2239950413190141
0.2240006387710066
0.2246373032744416
0.2304280621178021
0.2240150242366054
0.2239950508632525
0.2239950337387257
0.2298324043405641
0.2240162700526951
0.2239950573452615
0.2239950337797386
0.2298432027535011
0.2240158834029823
0.2239950556147103
0.2239950337510244
0.2292721298060159
0.2240128275172014
0.2239950475771395
0.2239950336379656
0.2289266231183242
0.2239908438388684
0.2239950334530527
0.2239950333744375
0.2283081364073543
0.2239985977118123
0.2239950333717337
0.2239950333699093
0.2267945540157842
0.2239964719875655
0.2239950333699093
0.2239950333699092
0.2248578448244564
0.2239955430590675
0.2239950333699093
0.2239950333699093
0.2239950333699092
0.2239950333699093
0.2239950333907263
0.2239950355025233
0.2239950333699093
0.2239950333699093
0.2239950335805219
0.2239950813967191
0.2239950333699093
0.2239950333699093
0.2239950406548043
0.2239998608124627
0.2239950333699093
0.2239950333699092
0.2239950217403442
0.2240750238436003
0.2239950425356697
0.2239951797349868
0.2240217734275348
0.2247456037042297
0.2239951797349557
0.2239976505028016
0.224194584406728
0.2275174383017767
0.2240217734275508
0.2241945844067592
0.2263970270435973
0.2367449544949123
0.224745603704388
0.2275174383019303
0.2367449544950913
0.2584726885597298
0.2845685171973246
0.2631248079073455
0.2533397406248965
0.2390612518247414
0.2822020533588703
0.2768289557895547
0.2757568574228175
0.2654705458643464
0.2827181065341512
0.282077617042209
0.2829407269245833
0.2795428262905993
0.2865413478491203
0.2867237897907687
0.2885823925433057
0.2868825017143865
0.2892997705387314
0.2894917199591202
0.2895476086343027
0.2909706616903289
0.2912874119752319
0.2915699285718448
0.2915271230779205
0.2942013847131397
0.2887710983313383
0.2889877462198985
0.2888413922569887
0.2925584597532963
0.2887747702201608
0.289049459093737
0.2888789425657589
0.2882119647930715
0.2533163828795226
0.2354275948486633
0.2303012242479064
0.2264178774721861
0.2366134638364436
0.2263718383783832
0.22760803239885
0.2261889570351472
0.2247321473358478
0.2262621610893222
0.228797557061404
0.2268179967000269
0.2070043716764297
0.2226458667646155
0.2271475176740934
0.2253672501930928
0.2243729952591147
0.224012831414559
0.2239951887329946
0.2239950294630899
0.2244983584701258
0.2240246910706449
0.2239953163297252
0.2239950310394847
0.2246594900940574
0.2240360581001714
0.2239954493667508
0.2239950318162912
0.2241612326622148
0.2239994209061019
0.2239950455579019
0.2239950314805544
0.2239950311641801
0.2239950284574241
0.2240813788868463
0.2506688026569763
0.2239950314121054
0.223995030852553
0.2241803921603168
0.2610060083152849
0.2239950318113978
0.2239950326144767
0.2243385486281107
0.2636906398986845
0.2239950321514301
0.2239950332842008
0.224788680791265
0.2640544772347874
0.3484884652264027
0.3550818956853039
0.3677428445899661
0.3731133372882352
0.3713408293324899
0.3660964646854918
0.3752267568748848
0.383394702015239
0.3704871615725324
0.3633797883050017
0.3733425584104
0.3826848122936777
0.3852264730500908
0.3713762829002769
0.3772661019422123
0.3872396068058633
0.3740428052047083
0.3744470393935905
0.3744685274718313
0.3746010867125397
0.3850925384887862
0.3853209592239335
0.3852421664068408
0.3850640229091754
0.3851300005563387
0.3854901194003196
0.3855153256359313
0.385351949069584
0.3904897241460557
0.3908650770800094
0.3908249107920879
0.3905535954136695
0.3751797887509282
0.3728873955910657
0.3549597892011319
0.3050050701802328
0.3855240821339478
0.3829081949501534
0.3642684560182511
0.3161522506833544
0.385705549418967
0.3828816792832256
0.3643216457614576
0.324734345051053
0.3904559492538233
0.3875579247056365
0.3669859528510682
0.3729170041018272
0.2161641900295259
0.1109985678311425
0.07123762229665248
0.05882075765419374
0.1921621315861152
0.07994584837436142
0.06274964981331595
0.05548008504127155
0.1400275562997982
0.06852013352252874
0.06496540271276298
0.06235726143508763
0.09026914843304321
0.05252455948618818
0.06759858899130232
0.06962187143277158
0.06078286434367263
0.06192546059035596
0.0654883259178048
0.05960012741640107
0.05454495868721266
0.05678566491074916
0.06042137355499406
0.0527746716664758
0.06172283959689663
0.06493368016403982
0.06692621045276244
0.05745186621357894
0.07000769558569184
0.0736848338171603
0.07106982453446262
0.05612765813789639
0.1211867009913096
0.1716302715464175
0.1904178309659078
0.1928118378030893
0.0980103278699309
0.1487103030264306
0.1713841752478523
0.1841393179303278
0.08612738116139698
0.1355101415376279
0.1598258283981763
0.1826148917414678
0.06532103870358522
0.1048278161018007
0.1426869192829397
0.1701386209227228
0.1860583022816287
0.16898573857518
0.1591006779986067
0.1411941777427272
0.1437359377886777
0.1206848805713311
0.1315256307630752
0.1279497168874509
0.1149312279859607
0.06440321178355343
0.07489971448679492
0.09495673647330143
0.08228946251174941
0.04750034162309844
0.05696376800138665
0.06592770507112367
0.07296176275493026
0.0793145429096599
0.08042468320980703
0.08524717314980471
0.1059845975796429
0.1076162609863911
0.1001533920756389
0.08782462912849058
0.1161740950503816
0.1034570602649006
0.08502699850931816
0.0695239166024742
0.124256823708971
0.1102625231113635
0.09638889688176173
0.08838822813255048
0.08524717314978773
0.08782462912847931
0.06952391660248577
0.08838822813255398
0.08042468320978285
0.1001533920756284
0.08502699850933731
0.09638889688179604
0.07931454290966657
0.1076162609864014
0.1034570602649102
0.1102625231113549
0.07296176275495103
0.1059845975796429
0.1161740950503794
0.1242568237089694
0.1411941777427602
0.1591006779986787
0.168985738575244
0.1860583022816351
0.1279497168874673
0.1315256307630846
0.120684880571316
0.1437359377886556
0.09495673647333089
0.07489971448680681
0.06440321178357521
0.1149312279859564
0.06592770507115392
0.05696376800141293
0.04750034162311566
0.08228946251174601
0.1701386209227148
0.1426869192829427
0.1048278161018183
0.06532103870361805
0.1826148917414609
0.1598258283981719
0.135510141537618
0.08612738116143161
0.1841393179303147
0.1713841752478544
0.1487103030264041
0.09801032786996337
0.1928118378030773
0.1904178309659116
0.1716302715463521
0.1211867009913608
0.05960012741639766
0.06548832591776785
0.06192546059024387
0.06078286434357625
0.0527746716664713
0.06042137355499204
0.05678566491077995
0.05454495868725351
0.0574518662135698
0.06692621045274556
0.06493368016407179
0.06172283959693151
0.05612765813788374
0.07106982453442544
0.07368483381720023
0.07000769558571887
0.05882075765425003
0.07123762229648171
0.1109985678308746
0.2161641900293955
0.05548008504132523
0.06274964981333096
0.0799458483743111
0.1921621315859651
0.06235726143514318
0.06496540271279479
0.06852013352248326
0.1400275562997367
0.06962187143282211
0.06759858899135206
0.05252455948618606
0.09026914843300826
0.3050050701801195
0.3549597892010557
0.3728873955910944
0.3751797887507665
0.3161522506832903
0.3642684560182323
0.3829081949501454
0.3855240821339077
0.3247343450509982
0.3643216457614397
0.3828816792832225
0.3857055494190149
0.3729170041017905
0.3669859528510446
0.3875579247055956
0.3904559492538481
0.3746010867125129
0.3744685274718765
0.3744470393934871
0.3740428052045321
0.3850640229091836
0.3852421664069191
0.3853209592238844
0.385092538488653
0.3853519490696336
0.3855153256360049
0.3854901194002482
0.3851300005561938
0.3905535954136935
0.3908249107921478
0.3908650770799132
0.390489724145877
0.3731133372884134
0.3677428445897412
0.3550818956854215
0.348488465226328
0.383394702015335
0.375226756874761
0.3660964646855952
0.3713408293324283
0.3826848122937924
0.3733425584102784
0.3633797883051093
0.3704871615725635
0.3872396068059624
0.3772661019421159
0.3713762829003752
0.3852264730501235
0.2506688026569037
0.2240813788867788
0.2239950284563975
0.2239950311642347
0.2610060083152071
0.2241803921601761
0.2239950308519043
0.22399503141219
0.2636906398986452
0.224338548627996
0.2239950326142161
0.2239950318114665
0.2640544772347622
0.2247886807911355
0.2239950332840998
0.223995032151514
0.2239950294631071
0.2239951887330149
0.22401283141447
0.224372995259118
0.2239950310394999
0.2239953163297232
0.22402469107053
0.2244983584701583
0.2239950318162928
0.2239954493667529
0.2240360581000494
0.2246594900941281
0.2239950314805404
0.2239950455579411
0.2239994209059322
0.2241612326623179
0.2264178774720425
0.2303012242478326
0.2354275948486952
0.2533163828796175
0.2261889570350124
0.2276080323987937
0.2263718383784181
0.2366134638364939
0.2268179966999086
0.2287975570613794
0.2262621610893486
0.2247321473358593
0.2253672501929239
0.2271475176740712
0.222645866764644
0.2070043716764554
0.290970661690286
0.289547608634302
0.2894917199592053
0.2892997705387046
0.2942013847130623
0.2915271230779829
0.2915699285719385
0.2912874119751971
0.2925584597532008
0.2888413922570703
0.2889877462199882
0.288771098331328
0.288211964793009
0.2888789425658543
0.2890494590938295
0.2887747702201431
0.286882501714343
0.2795428262906089
0.2654705458643686
0.2390612518247441
0.28858239254331
0.2829407269246026
0.2757568574227839
0.2533397406248276
0.286723789790774
0.2820776170422112
0.2768289557895383
0.2631248079071706
0.2865413478491153
0.2827181065341539
0.2822020533588247
0.2845685171972173
0.2229264680601955
0.2239862165357097
0.2239950041686216
0.2239950333171171
0.2217488341726378
0.2239758817554351
0.2239949641225209
0.223995033230607
0.2203633569173687
0.2239584986055337
0.2239948948471235
0.2239950330864674
0.2181430345728859
0.223934275996221
0.2239948100220743
0.2239950329300803
0.223995032903858
0.2239948088702945
0.22393879186728
0.2187440551036897
0.2239950329041835
0.2239948091825656
0.2239388899620361
0.2187846931203127
0.2239950329046814
0.2239948099375455
0.2239390480048803
0.2188651429664964
0.2239950329108754
0.22399481377636
0.2239402394511612
0.2191182510160246
0.2239950329299135
0.2239950330865467
0.2239950332306719
0.223995033316998
0.2239948100219291
0.2239948948471062
0.2239949641225586
0.2239950041686997
0.2239342759961792
0.223958498605513
0.2239758817555388
0.2239862165356547
0.2181430345728082
0.2203633569173242
0.2217488341727232
0.2229264680602343
)
;

boundaryField
{
    back
    {
        type            empty;
    }
    inlet
    {
        type            calculated;
        value           nonuniform List<scalar> 
16
(
0.2239950333699092
0.2239950333699093
0.2239950333699093
0.2239950333699091
0.2239950333699093
0.2239950333699093
0.2239950333699092
0.2239950333743866
0.2239950333744375
0.2239950333699093
0.2239950333699092
0.2239950333699093
0.2239950333699092
0.2239950333699093
0.2239950333699093
0.2239950333699093
)
;
    }
    front
    {
        type            empty;
    }
    top
    {
        type            calculated;
        value           nonuniform List<scalar> 
40
(
0.2239950336377903
0.223995033751153
0.223995033779723
0.2239950337386032
0.2239950343938016
0.2239950341943423
0.2239950337356342
0.2239950334349358
0.223995033372854
0.2239950333699288
0.2239950333699092
0.2239950333699093
0.2239950333699092
0.2239950333699092
0.2239950333769347
0.2239950326743932
0.2239950330475673
0.223995035099359
0.2239950362184951
0.223995037068645
0.2239950381495786
0.2239950396832965
0.2239950416061638
0.2239950452632551
0.2239950447507258
0.2239950478446883
0.2239950514840209
0.2239950430875603
0.2239950093073279
0.2239950269108146
0.2239950282335288
0.2239950283950873
0.2239950294922342
0.2239950303789817
0.2239950316815127
0.2239950315964206
0.2239950328644619
0.2239950333272812
0.2239950333534149
0.2239950333393067
)
;
    }
    outlet
    {
        type            calculated;
        value           uniform 0.2239950333699093;
    }
    bottom
    {
        type            calculated;
        value           nonuniform List<scalar> 
40
(
0.2239950333391447
0.2239950333533643
0.2239950333272432
0.2239950328644741
0.2239950294923248
0.2239950303789579
0.2239950316815423
0.2239950315964457
0.2239950283951328
0.2239950282334893
0.2239950269109152
0.2239950093074482
0.2239950447506802
0.2239950478447212
0.2239950514838991
0.2239950430876058
0.2239950452634849
0.2239950416061661
0.2239950396833078
0.2239950381496303
0.2239950330476007
0.2239950350995102
0.2239950362186777
0.2239950370686212
0.2239950326744104
0.2239950333769202
0.2239950333699093
0.2239950333699092
0.2239950333699092
0.2239950333699092
0.2239950333699295
0.223995033372822
0.223995034393827
0.2239950341941963
0.2239950337356762
0.2239950334349074
0.2239950337387257
0.2239950337797386
0.2239950337510244
0.2239950336379656
)
;
    }
    wall
    {
        type            calculated;
        value           nonuniform List<scalar> 
104
(
0.2845685171973246
0.2822020533588703
0.2827181065341512
0.2865413478491203
0.2887747702201608
0.289049459093737
0.2888789425657589
0.2882119647930715
0.2070043716764297
0.2226458667646155
0.2271475176740934
0.2253672501930928
0.2241612326622148
0.2239994209061019
0.2239950455579019
0.2239950314805544
0.2239950321514301
0.2239950332842008
0.224788680791265
0.2640544772347874
0.3852264730500908
0.3713762829002769
0.3772661019422123
0.3872396068058633
0.3904897241460557
0.3908650770800094
0.3908249107920879
0.3905535954136695
0.3904559492538233
0.3875579247056365
0.3669859528510682
0.3729170041018272
0.09026914843304321
0.05252455948618818
0.06759858899130232
0.06962187143277158
0.07000769558569184
0.0736848338171603
0.07106982453446262
0.0561276581378964
0.06532103870358522
0.1048278161018007
0.1426869192829397
0.1701386209227228
0.08228946251174943
0.04750034162309844
0.05696376800138665
0.06592770507112367
0.07296176275493026
0.0793145429096599
0.08042468320980703
0.08524717314980471
0.08524717314978773
0.08042468320978285
0.07931454290966657
0.07296176275495103
0.06592770507115392
0.05696376800141293
0.04750034162311566
0.08228946251174601
0.1701386209227148
0.1426869192829427
0.1048278161018183
0.06532103870361805
0.05612765813788374
0.07106982453442544
0.07368483381720023
0.07000769558571887
0.06962187143282211
0.06759858899135206
0.05252455948618606
0.09026914843300826
0.3729170041017905
0.3669859528510446
0.3875579247055956
0.3904559492538481
0.3905535954136935
0.3908249107921479
0.3908650770799132
0.390489724145877
0.3872396068059624
0.3772661019421159
0.3713762829003752
0.3852264730501235
0.2640544772347622
0.2247886807911355
0.2239950332840998
0.223995032151514
0.2239950314805404
0.223995045557941
0.2239994209059322
0.2241612326623179
0.2253672501929239
0.2271475176740712
0.222645866764644
0.2070043716764554
0.288211964793009
0.2888789425658543
0.2890494590938295
0.2887747702201431
0.2865413478491153
0.2827181065341539
0.2822020533588247
0.2845685171972173
)
;
    }
}


// ************************************************************************* //
