/*--------------------------------*- C++ -*----------------------------------*\
  =========                 |
  \\      /  F ield         | OpenFOAM: The Open Source CFD Toolbox
   \\    /   O peration     | Website:  https://openfoam.org
    \\  /    A nd           | Version:  11
     \\/     M anipulation  |
\*---------------------------------------------------------------------------*/
FoamFile
{
    format      ascii;
    class       volVectorField;
    location    "0.045";
    object      U;
}
// * * * * * * * * * * * * * * * * * * * * * * * * * * * * * * * * * * * * * //

dimensions      [0 1 -1 0 0 0 0];

internalField   nonuniform List<vector> 
880
(
(25 -1.951534503399803e-15 0)
(25 0 0)
(25.00000000000515 -2.902534548137389e-10 0)
(24.99999956831233 3.878022368570444e-07 0)
(25 4.312518392242649e-16 0)
(25 -3.865828561909967e-15 0)
(24.9999999878504 -2.104181832390084e-08 0)
(25.00001203467442 -1.642790135455382e-05 0)
(25 2.065806923449261e-15 0)
(24.99999999999999 3.00120089408074e-15 0)
(24.99999998330988 2.414537331616029e-07 0)
(24.99995478751395 -0.0003371166747684532 0)
(25.00000000000002 1.509736008892802e-15 0)
(25 -7.50618678655558e-15 0)
(24.99999596359648 -3.01585838473241e-06 0)
(24.99106364815881 -0.003317518974550701 0)
(25 -2.52220322706673e-15 0)
(25 -2.718415314051104e-17 0)
(25.00000000000001 -6.662830892626622e-14 0)
(24.99999999975191 -4.235443963079069e-10 0)
(25 2.352980264838505e-13 0)
(25.00000000000002 -4.707744141282078e-12 0)
(25.00000000054118 -3.235795407040407e-10 0)
(24.99999998365703 4.615060700934571e-09 0)
(24.99995760378772 2.896265173316321e-05 0)
(24.99988534911328 0.00010354862952922 0)
(24.99993915289725 0.0003072512395389277 0)
(24.99959833416607 -0.0004719387890753842 0)
(24.93136159185695 0.06739560094405124 0)
(24.82935621083953 0.2619679795472864 0)
(24.80293066256455 0.4527725897221747 0)
(24.82901502781418 0.5369523257428894 0)
(24.99999998016233 -2.263253267456171e-08 0)
(24.99999996464392 -3.672686413115602e-08 0)
(24.99999996078604 -3.948725648930037e-08 0)
(24.9999999773869 -2.548178936762478e-08 0)
(24.99999955400035 1.470658479463275e-06 0)
(24.99999970836167 2.355581625754845e-06 0)
(24.99999972973681 2.525754531233052e-06 0)
(24.99999917815196 1.866118161203199e-06 0)
(24.99960102795056 0.001864649673244281 0)
(24.99958621993953 0.002188326581071881 0)
(24.99957155186735 0.002223921375666161 0)
(24.99919260177255 0.002170762037930134 0)
(24.83283531636596 0.5782357443798721 0)
(24.84832619909704 0.6373200697184052 0)
(24.84536556989439 0.6263815105463428 0)
(24.82230974483836 0.701033654628029 0)
(25.03893035931426 0.6453613627075815 0)
(25.16005901564861 0.4055278246499724 0)
(25.12846038194677 0.1763081526734058 0)
(25.04691433281032 0.04624576618762103 0)
(24.99992103595143 0.004018211349416958 0)
(25.00046110611434 0.003595868707046831 0)
(25.0006989571786 0.001938389874041574 0)
(25.00030027520203 0.0004943312312307638 0)
(24.99999995356823 6.265168866189274e-06 0)
(25.0000006139944 5.570992460532077e-06 0)
(25.00000088237234 3.050475900676286e-06 0)
(25.00000035866885 7.566226645783697e-07 0)
(24.99999989747392 -9.832576227856816e-08 0)
(24.99999990579128 -7.780181015183824e-08 0)
(24.99999994652464 -3.675615662278327e-08 0)
(24.99999998687856 -7.720019604966952e-09 0)
(24.99999999905554 -4.943135596130924e-10 0)
(24.99999999999019 -6.109633355205646e-12 0)
(25.00000000000001 -1.065493383209e-13 0)
(25 -5.147788612067558e-15 0)
(25.00000003730525 5.759751612000766e-08 0)
(25.00000000069459 8.490784647660619e-10 0)
(25.00000000000492 -9.163763246965336e-12 0)
(25.00000000000005 -1.677539508295579e-12 0)
(25.00003473283313 4.162696310546689e-05 0)
(25.00000076147391 7.183481400170534e-07 0)
(25.00000000179617 7.727571398763844e-10 0)
(24.99999999987363 -3.715457843013303e-10 0)
(25.00618482006167 0.004993305376267547 0)
(25.0001931100189 0.0001414387076357147 0)
(25.00000089747177 5.797498778524176e-07 0)
(24.99999997704685 -4.774560005824197e-08 0)
(24.99999998312519 -2.0722159347465e-08 0)
(24.99999999994495 -1.066374985308561e-10 0)
(25 1.089560656406599e-13 0)
(25 -3.394333463221113e-16 0)
(24.99999983613668 -9.857682011722224e-07 0)
(24.99999999765357 -3.823503184424197e-08 0)
(25.00000000008535 -2.172434747421387e-10 0)
(25.00000000000001 -2.681373018157773e-13 0)
(24.99967896415653 0.0002340217567174726 0)
(24.99999909387559 2.393211192149076e-06 0)
(25.00000000406147 1.975816243786043e-08 0)
(24.9999999996225 -2.335524286914143e-11 0)
(24.95985249118063 0.09076746119629604 0)
(25.00030985626717 -0.0003857988858657661 0)
(25.0000099237177 -2.92982456105492e-05 0)
(25.0000000086985 -6.949954684292694e-08 0)
(24.99999995277543 -4.720156017363125e-08 0)
(24.99999484879955 -3.57579427284829e-06 0)
(24.9968613073182 0.001271807819653965 0)
(23.82206520584511 0.5825175476281234 0)
(24.99999987832817 -1.651150897864878e-07 0)
(24.99999487399087 9.782998521962807e-06 0)
(24.99414899342798 0.007468468123048435 0)
(23.44723832232524 1.548064125666599 0)
(24.99999978758875 -2.733912544307226e-07 0)
(24.99999414929148 1.6669115141815e-05 0)
(24.99331440838835 0.01227636753354407 0)
(23.44061543011751 2.192650444690065 0)
(24.99999972293491 -3.58168487540313e-07 0)
(24.99999276564026 2.131263792578318e-05 0)
(24.99234620608377 0.01483907405828987 0)
(23.43439080495163 2.427461063903018 0)
(23.34977745540499 2.565670081533584 0)
(24.99097061646439 0.01731828883340822 0)
(24.99999073669224 2.683351539120545e-05 0)
(24.9999996439949 -4.61645957164478e-07 0)
(23.28002833316329 2.707770572833784 0)
(24.98949289471406 0.02060673774929938 0)
(24.99998848038936 3.47109393690592e-05 0)
(24.99999952243672 -6.072196525905267e-07 0)
(23.15290808974505 2.857898206715544 0)
(24.9869601201113 0.02414146759577096 0)
(24.99998385980442 4.382821592558297e-05 0)
(24.99999939986275 -7.884364519802251e-07 0)
(23.06994073249905 3.044962357344531 0)
(24.98528219703913 0.03042997793970872 0)
(24.99998166545001 6.244873407538812e-05 0)
(24.99999907716801 -1.140301622598937e-06 0)
(24.99999913156221 -1.139279555621646e-06 0)
(24.9999805465791 5.844332171782621e-05 0)
(24.98306514491637 0.03248119052386769 0)
(22.90933590830234 3.326258270701579 0)
(24.99999890165589 -1.425992907561086e-06 0)
(24.99997484361213 7.376370720488456e-05 0)
(24.98086330646766 0.0377749674117804 0)
(22.90451750638783 3.41806695354053 0)
(24.99999867727643 -1.797013658963478e-06 0)
(24.99997323940371 8.537757188238584e-05 0)
(24.98178455795587 0.03804505541128637 0)
(23.25107960023539 3.114497612767595 0)
(24.99999912506254 -1.074115139875597e-06 0)
(24.9999910258681 5.049640738228985e-05 0)
(24.9942559562272 0.02099194045849025 0)
(24.3224334823855 1.892746201771077 0)
(24.99999894973519 -4.851699317712088e-06 0)
(24.99998128531926 6.057740593324704e-05 0)
(25.02387209557689 0.002452984190139488 0)
(25.65298730748825 0.4167097935267655 0)
(24.99999952788146 -3.650037921336736e-07 0)
(24.99976823081388 -0.0003400606501140338 0)
(24.9806768154162 -0.03045959226550552 0)
(24.49109040750012 -1.09302125059819 0)
(24.99999973255673 -4.446801158337196e-07 0)
(24.99973389406232 -0.0002604147367413826 0)
(24.93391762111619 -0.04222833804870955 0)
(22.68103448475846 -1.229774380584814 0)
(24.99999968898713 -4.076031143477056e-07 0)
(24.99958288262291 -0.0002688618153163815 0)
(24.87469326881101 -0.03348159107835881 0)
(21.20009433072571 -0.4194593354996033 0)
(21.48320663550652 -0.1613712841200792 0)
(24.92750846034631 -0.03227633049064384 0)
(24.99982556176149 -0.0001869453801604163 0)
(24.99999982728431 -3.429984424227571e-07 0)
(21.89173617749607 0.1549767177664675 0)
(24.93492306954258 -0.02166630231064653 0)
(24.99983538222789 -0.0001406524158533191 0)
(24.99999984051397 -2.54577288375662e-07 0)
(22.36327585391976 -0.02111269603596909 0)
(24.95800900606187 -0.01875082187491305 0)
(24.99991523460757 -9.1404832610288e-05 0)
(24.99999992858063 -1.49647316132758e-07 0)
(21.99353618254958 0.269090083193391 0)
(24.94530862117295 -0.01593231746899269 0)
(24.99988399350167 -9.465406527530384e-05 0)
(24.99999989313722 -1.580532467355777e-07 0)
(23.4274964748347 0.2993026269814144 0)
(24.98234185746917 -0.006704889375794913 0)
(24.99996896336621 -2.705581643254913e-05 0)
(24.99999997482913 -4.138863747140316e-08 0)
(24.55209413233798 0.109362135861367 0)
(24.99766051491201 -0.001319520098559298 0)
(24.99999716460299 -3.098820967588725e-06 0)
(24.99999999789495 -3.664485569327865e-09 0)
(24.95951330325029 -0.09361352709604236 0)
(24.99993147094852 -0.0006472535349115043 0)
(24.99999994931501 -1.303994366112245e-06 0)
(24.99999999998525 -1.595175671227559e-09 0)
(25.00438608759743 -0.1600188523098811 0)
(25.00011914758106 -0.001013756917099157 0)
(25.0000003967779 -2.375645394749261e-06 0)
(25.00000000013857 -3.151579600831038e-09 0)
(24.61267911379695 -0.0007839937505523935 0)
(24.99488332405653 -3.413281102734269e-06 0)
(24.99997834221704 -6.272675523076308e-09 0)
(24.99999995426578 -5.080020679051048e-12 0)
(24.61424387732625 -0.004107506465097969 0)
(24.99489339980471 -1.313091180385597e-05 0)
(24.99997837269151 -2.215047976484884e-08 0)
(24.99999995430111 -4.846655851466952e-12 0)
(24.61821964295206 -0.01174075145130185 0)
(24.99492622475912 -2.298209853232809e-05 0)
(24.9999784691143 -2.5615841131841e-08 0)
(24.99999995436414 6.520814344191138e-11 0)
(24.61403980574642 0.008061092162180331 0)
(24.99497963632345 0.0001554455712888624 0)
(24.9999787777866 3.695970890755969e-07 0)
(24.99999995490366 3.950610163565618e-10 0)
(25.00438608759545 0.1600188523078116 0)
(25.00011914759599 0.001013756912495259 0)
(25.00000039679615 2.375639233378052e-06 0)
(25.00000000015362 3.152679408116996e-09 0)
(24.95951330324817 0.09361352709020349 0)
(24.99993147097196 0.0006472535345078741 0)
(24.9999999493376 1.303997602832744e-06 0)
(24.99999999998821 1.595491307383362e-09 0)
(24.55209413235206 -0.1093621358633321 0)
(24.99766051492851 0.001319520102664178 0)
(24.99999716460351 3.09882572577882e-06 0)
(24.99999999789941 3.664612475774982e-09 0)
(23.42749647481443 -0.2993026269771855 0)
(24.98234185748539 0.006704889379245451 0)
(24.99996896335911 2.705581684422018e-05 0)
(24.99999997482793 4.138910595223139e-08 0)
(24.99999982727033 3.430015334528442e-07 0)
(24.9998255617585 0.000186945379500272 0)
(24.92750846035497 0.03227633044761029 0)
(21.48320663548789 0.1613712840842027 0)
(24.99999984051808 2.545762063604132e-07 0)
(24.99983538222125 0.0001406524200489523 0)
(24.93492306948984 0.02166630234457497 0)
(21.89173617745359 -0.1549767177422457 0)
(24.99999992857689 1.496470317644575e-07 0)
(24.99991523461368 9.140483224100945e-05 0)
(24.95800900607965 0.01875082188092668 0)
(22.36327585393034 0.02111269604105005 0)
(24.99999989313456 1.580534856593917e-07 0)
(24.99988399348724 9.465405919976956e-05 0)
(24.94530862117419 0.01593231746831642 0)
(21.99353618254963 -0.2690900832139795 0)
(21.20009433068032 0.4194593355181697 0)
(24.87469326881106 0.03348159108647163 0)
(24.99958288263216 0.000268861815143284 0)
(24.9999996889852 4.076013208034746e-07 0)
(22.68103448473307 1.229774380585702 0)
(24.93391762111288 0.04222833804951154 0)
(24.99973389405335 0.0002604147349941785 0)
(24.99999973256083 4.4467898188157e-07 0)
(24.49109040748759 1.093021250605479 0)
(24.98067681541319 0.03045959226013723 0)
(24.99976823082153 0.0003400606481683323 0)
(24.99999952786819 3.650083261775552e-07 0)
(25.65298730748682 -0.4167097935237319 0)
(25.02387209558831 -0.002452984186301653 0)
(24.99998128533462 -6.057739972815253e-05 0)
(24.99999894972373 4.851697006145728e-06 0)
(24.99999913156411 1.139281628182352e-06 0)
(24.99998054655957 -5.844332153532598e-05 0)
(24.98306514489882 -0.03248119052683179 0)
(22.90933590831182 -3.32625827071619 0)
(24.99999890164997 1.425994383424957e-06 0)
(24.99997484362617 -7.376370759479875e-05 0)
(24.98086330645467 -0.03777496741404271 0)
(22.90451750636642 -3.418066953551066 0)
(24.99999867728804 1.797015486686679e-06 0)
(24.99997323939709 -8.537757473491011e-05 0)
(24.98178455795517 -0.03804505540986908 0)
(23.25107960023853 -3.114497612768008 0)
(24.99999912506059 1.074111955093688e-06 0)
(24.99999102587199 -5.049640404199709e-05 0)
(24.99425595622865 -0.02099194045769846 0)
(24.32243348238695 -1.892746201770406 0)
(23.06994073249169 -3.044962357359311 0)
(24.98528219705943 -0.03042997793808096 0)
(24.9999816654435 -6.244873194037167e-05 0)
(24.99999907714566 1.140300221583399e-06 0)
(23.15290808973984 -2.857898206723398 0)
(24.98696012009783 -0.02414146759377631 0)
(24.9999838598037 -4.382821731215852e-05 0)
(24.99999939986383 7.884356984277728e-07 0)
(23.28002833316717 -2.707770572839428 0)
(24.98949289472489 -0.02060673775085141 0)
(24.99998848038972 -3.471093900842941e-05 0)
(24.99999952243537 6.072197207232249e-07 0)
(23.34977745539656 -2.565670081535277 0)
(24.990970616431 -0.01731828883363323 0)
(24.99999073668356 -2.683351529914265e-05 0)
(24.99999964398964 4.616459733263712e-07 0)
(24.99999995277193 4.720165417645212e-08 0)
(24.99999484879689 3.575795495991925e-06 0)
(24.99686130732164 -0.001271807820608076 0)
(23.82206520585032 -0.58251754763038 0)
(24.99999987831311 1.651153266385168e-07 0)
(24.99999487397734 -9.782998993283091e-06 0)
(24.9941489934472 -0.007468468118763129 0)
(23.44723832232824 -1.548064125666679 0)
(24.99999978756946 2.733913305357532e-07 0)
(24.99999414927553 -1.666911396889125e-05 0)
(24.99331440837175 -0.01227636753244977 0)
(23.44061543010977 -2.192650444696356 0)
(24.99999972293704 3.58168451307882e-07 0)
(24.99999276564807 -2.131263813951472e-05 0)
(24.99234620610406 -0.01483907405932943 0)
(23.43439080498009 -2.427461063898507 0)
(25.00000000869659 6.949974570810292e-08 0)
(24.99999999962395 2.334264580517157e-11 0)
(25 2.736629323412353e-13 0)
(25 -7.323170384278289e-15 0)
(25.00000992373946 2.929824701645851e-05 0)
(25.00000000406941 -1.975798464016719e-08 0)
(25.00000000009079 2.172723475463174e-10 0)
(25 -1.012369140991783e-13 0)
(25.00030985627897 0.000385798883770819 0)
(24.99999909387093 -2.393210788106395e-06 0)
(24.99999999765923 3.823423637556029e-08 0)
(24.99999999994693 1.06416023119816e-10 0)
(24.95985249118718 -0.09076746119728389 0)
(24.99967896415524 -0.0002340217560883441 0)
(24.99999983613096 9.857745858703276e-07 0)
(24.99999998312512 2.072169295037513e-08 0)
(25 2.847720900498351e-15 0)
(24.99999999999993 1.625136130125601e-12 0)
(24.99999999987039 3.713852937104736e-10 0)
(24.99999997704314 4.774569390469923e-08 0)
(25.00000000000001 1.038891193416539e-13 0)
(25.00000000000284 9.126080048264899e-12 0)
(25.00000000179393 -7.72524567222733e-10 0)
(25.000000897468 -5.79748120539669e-07 0)
(24.99999999999039 6.126669162924393e-12 0)
(25.00000000069157 -8.492370149450257e-10 0)
(25.00000076148548 -7.183457644549205e-07 0)
(25.00019311003622 -0.0001414387050034535 0)
(24.99999999906069 4.944774519005081e-10 0)
(25.00000003730729 -5.759712381582688e-08 0)
(25.00003473282522 -4.162696737429538e-05 0)
(25.00618482006159 -0.004993305378944042 0)
(24.99999989746759 9.832461366388285e-08 0)
(24.99999995358401 -6.265167189999961e-06 0)
(24.99992103594978 -0.004018211350858126 0)
(25.03893035930524 -0.645361362697269 0)
(24.99999990580217 7.779911994712374e-08 0)
(25.00000061398871 -5.570987565437397e-06 0)
(25.00046110610799 -0.003595868706228923 0)
(25.16005901564138 -0.4055278246503314 0)
(24.99999994652045 3.675953509438507e-08 0)
(25.00000088238075 -3.050479350084506e-06 0)
(25.00069895718554 -0.001938389877217256 0)
(25.12846038195294 -0.1763081526836948 0)
(24.99999998688083 7.719253712033391e-09 0)
(25.00000035867257 -7.566212043930845e-07 0)
(25.00030027519765 -0.0004943312284358715 0)
(25.04691433282876 -0.04624576618062902 0)
(24.82230974484526 -0.7010336546237614 0)
(24.99919260177602 -0.002170762042368451 0)
(24.99999917816126 -1.866114200473634e-06 0)
(24.99999997738217 2.548205185280827e-08 0)
(24.8453655699019 -0.6263815105512827 0)
(24.99957155185397 -0.002223921381357896 0)
(24.99999972975622 -2.525752030631732e-06 0)
(24.99999996078617 3.948622646432114e-08 0)
(24.84832619908774 -0.6373200697183597 0)
(24.99958621992015 -0.002188326582986001 0)
(24.99999970838425 -2.3555810032765e-06 0)
(24.99999996465439 3.672870810272189e-08 0)
(24.83283531638357 -0.578235744375845 0)
(24.99960102797478 -0.001864649650573501 0)
(24.99999955400708 -1.470662486983989e-06 0)
(24.99999998014497 2.26307915872772e-08 0)
(24.82901502782 -0.5369523257435114 0)
(24.9995983341479 0.0004719387695728658 0)
(24.99999998365617 -4.61347629628349e-09 0)
(24.99999999974704 4.244768339613539e-10 0)
(24.80293066257054 -0.4527725897215736 0)
(24.99993915290688 -0.0003072512303155702 0)
(25.00000000055446 3.220423390047467e-10 0)
(25 8.990088684399105e-14 0)
(24.82935621084859 -0.261967979547522 0)
(24.99988534911746 -0.0001035486285674589 0)
(25 4.405195117329079e-12 0)
(25 -2.103422718165937e-15 0)
(24.9313615918682 -0.06739560094333484 0)
(24.99995760379575 -2.896265217907352e-05 0)
(25 -2.068263406279469e-13 0)
(25 -1.238541648003748e-15 0)
(25.00000000000001 1.642645854925693e-15 0)
(25 2.158476555661746e-15 0)
(24.99999999999939 2.912632479384796e-10 0)
(24.99999956831361 -3.878040311330398e-07 0)
(25 -8.961846501926697e-16 0)
(25 0 0)
(24.99999998785063 2.104055520039185e-08 0)
(25.00001203467325 1.642790493237499e-05 0)
(25 0 0)
(25 -1.8927404188826e-15 0)
(24.99999998331 -2.4145446119242e-07 0)
(24.99995478750992 0.0003371166741103221 0)
(25 2.483928271483398e-15 0)
(25 9.721961495568909e-15 0)
(24.99999596360099 3.015857643561043e-06 0)
(24.99106364816672 0.003317518964985997 0)
(24.99999912112704 -3.995447159003949e-12 0)
(24.99998728264244 -3.577459685325916e-06 0)
(24.9985965295024 -0.0009354738414962787 0)
(24.94674667077945 -0.01945557813549234 0)
(24.99998728264152 3.57746144257401e-06 0)
(24.99963408782355 2.248718408767747e-12 0)
(24.97912865124674 -0.00791524132393806 0)
(24.65728087913655 -0.1470168344669767 0)
(24.99859652950117 0.0009354738401688759 0)
(24.97912865124618 0.0079152413219783 0)
(24.73784756090867 -5.01768243951302e-12 0)
(23.42376991403758 -0.3255761572207537 0)
(24.94674667077184 0.01945557812335878 0)
(24.65728087912976 0.1470168344541337 0)
(23.42376991402494 0.3255761572097556 0)
(21.01235603131817 -5.348575724048673e-12 0)
(20.17169858280678 2.677151015574442 0)
(20.94286484697522 3.102549436985688 0)
(22.86186425976536 2.287809323208312 0)
(24.01372517788059 1.153457887116059 0)
(21.15581186008121 4.80246680852242 0)
(21.30248876030085 4.736921004561398 0)
(22.13065223407771 4.363289721680455 0)
(22.98853976940157 3.555103655600179 0)
(21.88723184912304 5.426086229721231 0)
(22.47440346579751 5.445001593603134 0)
(22.83831677060026 5.306356443331069 0)
(23.20054038621215 4.981741217469983 0)
(22.33840472490341 5.512574538766412 0)
(23.3260985420187 5.764347585815736 0)
(23.37229410381113 5.855672259360314 0)
(23.48541800186578 5.644271754544368 0)
(23.57573951040057 5.869257283054837 0)
(23.61785687233265 5.892718221501039 0)
(23.62440171494824 5.892009295970504 0)
(23.52970527346419 6.025528348862099 0)
(23.59486292051183 6.043042364584319 0)
(23.6643698042629 6.060310787594404 0)
(23.68526207959439 6.049317571865545 0)
(23.76331770754899 6.373820018675384 0)
(23.66140183484037 5.829855052365412 0)
(23.74585800576118 5.832832186236197 0)
(23.77717021880274 5.812092086737853 0)
(24.68575133818617 6.245186620901089 0)
(22.45940427677548 5.533419237877347 0)
(22.50294009829297 5.532477820216363 0)
(22.54784804068224 5.550148520310652 0)
(25.78432418012945 7.231695247093405 0)
(26.28264266045747 3.603273687205411 0)
(26.52913799039731 1.185663333919898 0)
(25.77447143647982 0.4397349357560919 0)
(25.234278786138 0.139871272622226 0)
(27.98775150771853 2.623291685020898 0)
(27.35494849948454 0.388308469699073 0)
(26.13030597423804 0.113022545054657 0)
(25.40319045506356 0.06362904429297034 0)
(30.38819568640503 1.948038036238616 0)
(28.0936853112848 -0.1190873452504456 0)
(26.51737646652646 -0.1067577384996536 0)
(25.59899105567731 -0.06845284731095082 0)
(24.50356709854315 1.418881514900358 0)
(23.76172949126695 0.2302394331308385 0)
(24.32920216314681 -0.447234971074779 0)
(24.74280492613762 -0.2714526788951952 0)
(25.03600603873505 0.01730253863909067 0)
(25.00170722533215 0.0005564988846913089 0)
(25.00001581648036 1.458645894413594e-06 0)
(24.99999978390413 -4.063902300481354e-07 0)
(25.0690255034894 0.01766751139940579 0)
(25.00350594849384 0.0009727609599818589 0)
(25.00003183398843 6.662636651854092e-06 0)
(24.99999963249937 -2.613166694321905e-07 0)
(25.11099159428233 -0.01791708045426191 0)
(25.00586810087574 -0.001018835029137897 0)
(25.00005389954455 -1.090555774847805e-05 0)
(24.99999958229209 -2.75747524638791e-07 0)
(24.95692738587719 -0.05480917470834679 0)
(24.99807396658337 -0.002406173785685643 0)
(24.99997911908356 -1.805044304917254e-05 0)
(24.99999899291138 -2.054345999812287e-07 0)
(24.9999998015119 -1.988403069362276e-07 0)
(25.00000021549974 2.990747776706074e-07 0)
(24.99531795640495 0.006840183751158266 0)
(23.3001654896326 2.193989065335329 0)
(24.99999973784436 -1.147982716615749e-07 0)
(25.00000000861662 1.22675877898982e-07 0)
(24.99169826107558 0.01446909262315796 0)
(21.69276791133269 2.482608124708484 0)
(24.99999976181951 6.358202969571202e-09 0)
(24.9999999666355 3.147215888861774e-08 0)
(24.97333244044058 0.03033571865966114 0)
(20.10864549655593 1.717126613715871 0)
(24.99999986752944 2.154445864815844e-08 0)
(24.99999999300292 4.419214354601134e-09 0)
(24.89166912905324 0.02226517297517822 0)
(16.48290495341396 0.628558013697381 0)
(16.26814011964778 7.449460238633145 0)
(17.43517147770526 9.315561444782453 0)
(17.72423339179007 10.56287901404704 0)
(17.83417834377595 11.05032182917784 0)
(13.8866029186328 7.464576948937106 0)
(16.37864828208436 9.645619599658238 0)
(17.31475271778664 11.06855409627705 0)
(17.66905238448622 11.5713543915202 0)
(11.98732418366156 6.878693981417072 0)
(15.20404399216541 9.502197882538868 0)
(16.95575151057033 10.92971072436136 0)
(17.52781521360604 11.40986310862547 0)
(10.79253535100374 4.167075446755454 0)
(13.3945754075612 7.747570938151118 0)
(14.62333129518588 10.00773270202816 0)
(15.52860841690914 10.46332868412281 0)
(17.82635915564601 11.14647271060513 0)
(17.82995961411445 11.16370024732846 0)
(17.8038344482541 11.18706947584651 0)
(17.8148028284048 11.20766162926758 0)
(17.72170972311529 11.65081218504989 0)
(17.7434541595314 11.64383965048268 0)
(17.75122657439679 11.64030479018604 0)
(17.78904369406098 11.63070767310641 0)
(17.61467352832182 11.51047067464128 0)
(17.625031676083 11.51853327648144 0)
(17.62789314128301 11.52613880821359 0)
(17.65013036271505 11.5260886963905 0)
(15.81671835123552 10.5428762398927 0)
(15.83805237207183 10.54831676601436 0)
(15.83784441759943 10.5479287331318 0)
(15.79874318143032 10.5229111655564 0)
(17.68894869444464 11.2231927414059 0)
(17.8641701194049 11.12449786134756 0)
(19.0606493563761 10.22742250498943 0)
(21.45637233484535 7.385898505883502 0)
(17.79815309165568 11.56916771983597 0)
(18.00651019673202 11.46437655070142 0)
(19.21418613147518 10.85618051391035 0)
(21.89487190582821 9.465447819053539 0)
(17.67434459357863 11.4983965227964 0)
(17.88958325689802 11.41180918108605 0)
(19.36482399933005 11.11092875164317 0)
(26.11019861559126 14.10040587702747 0)
(15.95775899070937 10.53521542619082 0)
(16.28551268865759 10.51496101062342 0)
(19.21053177831517 11.3136840072204 0)
(34.6799876222837 19.31783677969864 0)
(26.2013184493556 2.850172759605987 0)
(19.20790283674098 -6.300497914189965 0)
(5.490231892981432 -4.160573625798319 0)
(1.873622202321831 -0.4185655540799439 0)
(25.20127375955787 2.950139417781641 0)
(14.9667358427446 -7.544719456317679 0)
(1.524494039771881 -5.223480094194073 0)
(-1.930371415347773 -0.8746766651617784 0)
(26.81822668024337 -0.8034281348494188 0)
(8.115500259998576 -10.77689976624113 0)
(0.1058442755729601 -4.479589051155759 0)
(-0.1080591296367841 -0.8074214261557264 0)
(17.3854839479113 -8.801086840792914 0)
(1.652926570410758 -4.664565226592462 0)
(-1.433681450969084 -2.219493963759333 0)
(-0.7273773183275124 -0.6567077397578673 0)
(2.185017197860764 -0.02544443150320232 0)
(2.784285921273448 0.5209046749124751 0)
(3.597106068482382 0.9294204015068813 0)
(2.797845193499343 2.695455788294554 0)
(-1.803169660714556 0.04181656327023238 0)
(-1.316568244668592 1.389168194169188 0)
(0.2660438696920245 2.875443025784154 0)
(0.1473809604023076 4.964113878466109 0)
(0.3000923608450347 0.04567674100565879 0)
(0.5278237045504564 1.480892427141049 0)
(1.24251527941918 3.637915836772105 0)
(0.3533302480212134 6.244902057030899 0)
(-0.5946911899780604 0.08639425901434097 0)
(-0.5402627194958108 1.369553213201823 0)
(0.5356829772187073 3.693125909806173 0)
(0.3878918173692328 7.105811442895304 0)
(18.24896580717309 -5.378618019714668 0)
(22.35973233375301 -3.618692389854866 0)
(24.38428767166989 -3.109071664844407 0)
(25.17315081493865 -3.150164216961292 0)
(11.33373696315612 -5.166563411412883 0)
(18.65744298137114 -4.86681987223703 0)
(22.93528066275393 -4.79633893258965 0)
(25.71481570654824 -3.788162740097761 0)
(4.069082321784656 -3.212317925882995 0)
(12.72408931027465 -3.385437272243625 0)
(20.03858963519125 -4.88231944660073 0)
(27.93232792886879 -3.385988408010001 0)
(3.172133420010523 2.117180451778284 0)
(8.582449079523292 4.426768509870342 0)
(17.51036852143319 2.220688092262108 0)
(33.67648577076769 -1.100226376309459 0)
(24.60698976888878 -4.508558755585231 0)
(22.90341164459328 -8.636767686234007 0)
(18.27733729061003 -9.705847731565889 0)
(13.26215885049949 -9.039056909155864 0)
(28.29153923904175 -9.184364957430269 0)
(28.5084802753192 -16.20135867986147 0)
(17.51252422453737 -15.2462653527228 0)
(9.808017023408253 -14.67150782911249 0)
(30.78908030053789 -14.08280724962536 0)
(32.03117076872202 -19.55526763728759 0)
(13.58661252651564 -15.01393183093173 0)
(3.771368307838648 -13.97144788178082 0)
(21.20096226917413 -14.22867239277888 0)
(12.98687839177386 -21.10599105735705 0)
(3.164614043484857 -9.599733750620718 0)
(-1.286618093914344 -6.34048682921891 0)
(-1.372136664310326 -6.918514957139656 0)
(-1.304424764150759 -7.982263960687846 0)
(-1.205499448063391 -7.812407679338234 0)
(-1.248051383589556 -3.711747776001094 0)
(1.276696953165319 -13.92268812679439 0)
(0.6932920470916145 -12.9822841441754 0)
(-0.3769666276973399 -10.91038288902735 0)
(-1.515257777133918 -4.026361580587616 0)
(5.671892913439707 -12.81732586123004 0)
(3.888442507288748 -10.08103895648754 0)
(2.361909927464397 -6.184078078278763 0)
(1.332167894315153 -1.243208191077389 0)
(10.11050865977996 -6.77828691746083 0)
(8.882428036874023 -4.409586130239704 0)
(8.038456311778763 -2.02752069357783 0)
(7.569011113221515 -0.3212441393223207 0)
(-1.248051383586502 3.711747776007072 0)
(-1.515257777129764 4.026361580591884 0)
(1.332167894315659 1.243208191077812 0)
(7.569011113214605 0.3212441393244168 0)
(-1.205499448061628 7.812407679344082 0)
(-0.3769666276977466 10.91038288903018 0)
(2.361909927461923 6.184078078278993 0)
(8.038456311775384 2.027520693583154 0)
(-1.304424764147906 7.982263960688426 0)
(0.6932920470926709 12.98228414417335 0)
(3.888442507287627 10.08103895648569 0)
(8.88242803687454 4.40958613024213 0)
(-1.372136664307313 6.918514957138351 0)
(1.276696953166018 13.92268812679385 0)
(5.671892913438359 12.81732586122958 0)
(10.11050865977997 6.778286917462893 0)
(13.26215885049425 9.039056909154812 0)
(18.27733729059981 9.705847731558416 0)
(22.90341164458428 8.636767686227854 0)
(24.60698976888589 4.508558755584501 0)
(9.808017023405032 14.67150782910817 0)
(17.51252422453249 15.24626535271977 0)
(28.50848027531725 16.20135867986077 0)
(28.29153923904217 9.184364957431185 0)
(3.77136830783823 13.97144788177537 0)
(13.58661252651298 15.01393183093285 0)
(32.03117076871114 19.55526763727945 0)
(30.78908030053531 14.08280724962304 0)
(-1.286618093912007 6.34048682921543 0)
(3.164614043484693 9.599733750618103 0)
(12.98687839176777 21.10599105735281 0)
(21.20096226917141 14.22867239277715 0)
(33.67648577076202 1.100226376308814 0)
(17.51036852143034 -2.220688092265066 0)
(8.582449079523448 -4.42676850986849 0)
(3.172133420009095 -2.117180451770291 0)
(27.93232792886571 3.385988408009292 0)
(20.03858963518881 4.882319446598139 0)
(12.72408931027379 3.385437272242469 0)
(4.069082321784518 3.21231792589196 0)
(25.71481570654678 3.788162740097412 0)
(22.93528066275156 4.796338932586753 0)
(18.65744298137484 4.866819872228889 0)
(11.33373696315293 5.166563411428439 0)
(25.17315081493734 3.15016421696039 0)
(24.38428767166895 3.109071664841322 0)
(22.35973233376308 3.618692389849667 0)
(18.24896580715911 5.378618019726546 0)
(2.797845193503357 -2.695455788304971 0)
(3.597106068480675 -0.9294204015064199 0)
(2.784285921258167 -0.5209046749022614 0)
(2.185017197826576 0.02544443148790772 0)
(0.1473809604055396 -4.964113878459551 0)
(0.2660438696971312 -2.875443025784089 0)
(-1.316568244667661 -1.389168194170235 0)
(-1.803169660718749 -0.04181656327504565 0)
(0.3533302480176609 -6.244902057028145 0)
(1.24251527942164 -3.637915836776144 0)
(0.5278237045516462 -1.480892427145449 0)
(0.3000923608436303 -0.04567674100954545 0)
(0.3878918173643062 -7.105811442896111 0)
(0.5356829772224938 -3.69312590981154 0)
(-0.5402627194937654 -1.369553213208378 0)
(-0.5946911899763042 -0.08639425901916056 0)
(1.873622202267093 0.4185655540839017 0)
(5.490231892900277 4.160573625755624 0)
(19.20790283664644 6.300497914216513 0)
(26.20131844934618 -2.850172759597773 0)
(-1.930371415379675 0.8746766651593906 0)
(1.524494039723716 5.223480094160707 0)
(14.96673584267464 7.544719456339012 0)
(25.20127375955179 -2.950139417774245 0)
(-0.1080591296573985 0.8074214261510759 0)
(0.1058442755566292 4.47958905112595 0)
(8.115500259962817 10.77689976623313 0)
(26.81822668023723 0.8034281348459434 0)
(-0.7273773183375142 0.6567077397516069 0)
(-1.433681450969877 2.219493963749401 0)
(1.652926570404324 4.664565226598776 0)