/*--------------------------------*- C++ -*----------------------------------*\
  =========                 |
  \\      /  F ield         | OpenFOAM: The Open Source CFD Toolbox
   \\    /   O peration     | Website:  https://openfoam.org
    \\  /    A nd           | Version:  11
     \\/     M anipulation  |
\*---------------------------------------------------------------------------*/
FoamFile
{
    format      ascii;
    class       volVectorField;
    location    "0.3592357";
    object      U;
}
// * * * * * * * * * * * * * * * * * * * * * * * * * * * * * * * * * * * * * //

dimensions      [0 1 -1 0 0 0 0];

internalField   nonuniform List<vector> 
880
(
(24.99999999999999 -2.806080897975904e-12 0)
(24.99999998203183 -1.217413953012404e-08 0)
(24.99829024673546 -0.0005554044067220804 0)
(24.71736355205408 0.007624583337634145 0)
(24.99999999998872 -2.831310135928208e-11 0)
(24.99999994445427 -7.039734115663648e-08 0)
(24.99747958724353 -0.001722081595307953 0)
(24.63269734307454 -0.1593358796981931 0)
(24.99999999963697 -2.437779593505097e-10 0)
(24.99999976102305 -2.871837766476732e-07 0)
(24.99514555411707 -0.003584465976109612 0)
(24.51360370054742 -0.2644844016060011 0)
(24.99999999829957 1.052111253473682e-09 0)
(24.9999988181946 -1.167841692175935e-06 0)
(24.989085823992 -0.007016762564716281 0)
(24.13724750726618 -0.4137218649361316 0)
(25.0000000111903 -4.114332435668924e-09 0)
(24.99999998001881 8.779145021810025e-09 0)
(24.99999953213299 -9.298432180433775e-07 0)
(24.99999314126271 -1.184367404721025e-05 0)
(24.9999937680717 -4.448655528777458e-06 0)
(24.99996304613278 -1.867014254394663e-05 0)
(24.99985589114357 1.067305646645144e-05 0)
(25.00017477353035 -0.001107681446627519 0)
(24.97171080351997 -0.01019833648545574 0)
(24.95164309705044 -0.0063604012813099 0)
(24.92414682154772 0.01073101399062167 0)
(24.9140781166862 -0.06683429080466251 0)
(23.40264407348202 -0.09542233927790286 0)
(22.69017645551473 0.6348499805140909 0)
(22.26855834312473 1.33502640348184 0)
(22.24430583807106 1.746227920002279 0)
(24.9998840275667 -6.197902258608716e-06 0)
(24.99960661985444 -0.0003640876350105529 0)
(24.99925376106195 -0.001529046132704543 0)
(24.99747571508772 -0.004522218030144994 0)
(24.99801877236751 -0.0006930985382967399 0)
(24.99019684875544 -0.0003535393831087116 0)
(24.97715039568723 0.005493417647264153 0)
(24.95441964173048 0.008911097704270978 0)
(24.75586137250839 -0.01080194727910004 0)
(24.63017878422841 0.09839485497066891 0)
(24.46165242123331 0.2785198356261596 0)
(24.31834830155157 0.406257583495985 0)
(21.98167563500833 2.340707190189192 0)
(21.9873295805341 2.779770719372907 0)
(21.88512495492424 3.317361020062725 0)
(22.33926145384148 3.758407826155377 0)
(23.38567784509696 4.323112592642251 0)
(24.11422510728468 4.173020411007621 0)
(24.45809941909593 3.766265287574448 0)
(24.81732997687614 3.316632944936774 0)
(24.07886074699897 0.7463986441017076 0)
(24.09385899129399 1.104402665194326 0)
(24.19611990897658 1.349488184356689 0)
(24.3821348198788 1.47556131945044 0)
(24.8756412180132 0.03529359637669872 0)
(24.77190358389926 0.1155044973578836 0)
(24.679540695886 0.2412731974806922 0)
(24.63421550295253 0.394556821430363 0)
(24.98787378499502 -0.01055567534142744 0)
(24.97236301569229 -0.02426007997905012 0)
(24.95024718443606 -0.0440439034078161 0)
(24.9240516222804 -0.07056206126680996 0)
(24.90149166782034 -0.1010172173424375 0)
(24.88771176479918 -0.1311315723650716 0)
(24.88284702844285 -0.1445269606752992 0)
(24.88832791368058 -0.1379808805490241 0)
(24.63263857901034 0.5574750450653524 0)
(24.67445856336122 0.7120243789754381 0)
(24.7609240541889 0.8382231580396891 0)
(24.87669312374711 0.8925667889038149 0)
(24.5495410959038 1.608773154759633 0)
(24.75258046727589 1.65494383957331 0)
(24.94052782815352 1.627180973117369 0)
(25.09323410035714 1.555464264984024 0)
(24.99115112516703 2.905790421575957 0)
(25.17872865911463 2.489597040339006 0)
(25.29112401816935 2.094356727200441 0)
(25.36345434208896 1.778074546320352 0)
(25.42831651748273 1.37746764234065 0)
(25.24435269144161 1.453728486280488 0)
(24.99916139669092 0.9127363612826475 0)
(24.89607493659362 -0.1212250989737965 0)
(24.54807506495917 1.559490776137444 0)
(25.34338638635755 1.289313643546282 0)
(25.14340571645162 0.8617755594925941 0)
(24.90333257514962 -0.09618211292878963 0)
(19.15451750604245 1.728676699331791 0)
(25.15905709096473 1.297210287627238 0)
(25.25814797375089 0.7517577800125594 0)
(24.91621899373531 -0.08053370755096009 0)
(14.1271822791829 2.09595085563418 0)
(23.70235855630522 1.628787207780074 0)
(25.27712034774648 0.7747369201805259 0)
(24.94896503534267 -0.09185043085206471 0)
(24.95452845971943 -0.06679385571102966 0)
(25.21733513718105 0.7182171586296182 0)
(22.05151125414979 2.269335963724976 0)
(12.48987583275692 3.860291945848558 0)
(24.83136714062815 -0.08882758856994506 0)
(24.99460164135837 0.8082287606031231 0)
(20.60604266861457 3.314538506189046 0)
(12.79860140421532 5.640545204543089 0)
(24.78950960370053 -0.1158493603133613 0)
(24.47446067533845 1.156885211567184 0)
(18.82501657125556 4.64945284222223 0)
(12.64754383187348 7.078641790446872 0)
(24.6983225519487 -0.1634647789305614 0)
(23.59936766889208 1.928787463718277 0)
(17.5878013487294 6.058348703026931 0)
(13.13583603055543 8.144183352722077 0)
(14.04754484772334 8.855736746337495 0)
(16.96793506556178 7.293784455117946 0)
(22.43006221814019 3.156592116478991 0)
(24.51832741718636 -0.1864963257257034 0)
(15.13572758758685 9.393303087159653 0)
(17.24088831714175 8.219365578970416 0)
(21.21733271884123 4.641899076148435 0)
(24.19846270236414 -0.07130470707476534 0)
(16.37658684368691 9.684274198011693 0)
(18.11055371444645 8.754313305256229 0)
(20.70757778283366 5.995884578664395 0)
(23.69390721973962 0.236405419342257 0)
(17.54806103429305 9.756793896831308 0)
(19.39761142336759 8.854132149935271 0)
(20.87609280288683 7.035951591850353 0)
(23.19630186807554 0.7228973749419424 0)
(22.91099666994849 0.8509484757528613 0)
(22.04904539797268 7.091135827633356 0)
(21.1210831958737 8.80665621045155 0)
(18.96385627896908 9.897794820150713 0)
(23.45622965222058 0.6463711072085575 0)
(23.50851375736264 6.648117094876498 0)
(23.10797900435666 8.415245848551487 0)
(20.90706204923254 9.810493029534941 0)
(24.04000892968882 0.3441049289920194 0)
(24.93162794963944 5.875071546534135 0)
(25.19364561169492 7.620152463591547 0)
(23.44735461167106 9.238274590825238 0)
(24.51868666632507 -0.2494485181232521 0)
(26.06332252177286 4.606849113026954 0)
(27.1663894610123 6.226687629506941 0)
(26.40059720584 7.616383636637835 0)
(24.8841928461909 -0.3075656198377283 0)
(26.92925489574341 3.628093641984579 0)
(29.04978947629728 4.804325057504797 0)
(30.68346146924845 4.759023228412142 0)
(25.30046374143556 -0.4989503006002112 0)
(27.49765170726906 2.601741208697575 0)
(30.11083392837089 3.390621984921404 0)
(34.00250844429423 0.704613260681661 0)
(25.54326829635491 -0.5425549814787051 0)
(27.54994912254358 1.647317296029587 0)
(30.8347507717927 1.256058663355022 0)
(36.34819732492721 -4.253961947441725 0)
(25.65368660726004 -0.5437337013972369 0)
(27.2244435684357 1.022791981329709 0)
(30.31234518645952 -0.3107731956114374 0)
(37.77916886077219 -9.251836466156828 0)
(34.01925639221169 -7.327991544944966 0)
(29.13038910511957 -1.417300565530667 0)
(26.9423205910069 0.3554897821092147 0)
(25.69370692567641 -0.546746186814337 0)
(25.63438685848853 -3.215008097264501 0)
(28.24645539660239 -1.936566383433623 0)
(26.64810064049304 -0.1001427371760964 0)
(25.62904770469695 -0.4720502868292512 0)
(23.08903436237249 -3.612743538014099 0)
(27.75005134614855 -2.841725832758894 0)
(26.39348838781125 -0.5594293668332877 0)
(25.50626115630701 -0.3592842848742601 0)
(19.90309964226877 -3.65947939292476 0)
(26.97782058758614 -3.450133355797007 0)
(26.0492984274507 -0.9532360500880879 0)
(25.38979115963507 -0.2751012089566154 0)
(18.08525446875046 -4.76016760887839 0)
(25.72427063569137 -4.391146213102091 0)
(25.48600779573953 -1.2898184895552 0)
(25.18021398757985 -0.2156657876806796 0)
(15.43323401757565 -6.813652871394486 0)
(24.08648141495027 -4.635052550600967 0)
(24.89651580436767 -1.125727995029178 0)
(25.00123532067948 -0.1079243057469123 0)
(14.37828572328872 -6.976692507598857 0)
(23.02531627274142 -4.04853598230284 0)
(24.65192833346724 -0.7359017941229781 0)
(24.97081089066617 -0.04913475945292065 0)
(14.33666727530583 -5.861279950168631 0)
(22.80033680823164 -3.600458145614565 0)
(24.67303741819476 -0.6014495398852131 0)
(24.97608507713429 -0.03607884955007213 0)
(14.22228885491554 -0.6632623232110938 0)
(20.34305992176035 -0.1132440805315989 0)
(23.64827192406264 0.01057998100321176 0)
(24.85559660709275 0.001982422870750016 0)
(14.20388150233761 -1.755771453159533 0)
(20.33970093306052 -0.5377894133014414 0)
(23.6631838613709 0.000632594749975437 0)
(24.85253958714431 0.004365045947521513 0)
(14.41820111143454 -3.256099873056138 0)
(20.34761462336705 -0.9878895809245622 0)
(23.70250364723791 -0.07175379955306786 0)
(24.85178930386228 0.000250375069611384 0)
(14.4700187493158 -4.649569828501087 0)
(20.55621263896143 -1.352417312163546 0)
(23.80223614503949 -0.1947133937634099 0)
(24.86017516975294 -0.0113900998582654 0)
(14.33666727532321 5.861279950149412 0)
(22.80033680825633 3.600458145606788 0)
(24.67303741830671 0.6014495398381026 0)
(24.97608507724378 0.03607884953070536 0)
(14.37828572331812 6.976692507573283 0)
(23.02531627281893 4.048535982354401 0)
(24.65192833351969 0.7359017941074767 0)
(24.97081089074551 0.0491347594990372 0)
(15.43323401762787 6.813652871417934 0)
(24.08648141498444 4.635052550642452 0)
(24.89651580435754 1.125727995073412 0)
(25.00123532072107 0.1079243057973138 0)
(18.08525446877453 4.76016760888022 0)
(25.72427063578475 4.391146213169994 0)
(25.48600779575347 1.289818489589422 0)
(25.18021398758146 0.2156657877287335 0)
(25.69370692564011 0.5467461867558141 0)
(26.94232059103141 -0.3554897821436471 0)
(29.13038910513157 1.417300565522295 0)
(34.0192563921356 7.327991545072659 0)
(25.62904770469281 0.4720502867777897 0)
(26.64810064050261 0.1001427371688095 0)
(28.24645539664442 1.936566383438284 0)
(25.63438685854453 3.215008097366483 0)
(25.5062611562552 0.3592842848281093 0)
(26.39348838778441 0.5594293668592181 0)
(27.75005134623449 2.841725832891617 0)
(23.08903436230855 3.612743538058588 0)
(25.38979115955844 0.2751012089360659 0)
(26.04929842738222 0.9532360500598339 0)
(26.97782058761094 3.450133355874992 0)
(19.90309964232272 3.659479392950472 0)
(37.77916886087752 9.251836466315678 0)
(30.31234518646268 0.3107731956061877 0)
(27.22444356847733 -1.022791981338003 0)
(25.65368660724816 0.543733701349982 0)
(36.34819732493565 4.253961947490815 0)
(30.83475077182151 -1.256058663313216 0)
(27.54994912258465 -1.647317296036269 0)
(25.54326829633298 0.5425549814908164 0)
(34.00250844429659 -0.7046132606398174 0)
(30.11083392832267 -3.390621984903459 0)
(27.49765170730534 -2.601741208675104 0)
(25.3004637413098 0.4989503006689664 0)
(30.68346146920938 -4.759023228392873 0)
(29.04978947633827 -4.804325057475177 0)
(26.92925489583766 -3.628093641955604 0)
(24.88419284607683 0.3075656199256569 0)
(22.91099666987603 -0.8509484757341698 0)
(22.04904539790793 -7.091135827635603 0)
(21.12108319583007 -8.806656210454229 0)
(18.96385627898844 -9.897794820151207 0)
(23.45622965220571 -0.6463711071641094 0)
(23.50851375736645 -6.648117094871155 0)
(23.10797900430759 -8.415245848533237 0)
(20.90706204924331 -9.810493029534173 0)
(24.04000892974636 -0.3441049289721207 0)
(24.93162794967295 -5.875071546544999 0)
(25.19364561166161 -7.620152463566674 0)
(23.44735461166654 -9.238274590811891 0)
(24.51868666629235 0.2494485181929553 0)
(26.06332252183632 -4.606849113003737 0)
(27.16638946101854 -6.226687629473438 0)
(26.40059720580363 -7.616383636623001 0)
(17.54806103431187 -9.756793896836209 0)
(19.39761142337532 -8.854132149949443 0)
(20.87609280284439 -7.035951591846776 0)
(23.19630186793432 -0.7228973749579863 0)
(16.37658684372043 -9.684274198030449 0)
(18.11055371447423 -8.754313305265365 0)
(20.70757778281525 -5.99588457867229 0)
(23.69390721970485 -0.2364054193389872 0)
(15.13572758759723 -9.393303087172846 0)
(17.2408883171962 -8.219365578971685 0)
(21.21733271886022 -4.641899076122725 0)
(24.19846270228404 0.07130470708180606 0)
(14.04754484775625 -8.855736746340511 0)
(16.96793506556349 -7.293784455085306 0)
(22.4300622180545 -3.156592116445124 0)
(24.51832741716484 0.1864963257272231 0)
(24.95452845973937 0.06679385573371374 0)
(25.21733513718596 -0.7182171586034226 0)
(22.05151125417562 -2.269335963738632 0)
(12.48987583279863 -3.860291945854704 0)
(24.83136714052636 0.08882758856819668 0)
(24.99460164134461 -0.808228760559131 0)
(20.60604266863732 -3.314538506189046 0)
(12.79860140425588 -5.64054520456588 0)
(24.78950960353658 0.1158493603066841 0)
(24.47446067521881 -1.156885211503534 0)
(18.82501657128374 -4.64945284219321 0)
(12.64754383189989 -7.078641790451726 0)
(24.69832255189938 0.1634647789337384 0)
(23.59936766891936 -1.928787463642571 0)
(17.58780134879117 -6.058348703001855 0)
(13.13583603057152 -8.1441833527279 0)
(24.94896503532184 0.09185043086589384 0)
(24.91621899375377 0.08053370756353657 0)
(24.90333257507451 0.09618211295844394 0)
(24.89607493658446 0.1212250989701578 0)
(25.27712034782536 -0.774736920181991 0)
(25.25814797381614 -0.7517577800034305 0)
(25.14340571639128 -0.8617755594802551 0)
(24.99916139666986 -0.9127363612983793 0)
(23.70235855639789 -1.628787207799051 0)
(25.15905709097864 -1.297210287631619 0)
(25.34338638641407 -1.289313643559186 0)
(25.24435269146632 -1.453728486273204 0)
(14.12718227924237 -2.095950855636971 0)
(19.15451750610889 -1.728676699327478 0)
(24.54807506493209 -1.559490776111809 0)
(25.42831651747479 -1.377467642315058 0)
(24.88832791363156 0.137980880556251 0)
(24.87669312369457 -0.8925667888831842 0)
(25.09323410034662 -1.555464264958877 0)
(25.3634543421149 -1.778074546269817 0)
(24.88284702850562 0.1445269606560498 0)
(24.76092405413812 -0.8382231580320662 0)
(24.94052782817797 -1.627180973095759 0)
(25.29112401818408 -2.094356727158263 0)
(24.88771176479133 0.1311315723557837 0)
(24.67445856335579 -0.7120243789233954 0)
(24.75258046733377 -1.654943839585766 0)
(25.17872865916654 -2.48959704033883 0)
(24.9014916678738 0.1010172172615351 0)
(24.63263857903201 -0.5574750450436156 0)
(24.54954109589579 -1.608773154754629 0)
(24.99115112518484 -2.9057904215675 0)
(24.98787378499304 0.01055567525628984 0)
(24.87564121810874 -0.03529359628285256 0)
(24.07886074699955 -0.7463986440937106 0)
(23.38567784507778 -4.323112592616734 0)
(24.97236301573006 0.02426007986311766 0)
(24.77190358398779 -0.1155044972865751 0)
(24.09385899131068 -1.104402665159537 0)
(24.11422510732057 -4.173020411011748 0)
(24.95024718434546 0.04404390338090909 0)
(24.67954069599629 -0.241273197409635 0)
(24.19611990903176 -1.349488184358061 0)
(24.45809941920795 -3.766265287623976 0)
(24.9240516223139 0.07056206119874284 0)
(24.63421550297196 -0.3945568213768809 0)
(24.38213481992917 -1.475561319414397 0)
(24.81732997692259 -3.316632944961252 0)
(22.33926145386462 -3.758407826142787 0)
(24.3183483015487 -0.406257583499238 0)
(24.95441964181883 -0.008911097609465242 0)
(24.99747571503688 0.004522218016871805 0)
(21.88512495495252 -3.317361020046517 0)
(24.46165242122431 -0.2785198356302463 0)
(24.97715039573731 -0.005493417609285743 0)
(24.99925376109713 0.001529046101682661 0)
(21.98732958056226 -2.77977071936184 0)
(24.63017878427519 -0.09839485497655726 0)
(24.9901968489084 0.0003535393901138207 0)
(24.99960661987087 0.000364087513340645 0)
(21.98167563501104 -2.340707190172656 0)
(24.75586137257173 0.01080194727159761 0)
(24.99801877244369 0.0006930985534489266 0)
(24.99988402755132 6.197916526314648e-06 0)
(22.24430583804396 -1.746227919987356 0)
(24.91407811669187 0.06683429080921251 0)
(25.00017477355405 0.001107681465913812 0)
(24.99999314123308 1.184371728135246e-05 0)
(22.26855834307273 -1.335026403468735 0)
(24.92414682155966 -0.01073101399380152 0)
(24.99985589120067 -1.067305730371373e-05 0)
(24.99999953209123 9.298524884054758e-07 0)
(22.69017645536349 -0.634849980522968 0)
(24.9516430970767 0.006360401272416369 0)
(24.99996304618334 1.86701332941907e-05 0)
(24.99999998004261 -8.82456046314178e-09 0)
(23.4026440732595 0.09542233923092404 0)
(24.97171080358121 0.01019833648016733 0)
(24.99999376815596 4.44866858689265e-06 0)
(25.00000001114298 4.117499386375785e-09 0)
(25.00000000000002 5.954717250070875e-12 0)
(24.99999998201898 1.215743009032817e-08 0)
(24.99829024673039 0.0005554043888229517 0)
(24.71736355202647 -0.007624583180904696 0)
(24.99999999997173 4.182349826746201e-11 0)
(24.99999994453042 7.037386881123293e-08 0)
(24.99747958724233 0.00172208157293158 0)
(24.63269734286222 0.1593358797685236 0)
(24.99999999962681 2.564847263307755e-10 0)
(24.99999976109916 2.871874749541747e-07 0)
(24.99514555412359 0.003584465962754052 0)
(24.51360370020189 0.2644844015366657 0)
(24.99999999828481 -1.026219839843323e-09 0)
(24.99999881823999 1.167854346426864e-06 0)
(24.98908582399784 0.007016762554427834 0)
(24.13724750699396 0.4137218648806291 0)
(24.52527713359628 1.098741145232919e-10 0)
(24.35980008022323 0.149554763856892 0)
(23.97405317023702 0.1736329936778784 0)
(23.03856106058453 0.0187178162817067 0)
(24.35980008043953 -0.149554763639886 0)
(24.08844216605494 4.096545743903891e-11 0)
(23.40958296289231 -0.0603107518894635 0)
(21.96067724474882 -0.4863792657885654 0)
(23.97405317068457 -0.1736329935849862 0)
(23.40958296323573 0.06031075196535657 0)
(22.12862989086709 6.328560016186556e-11 0)
(20.03097342356518 -0.5819750933708053 0)
(23.03856106100159 -0.01871781630237004 0)
(21.96067724527261 0.4863792657301801 0)
(20.03097342386855 0.5819750933252154 0)
(17.78920027026048 -2.400791497459787e-10 0)
(17.25879593316857 2.521585702426413 0)
(17.89936277629966 2.917351157751862 0)
(19.54340853752541 2.65584449855463 0)
(21.08694859859227 1.88781467004509 0)
(18.24492131607596 4.246789462908912 0)
(18.3081360469395 4.203004394454181 0)
(19.04066971870239 4.114783064349894 0)
(20.07398856127693 3.952548210043908 0)
(17.68386900473585 5.193203522989816 0)
(18.85058434171269 4.49107437185567 0)
(19.52793374059231 4.691880137677465 0)
(20.05234681623848 4.563750359419254 0)
(18.33526457884242 5.754222347190526 0)
(19.70556484324748 4.717195982653473 0)
(20.20572516010858 4.891234596757767 0)
(20.49070998580653 4.805575983853921 0)
(20.79097398155627 4.93270725677817 0)
(21.02926486236346 5.061731629290493 0)
(21.40435756568164 5.120580509013944 0)
(22.16085259248935 5.280349214706351 0)
(20.72901089108016 4.994248920172933 0)
(21.03869574293252 5.101570968385768 0)
(21.53837293224688 5.117414381399478 0)
(22.65128986531412 5.500672441428894 0)
(20.47285526349689 4.931260538548556 0)
(20.97344423645725 5.105924111261809 0)
(21.55537116407937 5.158192183835495 0)
(24.10137248383984 5.943007510757452 0)
(18.97617869205042 5.851121767938512 0)
(19.59933682754246 5.875950747194599 0)
(20.50317861939908 5.734761628863057 0)
(25.83119138228482 7.12589889677696 0)
(25.81525762553288 3.187581998232889 0)
(26.4094533127067 0.8090346511267048 0)
(25.72185819248483 0.487078421842897 0)
(25.59509921970145 0.3820583855421046 0)
(28.37610915288489 2.198782236643518 0)
(28.69592286876525 0.3397473642672451 0)
(27.56801900781672 0.2832496361133269 0)
(26.89269682878241 0.313758032413577 0)
(31.54902409860093 1.904714887982508 0)
(30.14994935557971 0.0457762954788371 0)
(28.75773500697804 0.05144590459093629 0)
(27.77933144151704 0.09386645869393019 0)
(25.07990692433006 1.987934939659437 0)
(24.21747288886294 0.6522667813615163 0)
(24.07232378743862 0.08970458469121385 0)
(24.15978569454595 -0.2164444743790197 0)
(25.66542540194069 0.3867737028271832 0)
(25.71343740894617 0.3198137875463721 0)
(25.70095539840603 0.205140354708811 0)
(25.65343185255417 0.1716705624717028 0)
(26.53712095313923 0.3417383549804255 0)
(26.22459702445319 0.2915146664182632 0)
(25.94663129076161 0.191596373199497 0)
(25.7212719516866 0.1306876885921876 0)
(27.15029881890401 0.1478464465868047 0)
(26.59224247997865 0.1471935496123447 0)
(26.09880724483652 0.09830481044423876 0)
(25.66598016927667 0.08514278538871588 0)
(24.13123551102826 -0.4622499589768261 0)
(23.90331610834052 -0.6207333383400849 0)
(23.702318571956 -0.7154381436177314 0)
(23.36993806369472 -0.666246987947133 0)
(25.20555730792557 0.7716935183016264 0)
(20.09250809532506 5.098259968922506 0)
(13.72002283356822 3.924564661090005 0)
(9.345244199324998 1.05933734686227 0)
(24.62764596784044 1.255332265409185 0)
(16.07239667225147 4.951596318178821 0)
(8.863882491251388 2.740864549869421 0)
(4.471064785384101 -0.1764302353159438 0)
(23.43575611358342 1.295021847806106 0)
(11.69348766089255 3.634450617060425 0)
(3.139745918821014 2.029168938518557 0)
(-0.7690101952726793 0.2418297858647071 0)
(19.41406926398242 -0.7286077590671864 0)
(7.302950763930715 -0.7958042017406322 0)
(0.2337643720062531 0.5429852105484311 0)
(-2.595577958445268 0.17440080773625 0)
(8.569176596122153 2.693904670574874 0)
(10.58535559234576 4.559496540618954 0)
(11.49759595003959 6.280339788712025 0)
(12.44951228510693 7.625631215283555 0)
(6.13671358783265 1.99370249231194 0)
(9.511381657598626 4.411055721154843 0)
(11.20127761039665 6.226214424748801 0)
(12.40430185354536 7.672156770398568 0)
(2.933346411051428 0.01199432007783894 0)
(7.442510279585442 3.331980174777636 0)
(10.26714905997348 6.036198640919096 0)
(12.02122068323802 7.596920803942107 0)
(0.2395696601972255 -0.1062404565192581 0)
(3.470313210241358 2.476001501611614 0)
(7.538075497971182 3.976213603873191 0)
(10.63465229916481 5.46399223269069 0)
(13.63848572959763 8.986474565347635 0)
(14.77053378976001 10.00814173345171 0)
(15.91944612280389 10.56578867383305 0)
(16.81353224313035 10.85599417215553 0)
(13.55815763865357 8.92099517508972 0)
(14.71381002964922 9.954787429820794 0)
(15.82396423684642 10.54167545814307 0)
(16.69640318203842 10.8814253552862 0)
(13.2358589217063 8.764170574468741 0)
(14.51737741860799 9.775726315069841 0)
(15.74209670415206 10.47463363864768 0)
(16.62307865326027 10.96198731267762 0)
(13.11736640125801 6.748236539285771 0)
(14.67200690616001 8.448591933450748 0)
(15.76612196654331 10.3018162055665 0)
(16.64566804253489 10.93921987716545 0)
(17.82792585726654 11.27568812681808 0)
(19.42338052077717 11.76985176382266 0)
(21.7750444941908 11.69322055416521 0)
(24.77797619200373 10.42095458000729 0)
(17.62278781311776 11.27977028778561 0)
(19.07492842520772 11.72985876337687 0)
(21.21153531394113 11.74952206162404 0)
(24.97582174113178 12.4734682066964 0)
(17.47371328760784 11.36886591590416 0)
(18.72297957367331 11.78346635186402 0)
(21.34547635716594 12.58553914282537 0)
(31.48514933054716 18.45883274362884 0)
(17.43736521393318 11.39313090735999 0)
(18.64012414614595 11.79211852065622 0)
(22.06807084865323 13.17484091582631 0)
(43.24393133383953 25.51572934370416 0)
(30.59387214218973 5.261201465885198 0)
(32.03810151222697 -3.58240536041548 0)
(12.65433164476992 8.691325793426365 0)
(7.857811506452157 30.84076166227781 0)
(32.23134417301154 4.900224800543853 0)
(26.46678248221325 -1.952379740724105 0)
(8.976539621574741 17.41679530246719 0)
(8.448248838383904 29.0267817102422 0)
(31.97400350648431 3.29251648238664 0)
(17.20844587849867 -4.302841514283829 0)
(3.828925870839367 21.32884317998484 0)
(4.61197855106136 29.02649264246208 0)
(20.30819258262173 -8.299024528307797 0)
(7.328048488420006 -0.5716190373317835 0)
(2.08829138123081 24.81801842225813 0)
(2.648151901967851 28.73387644641778 0)
(7.017734069131199 24.62058859161352 0)
(2.69945806183024 17.69690283566804 0)
(-0.7734468104163505 14.87145984186154 0)
(-2.833119149808156 9.937923744780029 0)
(6.712159389451395 23.57246672869221 0)
(1.914965396090319 19.24735244378164 0)
(-0.4568737229371335 14.98164546870218 0)
(-1.253601247868428 7.687146012320196 0)
(3.278176383444179 22.61471435582562 0)
(1.430368699880105 18.10663323010712 0)
(-0.3154316174783743 12.35856855831874 0)
(-0.8159265970273506 4.900416008688104 0)
(0.7861678240378263 22.03870035007994 0)
(-0.4547276306990854 17.36654297176242 0)
(-1.909240707379766 10.96800847090154 0)
(-1.738851731431432 3.285177840678421 0)
(-6.073769088050692 3.289715586609687 0)
(-2.016637843375602 0.2621018735388265 0)
(2.429069603742665 -2.420550559433771 0)
(4.457052452852482 -6.632220626091104 0)
(-6.812373076357666 3.051087441269108 0)
(-5.955661191884758 0.3486875462944122 0)
(-1.266661873974813 -0.797411889270999 0)
(2.679203887081206 -5.575544159497529 0)
(-6.212835916307189 2.12666995992253 0)
(-7.806327837940391 0.6686824113258732 0)
(-4.51780154200826 0.3046313125382045 0)
(0.03255306024045504 -4.08624087087677 0)
(-4.585710929524776 2.184266874369913 0)
(-7.136581183415667 2.66852886624167 0)
(-5.229369448971966 3.07270149056416 0)
(-0.6497613087871815 -1.052238405775588 0)
(2.361426815285788 -6.935591464461979 0)
(2.293335905213024 -7.541108689352179 0)
(3.156963513939472 -7.215791856335725 0)
(4.463020638456011 -6.469207507954914 0)
(1.465793769710406 -6.803538438812232 0)
(1.926677888096768 -6.275277388136604 0)
(3.127073271755247 -5.840733045273417 0)
(3.899716819336465 -4.924439057679863 0)
(0.4567864382931466 -4.750820958090631 0)
(0.6585611283505062 -3.491349262787721 0)
(1.65539342220187 -3.003676974189016 0)
(2.137375449626414 -1.923691210545867 0)
(1.658971822534371 -1.986459531762498 0)
(1.311171827879255 -0.7525447090861502 0)
(1.877106655688095 -0.3122948643775458 0)
(1.653216185838533 0.6367304811897498 0)
(0.7800671360948435 1.147333689887158 0)
(-0.03301419568462188 1.284725635579377 0)
(-0.6587360520637638 0.9682911093097701 0)
(-0.9813308583686534 0.3366281990977541 0)
(1.587020458037978 -0.9804683239337532 0)
(0.5863214574334048 -0.4815452838212054 0)
(-0.2570365087470695 -0.05723883892538766 0)
(-0.6750779013895323 -0.02422782154677094 0)
(3.363780319130879 -3.806054177667207 0)
(2.444094815036729 -2.796905809536063 0)
(1.338073016983184 -1.704900321072384 0)
(0.6067545826260033 -0.6385285502884225 0)
(5.107050783943138 -4.816737356277375 0)
(4.969919357063919 -3.30244010643213 0)
(4.187944852760836 -2.022012499863251 0)
(3.720978761383561 -0.7293667108652775 0)
(-0.9813308583709467 -0.3366281990748703 0)
(-0.6750779013898278 0.02422782155655847 0)
(0.6067545826260174 0.6385285502828073 0)
(3.720978761384878 0.7293667108457801 0)
(-0.6587360520674731 -0.9682911092900628 0)
(-0.2570365087478663 0.05723883893488773 0)
(1.338073016987413 1.704900321069661 0)
(4.187944852789904 2.022012499844995 0)
(-0.03301419568844576 -1.284725635566335 0)
(0.5863214574318346 0.4815452838282883 0)
(2.444094815038094 2.796905809536488 0)
(4.969919357083892 3.302440106432637 0)
(0.7800671360925909 -1.147333689876844 0)
(1.587020458040952 0.9804683239391135 0)
(3.363780319125166 3.806054177673484 0)
(5.10705078394364 4.816737356283824 0)
(4.46302063844087 6.469207507934671 0)
(3.156963513944725 7.215791856328909 0)
(2.293335905216148 7.541108689342177 0)
(2.361426815301619 6.935591464452115 0)
(3.899716819335904 4.924439057679741 0)
(3.127073271764034 5.840733045267152 0)
(1.926677888111489 6.275277388124143 0)
(1.465793769731822 6.803538438801005 0)
(2.13737544962892 1.923691210545036 0)
(1.655393422206493 3.003676974183882 0)
(0.6585611283609943 3.491349262786078 0)
(0.4567864383068184 4.750820958084674 0)
(1.65321618584108 -0.6367304811861868 0)
(1.877106655695724 0.3122948643818986 0)
(1.311171827888964 0.752544709093565 0)
(1.658971822542946 1.986459531770406 0)
(-0.6497613087696249 1.052238405777677 0)
(-5.229369448936799 -3.072701490536895 0)
(-7.136581183378837 -2.668528866210748 0)
(-4.58571092949744 -2.184266874361476 0)
(0.03255306025576814 4.08624087087462 0)
(-4.517801541982379 -0.3046313125154659 0)
(-7.806327837883432 -0.6686824113085068 0)
(-6.212835916249095 -2.126669959893973 0)
(2.679203887094531 5.575544159489191 0)
(-1.266661873942099 0.7974118892947849 0)
(-5.955661191813915 -0.3486875462686134 0)
(-6.812373076309019 -3.051087441218945 0)
(4.457052452865098 6.632220626086231 0)
(2.42906960376699 2.420550559455186 0)
(-2.01663784328887 -0.262101873517822 0)
(-6.073769087957515 -3.289715586543618 0)
(-2.833119149802231 -9.937923744667133 0)
(-0.7734468104743587 -14.87145984187165 0)
(2.699458061869703 -17.69690283593109 0)
(7.017734068865662 -24.62058859174993 0)
(-1.253601247864264 -7.687146012256529 0)
(-0.4568737229482475 -14.98164546867696 0)
(1.914965396179342 -19.24735244386874 0)
(6.712159389488042 -23.57246672870244 0)
(-0.815926597028985 -4.900416008663701 0)
(-0.3154316174832565 -12.35856855830271 0)
(1.430368699904808 -18.10663323012924 0)
(3.278176383462193 -22.61471435583773 0)
(-1.73885173142646 -3.285177840686355 0)
(-1.909240707384657 -10.96800847091268 0)
(-0.4547276307006224 -17.36654297177197 0)
(0.78616782404852 -22.03870035011241 0)
(7.857811506094836 -30.84076166232554 0)
(12.65433164450796 -8.691325793736262 0)
(32.0381015121517 3.582405360460552 0)
(30.59387214216421 -5.261201465866812 0)
(8.448248838246007 -29.02678171028615 0)
(8.976539621518745 -17.41679530266375 0)
(26.46678248221011 1.952379740696129 0)
(32.2313441729825 -4.900224800520529 0)
(4.611978551078914 -29.02649264254409 0)
(3.828925870784848 -21.32884318009513 0)
(17.20844587847754 4.302841514233781 0)
(31.9740035064373 -3.292516482376853 0)
(2.64815190197289 -28.73387644648125 0)
(2.088291381208544 -24.81801842237846 0)
(7.328048488442803 0.5716190372675032 0)
(20.30819258264624 8.299024528294176 0)
(24.77797619199242 -10.42095457998699 0)
(21.77504449418953 -11.69322055414517 0)
(19.42338052081445 -11.7698517638183 0)
(17.82792585726996 -11.27568812681809 0)
(24.97582174114937 -12.47346820669084 0)
(21.21153531395219 -11.74952206160679 0)
(19.07492842520993 -11.7298587633616 0)
(17.62278781315198 -11.2797702877997 0)
(31.48514933052403 -18.45883274360484 0)