/*--------------------------------*- C++ -*----------------------------------*\
  =========                 |
  \\      /  F ield         | OpenFOAM: The Open Source CFD Toolbox
   \\    /   O peration     | Website:  https://openfoam.org
    \\  /    A nd           | Version:  11
     \\/     M anipulation  |
\*---------------------------------------------------------------------------*/
FoamFile
{
    format      ascii;
    class       volScalarField;
    location    "0.1355";
    object      rho;
}
// * * * * * * * * * * * * * * * * * * * * * * * * * * * * * * * * * * * * * //

dimensions      [0 0 0 0 0 0 0];

internalField   nonuniform List<scalar> 
880
(
0.3733250556165154
0.3733250556165154
0.3733250556181431
0.3733270952447351
0.3733250556165154
0.3733250556165154
0.3733250556296625
0.3733320072470946
0.3733250556165154
0.3733250556165153
0.3733250557157386
0.3733643780924456
0.3733250556165154
0.3733250556165154
0.373325057720729
0.3734407353460145
0.3733250556165154
0.3733250556165155
0.3733250556165152
0.3733250556077188
0.3733250556165154
0.3733250556165154
0.3733250556165151
0.3733250556165154
0.373325030266192
0.3733250607167197
0.3734401709219292
0.3731755893258898
0.3774230654986588
0.3868221860367826
0.3932532043731852
0.3960501879473317
0.3733250790021743
0.3733252359861344
0.3733253319465861
0.3733252738353968
0.3733256256087423
0.3733264046315806
0.3733299451157727
0.3733296017123278
0.3735465715873431
0.3738035505734538
0.3742367396797873
0.3744458079645442
0.3992321286182524
0.4035891563333789
0.4078576787173606
0.4137880450968306
0.4126389927562765
0.4038300727672667
0.3970194415981846
0.3945900982490607
0.3753414796134103
0.3775017322950565
0.3782854874015422
0.3782087212936195
0.3733377730618315
0.3733680698555611
0.3734120121368564
0.3734368379721288
0.3733257450508576
0.373327020209818
0.3733295400326695
0.3733304873627699
0.3733298031486799
0.3733281114318062
0.3733262634728329
0.373325267350549
0.3734321854716048
0.3734138738226127
0.3733820679874424
0.3733472779572461
0.3776720131965309
0.3769308640248208
0.3759609138608472
0.3748219167188161
0.3924680635247912
0.3895091376545882
0.3861071749803245
0.3825122579494571
0.3789824785125377
0.3738346122935189
0.3733288736804105
0.3733250632226031
0.3759627125661671
0.3734151692682251
0.3733253473381894
0.3733250568445693
0.3738176238940266
0.3733288042390169
0.3733250246282255
0.3733250545348131
0.3822514972153137
0.3733977016023672
0.3733245993670722
0.373325025814357
0.3733248834653914
0.373324765546952
0.3737025642221401
0.4333119116925518
0.373325054592973
0.3733315173021153
0.3753243540065596
0.4779400241016067
0.3733256937075959
0.3733398562639734
0.3771701402405958
0.5016836274336943
0.3733274057042524
0.3733704003021642
0.3800168289779732
0.520369020582289
0.5326501141816765
0.3830490687811938
0.3733949029649815
0.3733290066916193
0.5499437513617212
0.387266099442924
0.3734679231996167
0.3733331466269921
0.5670145942840881
0.3916666445879649
0.3735152395793145
0.373334574360711
0.5898037329816237
0.3967088687791175
0.3736222327429831
0.3733420406714867
0.3733458248871008
0.3737377100569018
0.403795332704479
0.6095040258498107
0.3733583547288284
0.3739410892963407
0.4103220970365783
0.6104747659771962
0.3733941953886425
0.3741541502720042
0.4099819503554917
0.5755273902195317
0.3733206475058076
0.3737484401840927
0.3970615333818065
0.5095633225347515
0.3734341108339172
0.3750667774946829
0.3942851251600896
0.410860793050158
0.3734740169269583
0.3749732864665916
0.3766375322353855
0.3038700754473972
0.3733836380185456
0.3738469866663566
0.368011997452373
0.2354279698461672
0.3733277289182084
0.3731156829314466
0.3587412017120846
0.2027901314772106
0.2030234964071194
0.3551422004792343
0.3728130795211904
0.3733220193849637
0.1990212984352425
0.352475822317212
0.372712881548561
0.3733204105674318
0.1992871448909879
0.3517855118945472
0.3727747093116865
0.3733219796417298
0.1910494333168418
0.3496953596338791
0.3727300561371278
0.3733220370825936
0.2170831859645924
0.3573375483362325
0.3730646247679078
0.3733239167151781
0.2483907754672526
0.3650768941246021
0.3732429921330589
0.3733247590500904
0.2769129002975591
0.3692009407497275
0.3732954765031887
0.3733249637012395
0.3036617711041761
0.3719603637419871
0.373318774051766
0.3733250204685778
0.328037554792203
0.369337036132149
0.3732216102663501
0.3733240913594861
0.3307179763619417
0.3695641286021243
0.3732242433909722
0.3733240957671967
0.3308319713152874
0.3697159909397213
0.373226735377806
0.3733240969053597
0.3334463007632016
0.3701766581623956
0.3732428537418995
0.373324204732234
0.3036617711037554
0.3719603637407338
0.3733187740508443
0.373325020468917
0.2769129002961978
0.3692009407485072
0.373295476498012
0.3733249637006758
0.2483907754656742
0.365076894124597
0.3732429921317525
0.373324759051265
0.2170831859647433
0.3573375483384624
0.3730646247674947
0.3733239167141602
0.3733220193896182
0.3728130795251736
0.3551422004804441
0.2030234964065912
0.37332041056629
0.3727128815503423
0.3524758223190004
0.1990212984362293
0.3733219796389363
0.3727747093151226
0.3517855118952103
0.1992871448912149
0.3733220370834979
0.3727300561379511
0.3496953596393251
0.1910494333161057
0.2027901314744523
0.3587412017090204
0.3731156829299778
0.3733277289180977
0.2354279698428132
0.368011997449661
0.3738469866638523
0.3733836380127467
0.3038700754467566
0.3766375322323674
0.3749732864675013
0.3734740169225119
0.4108607930506952
0.3942851251595352
0.3750667774924582
0.3734341108390791
0.3733458248858884
0.3737377100668831
0.4037953327048891
0.6095040258522385
0.3733583547298351
0.373941089294938
0.4103220970358861
0.6104747659774193
0.3733941953872811
0.3741541502706587
0.4099819503523519
0.5755273902194343
0.3733206475173731
0.3737484401830439
0.3970615333799216
0.5095633225345469
0.5898037329850678
0.3967088687711324
0.3736222327425149
0.3733420406713466
0.5670145942931138
0.391666644603579
0.373515239585922
0.3733345743619924
0.5499437513656373
0.3872660994508165
0.3734679232046481
0.3733331466258921
0.5326501141823329
0.3830490687699801
0.373394902968109
0.3733290066907863
0.3733248834689258
0.3733247655492892
0.3737025642228852
0.4333119116884
0.3733250545911523
0.3733315172981324
0.3753243540057527
0.4779400241017558
0.3733256937050528
0.3733398562671196
0.3771701402443889
0.5016836274381732
0.3733274057018771
0.373370400295403
0.3800168289771326
0.5203690205808709
0.3733250258123123
0.3733250545363895
0.3733250568446038
0.3733250632222015
0.3733245993625613
0.3733250246289678
0.373325347342488
0.3733288736779732
0.3733977016034445
0.373328804240301
0.3734151692652745
0.3738346122919962
0.3822514972158661
0.3738176238944672
0.375962712565124
0.3789824785127863
0.3733252673473191
0.3733472779575472
0.3748219167203142
0.3825122579509861
0.3733262634716518
0.3733820679862928
0.3759609138655973
0.3861071749817769
0.3733281114340288
0.3734138738223876
0.3769308640232795
0.3895091376544197
0.3733298031502014
0.3734321854713336
0.3776720131987561
0.3924680635241662
0.3733257450468465
0.3733377730582697
0.3753414796091933
0.4126389927557969
0.3733270202065724
0.3733680698560451
0.3775017322920757
0.4038300727644132
0.3733295400316896
0.373412012141231
0.3782854874013401
0.3970194415971856
0.3733304873618496
0.3734368379750861
0.3782087212944162
0.3945900982470678
0.4137880450985425
0.374445807968864
0.3733296017097826
0.3733252738333015
0.4078576787182988
0.3742367396920665
0.3733299451147542
0.3733253319425147
0.4035891563368553
0.3738035505821201
0.3733264046314157
0.3733252359897624
0.3992321286152871
0.3735465715820921
0.3733256256083754
0.3733250790031373
0.3960501879458843
0.3731755893181518
0.3733250556165154
0.3733250556086677
0.3932532043718705
0.3734401709182593
0.3733250556165154
0.3733250556165154
0.3868221860376482
0.3733250607159632
0.3733250556165154
0.3733250556165153
0.3774230654987162
0.3733250302647168
0.3733250556165154
0.3733250556165151
0.3733250556165154
0.3733250556165154
0.3733250556184929
0.3733270952555075
0.3733250556165152
0.3733250556165155
0.3733250556299449
0.3733320072446147
0.3733250556165154
0.3733250556165154
0.3733250557158056
0.3733643780831637
0.3733250556165154
0.3733250556165154
0.3733250577186232
0.3734407353463973
0.3733299218792175
0.3733429997128695
0.3734029389758308
0.3742336068645467
0.3733429997660004
0.3733509229370487
0.3734220202157811
0.3766336945064316
0.3734029390694377
0.3734220199674101
0.3746900247521951
0.3923320661534927
0.3742336067231556
0.37663369434987
0.3923320666184127
0.4466963578185396
0.528402639469538
0.471794482946802
0.4414486146818407
0.4072360481130609
0.5137438106084643
0.5029476710234781
0.5008010349691218
0.4765666787180494
0.5079765675772158
0.5050258839341585
0.5063242712431588
0.4953837161943733
0.5072446046578953
0.5059343492732121
0.5075685652191642
0.4999486907538419
0.5034274735042994
0.5031427023091248
0.5049451614914398
0.5090915576345935
0.5087700530758474
0.5074459043852807
0.5093814960139696
0.514242267874282
0.5106303313488065
0.5098789366396103
0.5113334876622216
0.5153659758732162
0.512541699392468
0.5108512007910628
0.5116059638559792
0.5122543028651747
0.4483361763016329
0.3810237915012318
0.3632978057582368
0.3693439504243585
0.4198284108646953
0.357072067914089
0.3563312646026613
0.3667781959720329
0.3914968804614563
0.3501179420209558
0.358893693635937
0.3693602182447868
0.336015886477002
0.3358450232522964
0.3545202830139499
0.3663918271266787
0.375597239884929
0.3780553063922661
0.3791476966157809
0.3792028974204218
0.3737721223598551
0.3762220473665
0.3773627412345598
0.3786776943296449
0.374646431279006
0.3762650255650756
0.3772559817721431
0.3790453637439156
0.3719761273240092
0.3742156780312343
0.3754668600802949
0.37750542213292
0.379408387071215
0.3779594689163435
0.3752368014941838
0.4597317290116864
0.3790817183048444
0.3775873850537194
0.3756487497715376
0.4945924998410954
0.3795378005157422
0.3780717838854335
0.3773608356773966
0.5087887133357046
0.3789288423474879
0.3772899535300045
0.379093127682174
0.5172065107885077
0.693780184567049
0.7174049826605278
0.7153159029482471
0.7058311331306645
0.7370666310657152
0.7340490799149897
0.7243560657872679
0.7145761203660534
0.722763884996388
0.7213101288978103
0.7244056994085571
0.7216767717860857
0.7424869835976228
0.731275406500692
0.7278181543824787
0.725021568709377
0.6881078653826769
0.6863529438523742
0.6888733915657229
0.7010351654298705
0.6972519586584397
0.6948482903723504
0.6958789526257947
0.7071304439474088
0.7049276377935042
0.7033807289888698
0.7051188603868768
0.715491964848146
0.7102772208197238
0.7072701738242878
0.7084727160510261
0.7186140558705348
0.7085745279425082
0.6937939833346652
0.6575503028195658
0.5710995761183624
0.7140336479778074
0.702000124136551
0.6612396990753007
0.5819569152893836
0.7233106128216741
0.7123429015018123
0.6653083203708324
0.5969870776856313
0.7274915542287017
0.7192850478113081
0.6703421947501068
0.6919414542152911
0.3726122106084969
0.08938259325754647
0.02850213801238488
0.04042547063687577
0.3007313613315247
0.05895024447884439
0.03781413198461705
0.05013163334184277
0.2272954010830195
0.03821591974979503
0.03686011619854996
0.06022119249945452
0.1639979045105775
0.02282364701546614
0.04082502505336279
0.06380993655352615
0.05484493643795367
0.06218606110820267
0.06689478468998764
0.06335933716239646
0.06546960571397896
0.07170576187003315
0.07145397818542981
0.06460184465650626
0.07954504271870977
0.08633297806631596
0.07923507326058565
0.06750994284767353
0.08432219681235421
0.09325115251718685
0.08335796939753949
0.07375860017673672
0.103643840299331
0.1395788907183475
0.1731790480113267
0.2135056313131529
0.09568411594120727
0.1295307306831317
0.1580261144532204
0.1987635072041202
0.08801537551603997
0.1178388305225228
0.1435217260197719
0.1769446744910836
0.07913228801381743
0.1042318643838786
0.1270237131502366
0.1637066205445425
0.1635189769808932
0.1147453540520547
0.07373889240830511
0.07940256029018712
0.1448854425808006
0.09134810249521969
0.08409224893719136
0.09097697570645263
0.1164782455517642
0.07726329531671852
0.1015856124336201
0.100969104192044
0.08536254433974974
0.09240917435163634
0.120307071220711
0.1231287178191264
0.1208726801644341
0.1127212890166851
0.1073000200413726
0.1028295976667792
0.09910965751471953
0.0979571052580672
0.09640875595981838
0.0948316950812763
0.08604650775534892
0.09079654840590454
0.09686112864677769
0.09883759724584469
0.1011608882645877
0.1124231619445464
0.1151249375678524
0.1169197415566578
0.1028295976667934
0.09483169508135014
0.09883759724593545
0.116919741556606
0.1073000200413566
0.09640875596000546
0.09686112864704645
0.1151249375676784
0.1127212890166144
0.09795710525823996
0.09079654840609364
0.1124231619442358
0.1208726801643067
0.09910965751470284
0.08604650775536117
0.1011608882644683
0.07940256029005031
0.07373889240802757
0.1147453540514508
0.1635189769798699
0.0909769757062296
0.08409224893712254
0.09134810249502223
0.1448854425802097
0.1009691041918724
0.101585612433646
0.07726329531663124
0.1164782455515165
0.1231287178189442
0.1203070712206789
0.09240917435173794
0.08536254433956478
0.163706620544136
0.127023713149562
0.1042318643826068
0.07913228801293239
0.1769446744907479
0.1435217260194486
0.1178388305214058
0.0880153755150406
0.1987635072036682
0.1580261144529895
0.1295307306822334
0.09568411594021331
0.2135056313126055
0.1731790480109564
0.1395788907175614
0.1036438402983482
0.06335933716160728
0.06689478468997832
0.06218606110818519
0.05484493643758077
0.06460184465611822
0.07145397818520768
0.07170576186992096
0.0654696057136312
0.06750994284733834
0.0792350732603973
0.08633297806608047
0.07954504271840609
0.07375860017624521
0.08335796939732079
0.09325115251704121
0.08432219681204516
0.0404254706362626
0.02850213801173379
0.08938259325652549
0.3726122106074867
0.05013163334139008
0.03781413198394548
0.05895024447829544
0.3007313613302924
0.06022119249887732
0.03686011619796969
0.03821591974946179
0.2272954010823224
0.0638099365530312
0.04082502505293797
0.02282364701509808
0.1639979045104148
0.5710995761169786
0.6575503028198434
0.6937939833363523
0.7085745279458213
0.5819569152883096
0.6612396990765033
0.7020001241382897
0.7140336479810311
0.5969870776848699
0.6653083203711012
0.7123429015036501
0.7233106128245681
0.6919414542153079
0.6703421947508299
0.7192850478129145
0.7274915542316653
0.7010351654348665
0.6888733915695809
0.6863529438525704
0.6881078653874236
0.7071304439518813
0.6958789526290221
0.6948482903734536
0.6972519586627286
0.7154919648522789
0.7051188603898153
0.703380728990417
0.7049276377973107
0.718614055875034
0.7084727160537347
0.7072701738264728
0.7102772208237179
0.7058311331313694
0.7153159029471239
0.7174049826606894
0.6937801845600711
0.7145761203666167
0.7243560657857844
0.7340490799144634
0.7370666310609276
0.7216767717856314
0.7244056994062529
0.7213101288958569
0.7227638849920934
0.7250215687068731
0.7278181543816921
0.7312754064988991
0.7424869835923974
0.4597317290101142
0.3752368014920534
0.3779594689175597
0.3794083870719843
0.4945924998359179
0.3756487497680037
0.3775873850558567
0.3790817183055801
0.5087887133261809
0.3773608356726289
0.3780717838891831
0.3795378005163609
0.5172065107746877
0.3790931276741667
0.3772899535349511
0.3789288423500812
0.3792028974222424
0.3791476966167474
0.3780553063923291
0.3755972398846841
0.3786776943321605
0.3773627412351603
0.3762220473667264
0.3737721223593923
0.3790453637456714
0.377255981772323
0.3762650255653774
0.3746464312781531
0.3775054221338967
0.375466860081184
0.3742156780312851
0.3719761273230778
0.3693439504224713
0.3632978057572082
0.3810237914998735
0.4483361763017352
0.3667781959698933
0.3563312646014887
0.3570720679126461
0.4198284108651995
0.3693602182426541
0.3588936936350642
0.3501179420187336
0.3914968804625298
0.3663918271244065
0.3545202830128691
0.3358450232485796
0.3360158864773062
0.5090915576335552
0.5049451614872509
0.5031427023116614
0.5034274735081637
0.5142422678719099
0.509381496011806
0.5074459043905069
0.5087700530782699
0.515365975870814
0.5113334876614168
0.5098789366452582
0.5106303313506388
0.512254302865614
0.5116059638560699
0.5108512007949589
0.5125416993929857
0.4999486907544104
0.4953837161851944
0.4765666787135037
0.4072360481582143
0.5075685652154477
0.5063242712344621
0.5008010349685001
0.4414486146649751
0.5059343492701542
0.5050258839307925
0.5029476710240705
0.4717944828734348
0.507244604654208
0.5079765675741732
0.5137438105953674
0.5284026394746925
0.3157916328392362
0.3712935518020612
0.373302583904912
0.3733249510337475
0.3192529137517225
0.3711485368099682
0.3732959516688029
0.3733248732667006
0.3234312938661654
0.3710167664566212
0.3732860546824924
0.373324760088086
0.3255026179916995
0.3706049616620306
0.3732674626846137
0.3733245105060325
0.3733240913601616
0.3732216102687332
0.3693370361281265
0.3280375547839832
0.3733240957682369
0.3732242433935122
0.3695641285995531
0.3307179763588418
0.3733240969035186
0.3732267353782929
0.3697159909403768
0.3308319713150677
0.3733242047266795
0.3732428537437979
0.3701766581599983
0.3334463007627584
0.37332451050298
0.3733247600860622
0.3733248732607124
0.373324951026923
0.3732674626860465
0.3732860546824221
0.3732959516680838
0.3733025839032378
0.3706049616601182
0.3710167664527809
0.3711485368124317
0.3712935518016817
0.3255026179914371
0.3234312938633688
0.3192529137491816
0.3157916328416411
)
;

boundaryField
{
    back
    {
        type            empty;
    }
    inlet
    {
        type            calculated;
        value           nonuniform List<scalar> 
16
(
0.3733250556165154
0.3733250556165154
0.3733250556165154
0.3733250556165154
0.3733250556165154
0.3733250556165155
0.3733250556165152
0.3733250556077188
0.3733250556086677
0.3733250556165154
0.3733250556165154
0.3733250556165151
0.3733250556165154
0.3733250556165152
0.3733250556165154
0.3733250556165154
)
;
    }
    front
    {
        type            empty;
    }
    top
    {
        type            calculated;
        value           nonuniform List<scalar> 
40
(
0.3733250790021743
0.3733252359861344
0.3733253319465861
0.3733252738353968
0.3733257450508576
0.373327020209818
0.3733295400326695
0.3733304873627699
0.3733298031486799
0.3733281114318062
0.3733262634728329
0.373325267350549
0.3733250632226031
0.3733250568445694
0.3733250545348131
0.373325025814357
0.3733248834653914
0.373325054592973
0.3733256937075959
0.3733274057042525
0.3733290066916193
0.3733331466269921
0.373334574360711
0.3733420406714867
0.3733458248871008
0.3733583547288284
0.3733941953886425
0.3733206475058076
0.3734341108339172
0.3734740169269583
0.3733836380185456
0.3733277289182084
0.3733220193849637
0.3733204105674318
0.3733219796417298
0.3733220370825936
0.3733239167151781
0.3733247590500904
0.3733249637012395
0.3733250204685779
)
;
    }
    outlet
    {
        type            calculated;
        value           uniform 0.3733250556165154;
    }
    bottom
    {
        type            calculated;
        value           nonuniform List<scalar> 
40
(
0.373325020468917
0.3733249637006758
0.373324759051265
0.3733239167141602
0.3733220193896182
0.37332041056629
0.3733219796389363
0.3733220370834979
0.3733277289180977
0.3733836380127467
0.3734740169225119
0.3734341108390791
0.3733458248858884
0.3733583547298351
0.3733941953872811
0.3733206475173731
0.3733420406713466
0.3733345743619924
0.3733331466258921
0.3733290066907863
0.3733248834689258
0.3733250545911523
0.3733256937050528
0.3733274057018771
0.3733250258123123
0.3733250545363895
0.3733250568446038
0.3733250632222015
0.3733252673473191
0.3733262634716518
0.3733281114340288
0.3733298031502014
0.3733257450468464
0.3733270202065724
0.3733295400316895
0.3733304873618496
0.3733252738333015
0.3733253319425147
0.3733252359897624
0.3733250790031373
)
;
    }
    wall
    {
        type            calculated;
        value           nonuniform List<scalar> 
104
(
0.528402639469538
0.5137438106084643
0.5079765675772158
0.5072446046578953
0.512541699392468
0.5108512007910628
0.5116059638559792
0.5122543028651747
0.336015886477002
0.3358450232522964
0.3545202830139499
0.3663918271266786
0.3719761273240092
0.3742156780312343
0.3754668600802949
0.37750542213292
0.3789288423474879
0.3772899535300046
0.379093127682174
0.5172065107885077
0.7424869835976228
0.731275406500692
0.7278181543824787
0.725021568709377
0.7102772208197238
0.7072701738242878
0.7084727160510261
0.7186140558705348
0.7274915542287017
0.7192850478113081
0.6703421947501068
0.6919414542152911
0.1639979045105775
0.02282364701546614
0.04082502505336279
0.06380993655352615
0.08432219681235421
0.09325115251718685
0.08335796939753949
0.07375860017673672
0.07913228801381743
0.1042318643838786
0.1270237131502366
0.1637066205445425
0.08536254433974974
0.09240917435163634
0.120307071220711
0.1231287178191264
0.1208726801644341
0.1127212890166851
0.1073000200413726
0.1028295976667792
0.1028295976667934
0.1073000200413566
0.1127212890166144
0.1208726801643067
0.1231287178189442
0.1203070712206789
0.09240917435173794
0.08536254433956478
0.163706620544136
0.127023713149562
0.1042318643826068
0.07913228801293239
0.07375860017624521
0.08335796939732079
0.09325115251704121
0.08432219681204516
0.0638099365530312
0.04082502505293797
0.02282364701509808
0.1639979045104148
0.6919414542153079
0.6703421947508299
0.7192850478129145
0.7274915542316653
0.718614055875034
0.7084727160537347
0.7072701738264728
0.7102772208237179
0.7250215687068731
0.7278181543816921
0.7312754064988991
0.7424869835923974
0.5172065107746877
0.3790931276741668
0.3772899535349512
0.3789288423500812
0.3775054221338968
0.375466860081184
0.3742156780312851
0.3719761273230778
0.3663918271244065
0.3545202830128691
0.3358450232485796
0.3360158864773062
0.512254302865614
0.5116059638560699
0.5108512007949589
0.5125416993929857
0.507244604654208
0.5079765675741732
0.5137438105953674
0.5284026394746925
)
;
    }
}


// ************************************************************************* //
