/*--------------------------------*- C++ -*----------------------------------*\
  =========                 |
  \\      /  F ield         | OpenFOAM: The Open Source CFD Toolbox
   \\    /   O peration     | Website:  https://openfoam.org
    \\  /    A nd           | Version:  11
     \\/     M anipulation  |
\*---------------------------------------------------------------------------*/
FoamFile
{
    format      ascii;
    class       volVectorField;
    location    "0.1355";
    object      U;
}
// * * * * * * * * * * * * * * * * * * * * * * * * * * * * * * * * * * * * * //

dimensions      [0 1 -1 0 0 0 0];

internalField   nonuniform List<vector> 
880
(
(25 -7.768126373978579e-16 0)
(25 3.100435724573847e-16 0)
(25.00000000005238 -9.22191512608304e-11 0)
(24.99998424608015 -3.322072618664026e-06 0)
(25 1.210301178234613e-15 0)
(25 -2.289647212149279e-15 0)
(25.0000000002046 -8.629456947372275e-10 0)
(24.99980823897839 -0.0004277722687342484 0)
(25 0 0)
(25.00000000000001 2.535613030115412e-15 0)
(25.00000000404935 -9.497013738975128e-09 0)
(25.00005305343546 -0.001210580996056361 0)
(25 0 0)
(25 -1.704454933500167e-15 0)
(25.00000011210632 -9.800007341934376e-08 0)
(24.99758954885883 -0.01019040787620036 0)
(25 -5.060057344047324e-16 0)
(25 -3.129416773713825e-15 0)
(25.00000000000001 -1.084191987419952e-11 0)
(24.99999999870193 2.87676512148288e-09 0)
(25 -9.540616395781434e-15 0)
(25 1.762918375063157e-14 0)
(25.00000000000003 1.694729873066941e-12 0)
(25 -5.509935700525675e-12 0)
(25.00001312044412 -1.044106946352416e-05 0)
(24.99995823106898 3.337343147063764e-05 0)
(24.999511050477 0.007996177680201496 0)
(25.00557145271757 -0.01478004926093252 0)
(24.83524473325654 0.03250856968479048 0)
(24.42452070179909 0.3359640079216963 0)
(24.22785994123367 0.731362786511179 0)
(24.17480373106935 1.002871090339638 0)
(24.99999951455069 -1.186572582421648e-06 0)
(25.00000028653718 8.882862813925735e-07 0)
(24.99998479288785 -2.093230800708132e-05 0)
(24.99998681629947 -9.205361342382999e-06 0)
(24.99997076942265 4.330586943665653e-06 0)
(24.999913254118 5.891777634998819e-05 0)
(24.99990395594029 0.0002755570840474503 0)
(24.99991733285722 0.0002114284810147726 0)
(24.98298445394801 0.00541468255704525 0)
(24.97474792596783 0.0237403161177245 0)
(24.97631717566587 0.04742966003322011 0)
(24.9737229132589 0.05117343364468474 0)
(24.17335547454478 1.254863325435789 0)
(24.08123586149835 1.600553062178218 0)
(24.20502876085978 1.742614601504065 0)
(24.00894859519165 2.051935426700211 0)
(24.50845667770901 2.325288641825812 0)
(24.94925136194962 2.238736460805951 0)
(25.33181982475078 1.903983689009072 0)
(25.57309503357947 1.410137153271906 0)
(24.95873839678494 0.09182279429310719 0)
(24.91385180394654 0.1980030273667412 0)
(24.9676888697861 0.2853404214956555 0)
(25.03720096300268 0.2683635421263473 0)
(24.99974909001994 0.0006122415280880001 0)
(24.99879729726788 0.001901847571540199 0)
(24.99826498585859 0.004537443887228785 0)
(24.99963043684557 0.005985768854818811 0)
(24.99996960405434 -2.641614783194592e-05 0)
(24.99992587037487 -7.334319353789714e-05 0)
(24.99982276293752 -0.000176494796309057 0)
(24.9997240348207 -0.0002163061242610672 0)
(24.99971242904103 -0.0001988468996662306 0)
(24.99975771199614 -0.000140664089474685 0)
(24.99986095627526 -6.691888724281165e-05 0)
(24.99995519234729 -1.939811100641067e-05 0)
(25.00066707438744 0.005651447458450747 0)
(25.00133883681529 0.004567916819431123 0)
(25.00129679873339 0.002658790936555406 0)
(25.00062122827012 0.0009233462902644144 0)
(25.06830553327638 0.2330838723709913 0)
(25.0825477324893 0.1736371137913715 0)
(25.07291830960862 0.1108005816095682 0)
(25.04545465445792 0.05529249218388532 0)
(25.65512110461921 0.9316082583111207 0)
(25.6052396251542 0.6070816605914398 0)
(25.49972702714485 0.3971359804084205 0)
(25.37012829492023 0.2538950489575152 0)
(25.23206646471697 0.1433089926941347 0)
(25.01660218581055 0.01686292196152841 0)
(25.00012078282077 0.0001441360102201723 0)
(24.999993516902 -2.568098783382074e-06 0)
(25.10873919365439 0.06114965946453582 0)
(25.00309802836832 0.002916623159720774 0)
(25.00000888859785 1.186022132875466e-05 0)
(24.99999956711932 -1.738768767406183e-07 0)
(25.02184499057073 0.01121869437677175 0)
(25.00022263410546 0.0001008309969988424 0)
(25.00000154114429 -2.848981135674533e-06 0)
(24.99999995034072 -8.642447359851772e-08 0)
(24.67987362883439 0.2612924496230652 0)
(24.99769084108933 0.002915199685031615 0)
(25.00002248088397 5.116442921887574e-06 0)
(25.00000841326865 -1.605489787398318e-06 0)
(24.99999956116627 -6.461354164878403e-06 0)
(25.00000645312103 -2.675628767861121e-05 0)
(24.9821797073769 0.00694591828421454 0)
(22.28550246593743 0.9572281723038718 0)
(24.99999108668711 -6.568030065728073e-06 0)
(24.99985131364838 0.0001072618604513279 0)
(24.92000202856044 0.03698563094851363 0)
(20.67837347372722 2.297548080787172 0)
(24.99998689055963 -2.987522460150266e-05 0)
(24.99916168011796 0.0005827946713250697 0)
(24.81858019174476 0.1249125263513317 0)
(19.84313344700104 3.752805103895296 0)
(24.99989486316905 -9.292328211718613e-05 0)
(24.99886936699086 0.001803410189726427 0)
(24.73893639369994 0.2340102946121184 0)
(19.57214365236268 5.061578938014301 0)
(19.26037093412919 6.413826524945667 0)
(24.62197032457125 0.4347676433014223 0)
(24.99740202059824 0.003573171356209426 0)
(24.99986375492108 -0.0001763893894132688 0)
(19.3432031840767 7.251864434191226 0)
(24.55640491402611 0.626768846766917 0)
(24.99755622070291 0.007323355733951539 0)
(24.99962066366917 -0.0003418982670810569 0)
(19.30376662037462 8.027916536358518 0)
(24.46395015466969 0.8461825343881957 0)
(24.99543090864167 0.009339238287540118 0)
(24.99958700248112 -0.0004396524934001893 0)
(19.37831771309963 8.468350698728168 0)
(24.34557803086298 1.114631119122526 0)
(24.99435243519501 0.01621909711214808 0)
(24.99922862777641 -0.0007312801288121959 0)
(24.99897521192125 -0.0009628504320820354 0)
(24.99272707579204 0.01956122202138308 0)
(24.19718223080324 1.36219657383676 0)
(19.04910147282551 9.004056983611294 0)
(24.99856954952457 -0.001491416702050665 0)
(24.9856437159221 0.03214495311992797 0)
(23.99490133206118 1.776447114941456 0)
(19.50023913931165 9.219262514137787 0)
(24.99867343159199 -0.002762706298637815 0)
(24.98788836458779 0.04499812222686148 0)
(24.21216560399668 1.795215597699314 0)
(20.70711059532344 8.634082957879137 0)
(24.99689695617614 -0.001083508858688875 0)
(24.9841004897311 0.02352678740310269 0)
(24.44136140300714 1.285838700363669 0)
(22.64617650474843 6.867456028512807 0)
(24.99685269124149 -0.001915533744807412 0)
(25.00035494917667 0.09999205943418936 0)
(25.23812537346631 1.439951047698666 0)
(26.19438625038397 4.462944134680892 0)
(24.99320771033099 -0.001034218093223519 0)
(25.06843352307856 0.08557646993877328 0)
(25.68452866893782 0.7076704645929548 0)
(28.40223913894885 1.852844974297362 0)
(24.99836799908239 -0.0001755076827214526 0)
(25.06162761427327 0.02199138556787097 0)
(25.59534173025273 0.00950541378640178 0)
(27.92562363292785 -0.678330741966533 0)
(25.00033575040447 -0.000342420053322347 0)
(25.01542918213844 -0.01716605086060582 0)
(25.12241655023279 -0.5018726886689968 0)
(24.47178307061015 -2.791648748658176 0)
(21.23130726231158 -3.834573226765966 0)
(24.74400594655429 -0.6934977112375625 0)
(24.99195015759497 -0.02742531321612094 0)
(25.00000476510867 -0.0004869740270907791 0)
(19.1359018620617 -4.394881680980161 0)
(24.41859533118436 -0.7372412987405412 0)
(24.98090464975913 -0.03079842726018723 0)
(24.99978316748645 -0.0003339767197982414 0)
(18.32391262114817 -3.538883623014222 0)
(24.24494078860988 -0.5959208194953707 0)
(24.97906423733312 -0.02236012351922078 0)
(24.99992675832147 -0.0001356888838570221 0)
(17.0386671828945 -2.681152710661863 0)
(24.06949278456746 -0.5364876874965688 0)
(24.97506136590735 -0.01990208234352854 0)
(24.99990646974271 -0.0001251774070188035 0)
(18.21358961262294 -0.8172785477411859 0)
(24.30368206992009 -0.2379207211308603 0)
(24.98759374123292 -0.00736705373496825 0)
(24.99996067074088 -3.972275283841317e-05 0)
(20.07338168363321 0.4426804524514314 0)
(24.61758543205541 -0.1095515972866838 0)
(24.99599801061339 -0.002403139678112198 0)
(24.99998955765674 -1.012690399581486e-05 0)
(21.79690456043443 0.6686926225155433 0)
(24.81562993986794 -0.05964185868444521 0)
(24.99873206995495 -0.0008812054692523781 0)
(24.99999741184685 -3.294076023414995e-06 0)
(23.28745453803749 0.6487595877583131 0)
(24.94795498032273 -0.06727076247164272 0)
(24.99997221406582 -0.000609650677887963 0)
(24.99999946196688 -1.971057699249338e-06 0)
(23.0507694510806 -0.247382974206108 0)
(24.84162091420557 -0.00766681289854648 0)
(24.99546478974499 -7.89055023239673e-05 0)
(24.99995686896979 -3.094438365062728e-07 0)
(23.21463341866064 -0.6205465355109638 0)
(24.85069313885312 -0.01917393659142531 0)
(24.9955018022533 -0.0001818292445689853 0)
(24.99995650188997 -6.643776283758226e-07 0)
(23.13018131943872 -0.9117993819049698 0)
(24.84486751369324 -0.0391410664530153 0)
(24.99540826538389 -0.000353595853364802 0)
(24.99995513018066 -8.798557958307014e-07 0)
(23.0838800776472 -0.8944838574813456 0)
(24.85483652085451 -0.05421227924801951 0)
(24.99550678996781 -0.00087922644134969 0)
(24.99995270337952 -5.013821247145101e-06 0)
(23.28745453812097 -0.6487595878353458 0)
(24.94795498037664 0.06727076249512499 0)
(24.99997221418275 0.0006096507616256757 0)
(24.99999946178555 1.971324380100193e-06 0)
(21.79690456046512 -0.6686926223443517 0)
(24.81562993995772 0.05964185871593945 0)
(24.99873207019282 0.0008812055601875742 0)
(24.99999741181503 3.293957111637011e-06 0)
(20.0733816835918 -0.4426804522413789 0)
(24.61758543197076 0.109551597487927 0)
(24.99599801060038 0.002403139862018488 0)
(24.99998955765481 1.012691473057888e-05 0)
(18.21358961249634 0.8172785476301657 0)
(24.30368206971294 0.2379207209994472 0)
(24.98759374118319 0.007367053653804124 0)
(24.99996067080615 3.972273307029985e-05 0)
(25.00000476490229 0.0004869738997646977 0)
(24.99195015748135 0.02742531300675454 0)
(24.74400594648249 0.6934977111162728 0)
(21.23130726222202 3.834573226736151 0)
(24.99978316719516 0.0003339768899155447 0)
(24.98090464967818 0.0307984272877038 0)
(24.41859533115781 0.7372412986334769 0)
(19.13590186202225 4.394881680814952 0)
(24.99992675852049 0.0001356888569775925 0)
(24.97906423714732 0.02236012345939462 0)
(24.24494078859886 0.5959208194949885 0)
(18.32391262110833 3.538883622905537 0)
(24.99990646971795 0.0001251773966280037 0)
(24.97506136584 0.01990208241020196 0)
(24.06949278436693 0.5364876873355106 0)
(17.03866718291459 2.681152710759096 0)
(24.47178307077212 2.791648748791211 0)
(25.12241655037327 0.5018726887298228 0)
(25.01542918231691 0.01716605065789634 0)
(25.00033575059728 0.0003424198727231521 0)
(27.92562363313422 0.6783307420611798 0)
(25.59534173042229 -0.009505413757094889 0)
(25.06162761447582 -0.02199138532361574 0)
(24.99836799949572 0.0001755076068255118 0)
(28.40223913894673 -1.852844974306148 0)
(25.68452866911585 -0.707670464561126 0)
(25.06843352314578 -0.08557646992260932 0)
(24.99320771033088 0.001034218579603076 0)
(26.1943862503641 -4.462944134698039 0)
(25.23812537355669 -1.439951047742292 0)
(25.00035494923748 -0.09999205919333821 0)
(24.99685269072747 0.001915533751893892 0)
(24.99897521199185 0.0009628504978313158 0)
(24.9927270758696 -0.01956122206201184 0)
(24.19718223073328 -1.362196573684187 0)
(19.04910147270333 -9.004056983510496 0)
(24.99856954953003 0.001491416679490432 0)
(24.98564371568198 -0.03214495330847846 0)
(23.99490133198407 -1.776447114897622 0)
(19.50023913931046 -9.219262514087934 0)
(24.99867343103525 0.00276270628875406 0)
(24.98788836455167 -0.04499812214208898 0)
(24.21216560408308 -1.79521559761251 0)
(20.7071105953401 -8.634082957855789 0)
(24.99689695648779 0.001083508678305575 0)
(24.98410048965361 -0.0235267872418335 0)
(24.44136140303052 -1.285838700255317 0)
(22.6461765047689 -6.867456028524153 0)
(19.37831771282055 -8.468350698744667 0)
(24.34557803062666 -1.114631119315961 0)
(24.99435243455952 -0.01621909736587042 0)
(24.99922862777554 0.0007312801366371518 0)
(19.30376662018382 -8.027916536321301 0)
(24.46395015438362 -0.8461825343786697 0)
(24.99543090882803 -0.009339238204145369 0)
(24.99958700240729 0.000439652482050155 0)
(19.34320318410877 -7.251864434168906 0)
(24.5564049140929 -0.6267688465529606 0)
(24.99755622055195 -0.007323355974805668 0)
(24.99962066375156 0.000341898265871981 0)
(19.26037093402412 -6.413826524974623 0)
(24.62197032484783 -0.4347676436126519 0)
(24.9974020206298 -0.003573171353052668 0)
(24.99986375499137 0.0001763893888675078 0)
(24.99999956107705 6.461381379531334e-06 0)
(25.00000645300931 2.675631003859977e-05 0)
(24.98217970743898 -0.006945918195663017 0)
(22.2855024659908 -0.9572281722916901 0)
(24.99999108677876 6.568025857707543e-06 0)
(24.99985131388569 -0.0001072618129605916 0)
(24.92000202836736 -0.03698563105457465 0)
(20.67837347398655 -2.297548080760452 0)
(24.99998689071583 2.987521672545205e-05 0)
(24.99916168009747 -0.0005827945602594355 0)
(24.81858019170361 -0.124912526189904 0)
(19.84313344681702 -3.752805103940744 0)
(24.99989486337282 9.29232867659451e-05 0)
(24.99886936678914 -0.001803410346212162 0)
(24.73893639367889 -0.234010294707149 0)
(19.57214365235944 -5.061578937966365 0)
(25.00000841318314 1.605482376142564e-06 0)
(24.99999995025249 8.643112984880348e-08 0)
(24.9999995671071 1.738647325111316e-07 0)
(24.99999351691904 2.568130459674204e-06 0)
(25.00002248100527 -5.116411897938377e-06 0)
(25.00000154111363 2.848940513421285e-06 0)
(25.00000888841586 -1.186020614382997e-05 0)
(25.00012078292776 -0.0001441359416843492 0)
(24.99769084104359 -0.0029151996994717 0)
(25.00022263404301 -0.0001008309713068589 0)
(25.00309802855181 -0.002916623099702674 0)
(25.01660218582635 -0.01686292214405705 0)
(24.67987362884557 -0.2612924495336703 0)
(25.02184499053571 -0.01121869429969964 0)
(25.1087391935946 -0.06114965966641688 0)
(25.23206646475229 -0.143308992565211 0)
(24.9999551925398 1.93980915947043e-05 0)
(25.000621228285 -0.0009233463884663454 0)
(25.04545465426601 -0.0552924922620083 0)
(25.37012829484825 -0.2538950489012958 0)
(24.99986095633832 6.691885744065163e-05 0)
(25.00129679878867 -0.002658790914306072 0)
(25.0729183094282 -0.1108005814352868 0)
(25.49972702712699 -0.3971359803114538 0)
(24.99975771182994 0.0001406641145426341 0)
(25.00133883683766 -0.004567916844875741 0)
(25.08254773256972 -0.1736371138511395 0)
(25.60523962518036 -0.6070816606041826 0)
(24.99971242901473 0.0001988469691418934 0)
(25.00066707433647 -0.005651447601735317 0)
(25.06830553320472 -0.2330838723330901 0)
(25.6551211047208 -0.9316082582460458 0)
(24.99996960427464 2.641604513757248e-05 0)
(24.99974909016327 -0.0006122416262279905 0)
(24.95873839652569 -0.09182279456773748 0)
(24.50845667770741 -2.32528864191781 0)
(24.99992587060381 7.334313967436273e-05 0)
(24.9987972973338 -0.001901847489414917 0)
(24.91385180389486 -0.1980030274124641 0)
(24.94925136206529 -2.238736460905968 0)
(24.99982276303368 0.0001764948236728889 0)
(24.99826498565614 -0.004537443787244413 0)
(24.96768886979146 -0.2853404214943361 0)
(25.33181982485632 -1.903983689060823 0)
(24.99972403489993 0.0002163061477510588 0)
(24.99963043670184 -0.005985768890975464 0)
(25.03720096305683 -0.2683635420599902 0)
(25.5730950336571 -1.410137153344826 0)
(24.00894859520012 -2.051935426578557 0)
(24.97372291294381 -0.05117343364080597 0)
(24.99991733299594 -0.0002114285362231574 0)
(24.99998681642585 9.205289442371954e-06 0)
(24.20502876074936 -1.742614601547124 0)
(24.97631717556794 -0.04742965986844903 0)
(24.99990395598025 -0.0002755571217728993 0)
(24.99998479259934 2.09325538188887e-05 0)
(24.08123586137136 -1.600553062006142 0)
(24.97474792649479 -0.02374031572850771 0)
(24.99991325407784 -5.89177558805871e-05 0)
(25.00000028677961 -8.884794970521888e-07 0)
(24.17335547447255 -1.254863325561709 0)
(24.98298445455237 -0.005414682852246786 0)
(24.99997076946924 -4.330551519409508e-06 0)
(24.99999951448395 1.186573634681012e-06 0)
(24.17480373095993 -1.002871090350499 0)
(25.00557145196956 0.01478004901748439 0)
(25 5.670940577973253e-12 0)
(24.99999999865502 -2.856380755126989e-09 0)
(24.2278599412564 -0.7313627864761126 0)
(24.99951105099738 -0.007996177358287613 0)
(25 -1.755664156701041e-12 0)
(25.00000000000001 1.096840814452912e-11 0)
(24.42452070173599 -0.3359640078315019 0)
(24.99995823113091 -3.337341950669304e-05 0)
(25 -7.764349128782183e-15 0)
(25.00000000000001 2.15775140803898e-15 0)
(24.83524473316382 -0.03250856979667129 0)
(25.00001312049335 1.044106492874026e-05 0)
(25 -1.805971265009151e-15 0)
(25.00000000000002 -7.242018606710428e-15 0)
(25 1.420908939734042e-15 0)
(25 2.50771806236399e-15 0)
(25.00000000003279 9.371676295888722e-11 0)
(24.99998424861827 3.321913693915278e-06 0)
(24.99999999999999 -2.843418720158383e-19 0)
(25 4.189447867365752e-15 0)
(25.00000000018976 8.640002432958403e-10 0)
(24.99980824011685 0.0004277724281661732 0)
(25 -1.366459512028481e-15 0)
(25 -3.427456289566661e-15 0)
(25.00000000403841 9.487191163101627e-09 0)
(25.00005305355723 0.001210581127941212 0)
(25 -2.89471115742049e-15 0)
(25 -1.660745363754296e-15 0)
(25.00000011222165 9.796951891521677e-08 0)
(24.99758954896203 0.01019040805013656 0)
(24.99995209324157 -1.434271415792634e-09 0)
(24.99979832542562 0.000566360571090891 0)
(24.99878550914143 0.002251114322833851 0)
(24.96947183343676 0.002859877620374928 0)
(24.99979832235402 -0.0005663701948970236 0)
(24.99972648607251 -7.000343224824498e-09 0)
(24.99741714711745 -0.0007255149392071198 0)
(24.86813497869039 -0.04764111057997559 0)
(24.9987855021444 -0.002251116647197679 0)
(24.99741714565048 0.0007255069124392612 0)
(24.93877329895132 1.989838026416631e-08 0)
(24.16857570290064 -0.1831993490102035 0)
(24.9694718300118 -0.002859876856768603 0)
(24.86813498444765 0.04764109688490664 0)
(24.1685757173793 0.1831993713397365 0)
(21.56931852476939 -8.391457511155827e-09 0)
(19.19046879897481 2.471053091275755 0)
(20.21573191679006 3.12653780744221 0)
(22.71179542274222 2.295383632133158 0)
(24.03483370706707 1.068211679628615 0)
(19.74045091634131 4.464477215723166 0)
(19.96595111190338 4.603118971515372 0)
(20.98153118342563 4.40798602749258 0)
(22.2335988952861 3.659457621581162 0)
(20.06697491281053 5.551394561675426 0)
(20.81327951913828 4.87479888437685 0)
(21.56909947531142 5.076453851745051 0)
(22.45366962609831 4.792084145533472 0)
(20.71092271821892 6.023831135552528 0)
(21.4631792731615 5.099460556087377 0)
(22.04046401470413 5.270524267400354 0)
(22.6460343444936 5.090337009021387 0)
(22.83301639751579 5.175209236289713 0)
(22.95707651455701 5.335415239571257 0)
(23.10222995625183 5.420277682583696 0)
(23.08072215759744 5.669578647579645 0)
(22.48056391766459 5.398358296734335 0)
(22.79669480847508 5.501092744291223 0)
(22.96939065838029 5.546795754020311 0)
(23.51832358488276 5.948440724451689 0)
(21.97965813313809 5.308228664487221 0)
(22.55471115667032 5.510349778738191 0)
(22.79696379779343 5.600811693433983 0)
(25.00102566072905 6.375240224265109 0)
(20.77928742474419 6.178923005914598 0)
(21.005214127356 5.945922160203569 0)
(21.29762105034655 5.566265361448717 0)
(26.81904231029638 7.553111874748994 0)
(25.18200399375164 4.177352221807525 0)
(26.98084903127272 1.609495013793016 0)
(26.53888235331977 0.3073232994190255 0)
(26.25306773285241 0.2515927968389348 0)
(26.60671913346155 3.352491259468032 0)
(28.52641020772239 0.4793478587432425 0)
(27.63917406230329 0.01157901332016933 0)
(27.04041214880695 0.1570170156010395 0)
(29.40439274512769 2.680279282415981 0)
(30.02053629286919 -0.1142390413180712 0)
(28.42281016246395 -0.1252600129349299 0)
(27.38358794653313 0.03122657783080635 0)
(21.59702830955401 1.668298023618483 0)
(22.26351855264188 0.6821607983402234 0)
(22.35317477252914 0.1055250979834212 0)
(22.40126931502867 0.007130761931152583 0)
(26.00721631923683 0.1566716206742013 0)
(25.82569741564066 0.08766845807630316 0)
(25.63878705739589 0.0736504272604582 0)
(25.47797859412385 0.06883452800079128 0)
(26.50597502770998 0.151265584028104 0)
(26.18578891798213 0.0761016764584887 0)
(25.88392091885952 0.04148758265567901 0)
(25.6631691221265 0.03392271532924142 0)
(26.76127067934433 -0.02079429258014427 0)
(26.37485179263722 -0.08393327518158866 0)
(26.05738750814685 -0.07801061230092386 0)
(25.82148925610196 -0.04429224551763932 0)
(22.74189894060069 -0.2086477733722828 0)
(23.30968746314896 -0.4603111182445506 0)
(23.89228356331576 -0.5264161742068788 0)
(24.4119524857125 -0.4206677823874392 0)
(25.39264688364034 0.02467858592135139 0)
(25.25700345255254 0.05243642268276603 0)
(25.0755081415277 0.022791184873942 0)
(22.0845623264306 3.033814233409161 0)
(25.53038321698052 0.009244760655438512 0)
(25.36470220758498 0.009597163502918111 0)
(25.1380565286664 0.03507228296245894 0)
(19.47901243582153 3.428944050448477 0)
(25.6497128260587 -0.02781941933073733 0)
(25.46141909643664 -0.03338736056687469 0)
(25.15953501422989 0.03709207461991729 0)
(16.76746499716295 2.382528994183922 0)
(24.73136692825878 -0.2935559365141062 0)
(24.84509184695976 -0.2454519772205983 0)
(24.69484675028151 -0.03909894476462344 0)
(11.76266557619547 0.6245238498688084 0)
(14.91175276668512 7.619957258679783 0)
(15.10311996059296 7.826393739986726 0)
(15.23164734057865 8.655287837246712 0)
(15.81377165952622 9.567780727654798 0)
(12.82612188261164 7.851508533848553 0)
(14.25676361490681 8.045112947994278 0)
(14.99085340670693 8.879471995704417 0)
(15.7268760588237 9.742529267426216 0)
(10.34657969197901 6.725950411257751 0)
(12.49648308830258 7.672658400963972 0)
(14.1222526539195 8.910042513803084 0)
(15.32933987892057 9.805879318714485 0)
(6.877553147324814 2.771557499250477 0)
(9.327929604283302 4.154902964636547 0)
(11.76612472336777 6.258014459106297 0)
(13.45793688358693 8.368572289780662 0)
(16.04874783960015 10.44399588107849 0)
(16.23736415662402 10.81876465598777 0)
(16.46013496354749 11.10929952935677 0)
(16.66178708824302 11.17007722070055 0)
(16.05831664818894 10.40333041864087 0)
(16.21352393993353 10.69667777964115 0)
(16.39827028454842 10.92611755264219 0)
(16.59422342555068 11.01550543590147 0)
(15.86515987446276 10.36354054774997 0)
(16.08354487702958 10.64186830900136 0)
(16.29016211254165 10.85645670756889 0)
(16.47209999678339 10.96093503509417 0)
(14.57179857038957 9.79806111423669 0)
(14.95377516138782 10.60674017087368 0)
(15.3120219818761 10.74802688693363 0)
(15.42503932137194 10.80187224056071 0)
(16.92661073997225 11.29146448006535 0)
(17.51764595785684 11.27059924016484 0)
(19.05836817665152 10.84064970652866 0)
(21.23673168809346 9.695991730277564 0)
(16.89963033200492 11.14560099718208 0)
(17.47118641329577 11.14664294201027 0)
(18.8036721268391 10.92286028646773 0)
(22.01844666843919 11.44458929119112 0)
(16.77867013809152 11.10422834681589 0)
(17.21914175998643 11.10695763497265 0)
(19.08103359310441 11.3961917696639 0)
(27.3073862106833 16.74505428580029 0)
(15.99626797254916 11.00312885788517 0)
(16.75476315039775 10.77827180435789 0)
(19.44535550781174 11.79480329847685 0)
(37.63951825369341 22.41655071183021 0)
(26.51283457880824 5.346427402528818 0)
(30.21469307610578 -2.377217455966028 0)
(8.637183079997905 -5.076982645196865 0)
(5.88061989189022 -0.6567502999061297 0)
(27.59483765764156 4.824701244143482 0)
(25.32529688932035 -1.974571675767277 0)
(4.799194623071858 -4.6111484630347 0)
(2.872294707109903 0.6971362209114431 0)
(27.17272096221993 4.104326954188057 0)
(17.57570547081402 -5.742808799718945 0)
(1.952365466653515 -1.604247628579838 0)
(1.505749203742663 1.275120775196581 0)
(17.66107828336976 -6.772763151920106 0)
(6.781937972251108 -6.90109694010329 0)
(0.03915171509920737 0.9253260700369295 0)
(0.3053840131512021 0.7548621859770797 0)
(3.178637815347792 -0.3995423415348259 0)
(1.152067793556077 -0.8735302881858237 0)
(-0.04995839708906578 -0.7495441468783947 0)
(-1.426014970551967 0.636928814036986 0)
(1.443035020568912 1.501508530834089 0)
(-0.1658805273957914 1.204312412547158 0)
(-1.099483335000159 1.457580303841356 0)
(-1.284553670319132 2.49492648886539 0)
(0.6065117625167544 1.187245912509131 0)
(-0.1129342242524219 1.756522738205257 0)
(-0.03540325550918509 2.844631122916775 0)
(-0.7563168168965014 4.018855496630826 0)
(0.2005837103825241 0.6298175666245519 0)
(-0.09273191140360131 1.804916512420943 0)
(-0.3899396466476953 3.720613496786108 0)
(-1.170372552958377 4.371837511923665 0)
(6.207573148259099 -4.005040919134916 0)
(13.46151958826888 -4.819286743198083 0)
(18.20455273861477 -4.566571720833505 0)
(22.01161154469614 -4.02024514075767 0)
(2.620899728199813 -1.289243619831801 0)
(10.08019060919414 -2.742117787920609 0)
(15.74912209140664 -3.467164047714943 0)
(20.33860439559268 -4.224504539328762 0)
(-1.148833061115266 -1.079100029721806 0)
(4.345370933783488 -2.552660809732556 0)
(11.33793297251299 -3.721323356809584 0)
(19.22964827291248 -3.439250894876059 0)
(-2.05661754843182 1.14329506470038 0)
(1.417982439236907 0.7589767196970997 0)
(8.946632473657166 1.701076195393099 0)
(21.97477796050683 -1.742215946247379 0)
(23.10663166204592 -7.696719686718949 0)
(23.50915183575265 -13.86727168393152 0)
(23.61828333011342 -19.17929088832988 0)
(21.59732906710151 -15.18443271787506 0)
(21.58595804910748 -8.256152479933684 0)
(22.28746570877552 -16.07964250848753 0)
(20.3707295291469 -14.2513585085723 0)
(15.41491274997047 -4.412225363045557 0)
(20.88343955053426 -10.25309100239394 0)
(18.64957701312476 -13.73288033618409 0)
(12.21769494592095 -3.865841278869709 0)
(5.929415537656532 1.338841815018871 0)
(15.21789884203852 -11.01793024681244 0)
(5.781096088962667 -5.859115746440352 0)
(3.731547830860264 2.010823037054126 0)
(1.299997043218845 4.097715149727777 0)
(-0.5517217140302763 4.365737015816101 0)
(-1.52170465555418 2.98561930944445 0)
(-2.283680806979785 1.873959973844567 0)
(-2.122505947802479 0.7562830181536331 0)
(1.60412748364882 2.436760142238469 0)
(-1.082012912606182 2.067178430851886 0)
(-3.053378734718373 1.382973750012352 0)
(-3.62081556095365 0.3757973849238951 0)
(7.090344513793473 -2.489936909698898 0)
(0.9106553511675481 -1.37553128359921 0)
(-2.594629436429554 -0.6587281045814465 0)
(-3.70341985260225 -0.2795743115104167 0)
(15.72746682079923 -7.685604054854739 0)
(9.361687099636951 -4.135287090433433 0)
(5.377664137428314 -2.464090689973788 0)
(4.326939377438999 -0.7505838857548129 0)
(-2.122505947798912 -0.7562830181399854 0)
(-3.620815560949806 -0.3757973849397039 0)
(-3.703419852598773 0.2795743114597551 0)
(4.326939377337946 0.7505838856016319 0)
(-2.283680806968458 -1.873959973837015 0)
(-3.05337873471232 -1.382973750014021 0)
(-2.594629436429544 0.6587281045206366 0)
(5.377664137406442 2.464090689828482 0)
(-1.521704655554341 -2.985619309445145 0)
(-1.082012912614094 -2.067178430849403 0)
(0.9106553511523788 1.375531283516538 0)
(9.361687099600882 4.135287090275892 0)
(-0.5517217140351157 -4.365737015820219 0)
(1.60412748363454 -2.436760142246526 0)
(7.090344513760442 2.489936909638493 0)
(15.72746682076064 7.685604054723537 0)
(21.59732906711046 15.18443271778702 0)
(23.61828333018577 19.17929088830815 0)
(23.50915183586419 13.86727168391729 0)
(23.10663166214995 7.696719686732548 0)
(15.41491274995549 4.412225362982598 0)
(20.37072952913716 14.25135850851356 0)
(22.28746570880384 16.07964250846917 0)
(21.58595804916718 8.256152479938979 0)
(5.929415537651014 -1.338841815053848 0)
(12.21769494592272 3.865841278830962 0)
(18.64957701310325 13.73288033616263 0)
(20.88343955055232 10.2530910023936 0)
(1.299997043216131 -4.09771514974824 0)
(3.731547830851373 -2.010823037070594 0)
(5.781096088958978 5.859115746385112 0)
(15.21789884204524 11.01793024680534 0)
(21.97477796052279 1.74221594624565 0)
(8.946632473643431 -1.701076195416497 0)
(1.417982439213965 -0.7589767197230789 0)
(-2.056617548416128 -1.143295064697459 0)
(19.22964827292288 3.439250894872654 0)
(11.3379329724609 3.721323356827313 0)
(4.34537093368957 2.552660809682734 0)
(-1.148833061125356 1.079100029679641 0)
(20.33860439562569 4.224504539327589 0)
(15.7491220913403 3.467164047775389 0)
(10.08019060906558 2.742117787829551 0)
(2.62089972814099 1.289243619744504 0)
(22.01161154476047 4.020245140734517 0)
(18.20455273851491 4.566571720944365 0)
(13.46151958814101 4.81928674314164 0)
(6.207573148198501 4.005040919005014 0)
(-1.426014970465635 -0.6369288139954279 0)
(-0.04995839713304144 0.7495441469192494 0)
(1.152067793474892 0.8735302880513264 0)
(3.178637815294715 0.3995423413605311 0)
(-1.284553670234925 -2.494926488833331 0)
(-1.0994833350013 -1.457580303783663 0)
(-0.1658805274729498 -1.204312412638322 0)
(1.443035020562076 -1.501508531025611 0)
(-0.7563168168497509 -4.018855496577692 0)
(-0.03540325552011653 -2.84463112285186 0)
(-0.1129342242936242 -1.75652273827477 0)
(0.6065117625015497 -1.18724591268949 0)
(-1.170372552928923 -4.371837511865974 0)
(-0.3899396466323808 -3.720613496715514 0)
(-0.09273191142386292 -1.804916512477497 0)
(0.2005837103617399 -0.6298175667435946 0)
(5.880619891949404 0.6567502998997646 0)
(8.637183079889727 5.076982645180611 0)
(30.21469307614825 2.377217455961057 0)
(26.51283457883891 -5.346427402553289 0)
(2.87229470718325 -0.6971362210442807 0)
(4.799194623088935 4.611148462990217 0)
(25.32529688938883 1.974571675717387 0)
(27.59483765773811 -4.824701244178061 0)
(1.505749203772457 -1.275120775330675 0)
(1.952365466592766 1.60424762854958 0)
(17.57570547086513 5.742808799715632 0)
(27.17272096230944 -4.104326954283649 0)
(0.3053840131233898 -0.7548621861117577 0)
(0.03915171506493929 -0.9253260700888734 0)
(6.781937972321786 6.90109694010382 0)
(17.66107828345492 6.772763151882883 0)
(21.23673168809324 -9.695991730267668 0)
(19.05836817659256 -10.84064970648878 0)
(17.51764595780328 -11.27059924011929 0)
(16.92661073986991 -11.29146447996145 0)
(22.0184466684657 -11.44458929121225 0)