/*--------------------------------*- C++ -*----------------------------------*\
  =========                 |
  \\      /  F ield         | OpenFOAM: The Open Source CFD Toolbox
   \\    /   O peration     | Website:  https://openfoam.org
    \\  /    A nd           | Version:  11
     \\/     M anipulation  |
\*---------------------------------------------------------------------------*/
FoamFile
{
    format      ascii;
    class       volScalarField;
    location    "19.6";
    object      p;
}
// * * * * * * * * * * * * * * * * * * * * * * * * * * * * * * * * * * * * * //

dimensions      [0 2 -2 0 0 0 0];

internalField   nonuniform List<scalar> 
5472
(
109.97632
108.22107
106.52435
104.83901
103.15014
101.51396
99.94217
98.45197
97.007518
95.673865
94.466838
93.350826
92.365133
91.508314
90.816801
90.252648
89.832261
89.529044
89.354932
110.31744
108.71968
107.12921
105.57157
104.00015
102.43724
100.92626
99.478691
98.072185
96.7526
95.555238
94.450249
93.469705
92.605985
91.890109
91.268383
90.788307
90.510166
90.309646
110.57681
109.17497
107.73673
106.24189
104.77879
103.32763
101.88128
100.47274
99.107468
97.821303
96.623298
95.530839
94.543207
93.666502
92.918262
92.279057
91.804599
91.477158
91.265299
110.84334
109.55774
108.22608
106.86631
105.5163
104.14429
102.77399
101.42643
100.10119
98.843525
97.667204
96.578205
95.577781
94.705292
93.93418
93.286996
92.791764
92.430687
92.211139
111.0199
109.84312
108.65184
107.42688
106.17673
104.90952
103.61042
102.29145
101.03036
99.802854
98.646914
97.57308
96.58049
95.703796
94.921789
94.278923
93.748098
93.374447
93.136075
111.1517
110.07079
108.97838
107.90275
106.79019
105.59463
104.35314
103.12162
101.91456
100.7184
99.592389
98.535387
97.565374
96.675467
95.896403
95.236473
94.686872
94.306171
94.041978
111.20424
110.24945
109.27638
108.3065
107.27228
106.17853
105.04756
103.8761
102.71737
101.57453
100.4869
99.450204
98.483793
97.606551
96.829345
96.144917
95.611073
95.195784
94.921931
111.25274
110.37784
109.51696
108.62451
107.69772
106.72531
105.65493
104.56448
103.47158
102.37362
101.32374
100.31316
99.382313
98.508099
97.728432
97.077212
96.512829
96.07767
95.799276
111.23897
110.49752
109.70168
108.89583
108.06076
107.16103
106.20759
105.19728
104.13519
103.10673
102.10258
101.13329
100.22209
99.352552
98.572912
97.890716
97.357724
96.924159
96.628499
111.19311
110.52424
109.83965
109.12054
108.35733
107.55294
106.66919
105.72745
104.76126
103.79637
102.82596
101.89453
101.00274
100.18291
99.417365
98.7538
98.197548
97.74266
97.434908
111.15674
110.54919
109.92479
109.29138
108.62248
107.88599
107.08101
106.21879
105.31873
104.40392
103.4873
102.59815
101.72799
100.9213
100.16209
99.523567
98.965685
98.528394
98.213327
111.05439
110.52993
110.00398
109.44988
108.83623
108.16417
107.43315
106.63845
105.81022
104.96532
104.11158
103.26175
102.43505
101.64372
100.90268
100.2647
99.705949
99.280243
98.942664
110.94874
110.50711
110.04903
109.5467
109.00449
108.40053
107.73747
107.00991
106.2396
105.45205
104.6458
103.83739
103.05512
102.29176
101.59901
100.96968
100.42296
99.990375
99.646252
110.84897
110.4508
110.04409
109.61106
109.1337
108.59574
108.00057
107.33752
106.63917
105.91591
105.16133
104.39464
103.63971
102.89268
102.20804
101.60161
101.07542
100.63776
100.29994
110.75494
110.41159
110.04691
109.6645
109.235
108.74678
108.1994
107.59737
106.95852
106.2951
105.60283
104.89038
104.17519
103.47275
102.82868
102.22132
101.69823
101.26031
100.91552
110.60657
110.32195
110.02686
109.70506
109.32952
108.89489
108.39889
107.85135
107.25935
106.6425
105.99137
105.31959
104.6387
103.97137
103.35135
102.77702
102.26755
101.83563
101.48693
110.52967
110.26792
109.99215
109.69566
109.36653
108.98216
108.53484
108.04733
107.51901
106.96259
106.35724
105.72234
105.07183
104.43775
103.84205
103.29089
102.79329
102.36776
102.01611
110.42844
110.21057
109.98644
109.73238
109.43087
109.06931
108.65902
108.2089
107.72853
107.21881
106.66371
106.07737
105.46707
104.86422
104.28732
103.75477
103.27044
102.85176
102.49971
110.31577
110.13477
109.94519
109.72499
109.4625
109.14931
108.78018
108.36662
107.92471
107.44505
106.92821
106.37771
105.81268
105.2461
104.69575
104.1822
103.70731
103.29573
102.94642
110.27672
110.10549
109.92882
109.72644
109.48754
109.20138
108.86415
108.49832
108.09986
107.66004
107.17451
106.6443
106.1037
105.56685
105.04344
104.55278
104.09288
103.68496
103.34044
110.22346
110.08327
109.93064
109.75077
109.53131
109.26343
108.95084
108.60968
108.23975
107.83788
107.39864
106.92057
106.4154
105.89235
105.38021
104.89765
104.44786
104.04693
103.70551
110.18877
110.05927
109.92124
109.76195
109.56782
109.32785
109.04705
108.73069
108.37843
107.98975
107.55734
107.09245
106.61373
106.12877
105.64521
105.17786
104.7353
104.34009
103.9954
110.18256
110.06913
109.94159
109.79156
109.6108
109.3883
109.13039
108.8447
108.52586
108.17428
107.78094
107.34807
106.88615
106.40512
105.9283
105.46645
105.03175
104.63742
104.29146
110.18373
110.0852
109.97264
109.83821
109.67283
109.46564
109.21982
108.941
108.62762
108.27862
107.88584
107.46019
107.01297
106.55573
106.09388
105.64056
105.21514
104.82348
104.47869
110.20252
110.11783
110.01241
109.89212
109.74889
109.57039
109.35318
109.10025
108.8209
108.50765
108.15452
107.75549
107.31064
106.83944
106.35953
105.89358
105.4547
105.05166
104.6946
110.22784
110.16432
110.0722
109.95777
109.81695
109.64312
109.42999
109.17511
108.88053
108.54886
108.18447
107.78588
107.35733
106.90136
106.42958
105.96994
105.53391
105.14376
104.78777
110.24665
110.2197
110.1671
110.08719
109.98055
109.84617
109.6763
109.46598
109.21235
108.91317
108.5728
108.18832
107.73824
107.22702
106.6924
106.17171
105.70999
105.28933
104.89961
89.365987
89.526289
89.770713
90.168618
90.643635
91.202829
91.87318
92.59211
93.416829
94.323753
95.297793
96.352669
97.469469
98.64769
99.880033
101.23354
102.67405
104.08308
105.53841
90.311689
90.448467
90.679963
91.100773
91.5828
92.214318
92.93498
93.728939
94.636063
95.579533
96.573412
97.627019
98.715959
99.838989
101.01442
102.2071
103.34085
104.45038
105.49617
91.234528
91.336699
91.594374
92.014221
92.52325
93.223647
93.977099
94.864165
95.817074
96.783061
97.806144
98.845155
99.887932
100.95901
101.97573
102.90618
103.72445
104.45439
105.06518
92.135208
92.219212
92.494135
92.90469
93.471671
94.189706
94.987447
95.921208
96.856307
97.835528
98.833479
99.818233
100.78398
101.69486
102.47799
103.14063
103.66101
104.00322
104.13259
93.027742
93.102123
93.370189
93.786493
94.393191
95.111947
95.953047
96.860643
97.771913
98.725031
99.660369
100.53983
101.37325
102.0723
102.64137
103.02308
103.23827
103.18383
102.81591
93.911587
93.967121
94.232769
94.660251
95.279428
95.999367
96.856996
97.718883
98.61038
99.506216
100.34721
101.09112
101.75945
102.26127
102.60557
102.72995
102.67209
102.34397
101.73197
94.768762
94.804067
95.067964
95.510797
96.123243
96.855033
97.682942
98.508123
99.368345
100.17387
100.90506
101.52141
102.02848
102.36498
102.51437
102.47565
102.23234
101.84211
101.31746
95.607785
95.641851
95.889929
96.325267
96.918176
97.646358
98.437506
99.22844
100.04098
100.74425
101.3652
101.86959
102.22134
102.41875
102.4481
102.34217
102.10779
101.82635
101.52049
96.412625
96.439844
96.655359
97.098497
97.675633
98.388573
99.134208
99.880918
100.60519
101.2383
101.76111
102.15374
102.40043
102.50647
102.49963
102.41587
102.30097
102.16864
102.06272
97.202775
97.200879
97.395068
97.830749
98.386701
99.076265
99.768823
100.47951
101.10272
101.66714
102.10459
102.4155
102.59513
102.67671
102.70335
102.71038
102.71775
102.75502
102.82245
97.967054
97.917958
98.108121
98.524058
99.05982
99.708485
100.36028
101.00509
101.56038
102.05633
102.41141
102.67934
102.83486
102.95964
103.04914
103.14119
103.26792
103.4243
103.57129
98.68764
98.588499
98.791437
99.170211
99.69185
100.30035
100.90146
101.48326
101.98289
102.4053
102.71634
102.97256
103.14476
103.32129
103.46911
103.64768
103.85277
104.06252
104.25457
99.360182
99.238791
99.448815
99.768818
100.27931
100.83098
101.39321
101.91923
102.36633
102.74301
103.03679
103.29109
103.4977
103.71846
103.92349
104.16458
104.39854
104.6516
104.857
99.986369
99.887998
100.0491
100.33533
100.82827
101.31444
101.84871
102.31692
102.72718
103.08288
103.37046
103.63811
103.8777
104.12486
104.36807
104.63561
104.88519
105.1234
105.2829
100.5804
100.48486
100.58284
100.8757
101.31082
101.76604
102.26961
102.68171
103.07905
103.41357
103.70625
103.98378
104.246
104.51748
104.77973
105.04588
105.27132
105.45079
105.55455
101.14578
101.02749
101.08522
101.37354
101.74499
102.19467
102.64071
103.0355
103.41858
103.72142
104.03312
104.3214
104.59201
104.8605
105.12262
105.35318
105.52968
105.68259
105.77824
101.66996
101.51672
101.56353
101.82422
102.15314
102.58567
102.98198
103.37554
103.72381
104.03939
104.35596
104.61685
104.90148
105.15755
105.37817
105.56245
105.71617
105.85863
105.96011
102.14914
101.96244
101.99739
102.21124
102.52873
102.93241
103.29188
103.65637
103.98095
104.30417
104.59947
104.8726
105.14799
105.35672
105.54659
105.68519
105.81286
105.92355
105.97102
102.58784
102.38095
102.401
102.57595
102.88545
103.23867
103.59225
103.95769
104.27336
104.57649
104.84638
105.10606
105.32542
105.49186
105.64248
105.72186
105.78424
105.78108
105.70967
102.97042
102.74368
102.74056
102.88805
103.17078
103.49104
103.83489
104.15566
104.45341
104.75425
105.00934
105.23945
105.39824
105.52319
105.59367
105.59412
105.53738
105.35904
105.14102
103.33404
103.09509
103.05347
103.19702
103.45521
103.76094
104.10333
104.40303
104.69376
104.9441
105.14372
105.31263
105.40763
105.45829
105.41986
105.30918
105.1065
104.82869
104.53298
103.61585
103.36155
103.30636
103.4257
103.65088
103.94228
104.2375
104.51317
104.79229
105.00488
105.17663
105.28657
105.32077
105.27499
105.14472
104.9412
104.6654
104.39635
104.14374
103.90137
103.62459
103.55829
103.64698
103.87499
104.16695
104.45937
104.72818
104.93309
105.07704
105.1829
105.20411
105.14625
105.00241
104.79161
104.5385
104.28951
104.06358
103.83359
104.08995
103.81201
103.70832
103.78499
103.9934
104.25455
104.51558
104.74627
104.92569
105.0628
105.11683
105.08578
104.97286
104.78112
104.55252
104.31222
104.06852
103.80883
103.54695
104.27707
103.97288
103.85634
103.93488
104.16904
104.45291
104.7036
104.87488
104.98947
105.0316
104.98102
104.8396
104.62747
104.37406
104.12316
103.87578
103.63079
103.38727
103.09804
104.38017
104.07479
103.91777
103.98691
104.21764
104.48006
104.70094
104.86954
104.96672
104.98451
104.91335
104.77123
104.57506
104.34087
104.09082
103.81354
103.47054
103.04993
102.55015
104.45127
104.09948
103.96216
104.08529
104.38621
104.67131
104.85054
104.9266
104.9155
104.82446
104.6292
104.35782
104.04503
103.68992
103.28948
102.86276
102.39447
101.9033
101.42858
107.03364
108.64029
110.28351
112.03687
113.71193
115.4608
116.62558
117.70781
115.2757
109.23612
99.796313
88.139263
76.150973
64.904103
56.550537
51.035542
48.590603
48.852602
51.549753
106.50891
107.54002
108.52731
109.39813
109.94035
110.01088
108.98794
106.18395
101.06995
92.531607
79.805632
66.660237
54.848365
43.821536
35.265846
30.799109
31.496542
36.115842
42.967692
105.55104
105.89397
106.06777
105.81712
104.96244
103.02732
99.598932
93.484365
85.193335
75.022122
62.493371
47.357573
31.615605
17.042579
6.8833724
3.9187964
8.0034032
16.82472
27.843525
103.97031
103.60862
102.97013
101.74211
99.727194
96.593302
91.926433
85.119294
75.861549
64.232953
50.201335
34.277096
19.221718
6.8685255
-0.56731806
-1.4218436
3.8046202
13.981771
26.547575
102.14748
101.37392
100.27902
98.68549
96.397581
93.312276
89.052296
83.525503
76.318093
67.463587
57.337168
46.292561
35.694488
26.908458
21.401104
20.211262
23.245607
29.843084
38.867188
100.9255
100.09324
99.042017
97.624888
95.723779
93.234888
90.025796
86.169974
81.402725
75.847189
69.547179
62.798632
56.243413
50.579319
46.654555
44.831378
45.559761
48.91295
54.367217
100.67639
100.00667
99.18904
98.082585
96.643715
94.757693
92.60473
90.060732
87.126188
83.805682
80.008981
76.12961
72.18727
68.76012
65.862446
64.012681
63.792023
65.327827
68.303529
101.1255
100.68966
100.08112
99.26029
98.171289
96.870304
95.438655
93.730385
91.923073
89.731003
87.279757
84.715074
82.074113
79.684903
77.769467
77.055463
77.13225
77.515961
78.620703
101.96241
101.71736
101.23802
100.6294
99.817475
98.929862
97.913269
96.838118
95.573764
94.00648
92.392722
90.707451
89.039472
87.399274
85.955072
84.783926
84.261526
84.522354
85.368075
102.86034
102.70927
102.38611
101.90646
101.32449
100.73271
100.05086
99.31187
98.393944
97.34259
96.162408
94.89492
93.470852
92.016618
90.690559
89.534337
88.450128
87.466161
87.087951
103.67856
103.6264
103.41159
103.05859
102.67941
102.28589
101.8378
101.31652
100.64326
99.782469
98.8162
97.734229
96.40659
94.988544
93.520336
91.859182
89.976569
88.376266
87.263004
104.42477
104.44653
104.27901
104.03885
103.78296
103.52495
103.20875
102.77589
102.20715
101.51775
100.74606
99.666123
98.181008
96.547107
94.692522
92.206075
89.465625
86.891986
84.414451
105.0402
105.0525
104.91148
104.74158
104.53763
104.31408
104.01018
103.5924
103.0615
102.38859
101.45058
100.13794
98.298061
96.221364
93.408619
89.542254
85.040423
80.228977
75.155937
105.41326
105.41678
105.33214
105.19192
105.00078
104.77825
104.46602
104.00001
103.3786
102.58151
101.54976
99.974698
97.854196
95.358106
91.655178
86.339085
79.435306
70.992191
60.954528
105.71329
105.76695
105.72912
105.61889
105.49502
105.34077
105.069
104.66526
104.19026
103.7139
102.79294
100.85875
99.062986
97.011692
93.663268
88.792813
82.320779
74.31529
64.934195
105.99389
106.09496
106.09836
106.07331
106.07828
106.00488
105.85726
105.68675
105.32554
104.37723
103.62033
103.0601
101.42065
99.145178
96.08022
92.063063
87.127429
81.524927
75.61739
106.16192
106.25743
106.27385
106.32488
106.33074
106.2528
106.04882
105.55125
104.98406
104.99283
104.41009
102.93226
100.98435
98.615848
95.943102
92.938296
89.740283
86.621592
83.85276
106.08274
106.1369
106.22834
106.32337
106.33721
106.28208
105.90446
105.50263
104.39185
102.66798
100.92094
98.969776
96.980026
94.879476
92.783993
90.904128
89.272974
88.000851
87.312492
105.62618
105.66966
105.80241
105.88299
105.88677
105.77628
105.41611
104.78553
103.24494
99.858235
95.987785
92.453932
90.043276
88.428944
87.10924
86.344363
86.282897
86.867929
87.993567
104.84631
104.87078
104.931
104.94871
104.85221
104.67669
104.40225
103.89662
102.76118
100.57093
97.092164
92.0531
86.485632
81.14068
76.584613
73.479399
72.963548
74.936906
78.442542
104.20485
104.14492
104.09557
103.96371
103.68625
103.2995
102.7273
101.88574
100.42948
97.87439
93.953795
88.938221
83.496874
78.644942
75.11706
73.358494
73.288018
74.741414
78.01106
103.94812
103.89918
103.87103
103.77371
103.59799
103.38986
103.07065
102.59957
101.82757
100.72173
99.00699
96.665531
93.87308
90.878618
88.019013
85.777849
84.49622
84.235714
85.275601
103.74684
103.78655
103.85936
103.89267
103.8949
103.93331
103.92427
103.91877
103.83289
103.6469
103.26015
102.58276
101.60112
100.45342
99.1091
97.466067
95.424995
93.559673
92.665043
103.4978
103.54509
103.60325
103.6819
103.7638
103.83448
103.94611
104.02441
104.065
104.02717
103.73408
103.17558
102.49524
101.54657
100.27821
98.885979
97.369183
95.722618
93.863532
102.92099
102.97617
103.13613
103.25732
103.37196
103.50641
103.67534
103.80586
103.9128
103.8708
103.55878
103.01948
102.54898
101.92161
101.02514
99.290518
97.372744
95.417627
93.276696
102.04836
102.10408
102.26913
102.37399
102.47652
102.58354
102.6478
102.8091
102.77914
102.75563
102.58523
101.26283
100.99757
100.91217
100.52866
99.764041
98.787016
97.743527
96.678251
100.91896
100.96903
101.01813
101.00511
101.02248
101.09912
101.22728
101.45684
101.73312
102.17006
102.73489
103.47655
103.66919
102.83051
102.09686
101.42393
100.81419
100.27406
99.808335
56.090168
60.993419
65.88677
70.978887
75.219143
78.385876
81.317509
83.791324
85.21995
85.999355
86.656783
86.817327
86.47503
86.089714
85.485583
84.686805
83.798962
82.783591
81.6433
50.905752
58.892305
66.088586
72.422177
78.07021
82.693752
86.094449
88.485221
90.212591
91.175549
91.626224
91.703868
91.3321
90.770464
90.033833
89.20893
88.29927
87.223958
86.051474
40.280573
53.217204
64.254001
72.982388
79.961965
85.469872
89.919666
92.939344
94.832111
95.901004
96.399035
96.430784
95.97342
95.302822
94.498677
93.558906
92.671288
91.541239
90.272913
40.165178
53.217935
64.649204
74.177487
81.878536
87.986194
92.948317
96.639093
98.829378
100.064
100.54369
100.53839
100.11771
99.33144
98.422201
97.451127
96.491632
95.428181
94.050697
49.091095
59.372595
69.012844
77.413892
84.615586
90.418066
95.308777
99.633926
102.20213
103.48524
103.97519
103.85544
103.3641
102.60395
101.59411
100.61162
99.631101
98.617457
97.291297
61.035817
68.148236
75.233287
81.824946
87.75557
92.955837
97.44733
101.62342
104.57475
105.94464
106.41103
106.34568
105.80609
105.0028
104.02187
102.99817
102.05481
101.09898
99.901994
72.195326
76.840508
81.951895
86.988673
91.751181
96.210669
100.08998
103.47294
105.8461
107.05628
107.53542
107.53455
107.13524
106.42049
105.5479
104.585
103.7054
102.82884
101.79108
80.872231
84.051771
87.625941
91.387287
95.328122
99.089701
102.29761
104.86043
106.46468
107.20771
107.47656
107.49277
107.25517
106.74142
106.09121
105.31557
104.59104
103.85336
102.98914
86.575949
88.240647
90.604411
93.572932
96.745476
99.723659
102.49993
104.72905
106.19336
106.8847
106.99476
106.88238
106.73933
106.41945
105.99686
105.43686
104.87412
104.30822
103.62127
87.45895
88.613227
90.497139
92.656256
94.969467
97.667481
100.49614
102.93791
104.84881
105.9255
106.3625
106.39757
106.28053
106.04944
105.75129
105.35557
104.89636
104.46325
103.9194
86.544385
86.220566
86.457241
87.576068
89.616741
92.512443
95.702707
98.878922
101.64017
103.6468
104.70021
105.02183
105.19992
105.43323
105.3952
105.17526
104.83745
104.49409
104.07871
81.943021
80.04775
79.067454
79.210974
80.530907
83.10835
86.886626
91.095504
95.014252
98.234029
100.80403
102.69898
103.88447
104.73032
104.96654
104.94867
104.72184
104.42728
104.12192
70.073889
65.798847
63.280006
63.130919
65.535203
69.259766
74.143223
80.200929
86.359451
91.936524
97.174422
101.06584
102.90932
104.07977
104.47685
104.55907
104.40863
104.12641
103.8941
50.337745
41.443642
36.564031
37.057998
42.710808
51.414132
61.672866
72.50671
82.480468
91.078104
97.124142
100.63258
102.17321
103.03597
103.48398
103.6353
103.6012
103.39853
103.27931
54.921641
45.914392
40.315722
39.412547
42.805186
49.622384
59.150955
69.387311
79.086052
87.247273
93.350637
97.157361
99.42329
100.85401
101.76903
102.25805
102.46746
102.47886
102.47911
69.896738
65.222937
62.858394
63.321947
65.957407
70.375575
76.072077
81.833964
87.23362
91.783465
95.172964
97.545188
99.203682
100.3377
101.13385
101.65878
101.941
102.0384
102.08969
81.571038
80.088376
79.915222
81.483879
83.88809
86.506406
89.492421
92.398182
94.931962
97.062337
98.652165
99.787448
100.64674
101.23876
101.66747
101.95283
102.12737
102.21452
102.20641
87.238677
87.706369
88.510498
89.624942
91.433964
93.564972
95.551524
97.36562
98.852222
100.01215
100.87917
101.48798
101.9455
102.22738
102.40729
102.55286
102.59144
102.61658
102.55793
89.551606
91.136872
92.719371
94.429847
96.145281
97.723452
99.130396
100.40299
101.39118
102.10812
102.59754
102.90585
103.10266
103.15304
103.15393
103.13339
103.11451
103.04729
102.9227
82.746595
87.251697
91.337815
94.644213
97.261465
99.158627
100.51852
101.97305
103.28231
103.79476
103.9335
104.03241
104.04185
103.92584
103.76887
103.61795
103.50376
103.39355
103.21874
82.204075
86.764898
91.683201
95.335927
98.233974
100.49036
101.7766
102.14449
102.23503
103.0907
104.05943
104.27019
104.22187
104.14586
103.96401
103.78952
103.59366
103.46023
103.29115
87.394335
90.091819
92.892852
95.467401
97.639014
99.419317
100.79656
101.69454
102.54642
103.7346
104.10379
103.98074
104.12708
103.95106
103.80667
103.62236
103.41854
103.24167
103.09564
92.627582
93.204787
94.105677
95.248744
96.422061
97.517242
98.473342
99.164001
100.47797
102.46736
102.97403
103.21466
103.34588
103.2341
103.14749
102.99837
102.84897
102.64883
102.52367
91.935297
90.397845
89.594218
89.789574
91.285135
94.107565
97.288321
99.76297
101.13856
102.06453
102.3166
102.34853
102.33377
102.24947
102.19582
102.10015
101.99123
101.88256
101.84143
91.53467
90.275013
89.845438
90.295887
91.481869
92.839385
94.228494
95.941591
97.90175
99.43085
100.14977
100.54322
100.80495
100.95626
101.06852
101.15826
101.17652
101.18183
101.22777
95.804577
95.280851
95.233911
95.718759
96.627485
97.641821
98.285235
98.611652
99.014124
99.431161
99.681896
99.831918
100.03038
100.24204
100.43223
100.56815
100.64332
100.67358
100.7397
99.405297
98.983038
98.521642
98.040389
97.576899
97.253062
97.606169
98.501598
99.141093
99.46451
99.741685
99.958564
100.11132
100.18395
100.22718
100.28672
100.33496
100.35023
100.34211
80.468238
79.202867
77.893294
76.558922
75.239582
73.9232
72.681992
71.523152
70.429228
69.421733
68.45879
67.654978
66.905503
66.285621
65.836686
65.422989
65.311066
65.368615
65.617813
84.737159
83.376994
81.893713
80.39811
78.894089
77.405238
75.949017
74.577671
73.257222
72.038399
70.898334
69.869438
69.012537
68.220732
67.641851
67.19774
66.957037
66.971643
67.093617
88.785183
87.248627
85.645233
83.984448
82.346673
80.70468
79.101739
77.555279
76.06435
74.643195
73.334779
72.123396
71.104801
70.210619
69.465912
68.976655
68.648614
68.602219
68.777483
92.466417
90.773265
89.057172
87.290016
85.534564
83.790589
82.054363
80.382357
78.751937
77.18343
75.724079
74.368544
73.184791
72.171361
71.323476
70.728255
70.343617
70.224064
70.408689
95.652313
93.919213
92.123751
90.299247
88.46553
86.649208
84.82803
83.052542
81.330349
79.648285
78.060462
76.572623
75.2491
74.102561
73.147553
72.460881
72.004684
71.841963
71.991782
98.326837
96.636449
94.859229
93.029402
91.17092
89.311325
87.439115
85.58413
83.767913
82.010583
80.316876
78.745428
77.288278
76.026201
74.96262
74.179928
73.668436
73.45772
73.618801
100.40191
98.85633
97.175228
95.409409
93.586282
91.729623
89.841489
87.962047
86.077039
84.260467
82.47799
80.817698
79.270058
77.900137
76.753939
75.874705
75.290229
75.032392
75.143201
101.85064
100.53215
99.046252
97.42174
95.691441
93.902413
92.037906
90.161267
88.257098
86.387482
84.552888
82.817222
81.194618
79.740151
78.50095
77.53432
76.903105
76.596762
76.7261
102.75682
101.6846
100.42604
99.014371
97.436846
95.759108
93.977154
92.141566
90.255325
88.375474
86.507674
84.710509
83.033987
81.498334
80.205222
79.145704
78.467127
78.109442
78.175728
103.24399
102.43456
101.4095
100.21939
98.843946
97.323758
95.662201
93.914959
92.083514
90.211414
88.360331
86.51497
84.799615
83.195517
81.848225
80.740244
79.982783
79.622001
79.656682
103.51739
102.89077
102.07951
101.09448
99.917836
98.578148
97.072726
95.429561
93.705794
91.874301
90.048291
88.203901
86.454424
84.813317
83.403009
82.268325
81.455358
81.049775
81.070178
103.68877
103.17238
102.51491
101.7062
100.72842
99.564528
98.235427
96.723986
95.11532
93.376748
91.59677
89.786246
88.021364
86.360692
84.890441
83.718831
82.874169
82.42834
82.426864
103.63336
103.27986
102.77192
102.10456
101.3134
100.32062
99.166838
97.810494
96.319606
94.69022
92.976311
91.219642
89.46319
87.812551
86.306844
85.092933
84.228166
83.768019
83.73396
103.27179
103.10137
102.80904
102.30871
101.69336
100.86908
99.876094
98.688215
97.335199
95.82858
94.204715
92.524886
90.800955
89.163659
87.65146
86.401355
85.499339
85.029349
84.978439
102.70629
102.72458
102.62064
102.31374
101.87132
101.23837
100.40656
99.384145
98.178165
96.803665
95.278061
93.68252
92.017708
90.406181
88.903385
87.637422
86.70794
86.219572
86.162304
102.28739
102.35324
102.33362
102.17822
101.88211
101.42474
100.76039
99.901226
98.840796
97.610549
96.202843
94.697871
93.11676
91.547044
90.059975
88.796041
87.853043
87.335629
87.284202
102.21995
102.16382
102.1311
102.03971
101.83061
101.49892
100.99072
100.29048
99.373275
98.284943
97.003653
95.586342
94.089956
92.605134
91.123858
89.857901
88.926212
88.384968
88.326584
102.39987
102.23091
102.10894
101.9901
101.79716
101.52204
101.12513
100.55703
99.771763
98.814397
97.665222
96.343675
94.920047
93.429388
92.070227
90.822529
89.906458
89.369822
89.292009
102.65263
102.45169
102.25996
102.07869
101.85325
101.58884
101.24782
100.77408
100.106
99.264271
98.244179
97.033228
95.700077
94.298228
92.950493
91.730522
90.796734
90.275217
90.215054
102.88595
102.69375
102.46865
102.24868
101.98113
101.70187
101.383
100.95948
100.37449
99.620111
98.700184
97.596536
96.347355
94.998452
93.697485
92.518481
91.595354
91.057081
90.882396
103.03963
102.89975
102.68465
102.45766
102.18361
101.88936
101.56852
101.15489
100.64358
99.965988
99.125528
98.112884
96.957833
95.713195
94.434352
93.277687
92.369495
91.845471
91.833864
103.0117
102.98806
102.84638
102.63686
102.39694
102.10702
101.77761
101.36343
100.87674
100.27322
99.493668
98.526583
97.420284
96.204709
95.004109
93.859016
92.975043
92.43683
92.234021
102.67211
102.77599
102.7831
102.69074
102.54025
102.30204
102.00129
101.62257
101.15126
100.60068
99.88311
98.999562
97.961314
96.824144
95.612372
94.518497
93.612546
93.101533
93.069863
102.11931
102.3865
102.58977
102.64599
102.60039
102.46651
102.21777
101.88016
101.43563
100.8794
100.1747
99.321527
98.305648
97.151772
95.966783
94.890657
94.017392
93.483136
93.290477
101.519
101.81145
102.09333
102.31486
102.40713
102.39722
102.28386
102.05664
101.7093
101.23848
100.62838
99.841131
98.894739
97.831628
96.679693
95.501348
94.545029
93.984651
93.945472
101.0312
101.40554
101.76274
102.08397
102.32205
102.43272
102.40274
102.23332
101.9313
101.4793
100.86807
100.08523
99.103031
97.955357
96.778682
95.668724
94.740795
94.162668
93.995971
100.53525
100.79227
101.1084
101.43919
101.76296
102.03398
102.21325
102.26847
102.14503
101.87282
101.43598
100.79148
99.91768
98.835905
97.58201
96.291375
95.171088
94.440707
94.253229
66.049139
66.510671
67.255301
68.149273
69.239526
70.522875
71.940083
73.539064
75.239037
77.077333
79.035974
81.083339
83.244939
85.468864
87.766945
90.114238
92.484264
94.862956
97.252072
67.573402
68.126735
68.895963
69.829117
70.904561
72.196617
73.612557
75.20458
76.908849
78.725635
80.657758
82.655654
84.749347
86.904418
89.10184
91.340345
93.573279
95.788065
98.000996
69.176633
69.766082
70.525178
71.472948
72.575432
73.853716
75.287885
76.858491
78.555726
80.346975
82.224901
84.183727
86.208147
88.28135
90.390956
92.513405
94.609706
96.671175
98.70564
70.811598
71.381703
72.152547
73.09256
74.206587
75.473608
76.908561
78.472422
80.149997
81.920808
83.764981
85.666265
87.628833
89.615961
91.617508
93.624057
95.590216
97.506046
99.358232
72.403908
72.989834
73.756643
74.700879
75.806981
77.068291
78.497947
80.040748
81.700035
83.446514
85.252802
87.087003
88.960841
90.856231
92.746847
94.638259
96.469063
98.244448
99.93927
74.024574
74.595917
75.347744
76.277548
77.38218
78.634453
80.044826
81.568892
83.203423
84.90355
86.648253
88.42589
90.210254
92.011765
93.803178
95.576877
97.265634
98.889277
100.45313
75.564223
76.133728
76.884666
77.812983
78.907459
80.149175
81.539727
83.039604
84.631101
86.286152
87.97242
89.692313
91.39637
93.090183
94.761555
96.406074
97.981301
99.477851
100.91352
77.110856
77.66672
78.408867
79.327785
80.407723
81.624126
82.981036
84.449192
85.992238
87.608161
89.241353
90.876555
92.481972
94.074982
95.642717
97.166227
98.621608
99.981616
101.29215
78.596366
79.14855
79.879628
80.772561
81.83451
83.035311
84.354051
85.797432
87.30316
88.860988
90.421299
91.961731
93.480741
94.980559
96.445422
97.840355
99.18398
100.44694
101.6453
80.053691
80.582644
81.298085
82.185445
83.226602
84.415692
85.699231
87.08646
88.538746
90.019799
91.508243
92.974333
94.418554
95.809722
97.166983
98.466696
99.71456
100.86934
101.92955
81.455305
81.972749
82.674241
83.552313
84.563282
85.705875
86.956565
88.283017
89.684209
91.106691
92.539047
93.928977
95.270274
96.555948
97.820856
99.023331
100.14646
101.20956
102.18507
82.801867
83.305202
83.995908
84.841572
85.833253
86.942328
88.151087
89.431851
90.782478
92.132477
93.475832
94.787005
96.046871
97.247482
98.402358
99.516997
100.56786
101.55206
102.43681
84.101439
84.583282
85.256657
86.073243
87.039286
88.113264
89.27773
90.514579
91.790936
93.077506
94.347257
95.586593
96.758251
97.87739
98.946511
99.971192
100.9323
101.81057
102.61061
85.335297
85.796898
86.444304
87.246823
88.180785
89.222939
90.339197
91.517344
92.726779
93.942296
95.134758
96.297961
97.390279
98.432666
99.42499
100.36569
101.24898
102.06244
102.79754
86.50139
86.958062
87.585081
88.362341
89.258857
90.259321
91.320142
92.439019
93.586958
94.743568
95.879498
96.96906
97.987664
98.946112
99.864837
100.73758
101.55027
102.26363
102.91285
87.614118
88.053155
88.643423
89.386708
90.251055
91.20862
92.230882
93.298308
94.390249
95.483765
96.552408
97.563109
98.510747
99.395011
100.25079
101.0532
101.79354
102.4592
103.06509
88.640029
89.058093
89.634579
90.352466
91.189678
92.110979
93.095028
94.10215
95.133173
96.154264
97.153927
98.098239
98.992774
99.825217
100.61043
101.34738
102.02678
102.64188
103.1847
89.610114
90.015694
90.572804
91.252739
92.055686
92.934851
93.870221
94.825782
95.795909
96.762002
97.703922
98.595887
99.433605
100.20919
100.92907
101.60798
102.23587
102.8023
103.29771
90.513663
90.887534
91.410533
92.066181
92.838897
93.68706
94.579257
95.49104
96.412
97.325129
98.215666
99.05558
99.835993
100.55731
101.22452
101.85681
102.44414
102.96797
103.41791
91.230411
91.649215
92.182125
92.832881
93.5766
94.380985
95.231497
96.101035
96.979245
97.843663
98.677727
99.466178
100.19356
100.86781
101.49803
102.0879
102.62804
103.10767
103.51994
92.116299
92.460694
92.933174
93.528639
94.221223
94.989499
95.81098
96.643831
97.481807
98.308349
99.093468
99.840945
100.5291
101.16999
101.77116
102.32461
102.82137
103.25959
103.64094
92.551421
92.936283
93.450824