/*--------------------------------*- C++ -*----------------------------------*\
  =========                 |
  \\      /  F ield         | OpenFOAM: The Open Source CFD Toolbox
   \\    /   O peration     | Website:  https://openfoam.org
    \\  /    A nd           | Version:  11
     \\/     M anipulation  |
\*---------------------------------------------------------------------------*/
FoamFile
{
    format      ascii;
    class       surfaceScalarField;
    location    "19.6";
    object      phi;
}
// * * * * * * * * * * * * * * * * * * * * * * * * * * * * * * * * * * * * * //

dimensions      [0 3 -1 0 0 0 0];

internalField   nonuniform List<scalar> 
10792
(
0.067981229
-0.04169932
-0.068383563
0.042101654
0.06735514
-0.03953724
0.040163329
0.06679505
-0.037247213
0.037807303
0.066137856
-0.03506064
0.035717833
0.065382888
-0.032478881
0.033233849
0.064590658
-0.030242857
0.031035087
0.06382789
-0.027660003
0.028422771
0.063093759
-0.02531002
0.026044151
0.062181806
-0.022502829
0.023414782
0.061499079
-0.020029324
0.020712051
0.06074425
-0.017281554
0.018036383
0.060086923
-0.014608136
0.015265463
0.059489909
-0.011851246
0.01244826
0.058908669
-0.009100195
0.0096814357
0.058391951
-0.006210695
0.0067274132
0.057879044
-0.0033799113
0.0038928191
0.057656121
-0.00052795833
0.00075088121
0.057446909
0.0024192602
-0.002210047
0.0053534626
0.057269901
-0.0051764543
0.072189517
-0.041193531
-0.072695306
0.071627759
-0.038975482
0.07104154
-0.036660993
0.070247943
-0.034267044
0.069512483
-0.031743421
0.068789886
-0.02952026
0.068018695
-0.026888812
0.067161396
-0.024452721
0.06636886
-0.021710293
0.06570135
-0.019361813
0.064943351
-0.016523555
0.064346671
-0.014011456
0.063695231
-0.011199806
0.063096942
-0.0085019059
0.062612254
-0.0057260057
0.062189624
-0.0029572816
0.061859964
-0.00019829738
0.061561448
0.0027177762
0.0055624844
0.061352426
0.076737377
-0.040615082
-0.077315825
0.076174141
-0.038412245
0.07552115
-0.036008002
0.074783574
-0.033529468
0.074163549
-0.031123395
0.073401242
-0.028757953
0.07256028
-0.026047849
0.071787311
-0.023679752
0.071056346
-0.020979328
0.070321615
-0.018627081
0.069600638
-0.015802579
0.068944058
-0.013354875
0.068252275
-0.010508023
0.067685216
-0.0079348468
0.067155197
-0.0051959862
0.06671433
-0.0025164146
0.066346055
0.00016997789
0.066073097
0.0029907346
0.0057720725
0.065863509
0.081570521
-0.040069813
-0.08211579
0.08110396
-0.037945684
0.080343589
-0.035247631
0.079676521
-0.0328624
0.079006065
-0.03045294
0.078090343
-0.027842232
0.077357031
-0.025314537
0.076567882
-0.022890603
0.075790943
-0.020202389
0.075012042
-0.01784818
0.074208741
-0.014999278
0.073504427
-0.012650561
0.072835658
-0.0098392531
0.072311069
-0.0074102571
0.071787704
-0.0046726213
0.0713975
-0.0021262105
0.071032878
0.00053460102
0.070821727
0.0032018855
0.005948432
0.070645368
0.086822623
-0.039527684
-0.087364752
0.086083582
-0.037206643
0.085376345
-0.034540395
0.084763139
-0.032249193
0.083906207
-0.029596008
0.083203823
-0.027139848
0.082540063
-0.024650778
0.081703622
-0.022054162
0.080970911
-0.019469678
0.080123285
-0.017000554
0.079433329
-0.014309321
0.07874963
-0.011966862
0.078150582
-0.0092402048
0.077596365
-0.0068560407
0.07705961
-0.0041358651
0.076685447
-0.0017520472
0.076288768
0.00093127975
0.076111336
0.0033793186
0.0061354206
0.075924347
0.092391905
-0.038850252
-0.093069337
0.091772784
-0.036587522
0.091079366
-0.033846977
0.090315328
-0.031485155
0.089585238
-0.028865919
0.088939637
-0.026494246
0.088047622
-0.023758762
0.087214205
-0.021220745
0.08644034
-0.018695813
0.085656622
-0.016216837
0.085015533
-0.013668232
0.084257539
-0.011208867
0.08364421
-0.0086268754
0.082995434
-0.0062072648
0.082529139
-0.003669569
0.082056251
-0.0012791595
0.081784599
0.0012029326
0.081541334
0.003622584
0.0062587032
0.081418052
0.098246554
-0.038188895
-0.09890791
0.097522061
-0.035863029
0.096820913
-0.033145828
0.096152828
-0.03081707
0.095377197
-0.028090288
0.094565507
-0.025682556
0.093755447
-0.022948702
0.093090469
-0.020555768
0.092341048
-0.017946391
0.091592412
-0.015468201
0.090877045
-0.012952865
0.090160507
-0.010492329
0.089586673
-0.0080530407
0.088982819
-0.0056034106
0.088557529
-0.0032442783
0.08810007
-0.00082170021
0.087838372
0.0014646302
0.087570155
0.003890802
0.0062876986
0.08754116
0.10510957
-0.037558347
-0.10574012
0.10429573
-0.035049189
0.10350705
-0.032357148
0.10269669
-0.030006709
0.10186174
-0.027255341
0.10110426
-0.024925077
0.10034379
-0.02218823
0.099597906
-0.019809884
0.098727314
-0.0170758
0.097931715
-0.014672602
0.097155604
-0.012176753
0.096444884
-0.0097816092
0.095803462
-0.0074116185
0.095227631
-0.0050275799
0.094732765
-0.0027494121
0.094297987
-0.00038692163
0.094010477
0.0017521404
0.093736355
0.0041649248
0.0063551988
0.093668855
0.11142863
-0.036741302
-0.11224567
0.11070223
-0.034322787
0.11000105
-0.031655967
0.10920637
-0.02921203
0.10845786
-0.026506837
0.10766969
-0.024136906
0.10684032
-0.021358859
0.106107
-0.019076558
0.10535885
-0.01632765
0.10472202
-0.014035773
0.10396332
-0.011418051
0.10333868
-0.0091569687
0.10269399
-0.0067669322
0.1021608
-0.0044943872
0.10167695
-0.0022655669
0.10123192
5.8114409e-05
0.10094973
0.0020343241
0.10070729
0.0044073657
0.0063746222
0.10068787
0.11961777
-0.03599249
-0.12036659
0.11869993
-0.033404938
0.11788564
-0.030841683
0.11702151
-0.028347898
0.1161984
-0.025683729
0.11528387
-0.023222378
0.1144573
-0.020532282
0.11356281
-0.018182074
0.11269547
-0.015460304
0.11190407
-0.013244378
0.11107774
-0.010591722
0.11039878
-0.0084780057
0.10964826
-0.0060164093
0.10913327
-0.0039793973
0.10855994
-0.0016922434
0.10829166
0.00032640119
0.10794359
0.0023823938
0.10782761
0.0045233388
0.0064434518
0.10775878
0.12707641
-0.035076128
-0.12799277
0.12613115
-0.032459678
0.12528119
-0.02999172
0.12431196
-0.027378671
0.12353094
-0.024902703
0.12266438
-0.022355826
0.12186887
-0.019736769
0.12099322
-0.017306422
0.12027627
-0.014743357
0.11951357
-0.012481673
0.11883838
-0.0099165373
0.11821326
-0.007852883
0.1176494
-0.0054525438
0.11723181
-0.0035618155
0.11676641
-0.0012268356
0.11654863
0.00054417932
0.11615669
0.0027743333
0.11609708
0.0045829464
0.0066136767
0.11592686
0.1362193
-0.034045459
-0.13724997
0.13527561
-0.031515987
0.13434584
-0.029061952
0.13337977
-0.026412599
0.13242793
-0.023950867
0.13143291
-0.021360799
0.13059527
-0.018899134
0.12969381
-0.016404956
0.12889597
-0.013945524
0.12794771
-0.011533407
0.12722356
-0.0091923862
0.12640691
-0.0070362381
0.12577915
-0.0048247853
0.12517915
-0.0029618078
0.1247698
-0.00081748971
0.12443966
0.00087431703
0.12421058
0.0030034211
0.12417551
0.0046180147
0.0066818658
0.12410732
0.14490385
-0.032914349
-0.14603496
0.14388604
-0.030498175
0.14286961
-0.028045518
0.14195189
-0.025494883
0.14107067
-0.023069644
0.14014135
-0.020431485
0.13925762
-0.018015395
0.13842091
-0.015568247
0.13769689
-0.013221507
0.13696106
-0.01079758
0.13635221
-0.0085835365
0.13560863
-0.0062926565
0.1350422
-0.0042583511
0.13439258
-0.0023121855
0.13403391
-0.00045882734
0.13360268
0.0013055478
0.13348561
0.0031204926
0.13337709
0.0047265374
0.0065556258
0.13350333
0.15550554
-0.031724171
-0.15669572
0.15432407
-0.029316704
0.15311643
-0.026837878
0.1521185
-0.024496955
0.15109848
-0.022049628
0.15014361
-0.019476615
0.14908989
-0.016961672
0.14803502
-0.014513376
0.14707827
-0.012264757
0.14627368
-0.0099929938
0.14563101
-0.0079408651
0.14500253
-0.005664168
0.14450592
-0.0037617424
0.14398358
-0.0017898472
0.14360667
-8.1915796e-05
0.14324593
0.001666282
0.14315476
0.0032116673
0.14301063
0.0048706675
0.0063184726
0.14324778
0.16537335
-0.030575322
-0.1665222
0.16427321
-0.028216558
0.16318924
-0.025753912
0.162159
-0.023466719
0.16119245
-0.021083072
0.16041572
-0.018699888
0.15960794
-0.016153895
0.15878556
-0.013690992
0.15782372
-0.011302915
0.15693157
-0.0091008449
0.15607483
-0.0070841299
0.15538532
-0.0049746491
0.15483586
-0.0032122871
0.15432927
-0.0012832544
0.15393932
0.0003080371
0.15362074
0.001984854
0.15346093
0.0033714858
0.15338159
0.0049500025
0.0060821076
0.15361796
0.17760627
-0.029337507
-0.17884409
0.1762647
-0.02687499
0.17498211
-0.024471319
0.17363931
-0.022123918
0.17236826
-0.019812023
0.17126429
-0.017595918
0.1703517
-0.0152413
0.16957168
-0.012910978
0.16878843
-0.01051966
0.16804838
-0.0083607981
0.16724814
-0.0062838835
0.16656295
-0.0042894619
0.16591266
-0.0025619943
0.16544236
-0.00081296001
0.16503474
0.00071566243
0.16479798
0.0022216104
0.16465182
0.0035176452
0.16470374
0.004898082
0.005846334
0.16493952
0.189037
-0.028117461
-0.19025705
0.18778561
-0.025623597
0.18681886
-0.023504568
0.18572649
-0.021031552
0.18469198
-0.018777515
0.18350226
-0.016406196
0.18241471
-0.014153753
0.18141203
-0.01190829
0.18057194
-0.0096795716
0.17979766
-0.0075865164
0.1790682
-0.0055544295
0.17843639
-0.0036576541
0.17782219
-0.0019477874
0.17736966
-0.00036043041
0.17696004
0.0011252842
0.17671613
0.0024655198
0.17654945
0.0036843261
0.17660814
0.0048393847
0.005678226
0.17677625
0.20268905
-0.026436911
-0.2043696
0.20111638
-0.024050925
0.19966096
-0.022049144
0.19835376
-0.019724357
0.19727308
-0.017696833
0.1961722
-0.01530531
0.1951693
-0.013150854
0.19413623
-0.010875223
0.19327639
-0.0088197303
0.19245663
-0.006766757
0.19179242
-0.0048902223
0.19118087
-0.0030460999
0.19066876
-0.0014356735
0.19024056
6.7763758e-05
0.18992026
0.0014455853
0.18972912
0.0026566652
0.18967338
0.00374006
0.18983408
0.004678685
0.005414906
0.1900974
0.21655073
-0.024783555
-0.21820409
0.21511275
-0.022612944
0.21361372
-0.020550119
0.21227768
-0.018388315
0.21092273
-0.016341885
0.20974405
-0.014126624
0.20871974
-0.012126545
0.20775569
-0.009911175
0.2069274
-0.007991433
0.20612941
-0.0059687679
0.20546629
-0.0042271088
0.204848
-0.0024278082
0.20436126
-0.00094893277
0.20398273
0.00044629105
0.20369936
0.0017289572
0.203521
0.0028350302
0.20347653
0.0037845323
0.20357984
0.0045753744
0.0051420255
0.20385272
0.23178982
-0.022982338
-0.23359104
0.2302085
-0.021031623
0.22874411
-0.019085727
0.22741617
-0.01706037
0.22607164
-0.014997363
0.2248746
-0.012929582
0.22365928
-0.010911221
0.22263832
-0.0088902205
0.22166959
-0.0070227032
0.22087036
-0.0051695288
0.22017129
-0.0035280455
0.21962468
-0.0018811944
0.21918817
-0.00051242748
0.21884097
0.00079349567
0.21865799
0.0019119375
0.21860695
0.0028860713
0.21868494
0.0037065381
0.21889586
0.0043644573
0.0047799952
0.21925789
0.248172
-0.020834207
-0.25032013
0.24619675
-0.019056371
0.24445235
-0.017341323
0.24295009
-0.015558112
0.24165834
-0.013705613
0.24050055
-0.011771791
0.23940328
-0.0098139552
0.23844313
-0.0079300731
0.23751613
-0.0060956996
0.23674516
-0.0043985528
0.23600321
-0.0027861036
0.23546377
-0.0013417462
0.23499767
-4.6331263e-05
0.23470388
0.0010872813
0.23449956
0.0021162643
0.23443999
0.0029456371
0.2345104
0.0036361323
0.23473003
0.0041448242
0.0044198001
0.23509023
0.26612073
-0.018557063
-0.26839788
0.2640595
-0.01699514
0.26216818
-0.015450003
0.26036842
-0.013758354
0.25877619
-0.012113375
0.25736678
-0.010362385
0.25617546
-0.0086226366
0.25517279
-0.006927405
0.25433588
-0.0052587865
0.25361847
-0.0036811428
0.2530651
-0.0022327338
0.25262559
-0.00090223755
0.25225214
0.00032712482
0.25206501
0.0012744088
0.25202
0.0021612774
0.25211667
0.002848965
0.25229957
0.0034532299
0.25265467
0.0037897307
0.0040073078
0.25306716
0.28557384
-0.015708041
-0.28842286
0.28310769
-0.014528996
0.28093391
-0.013276218
0.27902773
-0.011852183
0.27729634
-0.010381978
0.2757985
-0.0088645485
0.27446843
-0.007292565
0.27334171
-0.0058006821
0.27242288
-0.0043399642
0.27163135
-0.0028896047
0.27103633
-0.0016377124
0.27060228
-0.00046819271
0.27041462
0.00051478761
0.2703118
0.0013772263
0.27038111
0.0020919731
0.27057935
0.0026507166
0.27091783
0.003114754
0.27137789
0.0033296716
0.0034799789
0.27190522
0.30683657
-0.012437559
-0.31010705
0.30386057
-0.011552997
0.30118544
-0.010601092
0.29889024
-0.009556978
0.29699223
-0.0084839706
0.29535745
-0.0072297744
0.29406539
-0.0060005046
0.29298337
-0.0047186596
0.29214187
-0.0034984665
0.29154189
-0.0022896213
0.29107039
-0.0011662118
0.29072328
-0.00012107999
0.29052568
0.0007123871
0.29051454
0.0013883657
0.2906494
0.001957114
0.29091869
0.0023814208
0.29135042
0.002683033
0.29189626
0.0027838291
0.0028111992
0.29256504
0.33053656
-0.0087650115
-0.33420911
0.32713972
-0.0081561576
0.32402266
-0.0074840244
0.32122252
-0.0067568413
0.31878021
-0.0060416664
0.31668404
-0.0051335973
0.31496131
-0.0042777763
0.31358416
-0.0033415151
0.31254778
-0.0024620819
0.31186531
-0.0016071519
0.31149978
-0.00080067636
0.31149302
-0.00011432701
0.3116518
0.00055360982
0.31194741
0.0010927609
0.31235861
0.0015459116
0.31286166
0.0018783661
0.31343309
0.0021116018
0.31410326
0.0021136656
0.0020892083
0.31482525
0.35579553
-0.0046180983
-0.35994244
0.3519662
-0.004326835
0.34845595
-0.0039737706
0.34531068
-0.0036115708
0.34248385
-0.0032148339
0.34011475
-0.0027644998
0.33814069
-0.0023037124
0.33662021
-0.0018210403
0.33550426
-0.0013461258
0.3347937
-0.00089659598
0.33444158
-0.00044855384
0.33437504
-4.7788904e-05
0.33467071
0.00025794527
0.33519243
0.00057103302
0.33589759
0.00084075726
0.33667549
0.0011004612
0.3374913
0.0012957962
0.33843155
0.001173417
0.0012887718
0.33923198
0.38385144
-0.38846954
0.3795246
0.37555083
0.37193926
0.36872443
0.36595993
0.36365622
0.36183518
0.36048905
0.35959246
0.3591439
0.35909611
0.35935406
0.35992509
0.36076585
0.36186631
0.36316211
0.36433552
0.3656243
0.057016963
0.0086813006
-0.0084283626
0.056822719
0.011653861
-0.011459617
0.056800129
0.014680314
-0.014657723
0.056938752
0.017724897
-0.01786352
0.057219727
0.020827358
-0.021108332
0.057694825
0.023971351
-0.024446449
0.058283888
0.027095595
-0.027684658
0.058968076
0.030383937
-0.031068125
0.059760169
0.033555425
-0.034347518
0.060581062
0.036903314
-0.037724207
0.061452928
0.040137638
-0.041009503
0.062363081
0.043493975
-0.044404128
0.063271944
0.046838265
-0.047747128
0.064204326
0.050292923
-0.051225305
0.065010169
0.053816872
-0.054622715
0.065657309
0.057377839
-0.058024979
0.066179424
0.060938382
-0.061460496
0.066418127
0.064580083
-0.064818786
0.068649221
0.066163844
-0.068394938
0.061057552
0.0089761751
0.060951114
0.0117603
0.061051516
0.014579912
0.061367686
0.017408727
0.06177865
0.020416395
0.062398412
0.023351589
0.063036492
0.026457515
0.063861096
0.029559333
0.064700594
0.032715927
0.065612783
0.035991126
0.066516047
0.039234375
0.067454262
0.04255576
0.06837718
0.045915347
0.069332906
0.049337197
0.07026876
0.052881018
0.071172092
0.056474507
0.071982422
0.060128052
0.072489691
0.064072815
0.06818513
0.072953783
0.065530798
0.0093088864
0.065391424
0.011899674
0.065468241
0.014503095
0.065762055
0.017114912
0.066212785
0.019965666
0.066870511
0.022693863
0.067573769
0.025754257
0.068521171
0.02861193
0.06946862
0.031768479
0.070593985
0.034865761
0.071695713
0.038132647
0.072867945
0.041383529
0.074045645
0.044737647
0.075226506
0.048156337
0.076472238
0.051635286
0.077736431
0.055210314
0.079073959
0.058790524
0.080496413
0.062650362
0.066308131
0.082373411
0.070387608
0.0095666465
0.070273305
0.012013977
0.070427021
0.014349379
0.070716919
0.016825015
0.071270426
0.019412158
0.071908285
0.022056004
0.072744923
0.02491762
0.073722211
0.027634642
0.074812396
0.030678294
0.076004398
0.03367376
0.077413463
0.036723582
0.078776398
0.040020594
0.080393514
0.043120532
0.081975656
0.046574195
0.083946894
0.049664049
0.085979604
0.053177604
0.088455411
0.056314716
0.091227912
0.059877861
0.062543644
0.094992399
0.07567632
0.009814674
0.07555375
0.012136548
0.075793453
0.014109676
0.076085764
0.016532704
0.076717055
0.018780867
0.07735006
0.021422999
0.078361887
0.023905794
0.07934848
0.026648049
0.08061491
0.029411865
0.081931676
0.032356995
0.083526285
0.035128974
0.085162119
0.038384761
0.087214915
0.041067736
0.089366623
0.044422487
0.092140231
0.046890442
0.095100903
0.050216933
0.099091198
0.052324421
0.10359858
0.055370475
0.056488428
0.1096538
0.081133954
0.010098772
0.081108088
0.012162415
0.081379721
0.013838043
0.081790674
0.016121752
0.082507891
0.018063651
0.08327839
0.020652501
0.084423072
0.022761111
0.085539786
0.025531336
0.087032588
0.027919063
0.088564761
0.030824823
0.090460368
0.033233367
0.092553709
0.036291421
0.095034908
0.038586538
0.097912284
0.04154511
0.10143425
0.043368475
0.1056498
0.046001383
0.11082
0.047154224
0.11691715
0.049273327
0.048982036
0.12442354
0.087210014
0.010429918
0.087343883
0.012028546
0.087522825
0.013659101
0.088073553
0.015571024
0.088721969
0.017415235
0.089726654
0.019647816
0.0909131
0.021574666
0.092302818
0.024141618
0.093962172
0.026259709
0.095840923
0.028946073
0.09805942
0.031014871
0.10068701
0.03366383
0.10377316
0.035500392
0.10749685
0.037821421
0.11186535
0.038999972
0.11710326
0.040763476
0.12311161
0.041145871
0.13016037
0.042224565
0.041062203
0.13808021
0.093382458
0.010716316
0.093591571
0.011819433
0.093789278
0.013461394
0.094564305
0.014795997
0.095311463
0.016668078
0.096651206
0.018308073
0.097878645
0.020347227
0.099585049
0.022435215
0.10142864
0.024416121
0.10375181
0.026622905
0.10638685
0.028379826
0.10964657
0.030404117
0.11333517
0.031811789
0.1178124
0.033344193
0.12284107
0.0339713
0.12869764
0.034906911
0.13518433
0.034659179
0.14227503
0.035133863
0.033525706
0.14981153
0.10051712
0.010887069
0.10076707
0.011569483
0.10103477
0.013193698
0.10184571
0.013985054
0.10268982
0.015823969
0.10414034
0.01685755
0.10551334
0.018974228
0.1075854
0.020363154
0.10964503
0.022356491
0.11244459
0.023823349
0.11537956
0.025444856
0.11920915
0.026574527
0.12327566
0.027745278
0.12834047
0.028279389
0.13368741
0.028624359
0.13984308
0.028751242
0.14602374
0.028478516
0.1527261
0.028431505
0.027314977
0.15893683
0.10773017
0.010915679
0.10793195
0.01136771
0.10844849
0.012677154
0.109339
0.013094549
0.1103931
0.014769867
0.11192466
0.015325992
0.11359243
0.017306454
0.11593517
0.018020415
0.118364
0.01992766
0.1216344
0.020552952
0.12492751
0.022151746
0.12923886
0.022263184
0.13361063
0.023373506
0.13898583
0.022904192
0.14420626
0.023403926
0.15011634
0.022841159
0.15556636
0.023028499
0.16127542
0.022722441
0.022597716
0.16599268
0.1160197
0.010822833
0.1160824
0.011305012
0.11688286
0.0118767
0.11776204
0.012215363
0.11912152
0.013410389
0.12070226
0.013745254
0.12275265
0.01525607
0.12522132
0.015551738
0.12804932
0.017099661
0.13144133
0.017160945
0.13513071
0.018462369
0.13957115
0.017822746
0.1440055
0.018939154
0.1492145
0.017695198
0.15379358
0.018824839
0.15893671
0.017698031
0.16307467
0.018890543
0.16723136
0.018565748
0.01956668
0.17026239
0.12428125
0.010648907
0.12436409
0.011222171
0.12537578
0.010865006
0.12624822
0.011342922
0.12792348
0.011735131
0.12964929
0.012019444
0.13209593
0.012809428
0.13470454
0.012943128
0.13787425
0.01392996
0.14134672
0.013688478
0.14530177
0.014507321
0.14957866
0.013545855
0.15398576
0.014532052
0.15850093
0.013180025
0.16232708
0.014998695
0.16634251
0.013682595
0.16893493
0.016298122
0.17160933
0.015891356
0.018904869
0.17227114
0.1336163
0.010535934
0.13400829
0.010830186
0.13504271
0.0098305878
0.13601799
0.010367641
0.13796533
0.0097877852
0.13966912
0.010315663
0.14235127
0.010127272
0.14498142
0.010312977
0.14834055
0.010570836
0.15182908
0.010199945
0.15580362
0.010532784
0.15964693
0.0097025508
0.16347679
0.010702187
0.16681528
0.0098415327
0.16968105
0.012132926
0.17181729
0.011546358
0.1728001
0.015315317
0.17329778
0.01539367
0.020628107
0.17157454
0.14323797
0.010545742
0.14399152
0.010076638
0.14484114
0.0089809745
0.14618255
0.0090262235
0.14810642
0.00786392
0.15000208
0.0084200013
0.15292799
0.0072013662
0.15551556
0.0077254035
0.15908922
0.0069971773
0.16229419
0.0069949748
0.16591896
0.006908022
0.16902165
0.0065998556
0.1721782
0.0075456427
0.17437392
0.0076458133
0.1759366
0.010570239
0.17611498
0.011367985
0.17532686
0.016103436
0.17346358
0.017256948
0.024162863
0.16992882
0.15375235
0.010411353
0.15467328
0.0091557026
0.15542787
0.0082263854
0.15718729
0.0072668048
0.15887394
0.0061772701
0.16125207
0.0060418739
0.16394338
0.0045100556
0.16666378
0.0050049983
0.17010965
0.0035513145
0.17271338
0.0043912433
0.17596158
0.0036598218
0.17816872
0.0043927164
0.18024781
0.0054665586
0.18075084
0.0071427775
0.18087607
0.010445015
0.1793171
0.012926956
0.17707579
0.018344744
0.17330538
0.021027359
0.029157079
0.16831116
0.16533105
0.010019823
0.16626148
0.0082252673
0.16726341
0.0072244621
0.16913515
0.0053950653
0.17073231
0.0045801079
0.17337238
0.0034018042
0.17562898
0.0022534499
0.17860097
0.0020330153
0.18129691
0.00085536847
0.18374428
0.0019438748
0.18628929
0.0011148128
0.18713159
0.0035504252
0.18781027
0.0047878728
0.18664755
0.0083055009
0.18524467
0.0118479
0.18202386
0.016147756
0.17860782
0.021760789
0.17323849
0.026396688
0.035550253
0.16684532
0.17731552
0.0094805564
0.1781104
0.0074303897
0.17931771
0.0060171489
0.18109434
0.0036184363
0.18295242
0.0027220247
0.18556263
0.00079159906
0.18755904
0.00025703496
0.1903377
-0.00074564321
0.19217746
-0.00098438735
0.19441346
-0.0002921283
0.19534296
0.00018531655
0.1953599
0.0035334848
0.19487973
0.0052680474
0.19249876
0.010686474
0.18994409
0.014402569
0.18524886
0.020842985
0.18039488
0.026614767
0.17343145
0.033360121
0.042846595
0.1661351
0.19080942
0.0087685396
0.19163391
0.0066059053
0.19307773
0.0045733247
0.19474474
0.0019514286
0.19678447
0.00068229116
0.19895842
-0.0013823458
0.20080136
-0.0015859049
0.20300735
-0.0029516367
0.2040953
-0.0020723416
0.2053076
-0.0015044194
0.20464618
0.00084673669
0.20414018
0.0040394817
0.2019495
0.0074587295
0.19886633
0.013769645
0.19506274
0.018206164
0.18952612
0.026379597
0.18439941
0.031741481
0.17755799
0.040201539
0.047381215
0.17302337
0.20448428
0.0081369795
0.20538118
0.0057089982
0.20686709
0.003087416
0.20828976
0.00052876231
0.21022858
-0.0012565294
0.21193671
-0.0030904795
0.21377703
-0.0034262183
0.21513903
-0.0043136342
0.21561501
-0.0025483241
0.21583933
-0.0017287384
0.21462708
0.0020589834
0.21324325
0.005423313
0.20960649
0.011095495
0.20615703
0.0172191
0.20130313
0.023060068
0.1967571
0.03092562
0.19300998
0.035488608
0.18996532
0.043246199
0.045161426
0.19218511
0.22006613
0.0073287353
0.22117957
0.0045955663
0.22246622
0.0018007667
0.22380219
-0.00080721091
0.225506
-0.0029603423
0.22677208
-0.004356561
0.22830277
-0.0049569029
0.22871432
-0.0047251888
0.22879031
-0.0026243145
0.22791468
-0.00085309996
0.2260654
0.0039082647
0.22346653
0.0080221825
0.21965346
0.014908559
0.21665224
0.020220329
0.21284794
0.026864359
0.2116335
0.032140063
0.21151905
0.035603062
0.21567987
0.039085373
0.036284269
0.22455703
0.23590932
0.0065096451
0.23701202
0.0034928675
0.2383006
0.00051218504
0.23963817
-0.0021447808
0.24079539
-0.0041175706
0.24167292
-0.0052340877
0.24224569
-0.0055296699
0.24175334
-0.0042328396
0.24148455
-0.0023555263
0.23958005
0.0010513995
0.23737551
0.0061128049
0.23428864
0.011109055
0.23155671
0.017640491
0.22992369
0.02185335
0.22954564
0.027242408
0.23245862
0.02922708
0.23725688
0.030804807
0.24715374
0.029188509
0.025794947
0.25764306
0.25400901
0.0055677925
0.25501996
0.0024819232
0.25610855
-0.00057640674
0.25711474
-0.0031509766
0.25791044
-0.004913265
0.25844722
-0.005770867
0.25829757
-0.0053800248
0.25788782
-0.0038230862
0.2568394
-0.0013071079
0.25460013
0.0032906717
0.2526677
0.0080452282
0.25032519
0.013451566
0.24980705
0.018158636
0.25055257
0.021107829
0.25384649
0.023948489
0.2595003
0.023573268
0.26747857
0.022826534
0.2774526
0.019214481
0.018780335
0.28446721
0.27287763
0.0045953803
0.27384167
0.0015178828
0.27459902
-0.0013337582
0.27500161
-0.0035535648
0.27521342
-0.0051250786
0.27485577
-0.0054132121
0.27394119
-0.0044654444
0.27283199
-0.0027138879
0.27097954
0.00054533979
0.26938225
0.0048879608
0.26812076
0.0093067214
0.26814983
0.013422497
0.27039601
0.015912454
0.27387446
0.017629374
0.27982165
0.018001302
0.28692635
0.016468575
0.29459771
0.015155171
0.30037761
0.013434581
0.016461439
0.3026965
0.29357143
0.003588989
0.29438878
0.00070052977
0.2949233
-0.0018682714
0.29511775
-0.0037480175
0.29504255
-0.0050498833
0.29465229
-0.0050229484
0.29398508
-0.0037982407
0.29275944
-0.0014882466
0.29136123
0.0019435441
0.29060185
0.005647349
0.29068306
0.0092255094
0.2924937
0.011611859
0.29555561
0.012850544
0.29996529
0.013219696
0.30592159
0.012044998
0.31151782
0.010872347
0.31586935
0.010803637
0.31741644
0.011887498
0.017164743
0.31671313
0.31598654
0.0024276938
0.31660322
8.3854416e-05
0.31637283
-0.0016378804
0.31570683
-0.0030820195
0.31447789
-0.00382094
0.31292395
-0.0034690089
0.31133826
-0.0022125593
0.31010347
-0.00025345243
0.3095768
0.0024702074
0.31029888
0.0049252713
0.31273744
0.006786951
0.31670546
0.0076438395
0.32161572
0.0079402857
0.32722327
0.0076121462
0.33229748
0.0069707812
0.33546748
0.0077023493
0.33706949
0.0092016319
0.33688917
0.012067809
0.016666834
0.33738708
0.34053017
0.0011295062
0.34089017
-0.00027614654
0.34035574
-0.0011034454
0.33924664
-0.0019729234
0.3380364
-0.0026107012
0.33701539
-0.0024480013
0.33626571
-0.0014628759
0.3360812
-6.8951074e-05
0.33698281
0.0015685988
0.3389323
0.0029757804
0.34161626
0.0041029885
0.34493459
0.0043255111
0.34809252
0.0047823568
0.35109254
0.0046121349
0.35261435
0.0054489612
0.35419239
0.0061243116
0.35600504
0.0073889894
0.35950271
0.0085701326
0.0094489874
0.36672056
0.3667538
0.36647765
0.36537421
0.36340129
0.36079058
0.35834258
0.35687971
0.35681075
0.35837935
0.36135513
0.36545812
0.36978363
0.37456599
0.37917812
0.38462709
0.3907514
0.39814039
0.40671052
0.41615951
0.060746298
0.077209296
-0.07179175
0.054717657
0.081247541
-0.0752189
0.048098306
0.085740322
-0.079120971
0.040687927
0.090021088
-0.082610709
0.031541639
0.095453869
-0.086307581
0.020589455
0.10090296
-0.089950777
0.0051930046
0.10635448
-0.090958033
-0.017091235
0.10429426
-0.082010024
-0.043077798
0.093947909
-0.067961346
-0.065703204
0.088836129
-0.066210722
-0.087061829
0.08431184
-0.062953216
-0.10517307
0.077233847
-0.059122605
-0.11979287
0.071990127
-0.057370328
-0.13151666
0.06519611
-0.053472322
-0.13936145
0.054537731
-0.04669294
-0.14410846
0.041211589
-0.036464581
-0.14483443
0.029817355
-0.029091381
-0.14302736
0.022343951
-0.024151019
0.017138706
-0.13823502
-0.021931052
0.068009238
0.082153841
0.062307688
0.086949091
0.056348663
0.091699348
0.049225687
0.097144065
0.041590481
0.10308908
0.032520985
0.10997246
0.020936068
0.1179394
0.0025411697
0.12268916
-0.02396015
0.12044923
-0.051328179
0.11620416
-0.077129239
0.1101129
-0.099595001
0.099699608
-0.11702829
0.089423417
-0.13024433
0.078412147
-0.13991975
0.064213151
-0.14714883
0.048440667
-0.15094511
0.033613633
-0.15101543
0.02241427
0.013584213
-0.14746093
0.078006303
0.086520949
0.073497629
0.091457765
0.069160715
0.096036262
0.064356218
0.10194856
0.059859043
0.10758625
0.055499717
0.11433178
0.051646912
0.12179221
0.045030486
0.12930559
0.032797752
0.13268196
0.015966738
0.13303517
-0.00435762
0.13043726
-0.027153938
0.12249593
-0.047933064
0.11020254
-0.064720468
0.095199551
-0.078096007
0.077588691
-0.089331315
0.059675976
-0.098787171
0.043069489
-0.10542137
0.02904847
0.017927212
-0.10976437
0.091552944
0.089960405
0.088843101
0.094167608
0.086073852
0.098805513
0.084448577
0.10357384
0.083157946
0.10887688
0.08323817
0.11425156
0.084756066
0.12027431
0.087544872
0.12651678
0.088565837
0.131661
0.087673362
0.13392765
0.084826668
0.13328395
0.078068668
0.12925393
0.06814073
0.12013048
0.055610412
0.10772987
0.041186421
0.092012682
0.025441019
0.075421377
0.009278766
0.059231742
-0.006952031
0.045279267
0.034444117
-0.023468936
0.10745764
0.092156568
0.10604529
0.095579958
0.10497478
0.099876025
0.10492435
0.10362426
0.10574092
0.10806032
0.10807504
0.11191743
0.11183907
0.11651028
0.11779715
0.1205587
0.12453009
0.12492805
0.13131216
0.12714558
0.13721019
0.12738593
0.14056862
0.12589549
0.14061374
0.12008536
0.13625745
0.11208616
0.12777639
0.10049374
0.11531581
0.087881955
0.099013267
0.075534287
0.080423195
0.063869339
0.054027187
0.060840124
0.12283607
0.093744039
0.12194674
0.096469289
0.12214828
0.099674479
0.1225674
0.10320514
0.12433296
0.10629477
0.12709173
0.10915866
0.13122344
0.11237857
0.13683543
0.11494671
0.14389092
0.11787256
0.1519117
0.1191248
0.15984817
0.11944946
0.16694629
0.11879737
0.17123776
0.11579388
0.17217591
0.11114801
0.16882323
0.10384642
0.16171211
0.094993077
0.1503959
0.086850502
0.13566263
0.07860261
0.071313308
0.11837651
0.13672048
0.095103766
0.13587635
0.097313422
0.1359079
0.099642926
0.13636705
0.10274599
0.13797003
0.10469179
0.14044334
0.10668535
0.14398475
0.10883716
0.14797498
0.11095649
0.15371248
0.11213506
0.16038797
0.11244931
0.16702582
0.11281161
0.17358207
0.11224113
0.17857063
0.11080532
0.1827948
0.10692384
0.18285031
0.10379091
0.17883798
0.099005411
0.17187043
0.093818047
0.16219211
0.08828093
0.083362212
0.15014321
0.14826115
0.096654139
0.1473707
0.098203875
0.1466643
0.10034933
0.14691342
0.10249687
0.14764687
0.10395833
0.14929467
0.10503754
0.15165811
0.10647372
0.15466263
0.10795196
0.15903388
0.10776382
0.16365489
0.1078283
0.16849982
0.10796668
0.17349505
0.1072459
0.17854243
0.10575793
0.1820209
0.10344538
0.18388383
0.10192797
0.1832632
0.099626039
0.18031019
0.096771065
0.17468178
0.093909339
0.091309153
0.16673484
0.15694812
0.098642845
0.155214
0.099938002
0.15393373
0.10162959
0.15383422
0.10259638
0.15370934
0.10408322
0.15445953
0.10428735
0.15567069
0.10526257
0.15796715
0.10565549
0.16059416
0.10513681
0.16383528
0.10458719
0.1668842
0.10491776
0.17021242
0.10391768
0.17311753
0.10285282
0.17543724
0.10112567
0.1777326
0.099632604
0.17897576
0.098382886
0.17843957
0.097307251
0.17558293
0.096765983
0.096293317
0.17059876
0.1634011
0.10123443
0.16078678
0.10255233
0.15891607
0.1035003
0.15751329
0.10399915
0.15687702
0.1047195
0.15655967
0.1046047
0.15681421
0.10500803
0.15812757
0.10434213
0.15947793
0.10378645
0.1612043
0.10286081
0.16320952
0.10291254