/*--------------------------------*- C++ -*----------------------------------*\
  =========                 |
  \\      /  F ield         | OpenFOAM: The Open Source CFD Toolbox
   \\    /   O peration     | Website:  https://openfoam.org
    \\  /    A nd           | Version:  11
     \\/     M anipulation  |
\*---------------------------------------------------------------------------*/
FoamFile
{
    format      ascii;
    class       volScalarField;
    location    "1.2";
    object      p;
}
// * * * * * * * * * * * * * * * * * * * * * * * * * * * * * * * * * * * * * //

dimensions      [0 2 -2 0 0 0 0];

internalField   nonuniform List<scalar> 
4455
(
4090.8783
4101.0285
4120.8768
4153.2927
4196.2462
4254.8606
4325.7321
4435.0353
4502.5521
4085.8249
4096.6159
4118.2958
4151.8643
4198.5142
4260.278
4341.8981
4454.8276
4574.4625
4075.4953
4088.0942
4111.9787
4147.7321
4196.8
4262.1042
4347.6879
4470.872
4600.214
4060.2295
4075.7472
4102.2161
4140.4539
4191.5216
4260.6819
4350.7589
4484.9351
4630.3626
4041.1487
4059.9143
4089.2458
4129.9901
4183.1417
4255.6927
4352.4117
4498.3707
4672.5909
4019.1067
4041.1973
4073.421
4116.5266
4171.9014
4247.8484
4351.4268
4511.8746
4712.9038
3994.8934
4020.205
4055.1907
4100.2953
4157.5259
4236.8458
4347.1218
4524.4988
4754.7144
3969.5167
3997.507
4034.9762
4081.7587
4140.5107
4223.0692
4339.0615
4534.9793
4796.9658
3943.734
3973.8229
4013.1714
4061.3494
4121.3072
4207.0958
4328.422
4543.1843
4842.1623
3918.1904
3893.6249
3870.8536
3850.2703
3832.1039
3816.66
3804.1824
3794.8817
3789.0054
3949.6
3925.2292
3901.4567
3878.7478
3857.5295
3838.1909
3821.0892
3806.5569
3794.6902
3989.9459
3965.4835
3940.7302
3916.1245
3892.03
3868.7573
3846.5109
3825.3441
3804.9143
4038.8308
4013.9836
3988.0305
3961.4338
3934.5206
3907.6715
3881.2632
3855.6634
3830.5248
4099.5943
4074.7098
4048.3036
4020.7615
3992.1644
3962.8861
3933.3567
3904.2053
3874.8707
4188.6114
4166.0203
4141.0951
4114.132
4084.7857
4053.6469
4021.2414
3988.6451
3955.9439
4315.7169
4299.0598
4280.1128
4257.9577
4230.0427
4196.874
4159.3184
4119.6516
4078.8904
4551.4917
4549.0198
4534.7235
4509.476
4474.5061
4433.0474
4387.5528
4339.2319
4287.8263
4903.1063
4944.0788
4936.3755
4879.9956
4796.9097
4700.2521
4597.3586
4491.5986
4385.7682
3787.624
3785.6904
3781.7667
3776.5762
3769.7571
3761.8802
3752.0148
3740.9268
3727.5007
3787.8585
3781.173
3772.5787
3762.1095
3749.7523
3735.6323
3719.6719
3701.8599
3682.0153
3790.6254
3779.8119
3768.7025
3756.7934
3743.6744
3729.0717
3712.8165
3694.84
3675.065
3812.051
3799.2343
3787.097
3774.578
3760.8548
3745.4542
3728.1248
3708.792
3687.407
3851.3596
3836.462
3823.8464
3811.4071
3797.6284
3781.8388
3763.7606
3743.387
3720.8534
3929.0421
3912.2155
3898.1976
3884.1094
3868.1873
3849.8427
3828.9336
3805.6558
3780.5363
4045.2163
4024.3462
4007.4813
3990.0996
3970.049
3946.9269
3920.9642
3892.6846
3863.0931
4238.7631
4194.0461
4148.2383
4101.0444
4052.0607
4001.5679
3950.6603
3900.6549
3853.3544
4292.4247
4209.0093
4125.648
4043.6956
3963.7721
3886.6306
3813.1116
3744.9178
3686.8355
3651.8097
3621.2169
3608.4894
3625.0596
3670.7805
3739.5864
3820.9763
3909.1157
4000.9781
3813.2697
3779.1477
3750.4446
3728.758
3714.7923
3708.7873
3711.7094
3723.6947
3742.8865
3834.4837
3807.7802
3782.1439
3758.3699
3736.9941
3718.4341
3702.854
3690.4254
3681.2161
3754.8184
3729.5848
3704.0611
3678.3884
3652.6609
3626.9934
3601.4746
3576.2435
3551.3898
3696.9715
3672.3823
3646.5729
3619.6438
3591.6439
3562.6492
3532.6922
3501.8549
3470.1257
3664.3776
3639.946
3613.7048
3585.6449
3555.7293
3523.93
3490.1877
3454.4917
3416.7692
3653.6817
3630.7167
3605.8716
3579.0927
3550.2911
3519.3677
3486.1861
3450.6336
3412.544
3660.232
3636.3494
3610.3216
3582.1144
3551.7447
3518.9903
3483.7898
3445.828
3404.9985
3710.38
3689.6803
3667.6407
3644.1154
3618.9312
3591.4624
3561.4296
3528.1988
3491.7357
3451.6778
3408.0125
3360.3402
3308.6737
3252.4762
3191.71
3125.6872
3054.3789
2976.8551
3360.9875
3313.8048
3263.123
3208.9008
3150.7592
3088.6484
3022.0376
2950.8649
2874.4533
3371.8195
3328.2765
3281.827
3232.2241
3179.3595
3122.8934
3062.6868
2998.265
2929.4362
3377.0255
3335.1475
3291.1352
3244.7854
3196.0614
3144.6155
3090.3523
3032.7358
2971.5935
3437.5743
3404.1043
3369.7581
3334.2996
3297.7235
3259.6015
3219.8673
3177.8755
3133.4968
3527.072
3503.332
3480.2842
3457.7795
3435.8364
3413.9421
3391.9559
3368.9958
3344.8229
3675.333
3672.6392
3673.0871
3676.111
3681.5106
3688.4649
3696.7257
3705.315
3713.8507
3768.5553
3800.0769
3837.0031
3878.8246
3925.0016
3974.9379
4027.9828
4083.4251
4140.4495
4095.7363
4192.6407
4291.6039
4392.2553
4495.3357
4600.6046
4708.8746
4819.631
4933.4356
5049.4563
4198.1154
3721.2484
3318.281
3085.8667
2906.1777
2855.5825
2792.6827
2893.1033
5167.6679
4255.334
3726.8889
3289.0463
3034.7976
2836.2385
2776.4743
2704.7531
2802.0457
5286.9449
4310.7373
3729.7533
3255.7093
2979.2131
2760.815
2691.3611
2610.5311
2703.6043
5406.5224
4362.8221
3728.8561
3217.7484
2918.8638
2679.5849
2599.9713
2508.9393
2596.5567
5523.2651
4409.5151
3722.6616
3173.4067
2852.4588
2591.3924
2501.4161
2399.7919
2480.9442
5635.8311
4448.7096
3709.7061
3121.8977
2779.6497
2495.8717
2395.3832
2282.0162
2355.5183
5734.3279
4477.3432
3687.8879
3061.7966
2698.8902
2391.7801
2280.8734
2155.3517
2220.4455
5814.7697
4492.4594
3655.0777
2991.929
2609.525
2278.8414
2157.3975
2019.2362
2075.2916
5854.4197
4487.0402
3607.3306
2910.2827
2509.4311
2155.8624
2023.5062
1873.5907
1920.5781
1757.365
1717.636
1876.1985
2020.8748
2393.6688
2812.0699
3536.9511
4449.4856
5843.566
1590.2672
1550.3464
1712.3476
1871.5263
2254.9324
2687.8781
3422.0269
4336.2974
5618.8081
1401.2258
1370.2501
1533.2119
1707.1863
2094.4101
2537.182
3265.6658
4160.8243
5350.7843
1186.8131
1175.7625
1338.9505
1527.264
1914.0367
2363.9743
3082.082
3959.1614
5101.1134
944.58097
965.22851
1129.5764
1331.4835
1717.2439
2174.0318
2882.6486
3748.294
4860.3497
687.29704
738.73307
904.98595
1120.715
1505.8069
1970.0879
2671.5788
3529.7289
4619.8615
412.57468
495.87059
664.90614
894.63565
1280.4995
1752.3182
2448.257
3300.0834
4373.5469
123.84054
237.51909
409.02888
653.88192
1041.0832
1520.2193
2211.8229
3057.1528
4119.9056
-185.95357
-36.568229
136.72612
397.66712
787.04258
1272.6384
1960.8796
2799.8985
3859.7164
3593.6837
2528.5517
1695.2277
1009.6092
517.75409
126.57346
-152.33622
-326.22597
-513.62501
3323.1787
2244.0557
1414.6586
730.78291
232.74376
-160.07873
-459.02046
-631.5122
-863.34198
3048.797
1946.3167
1119.9411
436.51783
-68.451378
-461.6399
-782.68997
-951.90091
-1230.3776
2769.1378
1635.5409
811.1328
127.07155
-385.62914
-778.63512
-1124.3065
-1288.0905
-1618.0004
2481.6253
1310.3893
489.18878
-196.88399
-718.4922
-1110.6616
-1481.5798
-1638.7912
-2021.6084
2184.0164
970.74903
153.9322
-534.77741
-1066.1509
-1457.7268
-1855.2028
-2004.8868
-2444.2337
1874.0697
615.61138
-193.37758
-886.05362
-1428.0494
-1819.2492
-2241.8467
-2384.6246
-2880.4749
1550.2146
245.69355
-552.5021
-1250.161
-1803.2705
-2195.2725
-2642.1024
-2778.6427
-3331.8201
1210.6034
-139.49228
-922.53018
-1626.5656
-2191.5752
-2584.3125
-3051.671
-3184.7086
-3788.1004
-4239.7469
-3606.4718
-3475.3364
-2995.0042
-2601.9484
-2029.4634
-1321.8158
-565.76207
818.31876
-4677.6302
-4044.2296
-3908.1772
-3428.7076
-3037.3168
-2464.2445
-1755.2702
-1050.4589
340.98476
-5129.1413
-4493.2821
-4346.0479
-3875.6997
-3483.7036
-2913.2348
-2199.0536
-1548.1335
-179.24399
-5592.3006
-4949.514
-4785.8006
-4331.8984
-3940.6645
-3373.0922
-2647.5164
-2046.9415
-741.01357
-6062.8193
-5410.2222
-5228.5231
-4794.8488
-4405.2184
-3841.4071
-3096.0941
-2533.0187
-1350.0394
-6514.9357
-5869.2197
-5670.1388
-5258.5566
-4875.813
-4317.0203
-3538.7647
-2994.8514
-2020.8069
-6949.0312
-6322.2999
-6109.1342
-5720.6222
-5348.5478
-4800.3998
-3975.1611
-3408.8951
-2783.5835
-7350.7307
-6762.471
-6539.2851
-6174.5687
-5820.2782
-5291.7736
-4407.0266
-3755.8628
-3631.4654
-7781.1222
-7182.8721
-6958.2598
-6617.1486
-6282.8859
-5788.9771
-4838.4212
-4002.9482
-4485.9045
-8197.3308
-7579.6026
-7367.8801
-7048.2759
-6747.5177
-6300.9789
-5311.6927
-4115.7551
-5139.7159
-8547.3703
-7944.4743
-7766.8392
-7467.8642
-7198.4243
-6783.3443
-5754.4693
-4115.8928
-5494.7643
-8823.6157
-8286.0441
-8146.4705
-7869.1031
-7621.1734
-7201.1478
-6118.8445
-4182.5133
-5332.2369
-9048.4271
-8604.946
-8504.1928
-8263.6112
-8034.1395
-7608.9394
-6420.3956
-4369.1279
-4241.1408
-9232.9573
-8904.1598
-8841.1236
-8660.9948
-8461.3759
-8051.0151
-6694.2863
-4761.9061
-4096.8411
-9380.4813
-9181.2026
-9154.6917
-9069.8791
-8904.7597
-8545.0047
-6992.9354
-5110.3101
-4707.8428
-9486.523
-9438.828
-9442.2969
-9491.988
-9363.1193
-9084.2526
-7289.391
-5107.7717
-4648.7074
-9548.7135
-9677.692
-9700.9567
-9927.9966
-9831.1616
-9632.0983
-7541.7455
-5293.5696
-4852.0633
-9561.8883
-9897.4629
-9930.5969
-10370.891
-10309.892
-10206.373
-7751.3524
-5607.7019
-4919.7268
-4951.6832
-5711.8008
-7893.7685
-10698.183
-10761.812
-10784.897
-10122.667
-10087.865
-9540.2171
-4966.9565
-5760.879
-8133.4118
-11187.037
-11179.719
-11157.103
-10284.311
-10244.556
-9475.5536
-4994.7438
-5839.7176
-8456.6272
-11681.651
-11601.115
-11506.06
-10417.835
-10363.775
-9366.2721
-5046.1023
-6015.0176
-8809.2015
-12161.091
-12024.461
-11830.169
-10525.11
-10441.631
-9211.9479
-5120.7111
-6195.3548
-9182.0858
-12616.95
-12448.408
-12128.552
-10603.18
-10476.425
-9020.1917
-5201.5225
-6367.1096
-9580.464
-13060.126
-12870.027
-12398.941
-10655.991
-10470.257
-8793.0136
-5287.3089
-6543.5503
-9977.8486
-13495.642
-13285.505
-12635.357
-10681.448
-10422.514
-8537.5547
-5417.1968
-6691.511
-10371.078
-13904.265
-13687.242
-12830.221
-10681.248
-10331.782
-8256.037
-5495.5645
-6778.8117
-10703.834
-14337.991
-14127.139
-12975.227
-10652.703
-10190.673
-7923.2614
-5577.1867
-7129.9583
-11256.393
-14996.326
-14696.914
-13094.653
-10538.155
-9867.0424
-7321.5472
-5762.2965
-7901.8374
-12822.011
-16352.847
-15337.424
-13033.32
-10197.839
-9244.9406
-6447.2983
-5895.0377
-8747.7938
-13830.074
-17513.657
-15711.92
-12736.42
-9680.3865
-8469.0124
-5545.7008
-5979.4267
-9663.9956
-15326.69
-18553.979
-15812.298
-12205.106
-8997.1572
-7563.4116
-4648.392
-6283.0201
-10602.075
-16357.796
-19429.373
-15618.728
-11472.021
-8225.5589
-6596.5672
-3800.0751
-6745.7956
-11539.365
-17716.155
-20145.426
-15151.008
-10560.406
-7396.9827
-5603.8507
-3051.5052
-7281.5496
-12462.481
-18728.096
-20567.925
-14415.538
-9544.5568
-6571.5328
-4637.3244
-2411.6157
-7834.132
-13384.666
-19807.959
-20699.479
-13453.209
-8470.9007
-5768.5077
-3712.854
-1891.9143
-8298.642
-14335.886
-20679.917
-20352.29
-12300.224
-7454.9462
-5032.1089
-2876.79
-1494.2741
-7598.2079
-12688.836
-19944.094
-20450.957
-12722.369
-6238.3692
-3593.3761
-1234.9942
848.53944
-7603.1645
-12713.78
-20020.188
-20505.269
-12848.818
-6275.4492
-3637.4741
-1424.0208
720.06562
-7622.3601
-12730.423
-20181.509
-20621.351
-13015.456
-6355.2815
-3710.5371
-1613.5954
590.46199
-7654.4114
-12798.095
-20491.515
-20705.304
-13284.826
-6494.4611
-3788.4265
-1802.4113
437.18231
-7690.5438
-12866.988
-20753.088
-20925.61
-13564.102
-6661.9985
-3928.22
-1976.1521
303.4632
-7733.9222
-12941.098
-20986.483
-21333.377
-13841.306
-6838.3487
-4082.013
-2136.8212
174.91007
-7779.0342
-13033.725
-21246.295
-21637.893
-14159.869
-6997.9023
-4253.8299
-2294.0774
67.773789
-7822.0761
-13145.131
-21531.331
-22070.37
-14526.124
-7140.8019
-4414.0724
-2420.6047
-24.048838
-7853.2352
-13268.136
-21791.806
-22328.728
-14739.644
-7256.4512
-4558.3543
-2455.0237
-167.26244
-8317.9277
-14404.353
-20783.921
-20368.884
-12202.719
-7423.7395
-5031.988
-2871.4985
-1491.1029
-7850.1856
-13448.505
-19913.021
-20728.142
-13375.032
-8428.2223
-5762.8475
-3707.1475
-1888.3085
-7293.6466
-12518.646
-18831.659
-20609.94
-14355.682
-9498.6756
-6559.117
-4630.068
-2407.2885
-6755.3525
-11587.793
-17813.843
-20198.447
-15108.169
-10518.011
-7378.3981
-5594.1901
-3046.102
-6291.7767
-10642.425
-16449.072
-19490.905
-15592.19
-11434.973
-8203.8578
-6584.2725
-3793.2657
-5989.5466
-9696.2487
-15413.315
-18620.215
-15801.237
-12175.256
-8975.0565
-7548.9178
-4639.8644
-5904.2118
-8772.7325
-13905.101
-17581.42
-15714.681
-12715.098
-9660.1064
-8453.498
-5535.5486
-5769.0857
-7919.8386
-12892.936
-16419.712
-15351.067
-13020.273
-10180.992
-9229.6568
-6435.9113
-5582.4624
-7142.1297
-11313.223
-15059.67
-14718.064
-13089.453
-10525.461
-9853.2957
-7309.6712
-9536.1258
-10089.299
-10128.042
-10800.414
-10789.693
-10740.384
-7923.6806
-5712.5041
-4950.9073
-9470.0154
-10244.363
-10288.227
-11171.664
-11208.192
-11231.671
-8166.1056
-5761.3124
-4966.7705
-9359.3529
-10361.818
-10420.138
-11519.325
-11629.953
-11728.78
-8491.8962
-5843.0132
-4995.6332
-9203.8064
-10437.859
-10525.636
-11841.828
-12053.419
-12210.921
-8847.1964
-6020.2201
-5048.2993
-9010.9857
-10470.853
-10601.827
-12138.324
-12477.228
-12669.74
-9223.1696
-6201.299
-5123.8669
-8782.9366
-10462.958
-10652.69
-12406.584
-12898.451
-13115.734
-9624.4221
-6374.1769
-5205.4815
-8526.7745
-10413.582
-10676.161
-12640.629
-13313.259
-13553.986
-10024.663
-6551.6777
-5291.7721
-8244.7461
-10321.343
-10673.967
-12832.887
-13714.077
-13965.039
-10420.599
-6700.6371
-5422.2827
-7911.625
-10178.883
-10643.412
-12975.043
-14152.555
-14400.331
-10757.347
-6787.7076
-5501.0335
-4918.621
-5608.95
-7780.2412
-10246.255
-10336.944
-10387.153
-9937.4082
-9900.3909
-9559.2305
-4851.2773
-5297.2893
-7569.186
-9669.079
-9857.1658
-9944.7409
-9709.2088
-9681.9628
-9547.3801
-4646.6095
-5110.2629
-7315.1069
-9118.4564
-9388.0575
-9508.9983
-9451.8933
-9444.3283
-9486.702
-4706.6539
-5114.2989
-7017.0453
-8576.3613
-8928.635
-9086.9726
-9165.3878
-9187.9346
-9382.2411
-4097.1019
-4767.2086
-6716.8344
-8079.7538
-8484.2071
-8678.0659
-8852.7099
-8912.0541
-9236.2674
-4239.6801
-4375.4922
-6441.8896
-7635.4123
-8055.9298
-8280.5406
-8516.4574
-8613.9012
-9053.1832
-5330.0781
-4190.5541
-6139.612
-7225.6933
-7641.9399
-7885.8188
-8159.2423
-8295.9294
-8829.7024
-5493.6065
-4125.1568
-5774.3976
-6806.2034
-7218.1816
-7484.3131
-7780.0253
-7955.1768
-8554.7084
-5139.9845
-4125.3597
-5329.9384
-6322.0001
-6766.374
-7064.5177
-7381.4237
-7591.0199
-8205.9155
-4251.4484
-3618.3633
-3487.2121
-3006.8683
-2613.0758
-2038.9248
-1328.7977
-570.82973
813.52479
-4689.4767
-4056.4912
-3920.5078
-3441.2102
-3049.2089
-2474.4617
-1762.6886
-1055.543
336.41211
-5141.0989
-4505.8755
-4358.8215
-3888.858
-3496.4391
-2924.3437
-2207.0704
-1553.2202
-183.544
-5604.2736
-4962.358
-4798.9817
-4345.7053
-3954.2987
-3385.2284
-2656.3079
-2052.1818
-745.07429
-6074.688
-5423.1956
-5242.0551
-4809.2749
-4419.795
-3854.7108
-3105.8358
-2538.4724
-1353.7854
-6526.5427
-5882.1945
-5683.9316
-5273.5444
-4891.3367
-4331.6351
-3549.6574
-3000.7511
-2024.0934
-6960.218
-6335.1333
-6123.0828
-5736.103
-5365.0097
-4816.4681
-3987.4539
-3415.432
-2786.1652
-7361.3323
-6774.9969
-6553.2464
-6190.4254
-5837.6207
-5309.4085
-4421.0271
-3763.31
-3633.291
-7790.8959
-7194.9246
-6972.085
-6633.2469
-6301.0246
-5808.2638
-4854.3993
-4011.5266
-4487.0696
1205.6089
-144.60643
-929.22707
-1635.4191
-2202.0274
-2595.5792
-3063.0816
-3196.2038
-3799.5688
1545.2449
240.55938
-558.98479
-1258.5262
-1813.134
-2205.9821
-2653.0529
-2789.7262
-3342.9924
1869.0668
610.46156
-199.6778
-894.0208
-1437.3893
-1829.4389
-2252.3456
-2395.2911
-2891.3082
2178.997
965.59714
147.77906
-542.38886
-1075.0214
-1467.425
-1865.2704
-2015.1421
-2454.701
2476.5675
1305.2094
483.15305
-204.16019
-726.9389
-1119.9016
-1491.225
-1648.6423
-2031.6921
2764.0782
1630.3624
805.20668
120.07713
-393.70785
-787.45915
-1133.5469
-1297.5545
-1627.6952
3043.7281
1941.1413
1114.1099
429.73405
-76.202938
-470.09009
-791.55132
-960.99294
-1239.6886
3318.1299
2238.9003
1408.9166
724.19415
225.28598
-168.18217
-467.5337
-640.25078
-872.27905
3588.6503
2523.4182
1689.5652
1003.2167
510.56656
118.78928
-160.51903
-334.62151
-522.19727
1751.4301
1711.6346
1870.299
2015.1271
2388.1473
2806.8894
3532.0034
4444.7968
5838.9839
1584.0931
1544.1275
1706.2537
1865.6066
2249.2682
2682.59
3417.0026
4331.5356
5614.1396
1394.8047
1363.8048
1526.9078
1701.0831
2088.5929
2531.7796
3260.56
4156.0054
5346.0465
1180.1325
1169.0864
1332.421
1520.9641
1908.0569
2358.451
3076.893
3954.275
5096.3023
937.62378
958.30542
1122.8125
1324.9755
1711.0948
2168.3828
2877.3786
3743.3565
4855.4825
680.04799
731.54199
897.97432
1113.9868
1499.4797
1964.3062
2666.2286
3524.743
4614.9521
405.01803
488.40068
657.62616
887.67252
1273.9831
1746.3977
2442.8285
3295.058
4368.6112
115.95909
229.76007
401.46429
646.66554
1034.3622
1514.1513
2206.3166
3052.0872
4114.9315
-194.1738
-44.637009
128.85986
390.17842
780.09907
1266.4138
1955.2966
2794.8
3854.713
1914.8711
2069.8002
2215.1598
2350.4291
2476.0432
2591.8359
2699.0562
2797.6634
2888.8802
1867.7937
2013.6349
2149.9383
2276.7822
2394.7295
2504.0416
2605.792
2700.1685
2788.2473
2017.7944
2151.8666
2275.5144
2390.1901
2496.383
2595.093
2686.6327
2771.8911
2851.1397
2150.2765
2273.409
2386.4952
2490.7301
2586.3897
2674.7179
2756.0803
2831.6333
2901.699
2504.0401
2604.2588
2693.7451
2774.6235
2847.5491
2914.0689
2974.531
3030.227
3081.4058
2905.1989
2986.9377
3056.8964
3117.0881
3168.6875
3213.1198
3251.1714
3284.5994
3313.9252
3602.4504
3650.2633
3683.1396
3705.025
3718.0489
3724.3127
3725.2802
3722.4867
3716.9183
4482.4064
4487.8779
4472.8114
4444.2288
4405.086
4358.4465
4306.4168
4251.0701
4193.909
5849.8213
5810.196
5729.7799
5631.3149
5518.7869
5402.0875
5282.5544
5163.3235
5045.1628
2972.7844
2870.1615
2925.1298
2967.2388
3129.1446
3340.5584
3709.5936
4136.3026
4929.194
3050.4546
2946.7128
2994.0906
3028.5025
3173.6306
3364.8226
3701.1326
4079.3412
4815.434
3121.9028
3018.0204
3058.6404
3086.2381
3215.7283
3387.8744
3692.619
4023.963
4704.7213
3188.0596
3084.7612
3118.971
3140.6179
3255.5668
3409.9525
3684.4354
3970.981
4596.505
3248.9537
3146.9978
3175.5574
3192.1783
3293.7917
3431.9396
3677.5586
3921.1096
4491.2923
3305.2735
3205.2611
3228.5384
3241.0142
3330.4692
3453.9754
3672.2376
3875.002
4388.2554
3357.0566
3259.6006
3278.254
3287.4737
3366.0281
3476.5726
3669.2932
3833.2502
4287.6483
3404.8403
3310.3954
3324.8126
3331.5931
3400.4737
3499.7116
3668.9259
3796.3939
4188.7443
3448.611
3357.6871
3368.461
3373.5756
3434.0428
3523.541
3671.7015
3764.9446
4091.8977
3708.0116
3657.7131
3651.1016
3661.7355
3694.2657
3752.0625
3831.6178
3810.3224
3648.5765
3687.2523
3633.7614
3628.065
3637.2265
3669.5946
3726.7436
3804.828
3776.1182
3617.9014
3665.1498
3607.6597
3603.1444
3610.9043
3643.6998
3701.1332
3779.1043
3747.3336
3605.0956
3641.5581
3579.374
3576.2863
3582.7604
3616.6828
3675.3731
3755.2434
3725.5711
3621.6015
3616.3036
3548.9218
3547.4019
3552.758
3588.5926
3649.5586
3733.7821
3711.5324
3667.2721
3588.7577
3516.0806
3516.3924
3520.869
3559.5057
3623.8049
3715.1375
3705.461
3735.9983
3558.6431
3480.7891
3483.121
3487.0341
3529.4537
3598.2014
3699.4729
3708.3184
3817.3281
3525.3254
3442.7317
3447.4747
3451.2423
3498.5197
3572.8855
3686.9601
3720.2303
3905.3988
3488.7689
3401.8026
3409.2873
3413.4211
3466.6927
3547.9462
3677.6674
3739.3499
3997.1963
3683.6818
3850.4918
3860.3157
3777.8663
3718.2278
3684.8398
3672.553
3679.5608
3725.1861
3741.8585
3897.8816
3889.9986
3803.0721
3740.8405
3706.297
3692.3924
3699.4655
3738.6565
3810.1428
3947.9793
3918.3673
3826.4334
3761.2897
3725.698
3710.429
3717.333
3749.7825
3883.7483
3998.9791
3944.4163
3847.4229
3779.4402
3743.0918
3726.7402
3733.3444
3759.6817
3960.978
4049.5675
3967.6217
3865.8449
3795.2991
3758.5532
3741.395
3747.5105
3767.5865
4040.9653
4098.65
3987.754
3881.8415
3809.1443
3772.3335
3754.5622
3759.9091
3774.4297
4122.9683
4145.9471
4005.2165
3896.0025
3821.6476
3784.9059
3766.5158
3770.4146
3779.639
4206.3751
4191.8604
4022.16
3910.0914
3834.3245
3797.0931
3777.6663
3779.04
3783.5772
4289.8608
4236.6764
4043.1083
3926.9866
3849.2817
3809.9578
3788.5182
3785.7506
3785.5189
4383.3362
4285.8417
4076.8753
3953.9659
3872.8639
3828.4904
3802.8531
3792.6082
3786.9061
4489.3204
4337.3611
4117.7496
3986.7601
3902.2876
3853.7084
3823.3487
3804.5178
3792.8039
4595.2552
4385.7893
4157.5322
4019.4517
3931.5297
3879.3926
3844.5874
3819.1025
3802.1377
4698.3328
4431.4029
4195.208
4051.9589
3961.1542
3905.8896
3866.9123
3836.2671
3814.6601
4795.1554
4472.9852
4228.5001
4083.2049
3990.5329
3932.8321
3890.2708
3855.6794
3830.1609
4878.4523
4508.0879
4256.5429
4112.6624
4019.2352
3959.8446
3914.4591
3876.9823
3848.3969
4935.0516
4533.4809
4278.8283
4139.7403
4046.8871
3986.5461
3939.166
3899.7878
3869.0616
4942.9998
4547.9333
4297.9075
4164.784
4073.4077
4012.6101
3964.0274
3923.6683
3891.9259
4902.2774
4550.5461
4314.6983
4187.497
4098.4111
4037.5745
3988.6047
3948.1546
3916.6002
4090.7863
4100.9463
4120.7987
4153.2172
4196.1809
4254.8046
4325.686
4435.0047
4502.508
4085.5313
4096.3645
4118.0654
4151.648
4198.3188
4260.1059
4341.7525
4454.7212
4574.3479
4075.0066
4087.6658
4111.5981
4147.3818
4196.4784
4261.8138
4347.4468
4470.6746
4600.0428
4059.5532
4075.1477
4101.6871
4139.9689
4191.0729
4260.2717
4350.413
4484.6394
4630.1288
4040.2952
4059.1499
4088.5696
4129.3715
4182.5661
4255.1618
4351.9541
4497.9772
4672.2679
4018.0858
4040.2765
4072.6003
4115.7747
4171.1994
4247.1981
4350.8574
4511.3772
4712.5229
3993.7137
4019.1386
4054.2306
4099.4113
4156.699
4236.0774
4346.4419
4523.8991
4754.2522
3968.1899
3996.3038
4033.8831
4080.7462
4139.5625
4222.1845
4338.2715
4534.2694
4796.4077
3942.2706
3972.4945
4011.9509
4060.2135
4120.2419
4206.0983
4327.5226
4542.3663
4841.4838
4782.6739
4848.9484
4914.6259
4992.2458
5082.188
5181.7438
5289.5857
5402.5591
5510.9159
4848.9646
4909.6358
4978.1314
5058.7671
5151.2087
5251.9953
5359.3986
5470.2547
5575.5562
4914.6721
4978.1552
5050.6297
5133.9781
5227.6252
5328.4114
5434.9348
5544.2085
5648.969
4992.3193
5058.8281
5134.0097
5218.4637
5311.78
5411.6827
5516.8464
5625.9995
5733.5928
5082.2977
5151.3076
5227.7098
5311.8352
5403.3694
5501.8688
5606.2912
5716.2359
5829.9078
5181.9478
5252.1766
5328.5809
5411.8301
5501.9493
5599.5653
5704.5704
5818.1459
5939.5182
5289.9185
5359.7144
5435.229
5517.1205
5606.5116
5704.6973
5811.3519
5931.4083
6063.9451
5403.037
5470.7258
5544.6622
5626.4391
5716.6555
5818.5051
5931.6306
6057.7949
6196.1209
5511.5787
5576.2324
5649.6405
5734.263
5830.5985
5940.212
6064.552
6196.4919
6375.9913
6766.0813
6446.5278
6313.0796
6140.5788
6003.697
5882.9641
5780.7066
5694.9609
5624.1798
5860.388
5950.5303
5952.2738
5928.3166
5888.4311
5828.6192
5760.0574
5687.3583
5619.3606
5440.913
5504.9297
5523.5072
5546.063
5554.7197
5549.3926
5534.0838
5506.3549
5465.5086
5202.1067
5230.7487
5233.5141
5250.9246
5258.9664
5264.0318
5264.4743
5260.5717
5243.5328
5024.207
5041.3887
5039.5855
5045.4505
5045.5685
5045.0852
5045.5968
5046.8849
5040.257
4872.1915
4884.3355
4879.2215
4885.8102
4882.0864
4880.8097
4876.417
4874.3066
4867.8643
4735.3596
4739.3875
4735.8847
4736.8031
4733.0334
4729.2749
4725.1074
4721.1642
4715.7985
4602.0678
4601.4978
4595.0538
4595.6024
4589.4468
4588.027
4582.4973
4579.5361
4574.6702
4470.7187
4464.3121
4457.5262
4452.3819
4445.9832
4440.3979
4435.124
4430.0851
4424.0766
4280.4287
4138.4884
3983.5556
3804.8459
3602.5406
3347.6902
3057.5209
2718.1423
2477.3642
4287.0862
4144.8131
3988.3593
3807.3689
3597.0272
3340.6472
3036.0477
2701.2525
2405.6345
4291.0415
4148.1731
3988.3839
3804.882
3586.9203
3325.7448
3008.0541
2662.3546
2312.7298
4298.2167
4152.5934
3992.9722
3804.8283
3584.1102
3313.2959
2984.2236
2607.6255
2202.666
4302.5218
4158.1356
3995.258
3807.8093
3582.3828
3306.1797
2962.6848
2552.549
2087.5453
4311.538
4164.7968
4002.5424
3812.5432
3586.0942
3303.0494
2948.4621
2499.8532
1972.8932
4316.0379
4172.1018
4007.8231
3821.3889
3591.1813
3310.4074
2941.5907
2467.758
1876.6562
4324.9521
4178.2702
4015.7722
3825.4288
3599.9715
3310.4063
2943.814
2435.9302
1845.3356
4336.4301
4192.2435
4029.3026
3844.4076
3618.2112
3340.1421
2965.4808
2465.7113
1742.8118
2512.8169
2718.9373
3035.7383
3297.9905
3468.552
3600.4411
3728.3003
3862.1766
3993.9862
2403.9255
2624.2855
2994.4307
3278.8212
3453.8483
3588.3713
3720.9416
3857.6405
3992.5165
2270.9698
2528.2551
2965.0907
3266.4784
3440.0856
3577.324
3713.3172
3852.6688
3989.4662
2111.4659
2425.8118
2932.8212
3249.7713
3427.5573
3571.0988
3714.2029
3855.4542
3994.009
1913.6837
2326.06
2894.7181
3218.9377
3396.4995
3547.9521
3697.2823
3843.6762
3984.7182
1627.3976
2275.7569
2915.6502
3229.7289
3407.8412
3560.1879
3710.5698
3855.1855
3995.0364
1209.7162
2087.8957
2847.8314
3171.6601
3362.7417
3529.4739
3689.2918
3839.6879
3982.5636
863.3678
2167.7994
2913.0676
3196.8738
3385.0162
3549.1127
3704.7875
3852.0261
3992.6578
-291.14355
1978.7561
2874.1489
3154.4689
3359.4638
3533.043
3694.266
3843.2295
3985.8432
4122.6264
4245.5485
4368.1951
4491.1721
4621.068
4755.7275
4900.6371
5051.88
5215.5367
4122.7568
4247.8018
4371.2857
4495.948
4626.2115
4762.5267
4907.3667
5060.7111
5225.0039
4121.2858
4247.8938
4372.6521
4499.0355
4630.0907
4768.0037
4913.6393
5068.9126
5234.2997
4125.3793
4253.1562
4377.6136
4505.2673
4636.2135
4775.4095
4921.276
5078.2374
5244.498
4118.6861
4248.2972
4374.8405
4504.1611
4636.5741
4776.8129
4924.0472
5082.4451
5250.4721
4127.2845
4256.7734
4382.5368
4511.9756
4643.4353
4784.0835
4931.0977
5090.3749
5258.6399
4117.4067
4248.8529
4376.77
4507.4405
4640.8242
4782.3388
4930.9362
5091.013
5260.8905
4126.4162
4256.9164
4384.1824
4514.3167
4647.2
4788.2572
4936.5416
5096.5604
5266.4679
4120.6599
4252.4015
4380.2774
4511.2502
4644.4945
4786.3521
4934.9285
5095.733
5265.8906
5387.7607
5575.9463
5775.4727
5993.7613
6223.3
6471.6201
6725.7609
6991.1994
7184.3989
5400.4336
5590.2176
5794.6633
6017.1789
6255.9615
6514.0667
6783.6612
7062.0193
7271.1071
5412.5376
5604.3693
5813.3375
6040.2632
6287.7452
6555.7103
6839.98
7128.2982
7357.2599
5425.0379
5618.7241
5831.5822
6062.0699
6316.7984
6592.1174
6889.1671
7188.744
7441.4086
5433.2155
5628.9594
5844.9231
6078.9195
6339.3595
6622.0908
6931.3654
7244.7994
7524.0182
5442.7829
5639.5348
5858.007
6094.3479
6359.7185
6648.0284
6969.1652
7296.2643
7604.3424
5446.173
5644.8739
5865.2338
6103.944
6373.4928
6665.5056
6998.5247
7337.3119
7683.4144
5452.0639
5651.1826
5872.4647
6112.3612
6384.2708
6678.7705
7021.2747
7370.2821
7772.5486
5452.3451
5651.7219
5874.1248
6114.3592
6387.9238
6684.0657
7030.9905
7388.9548
7783.7484
7255.3107
6619.5172
6234.4446
5923.8881
5615.2279
5310.3018
5009.5156
4714.8625
4425.46
7367.8809
6701.1932
6306.2769
5986.8474
5670.9423
5358.2534
5052.5408
4753.999
4462.9512
7478.5037
6775.1572
6374.6111
6045.5589
5725.2797
5406.1848
5096.2845
4795.0124
4502.714
7589.2757
6845.8884
6439.6466
6096.8967
5774.1856
5447.2824
5136.8097
4831.3976
4540.179
7702.3422
6923.512
6510.833
6158.1216
5828.9503
5499.0673
5183.2745
4877.7154
4582.8843
7817.7128
6988.2828
6566.7254
6200.8399
5871.919
5532.2358
5218.1074
4904.5322
4612.508
7936.2455
7085.6436
6640.5047
6266.9934
5930.4111
5591.8827
5272.854
4960.3195
4665.0799
8018.0628
7120.1223
6673.3129
6287.8313
5952.1119
5606.1649
5289.1272
4971.3448
4678.0733
8231.1439
7269.8372
6774.6858
6373.6674
6030.5204
5681.5828
5360.7289
5040.4466
4744.822
4140.3174
3854.2862
3566.8451
3275.3208
2979.81
2678.3849
2370.386
2055.173
1733.3351
4174.8224
3888.5412
3599.5965
3307.9566
3011.5558
2710.2134
2402.018
2086.7834
1763.7488
4213.4956
3926.7608
3637.9066
3346.4571
3050.9112
2749.9599
2443.4651
2128.9535
1808.4733
4247.1182
3962.0843
3670.0779
3381.1317
3083.0401
2784.7232
2476.2786
2164.6373
1842.0714
4291.125
4003.0799
3712.8636
3422.115
3125.704
2826.6328
2519.7262
2208.3926
1887.2899
4314.6885
4029.9596
3735.3987
3448.4123
3148.6937
2853.2184
2543.8944
2235.9223
1912.8288
4368.8206
4082.2124
3789.0534
3501.0438
3202.6608
2907.085
2598.4413
2292.7212
1968.109
4378.2822
4093.6201
3798.0825
3512.1456
3212.1838
2918.3496
2609.0898
2304.243
1980.8833
4443.8775
4158.5979
3862.7124
3577.2519
3277.5288
2984.7041
2675.914
2374.8733
2047.1534
1365.1281
943.72743
506.98897
54.645777
-411.68464
-865.79477
-1327.904
-1859.3524
-2540.4266
1397.9906
985.46381
559.0692
119.45089
-330.62455
-764.13339
-1197.3948
-1690.0092
-2323.4896
1445.9814
1043.6517
627.00319
198.95728
-240.39279
-669.99191
-1091.3446
-1573.7249
-2184.4644
1488.9312
1094.9292
691.49766
271.28503
-156.06842
-582.12547
-976.63417
-1401.0542
-1971.102
1536.9871
1150.3728
759.14829
346.24598
-70.490154
-493.75291
-859.72292
-1239.0723
-1576.7743
1573.6898
1197.8314
816.61976
414.40763
0.83047078
-417.31187
-787.83027
-1048.3028
-1325.5038
1632.5932
1265.4911
903.16529
510.17136
111.364
-312.90901
-683.87201
-1041.5435
-186.77275
1653.79
1295.6356
935.51647
554.72918
154.68086
-270.84175
-718.02659
-947.80606
-937.54394
1730.226
1386.7993
1052.8538
688.2963
323.41564
-82.246268
-472.05704
-1407.7493
1843.3751
-3852.4246
-4990.1734
-5047.1825
-5069.1446
-5227.508
-4958.5718
-4806.6362
-4784.1536
-4862.4374
-3706.1068
-5006.2717
-5008.5471
-4989.0854
-5007.464
-4907.349
-4792.4177
-4774.1455
-4849.6038
-3670.9521
-5099.2929
-4953.6872
-5018.5545
-5075.0303
-4895.2726
-4781.5065
-4768.9769
-4837.2965
-3816.9838
-5290.0873
-4886.3761
-4979.2786
-4962.2634
-4869.9771
-4772.4855
-4758.7565
-4826.9091
-4126.3495
-5492.1181
-4786.6156
-5010.9526
-4960.305
-4846.5954
-4761.6037
-4749.9582
-4815.5881
-4141.1655
-5355.4239
-4731.1516
-5013.8629
-4927.8346
-4819.8519
-4753.7582
-4739.2159
-4803.6171
-3520.533
-4773.7423
-4816.7879
-5002.8725
-4899.3787
-4799.6325
-4744.7497
-4729.9711
-4794.6673
-3997.1355
-5990.4635
-4785.1232
-5029.2302
-4883.8155
-4783.1139
-4740.4498
-4723.3661
-4787.4897
-10609.168
-4246.2974
-4857.8557
-5011.5864
-4827.8991
-4766.3998
-4733.2936
-4719.6806
-4785.4839
-4990.1575
-5124.388
-5311.518
-5554.811
-5829.4817
-6167.015
-6516.1646
-7414.9555
-7115.9637
-4963.2323
-5100.1587
-5296.5714
-5541.9464
-5844.1763
-6222.0813
-6595.283
-7462.0248
-7045.9198
-4951.3547
-5097.9534
-5300.8933
-5567.5546
-5886.955
-6305.3959
-6751.6529
-7396.0892
-7061.3984
-4943.3425
-5093.6481
-5309.5614
-5590.8156
-5932.4174
-6377.7147