/*--------------------------------*- C++ -*----------------------------------*\
  =========                 |
  \\      /  F ield         | OpenFOAM: The Open Source CFD Toolbox
   \\    /   O peration     | Website:  https://openfoam.org
    \\  /    A nd           | Version:  11
     \\/     M anipulation  |
\*---------------------------------------------------------------------------*/
FoamFile
{
    format      ascii;
    class       volScalarField;
    location    "0.163";
    object      p;
}
// * * * * * * * * * * * * * * * * * * * * * * * * * * * * * * * * * * * * * //

dimensions      [0 2 -2 0 0 0 0];

internalField   nonuniform List<scalar> 
880
(
80
80
80.0000000063916
80.00102580163374
80
80
80.00000003282507
80.00396039603849
80
79.99999999999999
80.00000024864073
80.01838870001531
80
80
80.0000038792341
80.05989351601858
80
80.00000000000001
79.9999999999866
79.99999999889742
80.00000000092379
79.99999997144231
80.00000065216409
79.99999097224512
79.99996551333435
80.00010392678627
80.04211500058652
79.94925798701331
81.6408938842784
85.19395966425765
87.75479647300386
88.75521987854189
80.00000829512402
80.00012275352167
80.00018571819082
80.00018994265416
80.00033193856589
80.00077393374956
80.00266948033291
80.0028449797494
80.11910520937982
80.23441468647253
80.4046300361365
80.54902788756826
90.06906580619003
91.73761544087408
93.38995913070714
95.42424380000696
94.70334750948278
91.72828857808935
89.11229708193302
87.90678410481931
81.02297334588846
82.02548057012493
82.48145664075437
82.58745642822471
80.00877308218182
80.03235909781739
80.06750987236305
80.09376420787137
80.00056784779893
80.00180765208339
80.00463309641719
80.00653850734268
80.00644702913461
80.00531613352966
80.00338964876228
80.00152093063126
80.10023967011099
80.09130142311741
80.07537436108798
80.05268298303407
82.41673764154245
82.10855889442352
81.7472565412768
81.33803965400826
87.48562708138486
86.84550846811464
85.84811429998724
84.76590562008734
83.67560788777959
80.89568728979242
80.02705624492432
80.00037961981246
82.66712045165569
80.47630410992571
80.0082897660931
80.00003789937865
81.30172785514873
80.122242685722
80.00089973569135
79.99998328922445
84.68728026820551
80.0659609528734
80.00017444646716
80.00004743361195
79.9999372728338
80.00001461281477
80.20729831730368
106.1526752435506
80.00006973794056
80.0042203792804
81.02707121720736
125.711264350855
80.00046734377607
80.01091726297774
82.1925036404144
136.8007328424384
80.00180415078637
80.03421695935661
83.9117563929762
146.6239045136262
153.5838226331445
86.11362905642612
80.06271641445851
80.00365545498859
160.906408734168
88.8184939541341
80.1272001653783
80.00824341866809
168.1274071062478
92.33420095276219
80.21604615516094
80.01188771414131
177.1353204543323
96.31356667466558
80.3384688520466
80.02112477827157
80.0291660432686
80.52198319597331
101.4433416924416
184.1329429829597
80.04749604341529
80.80749713981808
105.924513046111
183.5417739031897
80.11750446617587
80.96984206721901
103.1274025491466
164.6227626486771
79.97490743076503
80.60558445981555
95.58244147887126
136.115041756364
80.12858087907195
81.4312936269386
92.10527430714268
101.6509540630556
80.17218135404576
81.33395971395292
83.89029095295577
68.495476019956
80.08565795509728
80.68068876532585
80.62378347831543
48.80372157289185
80.0080249681565
80.2565970332797
78.23790414491577
41.3868420982696
42.02523259168888
76.62767006424907
79.89910546535162
79.99712052621007
41.74375778838085
75.13513296526057
79.71355609597049
79.99241858920419
41.59291009877562
74.07855901807602
79.65290761915017
79.99369033193274
39.24850902763863
72.81576629568345
79.61495607690857
79.99570877738294
43.90728496508819
74.27249012764707
79.79249923855552
79.99843904950794
47.14844479579182
76.14654282009555
79.92139933659354
79.99957561220116
50.09418416480869
77.48343462860508
79.96668793911041
79.99985746005001
55.0378478266552
79.00046313841437
79.99439022939407
79.99995041703677
69.85912347576554
78.39281039144025
79.91495817518897
79.99881271577429
68.73674457012616
78.44185945008965
79.91791801178798
79.99880757710791
67.44038036627974
78.4485335492429
79.9235432949642
79.99883420234825
67.35445398610955
78.58613726085311
79.93215323582022
79.99887906786232
55.03784782639776
79.00046313804278
79.99439022876402
79.99995041776805
50.09418416449798
77.48343462834393
79.96668793682889
79.99985745948503
47.14844479529469
76.14654282031296
79.92139933630607
79.9995756128762
43.90728496510282
74.27249012874127
79.79249923848293
79.99843904890515
79.99712052769094
79.89910546665382
76.62767006433396
42.02523259171458
79.99241858979563
79.71355609666952
75.13513296584118
41.74375778863396
79.99369033043331
79.652907620607
74.07855901799832
41.59291009882593
79.99570877760469
79.61495607755603
72.81576629772478
39.24850902746932
41.38684209698011
78.23790414369708
80.25659703247237
80.00802496778286
48.80372157193326
80.62378347717764
80.68068876453199
80.08565795264005
68.49547601999168
83.89029095186073
81.33395971411322
80.17218135246644
101.6509540632446
92.10527430681871
81.43129362568277
80.1285808822625
80.0291660427078
80.52198319904126
101.4433416923949
184.1329429838909
80.04749604368301
80.80749714086976
105.9245130458647
183.5417739029862
80.1175044610235
80.96984206663701
103.1274025480386
164.6227626486499
79.97490744010564
80.60558445962255
95.58244147798453
136.1150417562865
177.135320457312
96.31356667490547
80.33846885204403
80.02112477840394
168.1274071109873
92.33420095913387
80.2160461602011
80.01188771452021
160.9064087340327
88.818493952765
80.12720016543588
80.00824341824094
153.5838226328087
86.11362905385459
80.06271641319483
80.00365545446341
79.99993727456655
80.00001461319955
80.20729831736359
106.1526752420471
80.00006973777134
80.00422037875859
81.02707121760128
125.7112643497652
80.00046734284369
80.010917262064
82.19250364110208
136.8007328443906
80.00180414962153
80.03421696042733
83.91175639364383
146.6239045144818
80.00004743224886
79.99998328998423
80.00003789920025
80.00037961942856
80.00017444476119
80.00089973647528
80.00828976751886
80.02705624396739
80.06596095325791
80.12224268614629
80.47630410875135
80.89568728954895
84.68728026815128
81.30172785526027
82.66712045140086
83.6756078879221
80.00152092903831
80.05268298304833
81.33803965507055
84.76590562082234
80.00338964841232
80.07537436077642
81.74725654278599
85.8481143003964
80.00531613466346
80.09130142319418
82.10855889383704
86.84550846790268
80.00644702943163
80.1002396702187
82.41673764221709
87.48562708116864
80.00056784628715
80.00877308081799
81.02297334639582
94.70334750938083
80.00180765053419
80.03235909772489
82.02548056988216
91.72828857710819
80.00463309571934
80.06750987389977
82.48145664045495
89.11229708150348
80.00653850681948
80.09376420895536
82.58745642819288
87.90678410406605
95.42424380067882
80.54902789091736
80.00284497880979
80.00018994180074
93.38995913103767
80.40463003995298
80.00266947973256
80.00018571251215
91.73761544173639
80.23441468769191
80.00077393372216
80.00012275909523
90.06906580433939
80.11910520483251
80.00033193852384
80.00000829566973
88.75521987782109
79.9492579847964
79.99999097227179
79.99999999948473
87.75479647241002
80.04211499973148
80.00000065224351
79.99999999998508
85.19395966431176
80.00010392639916
79.99999997148221
79.99999999999999
81.64089388421462
79.99996551280343
80.00000000093263
79.99999999999989
80
79.99999999999997
80.00000000679627
80.00102580650933
80.00000000000003
80.00000000000001
80.00000003300383
80.00396039838985
80
80
80.00000024866422
80.01838870261574
80
80
80.00000387821024
80.05989351391042
80.00293263811841
80.01063632056652
80.03561328270547
80.35556809120251
80.01063632872868
80.01725302156179
80.06114007997532
81.20809178064498
80.0356132861782
80.0611400795008
80.52408346644471
86.62609264925889
80.35556803873136
81.20809167164896
86.62609256200815
105.3484450584724
135.1917426161711
114.63554005813
103.1346897998191
91.46071710558283
130.3179524985578
125.6993677861775
123.7147814913247
114.8433224180612
128.0707543818548
126.6732773999047
126.1769109154605
122.2198720323938
127.9847810020913
127.0408768496329
126.8947178881368
124.3871071551821
125.3711430010288
124.9422369671846
125.1770573221239
126.2499542788613
127.0590527769841
125.7526877527773
125.7982852073987
126.8671670704147
127.4126058010849
126.2587072780928
126.0913973516696
126.8123172639893
127.7360323132601
126.5639468328258
126.2170274631134
123.4499917601
105.0698380698243
83.66929704672259
76.86691648208526
77.89612853818106
95.67694153385396
76.73131279642293
74.93951465754772
77.41995217445229
86.26462469109691
74.14573046416675
75.68730815091793
78.20916159802798
68.86225667040561
69.47255105037668
74.5943780851424
77.48838658238967
79.75767766953446
81.13837216993703
81.62359320305713
81.75939980693109
79.62911172800169
80.80913732234785
81.31942998990981
81.46520415592552
80.11397313857329
80.89990398414027
81.33741432263312
81.53957287032482
79.3857536004176
80.32932263060357
81.05520345847414
81.4119980342704
81.82211499973593
81.64308398227153
82.07956109621469
117.1946726525092
81.53367400218436
81.57267949942062
82.78307531900823
132.5201548923887
81.57393304831436
81.72380768246769
83.60236544501882
140.062304557772
81.33811491555134
81.62036466483558
85.01711276822468
145.8612447942332
213.9009521069543
223.7393088573403
221.6862766386427
220.0267604880401
231.1444412652263
229.558457153178
224.1862184977773
221.1480117979677
227.4167155598079
226.2515208961695
224.3104134044384
222.2286861844792
235.4568322319052
229.7121446373484
226.2627975064576
222.9105113024116
214.5374128445807
210.2214559130013
208.2625342370443
210.320605326355
215.2885076078861
210.7207365131147
208.3043352926301
209.8282807088383
216.1754364205794
211.0010426981669
208.5209262746085
209.7470818987858
218.0237385609602
211.8199977948381
208.6211485341325
209.4333792164034
211.2920931552909
207.157723001319
190.5314141754269
159.2919093243602
210.7148361340294
207.6726330443228
190.9801826896535
170.2458617635674
210.7824253603621
208.0518887727055
194.0553905201459
179.865747223182
210.4525198715745
208.6368005968463
197.331180910169
199.8593212181978
93.29070353005496
18.49950079421098
2.943962792112414
4.083972209424563
74.34949364633873
10.83977248258625
3.605635374713075
4.20373751472593
50.7387503032737
5.457865993072655
3.077572885167841
4.703767690575599
27.95233798128415
1.938820433002545
3.422294862857922
4.988825373694619
6.68838898527635
9.23469552447281
11.52155356324528
11.40551829620223
6.61262385691191
9.656723047860353
11.82491470304852
11.86293225707272
7.309940757110184
10.29311682243596
12.04585527227461
12.79582579425179
7.721457664786948
10.87504262975885
12.71038096814185
14.17590436805335
20.12702042540489
23.89029990545985
26.8301559769111
31.75141506637136
19.5028338030061
23.26933180225976
25.27558560023831
30.61432577411698
17.98455255746749
22.31661510230666
24.35717500886441
29.0086320264673
16.21191736972072
20.8915982908579
22.89790561904459
29.43083438425301
22.71907273198084
14.00594635589837
12.68971570808756
12.99011273038048
21.13860088766307
15.31633632588393
15.98635535228638
13.29105674872109
17.37970975146713
16.71747727146296
15.49055703565435
13.29394713297806
13.79400636608485
15.72889339333593
14.81864039697691
13.99835916997119
13.30971351381178
12.89767077878329
12.90141106315805
12.97435117071131
11.90229131163051
11.05772365182505
10.91068746366085
10.88598637947235
11.72034124032109
11.71602119871272
11.33091586911178
11.18571897659703
15.92354480908262
16.67714465375447
15.82723262489322
15.50591830580461
12.97435117071346
10.88598637947406
11.18571897660521
15.50591830589132
12.90141106314647
10.91068746365572
11.33091586913562
15.82723262490169
12.89767077877028
11.05772365183159
11.71602119873848
16.67714465369034
13.30971351380476
11.90229131164178
11.72034124035527
15.92354480901332
12.99011273032878
12.68971570800701
14.00594635577831
22.71907273169205
13.29105674870929
15.98635535226729
15.31633632587539
21.13860088748123
13.2939471329884
15.49055703565264
16.71747727143534
17.37970975139056
13.99835916998164
14.81864039698322
15.72889339330843
13.79400636603632
29.43083438408368
22.89790561876792
20.89159829038551
16.21191736942523
29.00863202632947
24.35717500870481
22.31661510189639
17.98455255715523
30.61432577394591
25.2755856001257
23.2693318019184
19.50283380274851
31.751415066152
26.83015597680646
23.89029990514529
20.12702042515258
11.40551829599298
11.52155356322932
9.234695524493411
6.688388985223537
11.86293225687096
11.82491470297698
9.656723047870196
6.612623856895927
12.79582579406267
12.04585527216889
10.29311682241776
7.309940757106477
14.17590436780764
12.71038096800431
10.87504262971585
7.72145766476507
4.083972209357349
2.943962792031408
18.49950079397328
93.29070352982228
4.203737514698349
3.605635374625507
10.83977248243883
74.34949364594125
4.703767690536068
3.077572885071323
5.457865993013692
50.73875030314658
4.98882537366701
3.422294862787563
1.938820432953024
27.95233798125055
159.2919093242024
190.5314141760147
207.1577230022286
211.2920931575643
170.2458617635194
190.9801826902452
207.6726330455651
210.7148361365616
179.865747223243
194.0553905209329
208.0518887743518
210.7824253629343
199.8593212185785
197.3311809113789
208.6368005987513
210.4525198742172
210.3206053293215
208.2625342383277
210.2214559130658
214.5374128443489
209.8282807117424
208.3043352938248
210.720736513156
215.2885076076348
209.7470819014395
208.5209262756611
211.0010426979964
216.1754364203736
209.433379219084
208.6211485351039
211.8199977945334
218.0237385608172
220.0267604891885
221.6862766403647
223.7393088567144
213.9009521051065
221.1480117994602
224.1862184994082
229.558457152981
231.1444412646456
222.2286861859369
224.3104134058641
226.2515208960915
227.4167155603494
222.9105113036403
226.2627975081214
229.7121446371539
235.4568322323306
117.1946726504026
82.07956109573568
81.64308398261096
81.82211500042099
132.5201548902496
82.78307531821069
81.57267949990251
81.53367400308349
140.0623045556149
83.60236544424039
81.72380768348717
81.57393304924436
145.8612447926379
85.01711276702163
81.6203646661836
81.33811491674409
81.75939980746774
81.62359320353117
81.13837216971963
79.75767766914366
81.46520415633631
81.3194299903432
80.8091373220992
79.62911172752267
81.53957287061669
81.33741432294326
80.89990398396624
80.11397313804336
81.4119980346649
81.05520345887604
80.32932263037607
79.38575359997125
77.89612853737164
76.86691648150448
83.66929704626745
105.0698380702893
77.41995217350693
74.93951465694217
76.7313127960031
95.67694153456796
78.20916159698648
75.68730815047454
74.14573046376626
86.26462469197475
77.48838658122006
74.59437808457106
69.47255104969264
68.86225667114212
126.2499542790588
125.1770573213875
124.9422369684515
125.371143000805
126.8671670703625
125.7982852068937
125.7526877540978
127.0590527759375
126.8123172636625
126.0913973512811
126.2587072795023
127.4126058004537
123.4499917604547
126.2170274627492
126.5639468338278
127.7360323120214
124.3871071552346
122.2198720285625
114.8433224148695
91.46071712636925
126.8947178871473
126.1769109111059
123.7147814855034
103.1346897906492
127.0408768496544
126.6732773964061
125.6993677720877
114.6355400203755
127.9847810028611
128.0707543805252
130.3179524834527
135.1917425800516
56.5766182081816
78.53780952052308
79.97275612517082
79.99983550534749
56.07414774494268
78.42119517967582
79.9689187202392
79.99976100089663
59.30412494081732
78.54190200920975
79.96518173790236
79.99966905271901
63.73590082621937
78.59752194929628
79.95196508961415
79.9993571649518
79.99881271604785
79.91495817642647
78.39281039023182
69.85912347612276
79.99880757760671
79.91791801289313
78.44185944911828
68.7367445692858
79.99883420115296
79.9235432954721
78.44853354943714
67.44038036544818
79.99887906523094
79.93215323674929
78.58613725939088
67.3544539855536
79.99935716326495
79.99966905109427
79.99976099748275
79.9998355021216
79.95196509039121
79.96518173801364
79.96891872003373
79.9727561244663
78.59752194878389
78.5419020074374
78.42119518031951
78.53780952025782
63.73590082562447
59.30412493976926
56.07414774470461
56.57661820865832
)
;

boundaryField
{
    back
    {
        type            empty;
    }
    inlet
    {
        type            zeroGradient;
    }
    front
    {
        type            empty;
    }
    top
    {
        type            zeroGradient;
    }
    outlet
    {
        type            fixedValue;
        value           uniform 80;
    }
    bottom
    {
        type            zeroGradient;
    }
    wall
    {
        type            zeroGradient;
    }
}


// ************************************************************************* //
