/*--------------------------------*- C++ -*----------------------------------*\
  =========                 |
  \\      /  F ield         | OpenFOAM: The Open Source CFD Toolbox
   \\    /   O peration     | Website:  https://openfoam.org
    \\  /    A nd           | Version:  11
     \\/     M anipulation  |
\*---------------------------------------------------------------------------*/
FoamFile
{
    format      ascii;
    class       volScalarField;
    location    "0.163";
    object      rho;
}
// * * * * * * * * * * * * * * * * * * * * * * * * * * * * * * * * * * * * * //

dimensions      [0 0 0 0 0 0 0];

internalField   nonuniform List<scalar> 
880
(
0.3733250556165154
0.3733250556165154
0.373325055637385
0.3733284948040314
0.3733250556165154
0.3733250556165154
0.3733250557210549
0.3733380094722946
0.3733250556165154
0.3733250556165153
0.3733250564155954
0.3733851098809688
0.3733250556165154
0.3733250556165154
0.3733250688751146
0.3735314598965304
0.3733250556165154
0.3733250556165155
0.3733250556164777
0.3733250556128163
0.3733250556196123
0.3733250555213149
0.3733250577897749
0.3733250255255309
0.3733249369747978
0.3733252204761912
0.3734465234973476
0.3731922401586014
0.3786961583910635
0.3895784167614936
0.3964707804563481
0.3990399918530791
0.373325083284194
0.3733254646862533
0.3733256735437803
0.3733256882431154
0.3733261448489726
0.3733274948379132
0.3733332137076913
0.3733340836856573
0.3736929826047741
0.374019793699084
0.3745163609571301
0.3749785259486709
0.4026348650370233
0.4076005401541238
0.4125491163722286
0.4186056532630151
0.4164211333404834
0.4071700436198069
0.3989427127965907
0.3955432665194289
0.3764678250886527
0.3794737100032354
0.3808368723111594
0.3812970401943521
0.3733529359715078
0.3734288991582149
0.373544625559385
0.3736331544185094
0.3733269461604158
0.373331077094568
0.373340500586545
0.3733468656096967
0.373346564942996
0.3733427946312199
0.3733363680593522
0.3733301317905439
0.3736557606288602
0.3736274493030576
0.373576307858059
0.3735014438680845
0.3808405720294498
0.3800162103679255
0.3789990203733954
0.377748943103419
0.395032215876042
0.3939271561686264
0.391621791194966
0.3887364243941192
0.3854616550780935
0.3763171659327607
0.3734157620936245
0.3733263225245776
0.3822081367158459
0.3749212359114984
0.3733528111520789
0.3733251820676454
0.3776698988320463
0.3737357561538104
0.3733280731891093
0.3733249999473777
0.3878855288807136
0.373539420753854
0.3733256105309623
0.3733252134072723
0.3733248464159132
0.373325141159135
0.3739975784648004
0.4487903971197545
0.3733252883346246
0.3733388873790018
0.3765686052057653
0.5007167741333717
0.3733266139404807
0.3733613541575023
0.3800736751659526
0.5284078652635225
0.3733310675606614
0.3734343979834434
0.3851303907407492
0.5526313908114755
0.5683428981694592
0.3913857033326932
0.3735246856501284
0.3733372453905782
0.584425784226948
0.3988280855749874
0.3737178802155274
0.3733524635559489
0.6004390237938969
0.4085240251759276
0.3739963173860463
0.3733646880335366
0.6215030712040455
0.4193214277992033
0.3743562040924118
0.3733952885830323
0.3734222609655622
0.374933676351302
0.4336114148984366
0.63849879887326
0.3734835740292183
0.3757751288545975
0.445818365464662
0.6371606055529992
0.373715904986764
0.3762734300137663
0.4382211743698629
0.5910501405864579
0.3732411220863214
0.3751766740734974
0.4177285629897319
0.5210753456112157
0.3737534419026162
0.3779362795276375
0.405581458287847
0.414949540883013
0.3739174965697018
0.3773278758832563
0.3786704409490046
0.2989965789484924
0.373637674969093
0.3750437428693119
0.3668574028016822
0.2197687704198967
0.3733569939083047
0.3736320308393461
0.3554418476571066
0.1799342428989491
0.1807311116979499
0.350784003246906
0.3727836943413205
0.3733254762405943
0.1817279076153401
0.3474417588856746
0.3722592243873701
0.373315552321442
0.1842266489534509
0.3455771263298167
0.3721497054929854
0.3733154582469463
0.1783955494213127
0.3419014313674387
0.3720353294952241
0.3733134729044862
0.206287023213268
0.3491803870896577
0.372606485863588
0.3733200404864965
0.2319476238969924
0.3578276481971343
0.373033448154363
0.3733235601377977
0.2532542278277796
0.3637344946287902
0.3732037568276292
0.3733245575644423
0.2781128868229638
0.3696626189063419
0.3733052785996525
0.3733248902477192
0.3242669639980631
0.3668161630102632
0.3730557522482251
0.3733213958929839
0.3206842777877395
0.3670288688544867
0.3730684366301499
0.3733214651917822
0.3165047320482527
0.3671175094650842
0.3730797816197851
0.373321600603876
0.3160719478337589
0.367658559133224
0.3731252526608703
0.373322252954558
0.278112886822152
0.3696626189054817
0.3733052785987417
0.3733248902469902
0.253254227826543
0.3637344946273462
0.3732037568209083
0.3733245575630218
0.2319476238950548
0.3578276481964022
0.3730334481523004
0.37332356014005
0.2062870232133385
0.3491803870924622
0.3726064858630946
0.3733200404849913
0.3733254762467496
0.3727836943455697
0.3507840032479814
0.1807311116972506
0.3733155523228804
0.3722592243897362
0.3474417588872935
0.1817279076161297
0.3733154582421568
0.372149705497294
0.3455771263305631
0.1842266489536136
0.3733134729047512
0.3720353294967907
0.3419014313742159
0.1783955494208074
0.1799342428956156
0.3554418476536402
0.3736320308390912
0.3733569939078114
0.2197687704163911
0.3668574027982339
0.3750437428667557
0.3736376749615009
0.2989965789481341
0.3786704409456653
0.377327875883859
0.3739174965632993
0.4149495408836215
0.4055814582868582
0.3779362795234481
0.3737534419107756
0.3734222609640039
0.3749336763614317
0.4336114148969398
0.6384987988752214
0.3734835740305592
0.3757751288553618
0.4458183654620301
0.6371606055521362
0.3737159049692765
0.3762734300109138
0.4382211743651555
0.5910501405860167
0.3732411221161701
0.3751766740719678
0.4177285629867001
0.5210753456108798
0.6215030712121179
0.4193214278004768
0.3743562040925373
0.3733952885830031
0.6004390238071108
0.4085240251978708
0.3739963174034879
0.3733646880351595
0.5844257842269421
0.3988280855698011
0.3737178802124511
0.3733524635553974
0.5683428981672738
0.3913857033236473
0.3735246856530117
0.3733372453895244
0.373324846421095
0.3733251411604254
0.3739975784651375
0.4487903971153669
0.3733252883338971
0.3733388873739458
0.376568605206175
0.5007167741298815
0.3733266139375309
0.3733613541610046
0.3800736751683253
0.5284078652694599
0.3733310675574807
0.373434397977672
0.3851303907434915
0.5526313908143385
0.3733252134025787
0.3733249999495051
0.3733251820673989
0.3733263225241512
0.37332561052588
0.3733280731908817
0.3733528111567516
0.3734157620911742
0.373539420755013
0.3737357561551823
0.3749212359077487
0.3763171659310514
0.3878855288804748
0.3776698988322817
0.3822081367148986
0.3854616550785201
0.373330131786178
0.3735014438677802
0.3777489431063648
0.3887364243967193
0.3733363680575714
0.3735763078569709
0.3789990203780053
0.3916217911967153
0.3733427946346828
0.3736274493030277
0.3800162103661386
0.3939271561684628
0.3733465649445101
0.3736557606289031
0.3808405720313818
0.3950322158756976
0.3733269461560408
0.3733529359672214
0.3764678250894989
0.4164211333398894
0.3733310770904804
0.3734288991582922
0.3794737100006257
0.4071700436162849
0.3733405005854482
0.3735446255645592
0.3808368723093606
0.3989427127949722
0.3733468656088523
0.3736331544218703
0.3812970401941272
0.3955432665169962
0.4186056532649373
0.3749785259603218
0.3733340836825318
0.3733256882404757
0.4125491163732869
0.374516360971764
0.3733332137058079
0.3733256735245706
0.4076005401565322
0.3740197937034883
0.3733274948378358
0.3733254647046492
0.4026348650311784
0.3736929825884839
0.3733261448490626
0.3733250832854828
0.3990399918512411
0.3731922401508384
0.373325025525491
0.3733250556144065
0.3964707804550504
0.3734465234969938
0.3733250577899766
0.3733250556164865
0.3895784167613818
0.3733252204751386
0.3733250555214132
0.3733250556165153
0.3786961583903109
0.373324936973292
0.3733250556196394
0.3733250556165151
0.3733250556165154
0.3733250556165154
0.3733250556384871
0.3733284948201635
0.3733250556165152
0.3733250556165155
0.3733250557215237
0.3733380094798995
0.3733250556165154
0.3733250556165154
0.373325056415574
0.3733851098893586
0.3733250556165154
0.3733250556165154
0.3733250688723946
0.3735314598892518
0.3733347827274119
0.3733602077813901
0.3734433412420852
0.3745038642508747
0.373360207808305
0.3733822715021266
0.3735287554394249
0.3772862400432201
0.3734433412534825
0.3735287554375674
0.3750619028052303
0.3944807852637073
0.3745038640761975
0.3772862396788493
0.3944807849800089
0.4501318833869894
0.5312218834627549
0.4752538143753288
0.4448632922943438
0.4100575176033674
0.5167131311893721
0.5056095200434556
0.5045256484678415
0.4806504917975293
0.5111521094612896
0.5085535274730399
0.5097896133673462
0.4992416294972271
0.5124775482470056
0.5102907936000333
0.5108428330147664
0.5037700066208266
0.5059640187379038
0.5046889619109809
0.5053104053074068
0.5076966052003262
0.5114973897936904
0.5082404641659208
0.50877546810603
0.5112751708838756
0.5125638664376277
0.5103477503544765
0.5108201585771763
0.5126732158621576
0.5134363138247545
0.5114950129312384
0.5114653789932777
0.5061655485913292
0.4449209989827475
0.3767750792219117
0.3570261216599011
0.3611839970997818
0.4164812440182605
0.3539101831673804
0.3501027972244974
0.3582565266815964
0.3883138607404314
0.3480815098779207
0.3527641680309934
0.3600664067162888
0.3347539026055222
0.333887233222027
0.3486776998829744
0.356965368138357
0.3683829311956865
0.3742646484379576
0.3769028452312478
0.3782096527013743
0.3662878246809163
0.3717821646850515
0.3747367450066901
0.3764648590748154
0.3669085998665106
0.3709711492170737
0.3738899726474131
0.3761429629473087
0.3641743104115095
0.3687457159671413
0.3726782358982554
0.3755335087072128
0.3789619331176428
0.3786741145206006
0.3801940607393309
0.4793483855584161
0.3776294125041658
0.3782803837226882
0.3824438578275493
0.5160205138437605
0.3775525481374356
0.3786734662182129
0.3846035707296061
0.5308621106696438
0.3767334828285859
0.3782395555086093
0.3877876817199866
0.5421354608253169
0.7168218501539407
0.7352107056601084
0.7281861339064448
0.7218191385980187
0.7535105310853764
0.7469669066724445
0.7335334355691281
0.7261319090239221
0.7393559196336169
0.7374155421059831
0.7333553417532422
0.7299312918510419
0.7548952927411767
0.7441291056300045
0.7375257884506866
0.7320072761745984
0.7063894330279439
0.6930070989849155
0.6860288620649626
0.689499612623551
0.7116419824590957
0.69863151832948
0.6909543218397508
0.6936474484309303
0.7171311023596234
0.7045717141343291
0.6976744707398972
0.7002140125597822
0.7227719877729499
0.708891556342682
0.7008158467758248
0.7025801254595456
0.6915992881031708
0.6830372082569655
0.646139386307872
0.5656634506616091
0.6952135047206275
0.6889830545690052
0.6498801187037047
0.5778563465601547
0.7022462730490021
0.6954143148292503
0.6551041284716225
0.5881769310872171
0.7049524834907982
0.6988773477444649
0.6564904474140648
0.681595286271658
0.3634630910624573
0.08635593825107998
0.02023611389508048
0.03032234426419347
0.2958558035838423
0.05693552453331516
0.02830123091843756
0.03942289033168479
0.2233686640930345
0.03557424652205474
0.02821016863347095
0.04757947437651742
0.1613388088321323
0.01894738465492177
0.03235135859174384
0.05100331743524211
0.04461185149773241
0.05509550707849359
0.06396470188225381
0.06330770362091777
0.05598214307743145
0.06808895282252161
0.07240593909684355
0.06809824800661897
0.06927550558713697
0.08233596828006784
0.07971614501582253
0.07372293045439443
0.07488574988113995
0.08970870986312478
0.08459243551837739
0.08018825865301488
0.09965284846204302
0.1262031147885279
0.1500363868510366
0.1799504420314659
0.09621163145786427
0.120142025325791
0.1392689746091653
0.1691079569148418
0.09143742420384279
0.113225095872259
0.1284013776729626
0.1513441541145579
0.08610088094648082
0.1061599332349906
0.1176288116522081
0.1447586508133084
0.1398035653426929
0.09574304482756729
0.08531583345945504
0.085417980042351
0.1264581496360337
0.09525385150443559
0.09854742005300909
0.088418011871915
0.1024910372469147
0.09925168788210822
0.09715573443328859
0.09599241649354377
0.08458273306868323
0.09550537840300534
0.09911882105329657
0.1067557526696115
0.1085916730945001
0.1063284755168603
0.1052741240787764
0.1050222089155103
0.09505172081190164
0.0902315297095795
0.08768650684713714
0.08655728906468473
0.08360555829975001
0.08260001557111038
0.07910197908560714
0.07766484322908715
0.09563528500356683
0.09760513709296072
0.09381967022817443
0.09248614395479836
0.105022208915479
0.08655728906471775
0.07766484322920045
0.09248614395539817
0.1052741240785703
0.08768650684714643
0.07910197908580942
0.09381967022830506
0.106328475516655
0.09023152970958433
0.08260001557128316
0.09760513709273688
0.1085916730943691
0.09505172081188412
0.08360555829989774
0.09563528500327946
0.08541798004208459
0.08531583345907422
0.09574304482702035
0.1398035653415431
0.08841801187182639
0.09854742005284964
0.09525385150430751
0.1264581496353418
0.09599241649356144
0.09715573443328367
0.09925168788199731
0.102491037246584
0.1067557526696577
0.09911882105333629
0.09550537840281959
0.08458273306840838
0.1447586508126462
0.1176288116511654
0.1061599332333039
0.0861008809455214
0.1513441541140775
0.1284013776724326
0.1132250958708501
0.09143742420283561
0.1691079569142295
0.1392689746088798
0.1201420253246369
0.09621163145685845
0.1799504420306077
0.1500363868507521
0.1262031147874732
0.09965284846088224
0.06330770361986869
0.06396470188206839
0.05509550707839253
0.0446118514973461
0.0680982480057996
0.07240593909637713
0.06808895282219921
0.05598214307719616
0.07372293045375736
0.07971614501530926
0.08233596827966308
0.06927550558695601
0.08018825865221571
0.08459243551781936
0.08970870986271492
0.07488574988083641
0.03032234426389594
0.02023611389462174
0.08635593824998895
0.3634630910616072
0.03942289033155631
0.02830123091793161
0.05693552453268429
0.2958558035828256
0.0475794743762497
0.02821016863287454
0.03557424652172084
0.2233686640925209
0.05100331743498991
0.03235135859139505
0.01894738465461086
0.1613388088320695
0.5656634506612743
0.6461393863095738
0.6830372082597388
0.6915992881090854
0.5778563465600874
0.6498801187053885
0.6889830545724133
0.6952135047269483
0.5881769310872477
0.6551041284736754
0.6954143148333168
0.7022462730549495
0.6815952862727621
0.656490447417027
0.6988773477489856
0.7049524834965832
0.6894996126302325
0.6860288620686027
0.6930070989854702
0.706389433027083
0.6936474484374299
0.6909543218427632
0.6986315183297491
0.7116419824585217
0.7002140125656425
0.6976744707422394
0.7045717141337855
0.7171311023591114
0.7025801254654298
0.7008158467778328
0.7088915563416897
0.722771987772487
0.7218191386010251
0.7281861339111046
0.7352107056590386
0.7168218501497315
0.7261319090278051
0.7335334355734939
0.7469669066721912
0.7535105310845366
0.7299312918547441
0.7333553417570577
0.7374155421060239
0.739355919634436
0.7320072761777366
0.7375257884549425
0.7441291056297947
0.7548952927415598
0.4793483855523447
0.3801940607376914
0.3786741145217005
0.3789619331200855
0.5160205138374838
0.3824438578248955
0.378280383724335
0.3776294125073832
0.5308621106633149
0.384603570727294
0.3786734662216039
0.3775525481407519
0.5421354608207596
0.387787681716873
0.3782395555131826
0.3767334828326963
0.3782096527034296
0.3769028452332826
0.3742646484375094
0.3683829311945694
0.3764648590764593
0.3747367450085169
0.3717821646844437
0.3662878246794062
0.3761429629484563
0.3738899726487372
0.3709711492167143
0.3669085998647525
0.3755335087085832
0.3726782358998946
0.3687457159665751
0.364174310409917
0.3611839970971779
0.3570261216579482
0.3767750792201852
0.4449209989836675
0.3582565266787731
0.3501027972225745
0.3539101831659152
0.4164812440202144
0.3600664067133579
0.3527641680296258
0.34808150987666
0.3883138607437427
0.3569653681350701
0.3486776998811409
0.3338872332195824
0.3347539026091739
0.5076966051997077
0.5053104053039967
0.5046889619142125
0.5059640187387581
0.5112751708827696
0.5087754681044405
0.5082404641694189
0.5114973897922042
0.5126732158607662
0.5108201585761453
0.5103477503583864
0.5125638664366297
0.5061655485924843
0.5114653789918372
0.5114950129339708
0.5134363138217231
0.5037700066223
0.499241629484606
0.4806504917947207
0.4100575176736068
0.5108428330124258
0.5097896133528979
0.5045256484538458
0.4448632922717857
0.5102907935999003
0.5085535274606721
0.5056095199911944
0.4752538142379613
0.5124775482485091
0.5111521094548225
0.5167131311287076
0.5312218833360912
0.2881077634428708
0.3682787889851045
0.3732328476665454
0.3733245017167524
0.2858680645831393
0.3677504446958626
0.3732173367394948
0.3733242398205661
0.2937056376924546
0.3679382710867966
0.3732034557286515
0.3733239478655508
0.3033424949130927
0.3678227854070585
0.3731723220057547
0.3733232949183313
0.3733213958930777
0.3730557522528135
0.3668161630060967
0.3242669639991039
0.3733214651924839
0.3730684366336106
0.3670288688520149
0.3206842777847085
0.373321600601475
0.3730797816201325
0.3671175094673145
0.3165047320460571
0.3733222529482856
0.3731252526629749
0.367658559130135
0.316071947832692
0.3733232949133699
0.3733239478628316
0.3733242398137265
0.373324501708736
0.3731723220079041
0.3732034557285987
0.3732173367387441
0.3732328476655106
0.3678227854049649
0.3679382710812018
0.3677504446982952
0.3682787889848897
0.3033424949118665
0.2937056376888406
0.2858680645822102
0.2881077634452739
)
;

boundaryField
{
    back
    {
        type            empty;
    }
    inlet
    {
        type            calculated;
        value           nonuniform List<scalar> 
16
(
0.3733250556165154
0.3733250556165154
0.3733250556165154
0.3733250556165154
0.3733250556165154
0.3733250556165155
0.3733250556164776
0.3733250556128163
0.3733250556144065
0.3733250556164865
0.3733250556165154
0.3733250556165151
0.3733250556165154
0.3733250556165152
0.3733250556165154
0.3733250556165154
)
;
    }
    front
    {
        type            empty;
    }
    top
    {
        type            calculated;
        value           nonuniform List<scalar> 
40
(
0.373325083284194
0.3733254646862533
0.3733256735437803
0.3733256882431154
0.3733269461604158
0.373331077094568
0.373340500586545
0.3733468656096967
0.373346564942996
0.3733427946312199
0.3733363680593522
0.3733301317905439
0.3733263225245776
0.3733251820676454
0.3733249999473777
0.3733252134072723
0.3733248464159132
0.3733252883346246
0.3733266139404806
0.3733310675606614
0.3733372453905782
0.3733524635559489
0.3733646880335366
0.3733952885830323
0.3734222609655622
0.3734835740292183
0.373715904986764
0.3732411220863214
0.3737534419026162
0.3739174965697018
0.373637674969093
0.3733569939083047
0.3733254762405943
0.373315552321442
0.3733154582469463
0.3733134729044862
0.3733200404864965
0.3733235601377977
0.3733245575644423
0.3733248902477192
)
;
    }
    outlet
    {
        type            calculated;
        value           uniform 0.3733250556165154;
    }
    bottom
    {
        type            calculated;
        value           nonuniform List<scalar> 
40
(
0.3733248902469902
0.3733245575630217
0.37332356014005
0.3733200404849913
0.3733254762467496
0.3733155523228804
0.3733154582421568
0.3733134729047512
0.3733569939078114
0.3736376749615009
0.3739174965632993
0.3737534419107756
0.3734222609640038
0.3734835740305593
0.3737159049692765
0.3732411221161701
0.3733952885830031
0.3733646880351595
0.3733524635553974
0.3733372453895244
0.373324846421095
0.3733252883338971
0.3733266139375309
0.3733310675574807
0.3733252134025787
0.3733249999495051
0.373325182067399
0.3733263225241512
0.373330131786178
0.3733363680575714
0.3733427946346828
0.3733465649445101
0.3733269461560408
0.3733310770904804
0.3733405005854482
0.3733468656088523
0.3733256882404757
0.3733256735245706
0.3733254647046492
0.3733250832854828
)
;
    }
    wall
    {
        type            calculated;
        value           nonuniform List<scalar> 
104
(
0.5312218834627549
0.5167131311893721
0.5111521094612896
0.5124775482470056
0.5134363138247545
0.5114950129312384
0.5114653789932777
0.5061655485913292
0.3347539026055222
0.333887233222027
0.3486776998829744
0.356965368138357
0.3641743104115095
0.3687457159671413
0.3726782358982554
0.3755335087072128
0.3767334828285859
0.3782395555086093
0.3877876817199866
0.5421354608253169
0.7548952927411767
0.7441291056300045
0.7375257884506866
0.7320072761745984
0.7227719877729499
0.708891556342682
0.7008158467758248
0.7025801254595456
0.7049524834907982
0.6988773477444649
0.6564904474140648
0.681595286271658
0.1613388088321323
0.01894738465492177
0.03235135859174384
0.05100331743524211
0.07488574988113995
0.08970870986312478
0.08459243551837739
0.08018825865301488
0.08610088094648082
0.1061599332349906
0.1176288116522081
0.1447586508133084
0.08458273306868323
0.09550537840300534
0.09911882105329657
0.1067557526696115
0.1085916730945001
0.1063284755168603
0.1052741240787764
0.1050222089155103
0.105022208915479
0.1052741240785703
0.106328475516655
0.1085916730943691
0.1067557526696577
0.09911882105333629
0.09550537840281959
0.08458273306840838
0.1447586508126462
0.1176288116511654
0.1061599332333039
0.08610088094552142
0.08018825865221571
0.08459243551781936
0.08970870986271492
0.07488574988083641
0.05100331743498991
0.03235135859139505
0.01894738465461086
0.1613388088320695
0.6815952862727621
0.656490447417027
0.6988773477489856
0.7049524834965832
0.7025801254654298
0.7008158467778328
0.7088915563416897
0.722771987772487
0.7320072761777366
0.7375257884549425
0.7441291056297947
0.7548952927415598
0.5421354608207596
0.387787681716873
0.3782395555131826
0.3767334828326963
0.3755335087085832
0.3726782358998946
0.3687457159665752
0.364174310409917
0.35696536813507
0.3486776998811409
0.3338872332195824
0.3347539026091739
0.5061655485924843
0.5114653789918372
0.5114950129339708
0.5134363138217231
0.5124775482485091
0.5111521094548225
0.5167131311287076
0.5312218833360912
)
;
    }
}


// ************************************************************************* //
