/*--------------------------------*- C++ -*----------------------------------*\
  =========                 |
  \\      /  F ield         | OpenFOAM: The Open Source CFD Toolbox
   \\    /   O peration     | Website:  https://openfoam.org
    \\  /    A nd           | Version:  11
     \\/     M anipulation  |
\*---------------------------------------------------------------------------*/
FoamFile
{
    format      ascii;
    class       surfaceScalarField;
    location    "0.1235";
    object      phi;
}
// * * * * * * * * * * * * * * * * * * * * * * * * * * * * * * * * * * * * * //

dimensions      [0 3 -1 0 0 0 0];

internalField   nonuniform List<scalar> 
1652
(
2.843686947071611
0.8895636090847481
0
1.954123337988149
0.8895636090834615
-2.220446049250313e-16
1.064559728905649
0.8895636090464489
-5.394573676653636e-12
0.8895538260303513
4.770850381419223e-12
0.1749973858894254
2.843686947076741
1.779127218162428
1.954123337998014
1.779127218162188
1.064559728935762
1.779127217902571
1.779072271415997
0.1750111639785636
2.843686947090741
2.668690827246526
1.954123338008367
2.668690827244562
1.064559729222145
2.668690825158378
2.668378646190814
0.1750551332938508
2.843686947092868
3.558254436328659
1.954123338013008
3.558254436324421
1.064559736224584
3.558254390268284
3.556965462099442
0.1751671971908636
4.418652025448567
2.872852967045247
5.279049614570481
2.872852967043177
6.139447203694949
2.872852967042494
2.872852967041891
6.999844793234668
4.418652025437511
2.012455377932159
5.279049614550982
2.012455377929711
6.139447203663336
2.012455377929226
2.012455377926298
6.999844792777075
4.418652076177039
1.152058273325008
5.279051006729176
1.152055836328725
6.138387428095522
1.152163920567663
1.152181530844598
6.998762933828542
4.438826511154126
0.2493828811859338
5.42183323870247
0.1122495522581139
6.451045796320281
0.04869728104273141
7.488790103844832
0.03007838022417086
6.94151277674507
0.05833177349866148
6.88317830870462
0.05832969220002915
6.824847734071921
0.05832396366768344
0.05832636584127615
6.766515759793804
6.941521861017084
0.1166467807232134
6.8832284609179
0.1166085244557408
6.824943396748449
0.1165297293839683
0.1165294361867669
6.766654220634038
6.94647598578454
0.1672794082482422
6.896136807892888
0.1635861431340814
6.844593583552704
0.1604170225831841
0.1560320355830601
6.792693205669222
7.556791301378681
0.02227146342488978
7.617178763758637
0.01524769236429696
7.677240308396167
0.01425773281931758
7.736954644768817
-0.0008546434402559866
7.774626652841865
0.0403531753975222
-0.1817790185659987
7.657930725170586
0.0833515313407539
-0.05382375472334161
7.533308935759173
0.07597850010019513
-0.01623874279032694
0.05678076630648027
7.408889032867845
-0.00835069997588489
6.811057178727247
0.0003792587154364258
6.847862365229641
0.001303515844965131
6.870900511432005
0.002520600160041297
0.002637363747263977
6.869804906223013
6.766786193293469
1.681593187052854e-05
6.767208242430412
4.862875884503737e-05
6.767938309234312
0.0001146507463187785
0.0001404006218297393
6.768127728224034
6.76651655578867
6.766516806514184
6.766514319087444
6.766508805989402
6.766504740553656
-0.0001292255897477057
6.766506440157157
-9.0341257098836e-05
6.766512302109212
-3.867285403369447e-05
-7.724658141583518e-06
6.76651605237736
6.768032090378737
-0.002328905472577025
6.767513960189477
-0.001678134635796025
6.766850107246455
-0.0008455973514065462
-0.0002079486197884561
6.766554532320121
6.854487440174732
-0.04022538538934001
6.829122781310851
-0.02794740670361001
6.798039539306762
-0.01882770099097419
-0.009514908777310593
6.774467038910027
7.277893463768955
-0.004976079772908371
7.148251545818334
-0.003799011641808236
7.02324908897323
-0.003937165142111565
6.907244084241769
-0.001404374876713799
0.002382152387538305
6.817158970719171
-0.002325171884055011
2.187482758497783e-05
6.76736801262833
6.130105665302921e-07
6.76651825042747
6.766516611316855
0.0003779959391393972
6.774544332415203
-0.002100823263871399
1.509336783556137e-06
6.766541815185982
5.35528146272668e-08
6.766516073006832
6.766516638618011
5.223010693833352e-06
6.768605036334466
-4.692047446225311e-05
-2.411296818216613e-06
6.766509535247047
-1.604887600592519e-08
6.766514788643024
6.766516644106938
0.001581123409422514
6.852120538227539
-0.1343279704055633
6.136675776091671e-06
6.767093885874549
-1.422320552335599e-06
6.766512209000162
6.766513771072988
0.1555538491965296
6.610961843006828
0.3110867035663373
6.610977245756398
0.4577315032599886
6.616588087306667
6.944325866746645
0.129401935981629
0.1555501160979333
6.45541104685603
0.3109607107420957
6.455444090439586
0.43867200735076
6.468380774873705
6.878206983522874
0.148755372853938
0.1555337440158838
6.299865425650794
0.3106993461769701
6.300041764658503
0.4144734744065472
6.324448331735733
6.733781359628964
0.09731962683809958
0.15549876194726
6.144317086297346
0.3102085551378348
6.14460065291023
0.3852141939972324
6.182604748151836
6.55055773922077
0.06167627329760406
-0.3455889607170457
6.408212069372898
0.01617143837540391
-0.3094651730501239
6.046884496652088
-0.1554560701032947
5.989429955888062
5.988775434994094
-0.3080089228100547
6.277285700275876
0.006011776719963668
-0.3083709811855097
5.910341817231259
-0.1553656646726732
5.833975386417142
5.833231030034931
-0.2660619890710089
6.098349410050888
-0.005468473625121928
-0.3073083755379333
5.76207302768587
-0.1553375823592297
5.678789844594601
5.677689237826147
-0.2220636929562868
5.81193365600171
0.002322323921806757
-0.3056143858574915
5.615675513387315
-0.1551726371157597
5.523557847060859
5.522163318837259
0.1988612741501841
5.322874563233793
0.391227827222466
5.324280628327609
0.2828619742051653
5.410177397786358
5.460110884084067
0.02974628523725587
0.1985701708012217
5.123637806376197
0.387381102191605
5.125612600582072
0.2360961199105831
5.211463799592245
5.124707795906779
0.07284089109764547
0.1982791562173001
4.924024411785692
0.3851992754213154
4.926065754638018
0.2921044161925586
4.99420812600014
4.923395903895409
0.1838021522437778
0.1987472464990946
4.725328333212088
0.3904444120868726
4.728074382570908
0.4100509721843046
4.777587012651644
4.763477345240653
0.3700192596378893
-0.3375323372697634
5.060792504098634
-0.7042568425374915
5.06887157088401
-1.255377175680881
5.157708057558445
4.883426170642444
-1.438567464020519
-0.3383175854815427
5.395984699525337
-0.707214773774072
5.411236097423902
-1.031746588454265
5.441321561123955
4.392462202730083
-0.4551758662252121
-0.3371498917852092
5.731409964642238
-0.6701183250009599
5.736277292378876
-0.9329109195822255
5.713645314841219
3.81782091619718
-0.06138208632021394
-0.3353350609668816
6.066598608773075
-0.664036517846624
6.064899189195619
-0.7968135855399059
5.905091935130214
3.430717374042333
-0.03736958881942713
0.350086048728472
3.293737856420458
-0.01239219356575329
0.3411397069433665
5.987519992956529
0.1748790588554769
6.237445281213113
6.241527531409664
0.3267617914662995
3.169356141943974
-0.005279231158232423
0.3397256722193141
6.0857545078647
0.1748745402409878
6.410143256375639
6.416506057071916
0.3334806052335247
3.018771741238525
0.0002350327738842029
0.34083276922665
6.221452062177104
0.1749215825255556
6.58521042347216
6.591502788236677
0.3159509573970787
2.84785185465134
0.01186506717888838
0.3402954059178909
6.363545057719622
0.1749240137422204
6.761189042451016
6.766502245657336
-0.1528676489264986
3.401161569214252
0.07750868360269303
-0.007628864073684571
6.55412418080067
-5.760693305956188e-05
6.765052154391003
6.7665131392568
-0.09661085153750248
4.140647556338084
0.106403061326981
-0.002676459227900718
6.679139691138932
-1.535938788177482e-05
6.766153242427471
6.766515955075051
-0.06029458447752667
4.89769318025735
0.1235623931094909
-0.001045007947376275
6.742084315631232
-5.074477523514531e-06
6.766503443358748
6.766516601724706
-0.038047675353447
0.114420542936987
5.575500594742735
-0.0004626344292864015
6.744737413919045
-2.121243712460696e-06
6.766326999707534
6.766516600092809
1.029427011759356
-0.874873261046186
-0.01874414550834714
-7.614353592089174e-11
1.978845088819051
-0.868293678228329
-5.224265464676137e-12
2.858203251158449
-0.8747772440379693
3.311662055693887e-11
-0.8749787930596771
-3.436539941503725e-11
1.03709806354755
-1.768915866190787
-0.02137706342536504
1.978995279186232
-1.736538767565094
2.858203639811965
-1.749530558828627
-1.74995745691376
1.036420599881807
-2.590678621778332
-0.03514031694403488
1.97905889718307
-2.60938203340548
2.858203223082589
-2.624357787109919
-2.62493628735384
1.039792614379765
-0.05221825147876645
-3.38298963276698
1.979599026949685
-3.488289247981537
2.858207588478624
-3.499504769389949
-3.499918226476228
-0.03804767535268061
-4.897693180266921
0.1144205429359788
5.575500594754363
-0.0004626344386138292
-6.742084315636557
6.744737413929836
-2.12128289533986e-06
-6.766503443379169
6.766326999726887
-6.766516601770121
6.766516600170981
-0.06029458448142866
-4.140647556361577
0.1235623931116803
-0.001045007955863264
-6.679139691161029
-5.074464316523475e-06
-6.76615324245094
-6.766515955047691
-0.09661085155586246
-3.401161569212452
0.1064030613263166
-0.002676459248305951
-6.554124180801139
-1.535938895957933e-05
-6.765052154400884
-6.766513139261027
-0.1528676489205447
-2.847851854633886
0.07750868359988472
-0.007628864062902085
-6.363545057702226
-5.760692979883686e-05
-6.761189042434214
-6.766502245658712
-0.1748790588525873
6.241527531433151
-6.066598608827692
-0.341139706929743
6.237445281242413
-6.064899189247322
-0.3500860487215621
5.987519992920488
-5.905091935071001
3.293737856384108
-3.430717373997748
-0.01239219356591203
-0.1748745402180515
6.416506057090924
-0.3397256721952325
6.410143256401387
-0.3267617914627712
6.085754507858846
3.169356141910102
-0.005279231157760716
-0.1749215825145707
6.591502788245351
-0.3408327692059517
6.585210423479816
-0.3334806052259952
6.221452062169686
3.018771741217964
0.0002350327745553535
-0.1749240137312297
-0.3402954058929171
-0.3159509573861669
0.01186506717751992
0.7968135855424876
-3.817820916158803
-0.03736958881971041
0.6640365178831698
-5.713645314810689
0.3353350609928284
-5.736277292413653
-5.731409964655732
0.9329109195883103
-4.392462202702724
-0.06138208631884104
0.6701183250415248
-5.441321561104905
0.3371498917872877
-5.411236097464104
-5.395984699530162
1.031746588465135
-4.883426170632556
-0.4551758662231444
0.7072147737948602
-5.157708057555197
0.3383175854813693
-5.068871570919207
-5.060792504083323
1.255377175694443
-4.763477345238622
-1.438567464024852
0.7042568425545426
-4.777587012655041
0.3375323372728046
-4.728074382578847
-4.725328333191221
0.1988612741552156
5.322874563249812
-5.52216331886206
0.391227827243072
5.324280628303208
-5.52355784716029
0.2828619742205281
5.410177397767828
-5.61567551329915
5.460110884074758
-5.811933655946643
0.0297462852393191
0.1985701707992025
5.123637806397373
0.3873811021919552
5.125612600570027
0.2360961199223066
5.211463799562871
5.124707795901081
0.07284089109760838
0.198279156224629
4.924024411884767
0.3851992754391347
4.926065754637169
0.2921044161958907
4.994208125985343
4.923395903890171
0.1838021522424411
0.1987472465104897
0.3904444121069588
0.4100509721873967
0.3700192596376015
-0.2220636929184782
-6.098349410000109
0.002322323929089931
-0.3056143858341843
-5.762073027587762
-0.1551726371028248
-5.678789844574029
-5.677689237848567
-0.2660619890653363
-6.277285700280956
-0.0054684736278936
-0.3073083755266368
-5.910341817319386
-0.1553375823546664
-5.833975386492076
-5.833231030047661
-0.3080089228299775
-6.408212069399275
0.006011776720086903
-0.3083709811649324
-6.046884496661994
-0.1553656646602691
-5.989429955978657
-5.988775435000059
-0.3455889606879977
-6.550557739225964
0.01617143838799906
-0.3094651730430449
-6.182604748083845
-0.1554560700978451
-6.144600652956668
-6.14431708630562
0.155553849199099
6.610961843031789
-6.766513771098325
0.3110867035679082
6.610977245782522
-6.766512208993145
0.4577315032682703
6.616588087319642
-6.767093885882499
6.944325866763432
-6.852120538246631
0.1294019359738713
0.1555501160981595
6.455411046845064
0.3109607107415649
6.45544409044966
0.4386720073386832
6.468380774881291
6.878206983541681
0.1487553728667125
0.1555337440206173
6.299865425647885
0.3106993461858011
6.300041764653225
0.4144734744183147
6.32444833175723
6.733781359607835
0.09731962683301953
0.1554987619393345
0.3102085551203319
0.3852141939869198
0.06167627329764902
-6.766516644112153
1.422326158517784e-06
-6.766516638620781
1.604900723428671e-08
-6.766516611317162
-5.355301424536663e-08
-6.130072541798981e-07
-6.766516052368915
-6.766514788622167
-6.136673729395525e-06
-6.766516073008268
2.411292704729284e-06
-6.766518250443095
-1.509335514682242e-06
-2.187482449933498e-05
-6.766554532316697
-6.766509535254003
-0.001581123409881868
-6.766541815189629
-5.223008760601999e-06
-6.767368012622639
-0.0003779959380968423
-0.002382152393357873
-6.774467038896762
-6.768605036347202
-0.1343279704035086
-6.774544332395739
-4.692048598325949e-05
-6.817158970715153
-0.002100823262887963
-6.907244084241788
-0.002325171881622179
-7.724661988950388e-06
-6.766512302112495
-0.0002079486248867113
-6.76685010724397
-0.009514908777891684
-6.798039539315478
-7.023249088982359
-0.001404374874297787
-3.867285373182483e-05
-6.76650644015508
-0.0008455973523380234
-6.767513960190411
-0.01882770097614911
-6.829122781304497
-7.148251545823519
-0.00393716513880904
-9.034125713736074e-05
-6.766504740558363
-0.00167813463543931
-6.768032090376852
-0.02794740670660112
-6.854487440186423
-7.277893463771124
-0.003799011641473449
-0.0001292255919825847
-6.766508805989247
-0.002328905480499022
-6.768127728240699
-0.04022538538149001
-6.86980490624466
-7.408889032868437
-0.004976079771427944
-1.681594352720417e-05
6.766516555779583
-6.766515759780762
-0.0003792587305848638
6.766786193275252
-6.766654220614959
-0.04035317541719013
6.811057178672821
-6.79269320559757
7.774626652864344
-7.736954644818565
-0.1817790185676058
-4.862876191391585e-05
6.766516806509852
-0.001303515848872228
6.767208242428715
-0.083351531349668
6.847862365235582
7.657930725183823
-0.05382375472690221
-0.0001146507475192626
6.766514319083722
-0.002520600163553821
6.767938309245928
-0.07597850010951318
6.87090051145904
7.533308935764425
-0.0162387427911847
-0.0001404006290650628
-0.002637363759614431
-0.05678076631143336
-0.008350699978463716
-0.1560320355914467
-7.677240308441749
-0.0008546434363720934
-0.1165294362026714
-6.844593583516767
-0.058326365840634
-6.824943396749006
-6.824847734064186
-0.1604170226020316
-7.617178763798565
0.0142577328158261
-0.1165297294010923
-6.896136808071108
-0.05832396367679549
-6.883228460914125
-6.88317830857696
-0.1635861431690072
-7.556791301384864
0.01524769237370516
-0.1166085244752157
-6.946475986015704
-0.05832969219997475
-6.941521861027206
-6.941512776737621
-0.1672794082517768
-7.488790103807908
0.02227146342282371
-0.1166467807469108
-6.998762933925804
-0.05833177350525121
-6.999844792820195
-6.999844793230062
-1.152181530778734
-6.451045796296735
0.03007838022664799
-2.012455377911056
-6.138387427960223
-2.872852967041824
-6.139447203691289
-6.139447203692029
-1.152163920581188
-5.421833238667857
0.0486972810612869
-2.012455377916461
-5.279051006719151
-2.87285296704225
-5.279049614566449
-5.279049614567379
-1.152055836328342
-4.438826511141093
0.1122495522896962
-2.012455377921992
-4.418652076173153
-2.872852967044603
-4.418652025443835
-4.418652025446893
-1.152058273322868
-3.556965462106481
0.2493828811568141
-2.012455377927508
-3.558254390270612
-2.872852967046921
-3.558254436324423
-3.558254436328661
2.843686947076677
0.8895636090796828
1.954123337995112
0.8895636090815642
1.064559728911566
0.8895636090478376
0.8895538259845703
0.1749973858428344
2.843686947077599
1.7791272181565
1.954123337999196
1.77912721815997
1.064559728936982
1.77912721790484
1.779072271412769
0.1750111637440914
2.843686947089469
2.668690827241873
1.95412333800662
2.668690827242819
1.064559729220385
2.668690825166518
2.668378646170344
0.1750551333302498
2.843686947088214
1.954123338006611
1.064559736217858
0.1751671971166196
0.1749965549480152
0.1749965548592415
0.1749943709421076
0.1750078389526836
0.1750006868182681
0.1750283793299203
0.1751512381375708
0.1749422160128736
0.1750078392437583
0.1749943708254145
0.1750040484030687
0.17500404813236
0.1749904710456369
0.1750177323793709
0.1744403708564693
0.175504499838736
0.175028379188115
0.1750006867290971
0.1750177322260864
0.1749904709237361
0.1749671889801379
0.1749671892486577
0.1719294713217179
0.1768566374407629
0.1751512382164697
0.1749422159480012
0.1744403708418916
0.1755044998250163
0.171929471324725
0.1768566375936801
0.1715202007497668
0.1715202008424019
-0.07311052408851915
0.2432985456770196
-0.1360400439819318
0.2378366147565886
-0.2024618982714658
0.2398076925580012
0.2200076418199075
-0.01424104366478995
0.2563675717455254
-0.03404173318934067
0.2561838156644511
-0.06329582934873001
0.2668130771319073
0.2660092251265418
-0.007928800157821492
0.2627335496917663
-0.02096738936055975
0.267401645475616
-0.03265905458503571
0.2769065413488092
0.2804554763832925
-0.002847836254204927
0.2666122055665434
-0.01327504600357532
0.2775625575068443
-0.02189399401405911
0.2845029557009757
0.2869887980207589
0.2894115892727427
0.01907446853321521
0.2912735525874855
0.01310462977818067
0.2941112035320006
0.01150697112932514
-0.0009711476408668651
0.2958109834641499
0.2899804619394887
0.0128636267182945
0.2930673281762427
0.01067275941828688
0.2970446558340258
0.008347212016762418
-0.006549645957182604
0.3046409570945843
0.2871096308798319
0.002400022169065819
0.2925416772141772
0.005546462983404887
0.2974453345315487
0.004377672806758492
-0.03170121123824166
0.3246298957743715
0.2675454973882104
0.2727206636761956
0.278141623707053
0.2496386958048569
0.2745166231772662
-0.1585442041873918
0.2510436212043385
-0.02764123487251785
0.2449529308697872
-0.005409158479086296
-0.005099558454718989
0.2445839834666386
0.2679727948094908
-0.1204076156743773
0.2509537259407746
-0.008089660275910737
0.2491434194856622
0.0004968840404277475
-0.002619305100717007
0.2499829311987221
0.2733351791206146
-0.06773640812326781
0.2585680057529077
0.008162135466887877
0.2556282700270889
0.007831958605946099
0.003410645334660178
0.2531507720688417
0.1819961197998395
0.1914158150664181
0.2035444717393275
0.2106620342093647
0.2440281880441668
-0.003671657727992494
0.2425211362532743
-0.002212848363242315
0.2414594860214128
-0.002691528988387815
-0.000850211172343629
0.2408765759541983
0.2472911263724956
0.0002940463324773712
0.2443518530640573
0.001241344842749181
0.243049956242774
0.0003174721274706305
0.00011823897238189
0.2418694633937469
0.2495272413869132
0.005360283878196259
0.2466039730599583
0.005561625789919977
0.245186866548599
0.003942521623682527
0.00197993907841415
0.2433778075130236
0.2178065924538599
0.2249914036280205
0.2316351297677311
0.2340395588811047
0.2378466518600574
-0.001235777451440989
0.2346871912165438
-0.001354231594596966
0.2337984156742395
-0.000104242808963817
-0.1538931720467688
0.2455704777152002
0.2385528521116282
0.0002801373440636246
0.2351423059324843
3.817395385080635e-05
0.234021546330667
-8.02627959867741e-05
-0.1455436128329349
0.2160672081388134
0.2397245703947235
0.002107750871102432
0.2358713162257618
0.001698528658834297
0.2337759358472587
-2.483320229396124e-05
-0.09854760963788756
0.1767328204875125
0.2339539967495176
0.2335941581342453
0.2304894436262922
0.1212234240432874
0.2698327919524117
0.09545033946015113
0.2740178547746592
0.1356791039455
0.2776635439414463
0.08387651668878859
0.05145061569657383
0.2792510097749275
0.2470868760065156
0.05878547911999077
0.2697427072411085
0.107660489144718
0.2787304240875872
0.06816827822374361
0.04145289619616588
0.2825108280797845
0.2005479817737008
0.0298674137850512
0.2439352401781175
0.05800170446614072
0.2720480127312714
0.03525332891946509
0.02618312117466048
0.2820241520252472
0.1482329542028883
0.2026282125484236
0.234116383592042
0.2546319006989987
0.2799034850148517
0.01324790389469876
0.2857348354399782
0.003383508805995028
0.2926899164101754
-0.006496085381614503
-0.0006298838764958736
0.3002551100642789
0.2836643719857414
0.01136946940745109
0.2889673892977206
0.00298167834632157
0.2951633697837178
-0.004708546425680527
-0.001206093771650374
0.3035680442337421
0.2845784756722026
0.009411150258439305
0.2909526974177857
0.002478536539831877
0.2981934389109449
-0.00233401233240893
0.0001074346917376845
0.3065313783106888
0.2638565101833271
0.2724522790635508
0.2802366812014659
0.2907398818714224
0.3090345862586517
0.02191198325185528
0.3252916354947025
0.05815489435312937
0.3563426382570591
0.1530610485619575
0.302352867701153
0.4262164549501545
0.313476875405503
0.01452766174337783
0.3299026675620933
0.04307513058688883
0.3589570205302287
0.1247694828426883
0.1970495476371299
0.4656904308236695
0.315532536212868
0.009936466996566473
0.3314255789149824
0.02956880041529852
0.3693719599221034
0.09057930749812004
0.04663661269530983
0.5249790340640571
0.3050454079492683
0.3369890860644295
0.4304169039717347
0.4844869255248773
0.2213891164023246
-1.224521337060233
0.02411253911290673
-0.2531968381223838
0.003617923231414637
-0.03313340622587713
-0.02657786448670991
0.0006071359954389621
0.1554215449167941
-0.9091745720365968
0.01324561509304114
-0.1080029608164066
0.003364103407674013
-0.01651904422447187
-0.01485000572204834
-0.001639084504969147
0.07667635429266642
-0.4582771291364189
0.00523887324204702
-0.03396451308409052
-0.0006592977594065356
-0.004873016095272912
-0.0072013791597609
-0.001535113864750229
0.02877116948976761
-0.002009018314136985
-0.0002570151967465784
-0.0007783073681003807
0.001822988435138628
-0.01033930466367559
0.001371334354481352
-0.002591513305825958
-0.0003912319044641378
0.002652906101521635
0.005704027531941443
0.004944061098529847
-0.00188724684705583
-0.006992289152186332
-0.002933552766810866
-0.000215767052295493
-0.002980968968102345
0.00179352829741717
0.003916218208347325
-0.004361245800760336
-0.002308963225466216
-0.003411026918334871
-0.003792229961935371
0.0005583945010442029
-0.005699154399420901
0.001132526298443431
0.003363110389285585
-0.009140592999830669
-0.001197330453522279
-0.004739728731012456
-0.009011171351827623
-0.009757198860603859
0.05350522003682189
0.03372490988788347
0.1032589296494583
0.07088095404857801
0.1473341569460029
0.09731171582797343
0.1041681677775027
0.1813824451969679
0.02488993561872883
0.008889187889725536
0.07391025009978007
0.03434153881421599
0.1227446171948261
0.0647646653355641
0.08151996744170167
0.1684374943450364
0.005030853388682602
-0.001369253852234076
0.04420434448051164
0.007336679148423911
0.09529813123556907
0.032659779456141
0.05433014631077784
0.1471162280242039
-0.009555336557015438
0.006670157587339957
0.0550723953968095
0.1270861681239484
0.1454133993616246
-0.1717107277070616
0.2218689501608525
0.1131168745455055
-0.1217855631427623
0.1651701641569858
0.08308476171584216
-0.06725354838027983
0.1004756453940494
-0.07022407428527828
0.05444102724996841
0.08759023533246564
0.131473449763366
-0.1211801013545497
0.09502005037664453
-0.07617808191307132
0.05652632500745113
-0.04625113337307189
-0.04068269231847949
0.0263409089580561
0.1040466332462953
-0.07022261606521785
0.0662383816355874
-0.03463414467822429
0.01363448640027497
-0.02087053080793057
-0.01088674199834432
-0.01446566543154868
0.06156885694568236
0.0123935528874217
-0.02820770865080335
-0.03796935537742095
-0.03216842368053976
0.001949398836324622
-0.02187861613791607
-0.002789730351165511
-0.01199606934862293
-0.004916923534683528
-0.004801308673701552
-6.231126725708691e-15
-0.01496898564241173
0.01237522690394987
-0.01226391482781856
-0.0002650409133861734
-0.007032364020895757
-0.006983142246354867
-0.008712034516139519
6.603745328348509e-14
0.01394620255009563
0.03313724484154711
0.004911212018618695
0.01230950790961371
0.001221328062802798
-4.733593429897404e-05
-0.003199488300916951
1.126113091665104e-13
0.03686403842720899
0.02490196788826252
0.0127009228666733
3.428715644737679e-13
-0.00480130867372176
0.01199606934859299
-0.008712034516147792
0.0070323640210034
-0.003199488300949342
-0.001221328062537344
-0.01270092286575895
0.01874414550815276
-0.00491692353467503
0.02187861613790147
-0.006983142246359939
0.01226391482781178
-4.733593431492655e-05
-0.00491121201828805
-0.02490196788746502
0.02137706342552844
-0.002789730351199622
0.03216842368049885
-0.0002650409133795883
0.0149689856423697
0.01230950790960517
-0.01394620254977888
-0.0368640384264279
0.03514031694408982
0.001949398836279852
0.03796935537741536
0.01237522690392832
0.01446566543165124
0.03313724484147117
-0.02634090895762305
-0.05444102724913156
0.05221825147865045
-0.08308476171506186
-0.07022407428507843
0.08759023533229456
-0.1131168745451593
-0.0672535483802657
0.1004756453940989
-0.1454133993613292
-0.1217855631428634
0.1651701641571049
-0.1717107277070117
-0.1813824451968571
0.2218689501608681
-0.05652632500706364
-0.04068269231837046
-0.09502005037643088
-0.04625113337304045
-0.1314734497631284
-0.07617808191296158
-0.1211801013545183
-0.1684374943449119
-0.01363448640008677
-0.01088674199832945
-0.06623838163538112
-0.02087053080789381
-0.1040466332461327
-0.0346341446781365
-0.07022261606515671
-0.1471162280240635
0.02820770865087745
-0.01239355288723082
-0.06156885694549951
-0.1270861681237063
-0.0550723953966359
-0.05433014631075553
-0.006670157587026236
-0.03265977945616125
0.009555336556985584
-0.007336679147933525
0.001369253852392407
0.009757198860409837
-0.09529813123556626
-0.08151996744144327
-0.04420434447982938
-0.06476466533623226
-0.005030853388251787
-0.03434153881328507
-0.008889187888915989
0.009140592999662772
-0.1227446171949965
-0.1041681677767847
-0.07391025009908689
-0.09731171582971446
-0.02488993561779555
-0.07088095404758205
-0.03372490988589956
0.004361245800631647
-0.1473341569459523
-0.1032589296489588
-0.05350522003585676
-0.004944061098179353
0.0003912319040857495
0.005704027531396615
-0.001371334354332548
0.002652906101674374
-0.001822988434870892
-0.002591513305409701
-0.01033930466368965
-0.0006071359952958977
0.002980968967804252
0.003916218207977232
0.002933552766969647
0.001793528297450303
0.001887246847315666
-0.0002157670520094232
-0.006992289152094613
0.001639084505194226
0.005699154399175363
0.003363110389165064
0.003792229961977674
0.001132526298429221
0.002308963225790689
0.0005583945010832758
-0.003411026918226395
0.001535113865011309
0.009011171351576966
0.004739728731004351
0.001197330453775559
0.0007783073682791387
-0.003617923231391545
-0.02657786448694156
-0.02411253911206079
-0.03313340622532306
-0.2213891164006346
-0.2531968381209249
-1.224521337062534
-0.4262164549497646
-0.003364103407663751
-0.01485000572199444
-0.01324561509269627
-0.01651904422424034
-0.1554215449155985
-0.1080029608156879
-0.9091745720378948
-0.4656904308234929
0.000659297759505309
-0.00720137915966039
-0.005238873241918041
-0.004873016095095925
-0.07667635429202632
-0.03396451308377408
-0.4582771291370979
-0.524979034064353
0.0002570151968673152
0.002009018314154858
-0.02877116948950429
-0.484486925525472
-0.3563426382564107
0.3023528677012327
-0.3252916354937603
0.1530610485613122
-0.3090345862579175
0.05815489435272547
0.02191198325411237
-0.3002551100632937
-0.3589570205303548
0.1970495476371493
-0.3299026675619581
0.1247694828423045
-0.3134768754054912
0.04307513058655399
0.0145276617468546
-0.3035680442337696
-0.3693719599227469
0.04663661269474195
-0.33142557891519
0.09057930749691123
-0.3155325362136229
0.02956880041607202
0.009936466999055149
-0.3065313783106363
-0.4304169039738267
-0.3369890860682288
-0.3050454079525158
-0.2907398818726932
-0.2926899164099423
-0.0006298838693112874
-0.2857348354411618
-0.006496085383615235
-0.2799034850170361
0.003383508805216762
0.01324790390615294
-0.279251009775065
-0.2951633697834376
-0.001206093764898997
-0.2889673892994528
-0.004708546427124927
-0.2836643719897904
0.002981678346756111
0.01136946941592998
-0.2825108280809119
-0.2981934389108471
0.0001074346960466821
-0.2909526974201029
-0.002334012333199964
-0.2845784756759706
0.002478536540615028
0.009411150264405088
-0.282024152026633
-0.2802366812015387
-0.2724522790670995
-0.2638565101876446
-0.2546319006963955
-0.27766354393847
0.05145061569705778
-0.2740178547762633
0.08387651668607843
-0.2698327919539258
0.1356791039600054
0.09545033945216908
-0.2455704777147563
-0.2787304240844979
0.0414528961961016
-0.2697427072429157
0.06816827822355787
-0.2470868760036057
0.1076604891554114
0.05878547911460763
-0.2160672081365221
-0.272048012727672
0.02618312117312194
-0.2439352401775557
0.03525332891882493
-0.2005479817679493
0.05800170447312003
0.02986741378083946
-0.1767328204836399
-0.2341163835859432
-0.2026282125476263
-0.1482329541948898
-0.121223424041269
-0.2337984156721596
-0.1538931720462081
-0.2346871912156849
-0.000104242823128875
-0.2378466518600697
-0.001354231595677713
-0.001235777447830266
-0.2408765759554088
-0.234021546326511
-0.1455436128347795
-0.2351423059335079
-8.026281015027781e-05
-0.2385528521104684
3.817395413174829e-05
0.000280137348558307
-0.2418694633946289
-0.2337759358439837
-0.09854760963972764
-0.2358713162279969
-2.483321324669996e-05
-0.239724570392862
0.001698528661342735
0.002107750875538827
-0.2433778075135869
-0.230489443624028
-0.233594158141772
-0.2339539967446467
-0.2340395588749626
-0.2414594860221678
-0.0008502111709708937
-0.2425211362534399
-0.002691528985905689
-0.2440281880449031
-0.002212848362882047
-0.003671657727433886
-0.2445839834663462
-0.2430499562432469
0.0001182389728729416
-0.2443518530642035
0.0003174721286577364
-0.2472911263727575
0.001241344842808412
0.0002940463321495779
-0.2499829311981431
-0.2451868665483629
0.001979939077765058
-0.2466039730599725
0.003942521624202056
-0.2495272413868178
0.005561625790079017
0.005360283877718142
-0.2531507720685996