/*--------------------------------*- C++ -*----------------------------------*\
  =========                 |
  \\      /  F ield         | OpenFOAM: The Open Source CFD Toolbox
   \\    /   O peration     | Website:  https://openfoam.org
    \\  /    A nd           | Version:  11
     \\/     M anipulation  |
\*---------------------------------------------------------------------------*/
FoamFile
{
    format      ascii;
    class       volScalarField;
    location    "0.15";
    object      Ma;
}
// * * * * * * * * * * * * * * * * * * * * * * * * * * * * * * * * * * * * * //

dimensions      [0 0 0 0 0 0 0];

internalField   nonuniform List<scalar> 
880
(
1.11801663592382
1.118016635920906
1.11801607379007
1.117799021326533
1.11801663592382
1.118016635908391
1.118014764401939
1.117160731276061
1.11801663592382
1.118016635892587
1.118008462605877
1.115548019179359
1.118016635923821
1.118016635270525
1.117976914654056
1.107352004090588
1.118016635924357
1.118016635922239
1.118016635824371
1.118016626261895
1.118016637300796
1.118016632613171
1.118016578691533
1.118016164036196
1.117824119610014
1.11763644425989
1.117290107011429
1.118017543945779
1.081301622668939
1.055260241998766
1.044690301566282
1.041918945352072
1.118016539009472
1.118015847133294
1.118012785587812
1.118011705217465
1.118007459786641
1.117986926783811
1.117962462982388
1.117954426125042
1.115572303071677
1.113535832296976
1.112066731118866
1.111534011930852
1.040120262777352
1.033652546833083
1.036232313018703
1.038341885474159
1.08629997417367
1.11057484979034
1.120356758222919
1.13048127860166
1.105282156202415
1.105473981082351
1.109714480307727
1.115811947151858
1.117746608728107
1.117449363347992
1.11735981095216
1.117635132110052
1.118000654995219
1.117976519538645
1.117938258732645
1.117899832866272
1.117890260129907
1.117900379525341
1.117926803701746
1.117962607485293
1.117968455055436
1.118153764803214
1.118275733149439
1.118274195000747
1.119840265556806
1.122314062326656
1.123450695091244
1.12333880768024
1.139939848208988
1.144379016147779
1.144501079179863
1.14215623250635
1.13814316973523
1.122241009769855
1.118177398551741
1.117993421980048
1.134489675135172
1.120869915135768
1.118080042335508
1.118010399217878
1.116499760910032
1.118770254628528
1.118025587913515
1.118015986367882
1.010786111125332
1.115613668124404
1.118006212326096
1.118016023034361
1.118015277213563
1.11793950742889
1.103916674999356
0.7906491734466679
1.118007334038765
1.117808248270587
1.092059060315145
0.7775518478943658
1.117999160399555
1.117441709807306
1.07445000568834
0.7593043809324977
1.117953346644547
1.116991030568639
1.057633962932775
0.7680423731810423
0.7771534407409924
1.037239463478723
1.116035484315153
1.117912648491326
0.7880541564153838
1.021471552286968
1.115159404941586
1.117774882636008
0.7984471508807568
1.002200698788832
1.113472148806996
1.117676636502533
0.8146993932116231
0.9878385344129462
1.111578165006494
1.117394666220638
1.11714810809822
1.108162849260882
0.9781201212193202
0.8402890279842695
1.116616249035374
1.108087683803941
1.004531106311642
0.9023083137586321
1.117342686102221
1.112164261477799
1.058597295072558
0.9996054471390701
1.11616344672002
1.115295014219713
1.100579831163772
1.1049622133368
1.116754830992125
1.117218841136649
1.147828101455678
1.28369909815939
1.11673747499607
1.126100249924531
1.168211621797673
1.37030312181381
1.117643323332336
1.125812097197897
1.159324903471565
1.302175733371338
1.118094769901473
1.121239226152963
1.134872951259563
1.052275998183388
0.9065560632016929
1.11267683095125
1.118801020113022
1.118066068482247
0.8209812683098399
1.090767594883307
1.117150224782324
1.118017311428116
0.7605975917257136
1.073714044365789
1.11629564951919
1.118015725779917
0.7034943571672481
1.057983604431286
1.115516339264601
1.117996623707808
0.7561819186976544
1.067247355705995
1.116235385280157
1.118007607962027
0.8420683762485476
1.082620753314907
1.117092762444923
1.118012424610545
0.9315549805044937
1.096547229612823
1.117625464607376
1.11801527952694
1.003313963494995
1.107738318119595
1.117943554227196
1.118016358604992
0.9747243524295915
1.104551092672029
1.117432161906521
1.118007903891346
0.9800239929575744
1.105187877533626
1.117470458666223
1.118008490545883
0.9833011330596286
1.104775903176246
1.117498474418202
1.118009242186013
0.9778703208601031
1.105201171294595
1.117568811610644
1.118010692033185
1.003313963495771
1.107738318122106
1.117943554230861
1.118016358608416
0.9315549805047068
1.096547229615332
1.117625464609462
1.118015279528536
0.8420683762492983
1.082620753316712
1.117092762445341
1.118012424611406
0.7561819186964038
1.067247355707917
1.116235385279414
1.11800760796195
1.118066068481212
1.118801020111884
1.112676830949669
0.9065560632007319
1.118017311426892
1.117150224781944
1.090767594881991
0.8209812683080081
1.118015725779194
1.116295649519485
1.073714044367141
0.7605975917243081
1.117996623707488
1.115516339262678
1.057983604432277
0.7034943571661189
1.052275998181039
1.134872951259298
1.121239226154394
1.118094769901047
1.302175733369463
1.159324903471971
1.125812097197329
1.117643323332393
1.37030312181406
1.168211621797661
1.126100249923975
1.116737474994972
1.283699098159198
1.147828101457157
1.117218841138218
1.116754830990891
1.117148108099423
1.108162849256484
0.9781201212153348
0.8402890279845014
1.116616249035538
1.108087683802115
1.004531106309071
0.9023083137583838
1.117342686095988
1.112164261474583
1.058597295072987
0.9996054471395862
1.116163446728376
1.115295014219963
1.100579831163025
1.104962213336665
0.8146993932122754
0.9878385344124656
1.111578165010888
1.117394666213896
0.7984471508804319
1.002200698788081
1.113472148795883
1.117676636504713
0.788054156415635
1.021471552288224
1.115159404954563
1.117774882633696
0.7771534407403916
1.037239463476761
1.116035484309558
1.117912648491296
1.118015277213186
1.117939507427931
1.103916674998452
0.7906491734450782
1.118007334035516
1.117808248269016
1.092059060319335
0.7775518478956204
1.117999160395832
1.117441709804999
1.074450005686566
0.7593043809342473
1.117953346644028
1.116991030573138
1.057633962934761
0.7680423731815478
1.118016023034197
1.118015986368359
1.118010399216474
1.117993421980178
1.118006212329471
1.118025587914999
1.118080042336686
1.118177398552244
1.115613668126016
1.118770254627584
1.120869915136887
1.122241009770753
1.010786111126747
1.116499760909725
1.134489675134716
1.13814316973539
1.117962607484448
1.118274194999503
1.123338807679596
1.142156232505743
1.117926803702442
1.118275733147674
1.123450695091284
1.14450107917981
1.117900379525359
1.11815376480259
1.122314062327794
1.144379016149451
1.11789026013117
1.117968455056
1.119840265556537
1.13993984821009
1.118000654995176
1.117746608730081
1.105282156202185
1.086299974172127
1.117976519540872
1.117449363347853
1.105473981081549
1.110574849790165
1.117938258731115
1.117359810953806
1.109714480309025
1.120356758224898
1.117899832866894
1.117635132110583
1.115811947151375
1.130481278602749
1.038341885474606
1.111534011930786
1.117954426127147
1.118011705216156
1.036232313019991
1.112066731117456
1.117962462985226
1.118012785588292
1.033652546833209
1.113535832296182
1.117986926787155
1.118015847133843
1.040120262777579
1.115572303071504
1.118007459788246
1.118016539007148
1.041918945352918
1.11801754394419
1.118016164036528
1.118016626260516
1.044690301567083
1.117290107013374
1.118016578693382
1.11801663582433
1.055260241999629
1.117636444260822
1.11801663261505
1.118016635922247
1.08130162266994
1.117824119610747
1.118016637299255
1.118016635923612
1.118016635923821
1.118016635920843
1.118016073789381
1.117799021324104
1.11801663592382
1.118016635909254
1.118014764401775
1.117160731276068
1.11801663592382
1.118016635893198
1.118008462605949
1.115548019179503
1.11801663592382
1.11801663527303
1.117976914654937
1.107352004091402
1.117409373166331
1.116143564696292
1.111140731728882
1.085377990020511
1.116143564696109
1.112556250990189
1.096394808967634
1.040972464420686
1.111140731728668
1.096394808967698
1.046487001299883
0.9455191474628905
1.085377990020121
1.040972464419898
0.9455191474609643
0.8249407695417332
0.7875200237012815
0.83167949529647
0.9152481920601118
0.9920420483350698
0.8408417591860661
0.8524756261834923
0.8913469948276562
0.9460261360088597
0.8630386049551001
0.8801612882523466
0.915479402735542
0.9496557770494582
0.8970779762648712
0.9091703555515029
0.9335687296637851
0.9562069325616527
0.968961782485848
0.9790849272893689
0.9892131835476176
1.007046665158943
0.9549116232102938
0.9758362523237692
0.9880650527956
1.031020650164615
0.936967960232035
0.9646737168138454
0.9824521800811916
1.092550810902212
0.9237721151320255
0.9327247750887088
0.9410959641609055
1.174951643977577
1.197609231117793
1.213208871573932
1.175288217168335
1.163064918211637
1.293680794963819
1.294888907981354
1.232854283066304
1.196874583003164
1.440876901806199
1.345384404855689
1.262827948470618
1.215711023987906
1.173935821891597
1.06524143113741
1.032543681391042
1.031380743000598
1.160196496694706
1.1585485229554
1.15416220680199
1.148923714854757
1.179565535787575
1.168941875359254
1.160840084130482
1.153919888770017
1.188681853379288
1.172989824998201
1.163018649073138
1.156423929683759
1.039654025221654
1.054263283620309
1.072728695841873
1.087785578366212
1.143340985630996
1.136491238249518
1.046999710631005
0.7656693458147112
1.148088798113749
1.140287869790539
0.9835626656012862
0.6114177051923235
1.151304502359338
1.143072839894455
0.8819491500233935
0.426007010443951
1.099396937813575
1.109352440616301
0.7119794187175388
0.1863201888740793
0.5689947196350422
0.6292966189126781
0.6650024020410463
0.7085436728637818
0.5131610299506081
0.6090998054683255
0.6612788846774728
0.709522146903151
0.3949789274430265
0.5399516074538611
0.6309926301601549
0.6950841399282307
0.1860426074273203
0.3290221999137392
0.4746337581076721
0.5819060957785573
0.7408381139463833
0.7524095252667856
0.7454923024388322
0.7375064827035318
0.7416916648708515
0.7515197117161247
0.7513332422702362
0.7518888543074397
0.7360414833540575
0.7497294303027244
0.7541411196796112
0.7594852478662597
0.6656185172462553
0.7068514922269761
0.727110921112744
0.7323698448806969
0.7556440496229359
0.8263396514218023
0.9383226109012923
1.061545507982597
0.7668367222669291
0.8300605157050669
0.9260840927662285
1.087252117076189
0.7780251265933161
0.8253723743291747
0.9400314099361456
1.383357408938267
0.7615626885463271
0.8027422100638228
0.9610965230583572
1.929380847262634
1.28303066335302
1.530215387391254
0.5763916812464314
0.2559004456907479
1.357276485687402
1.270125314557257
0.3165041072384027
0.2830578708380461
1.433437649054763
0.9231042053327152
0.3042100887136072
0.3203990853430599
1.130876213215871
0.3920622143831288
0.3164071539324322
0.2906301455617484
0.1247188300990941
0.07766745825970933
0.100038143660428
0.07814044580599126
0.1875597524161383
0.09467774006055463
0.02894117079070804
0.03981074896742864
0.2408576241592048
0.158438059469319
0.117294912100373
0.09691420192851032
0.2347951231785826
0.1640671682990877
0.144604462012646
0.1026767113658803
0.3101348341757309
0.6297923884017341
0.8227521566205325
1.033884666089204
0.1407824415031683
0.4655693076048932
0.7088249259133977
0.9411869366560983
0.09132118623716075
0.2569007963249417
0.5297126057774515
0.8431485136034602
0.0763892951824766
0.06644103846370882
0.3845259211474791
0.8631328859164157
1.20195051987017
1.28773243378587
1.130900996472553
0.7278231070217306
1.066695523562272
1.04934030018422
0.9189998926104729
0.5729706119611976
0.98929553965341
0.8046873154269181
0.5503570605585759
0.2889403980574934
0.8609573973895959
0.4427042990620134
0.2009196872161666
0.1086755294496887
0.09613347301931348
0.09098317836155596
0.08430057662210018
0.0670570147949483
0.1221076606192545
0.03307519346088745
0.05944389078175487
0.08137365426756457
0.2199299968183263
0.08772281842884476
0.1024436125716451
0.1032546886830574
0.4342590471922113
0.2894991514192496
0.2123666178817986
0.1852285118098164
0.06705701479483044
0.0813736542676963
0.1032546886840619
0.1852285118077581
0.08430057662179687
0.05944389078179575
0.102443612571832
0.2123666178821767
0.09098317836112073
0.03307519346066713
0.08772281842901915
0.2894991514201014
0.09613347301906465
0.1221076606194068
0.2199299968188098
0.4342590471929461
0.7278231070214285
1.130900996470058
1.287732433782258
1.201950519868096
0.5729706119613498
0.9189998926105533
1.049340300184379
1.066695523562141
0.2889403980576502
0.5503570605588638
0.8046873154271083
0.9892955396536058
0.1086755294496826
0.2009196872161896
0.4427042990622863
0.8609573973900657
0.8631328859164608
0.3845259211475951
0.06644103846398226
0.07638929518235038
0.8431485136035192
0.5297126057775734
0.2569007963249915
0.09132118623728086
0.9411869366558622
0.7088249259134436
0.4655693076048126
0.1407824415029944
1.033884666088837
0.8227521566205042
0.6297923884016418
0.3101348341749757
0.07814044580637697
0.1000381436596837
0.07766745825780011
0.1247188300994323
0.03981074896688464
0.02894117079086624
0.09467774006267585
0.1875597524179135
0.09691420192764
0.1172949121004487
0.1584380594709087
0.2408576241608876
0.1026767113652234
0.1446044620128712
0.1640671683001602
0.234795123179798
0.2559004456886753
0.5763916812386574
1.530215387388197
1.283030663352152
0.283057870837967
0.3165041072368703
1.270125314554355
1.35727648568744
0.320399085342884
0.3042100887136965
0.9231042053304372
1.43343764905421
0.2906301455617113
0.3164071539331522
0.3920622143811879
1.130876213216153
1.061545507982659
0.9383226109015352
0.826339651421934
0.7556440496238156
1.087252117076039
0.9260840927662873
0.8300605157051389
0.7668367222673976
1.383357408937677
0.940031409936243
0.825372374329239
0.7780251265937035
1.929380847261329
0.9610965230584492
0.8027422100642317
0.7615626885467427
0.7375064827041963
0.7454923024381207
0.7524095252668703
0.7408381139464899
0.7518888543080194
0.7513332422696066
0.7515197117160355
0.7416916648712175
0.7594852478667223
0.7541411196790099
0.7497294303026114
0.7360414833544264
0.7323698448813999
0.7271109211125871
0.7068514922261832
0.6656185172441604
0.7085436728637636
0.665002402041725
0.6292966189133242
0.5689947196343953
0.7095221469030353
0.6612788846776821
0.6090998054684075
0.5131610299505939
0.6950841399279842
0.6309926301602595
0.5399516074534249
0.3949789274434852
0.5819060957783592
0.4746337581084882
0.3290221999131576
0.1860426074279247
0.7656693458157644
1.046999710631932
1.136491238248587
1.14334098563078
0.6114177051936884
0.9835626656029731
1.140287869789314
1.148088798113107
0.4260070104465005
0.8819491500256876
1.143072839893149
1.151304502358438
0.1863201888755079
0.7119794187193862
1.109352440614986
1.099396937812548
1.148923714853587
1.154162206802349
1.158548522957197
1.160196496694818
1.153919888768177
1.160840084131528
1.168941875361038
1.179565535787678
1.156423929681279
1.163018649074469
1.172989824999965
1.188681853379244
1.087785578364573
1.072728695842613
1.054263283620524
1.039654025221156
1.163064918213112
1.1752882171697
1.21320887157319
1.197609231116245
1.196874583004672
1.232854283067743
1.294888907979559
1.29368079496274
1.215711023989679
1.262827948472267
1.345384404853473
1.440876901805368
1.031380743001035
1.032543681394875
1.065241431137092
1.173935821892434
1.007046665159434
0.9892131835492926
0.9790849272888268
0.9689617824857141
1.031020650165359
0.9880650527964989
0.9758362523225647
0.9549116232100942
1.092550810902564
0.9824521800813034
0.9646737168122633
0.9369679602320826
1.174951643977404
0.9410959641610346
0.9327247750874228
0.9237721151331988
0.9562069325634308
0.9496557770499539
0.9460261360096517
0.9920420483358944
0.933568729665355
0.9154794027357841
0.8913469948281771
0.9152481920609505
0.9091703555538516
0.8801612882529086
0.8524756261836561
0.8316794952975582
0.8970779762687909
0.8630386049569504
0.840841759186153
0.7875200237024872
1.018474584863467
1.106240316398507
1.11776880626713
1.118015147923793
1.018577924887501
1.106186279215333
1.117730992519907
1.118014392068437
1.00141169717485
1.106427665433166
1.11771003575983
1.118013786264257
0.9711091345721481
1.10555738666508
1.117648694759622
1.11801250211289
1.118007903890013
1.117432161906149
1.10455109267184
0.9747243524256071
1.118008490545842
1.11747045866539
1.10518787753348
0.9800239929593808
1.118009242185552
1.117498474420249
1.104775903175829
0.9833011330623328
1.118010692033224
1.117568811612406
1.105201171293752
0.9778703208611182
1.118012502114127
1.118013786263383
1.118014392067633
1.118015147925986
1.117648694761038
1.117710035759749
1.117730992519488
1.117768806266312
1.105557386664829
1.106427665433375
1.10618627921487
1.106240316400087
0.9711091345721221
1.001411697174895
1.018577924886982
1.018474584863523
)
;

boundaryField
{
    back
    {
        type            empty;
    }
    inlet
    {
        type            calculated;
        value           nonuniform List<scalar> 
16
(
1.11801663592382
1.11801663592382
1.11801663592382
1.11801663592382
1.118016635923628
1.118016635924169
1.118016635898998
1.118016633266165
1.118016633265845
1.118016635898986
1.118016635924181
1.118016635923612
1.11801663592382
1.11801663592382
1.11801663592382
1.11801663592382
)
;
    }
    front
    {
        type            empty;
    }
    top
    {
        type            calculated;
        value           uniform 0;
    }
    outlet
    {
        type            calculated;
        value           nonuniform List<scalar> 
16
(
1.118004814466899
1.118005782340203
1.11800688613834
1.118008760719394
1.118014688358248
1.118013742138176
1.11801293362808
1.118011191270445
1.118004814465797
1.118005782340058
1.118006886138095
1.118008760719454
1.118011191271511
1.11801293362715
1.11801374213753
1.118014688360391
)
;
    }
    bottom
    {
        type            calculated;
        value           uniform 0;
    }
    wall
    {
        type            calculated;
        value           uniform 0;
    }
}


// ************************************************************************* //
