/*--------------------------------*- C++ -*----------------------------------*\
  =========                 |
  \\      /  F ield         | OpenFOAM: The Open Source CFD Toolbox
   \\    /   O peration     | Website:  https://openfoam.org
    \\  /    A nd           | Version:  11
     \\/     M anipulation  |
\*---------------------------------------------------------------------------*/
FoamFile
{
    format      ascii;
    class       volScalarField;
    location    "0.35923715";
    object      p;
}
// * * * * * * * * * * * * * * * * * * * * * * * * * * * * * * * * * * * * * //

dimensions      [0 2 -2 0 0 0 0];

internalField   nonuniform List<scalar> 
880
(
80.0000000000004
80.00000016385775
80.01345697014251
81.88036097648603
80.00000000017729
80.0000004813165
80.0166907702245
82.76391423130103
80.00000000090172
80.00000187777135
80.03089545472211
83.82260883306357
80.0000000120275
80.00000824577855
80.06381024664613
85.40758075244513
79.9999999446778
80.00000002780087
80.0000061161205
80.00009435565592
80.00003799767002
80.00014606931062
80.00091100721238
80.00134651495188
80.144599891101
80.23457625336032
80.38549182295947
80.53779373456142
88.34440233748418
91.39563678721025
94.00070615785033
95.23502386138114
80.00023343436783
80.00190273265025
80.00718980681515
80.02228129060471
80.01262434158802
80.05407679456252
80.10847863848589
80.22875972525543
81.27050594396736
81.90767798811329
82.71483724398814
83.76514827131177
96.38512259176574
97.95092563647195
98.27352783867681
97.50851856652135
90.98666915839216
87.50957470263432
85.83750565956801
84.7425731491594
85.6917734162144
86.37144516422615
86.77399909336236
86.80862079334084
80.63880637850718
81.12355275152264
81.63901970130524
82.02325391049894
80.07908949300472
80.19129043542442
80.36116319487471
80.59966490144532
80.87776518751873
81.15709955129907
81.43364043422544
81.6400697491933
82.31287930075381
82.48083622327509
82.56763028808405
82.57336979317208
86.44908855318273
85.94969750011211
85.29455493246628
84.61630687697435
83.58709279926391
82.89852363651133
82.50697841165737
82.0791110483465
82.08343627028383
84.1436555834412
82.52052399694895
81.76639889637983
87.74242682293263
83.86378382605113
82.36951346779925
81.746693326554
120.5576629961725
85.26207336363767
82.18752585460712
81.49459682789323
158.3479595221698
93.05772196381319
82.67021277837134
81.40189139834841
81.37299645540945
83.39326455259827
102.771522522487
175.076666791426
80.87273117496315
84.75165176794231
113.7344724115275
174.2794871669081
81.08514968270207
87.90163089512632
128.3729118701216
176.1372322106384
81.89142914486177
93.58578609645969
142.2712160977549
173.4126698296066
167.7072803516254
149.9509235504198
102.2401106954309
83.66789021868294
160.7382011824502
151.1909542271596
111.8302351215959
86.84038325983479
153.342967031803
148.9208444595944
120.1259101696305
91.94297504412647
145.6346184605341
138.9087040213108
121.4590089511236
98.31272259017909
103.9492080731211
117.3639315409783
126.5675662428323
136.6078236866962
103.1378785377863
109.2149314688783
113.4275306525389
123.6649746178236
100.8369303087352
101.4843320645523
100.6812587299787
107.3274503352231
97.8467396438989
95.22413248933964
89.17505163683094
88.30750440593354
95.4685012456201
89.32758474209648
78.72365059350925
66.39561273359713
91.68580259357768
83.96084301489927
69.93153259946573
43.06373893076717
88.80555107482077
81.54220841206025
63.23936743497983
26.39394176503398
86.35656526841589
80.46176344623349
58.99075943659525
14.84820336304259
15.6052952204073
60.56885191118779
79.58678307792042
84.17255063587025
24.76287031682153
61.36476697271801
78.99416302055437
82.70515676127546
27.33956106443053
61.04501626406073
78.13596288439901
81.71388529270864
25.83938182805447
60.43835717084954
77.52976078263632
81.17540410663611
31.26902232490006
63.06638005795325
77.20206100385366
80.2397764193886
36.95807368133425
65.60876175145283
77.11654693003912
79.68640477686751
43.59636169265079
68.84962890539555
77.31445779924545
79.66584634643603
51.41999071818364
71.09834326644025
77.69925401513653
79.73913819178254
53.28236434082068
58.94006204420258
73.28903869438872
79.26090335029929
51.93676974316516
60.14521113692351
73.51417360069871
79.25268248374137
49.49684323080234
61.86251950101271
74.0147679674773
79.25458380513003
47.17469960455617
63.82092956221112
74.73196847392738
79.31310185492498
51.41999071821405
71.09834326640491
77.6992540150567
79.73913819144968
43.59636169277945
68.84962890501288
77.31445779900308
79.66584634566952
36.95807368137577
65.60876175131477
77.11654692963768
79.68640477644584
31.26902232493935
63.06638005753242
77.20206100371117
80.23977641922866
84.17255063606505
79.58678307808405
60.5688519111002
15.60529522013316
82.70515676115484
78.99416302053267
61.36476697251261
24.76287031650766
81.71388529285096
78.13596288470592
61.04501626363047
27.33956106439506
81.17540410682162
77.52976078293699
60.4383571707522
25.83938182799518
14.84820336317436
58.99075943661283
80.46176344640703
86.35656526859543
26.39394176491395
63.23936743494839
81.54220841221266
88.80555107463771
43.06373893063529
69.93153259995802
83.96084301505337
91.68580259393302
66.39561273378933
78.72365059335038
89.32758474155798
95.4685012459791
103.9492080734882
117.3639315416086
126.5675662433837
136.6078236865819
103.1378785376417
109.2149314687089
113.4275306528853
123.664974617732
100.8369303083961
101.4843320644536
100.6812587300735
107.3274503352748
97.84673964385888
95.22413248905454
89.17505163658201
88.30750440614405
145.6346184604791
138.9087040211616
121.4590089514767
98.31272259093377
153.342967031633
148.9208444594922
120.1259101697928
91.94297504417402
160.7382011824853
151.1909542268399
111.8302351213432
86.84038326020884
167.7072803513663
149.9509235506998
102.2401106957978
83.66789021864138
81.37299645524305
83.39326455250703
102.771522522502
175.0766667909906
80.87273117538483
84.75165176804973
113.7344724115039
174.2794871664557
81.08514968336408
87.90163089592807
128.3729118698535
176.1372322103347
81.89142914497648
93.58578609660269
142.271216097709
173.412669829492
81.401891398374
81.49459682773099
81.7466933269517
81.76639889644164
82.6702127779718
82.18752585434279
82.36951346814077
82.52052399684479
93.05772196330548
85.26207336359471
83.86378382574415
84.14365558331205
158.3479595214751
120.5576629957935
87.74242682319418
82.08343627029184
81.64006974948893
82.57336979340747
84.61630687714667
82.07911104823216
81.43364043390532
82.56763028813708
85.29455493233777
82.50697841158627
81.15709955132408
82.48083622330451
85.94969750033177
82.89852363616698
80.87776518724985
82.31287930038837
86.44908855326777
83.5870927993641
80.07908949287307
80.63880637819881
85.69177341629974
90.98666915836291
80.19129043531268
81.12355275118306
86.3714451643816
87.50957470232851
80.36116319528185
81.63901970067016
86.77399909345436
85.83750565886761
80.59966490132744
82.02325391044224
86.80862079332729
84.74257314886222
97.50851856641903
83.76514827151946
80.22875972517073
80.02228129073342
98.27352783860172
82.71483724409596
80.10847863828356
80.00718980679602
97.95092563628791
81.90767798794573
80.0540767938091
80.00190273271136
96.38512259190493
81.27050594372615
80.0126243413463
80.00023343439973
95.23502386119725
80.53779373474022
80.00134651491955
80.0000943561032
94.00070615740279
80.38549182295262
80.00091100711724
80.00000611640836
91.3956367868154
80.23457625331244
80.00014606934322
80.0000000276608
88.34440233721882
80.1445998909178
80.00003799721574
79.99999994537085
80.00000000002807
80.00000016396199
80.01345697015914
81.88036097638728
80.00000000026193
80.00000048100623
80.01669077048007
82.76391423099965
80.00000000110963
80.00000187755403
80.03089545470145
83.82260883338675
80.00000001233936
80.00000824569409
80.06381024669743
85.40758075266257
83.52401352486011
85.09530828550626
87.64372548548391
92.78687923703387
85.09530828579
87.15063970433054
90.9972195607459
98.69109235120766
87.64372548564174
90.9972195606484
97.31199472550205
106.8208604919132
92.78687923731448
98.69109235071149
106.8208604924709
117.1820163936449
127.9924470939556
119.0252254079188
115.1013875331854
106.8656243065181
126.2797348794596
123.6456792127814
123.6041013483003
119.5301536882096
126.3198605882632
125.4943631105366
125.050704432223
123.6401687163455
123.7373834697717
123.3303005893589
123.243499053382
122.392906288451
119.6768242978105
117.8559554284251
114.2518261445106
109.340098721789
119.9429428057846
118.0398233227934
114.3868052971492
109.8050837780827
120.278628729061
118.2215929893285
114.3690005876101
110.2398952660555
120.4534076834594
118.1133336334299
114.5207842329966
108.5601487496169
82.83049322970399
71.90502155592785
70.60489092967659
70.98545267662175
75.8208620182188
69.03041978200639
69.65703726582669
70.38169575319439
69.99730835305385
68.89582665888504
70.2294067128134
70.92985338376765
60.73660682040944
66.59795324756719
69.23778240603549
70.198394831523
70.93002851028926
71.29230164366108
72.10768400188434
73.0511087250685
70.47271185153645
70.85089414199214
71.73549140101684
72.92899033498946
70.90445562251544
71.13417040304981
71.87247004558022
72.80671231754268
70.29686624523252
70.61803317302434
71.55364497878516
72.84651799370153
78.67375672565562
114.0354173815897
165.0710045876446
181.4274745940702
81.36363373691476
121.5220162130842
162.5395630422101
173.2947022687597
83.49472961515283
125.2967479393506
161.3142834068215
171.9959991020533
84.86395220021447
130.7126998017254
161.6595312548233
171.9731525465682
218.1624977743521
209.3373061389181
201.7902584901214
190.5372326391771
219.3304338125425
212.1163388299453
203.9474225982567
192.37779639326
218.3262600156912
213.6469934315715
205.0479383466983
193.498543663448
213.2095249169002
215.571919665124
206.9708982746855
195.2366207853167
178.1480206118292
167.8952999014714
158.2744873254802
153.3866729513094
180.1462763472207
169.2794937625602
158.9645564519407
153.7600142934593
181.2947953098404
169.4885339341444
159.5122713201621
153.7252858035104
183.701135891641
170.9139357922262
161.1737455030373
154.8234813996085
148.5698358619488
140.6582358255972
126.7741672678376
105.8850713894498
149.263659999247
142.1819292948562
128.8939380555354
114.3599815038345
149.2080123157728
142.6098254624693
130.6898185441529
119.6674585630545
150.3701602232702
144.9549908130428
134.0437423855405
134.5834662990036
64.6230131307384
16.548973389634
2.690605928794078
1.283631476470907
49.95161405342827
10.39445298026703
2.242183838420736
1.464409466526199
34.73867591930674
6.571936227063628
1.963416586400406
1.620799284713097
19.5511354732184
3.060986907454292
1.726185920855721
1.813251991256806
1.929267892851168
4.153443372819732
6.785709657891911
10.67154657849938
2.73634180999805
5.08783803849341
7.80067112554212
11.94479609541766
3.199536341650676
5.472941465826975
8.645978582866151
12.64694081124973
3.753842904742228
6.199440823016103
10.0929424457819
13.7930910404095
12.51724752152641
18.94024049811686
26.03301477072319
34.74101936211333
12.12979883888296
17.87726799522671
24.71998658725067
33.23095701990992
12.44050741555472
16.35104458026467
22.87548999362278
32.23953626912031
11.69545319659075
14.46072914904107
19.06066638770267
30.28203790040287
35.03376902474855
33.20765743354996
32.54785608756618
33.17749132406022
31.86519851544078
31.78645491120411
32.24760835812904
32.35379968623847
31.01256974829795
32.6571583642726
32.98668696721683
33.02246980069647
29.23691489628632
31.45584682525446
31.77608678029784
32.50247925071256
32.92038239816024
33.23126713501213
33.49123796230792
33.61776975401359
32.97860495720943
32.93617614486659
32.84467002590647
32.95084294621324
32.92858131045828
33.39766538251263
33.83628255313807
34.0949073021499
34.75155208237231
35.80226043899057
36.54011707354766
36.5421546754046
33.61776975401547
32.95084294621491
34.094907302148
36.54215467540909
33.4912379622976
32.84467002588592
33.83628255313488
36.54011707357304
33.23126713500455
32.93617614488137
33.39766538258366
35.80226043901548
32.92038239822774
32.97860495720719
32.92858131051844
34.75155208239486
33.17749132419612
32.54785608761238
33.20765743361854
35.03376902480925
32.35379968625843
32.24760835817727
31.78645491123007
31.86519851549655
33.02246980076882
32.98668696732825
32.65715836429928
31.01256974835477
32.50247925074579
31.77608678032689
31.4558468253133
29.23691489633704
30.28203790049029
19.06066638783602
14.46072914914219
11.69545319667653
32.23953626919814
22.87548999367669
16.3510445803715
12.44050741569623
33.23095701998803
24.71998658735094
17.87726799534025
12.12979883898911
34.74101936217584
26.03301477083398
18.94024049819097
12.51724752169021
10.67154657856194
6.785709657922135
4.153443372784955
1.929267892884139
11.94479609547557
7.80067112559069
5.087838038482992
2.736341810005714
12.64694081131425
8.645978582940845
5.472941465815508
3.199536341648004
13.79309104047399
10.09294244581946
6.199440823035503
3.753842904747334
1.283631476511241
2.69060592875827
16.54897338948405
64.62301313059383
1.464409466548442
2.242183838404616
10.39445298017955
49.9516140534863
1.620799284715738
1.963416586388556
6.571936227076906
34.73867591939773
1.813251991252175
1.726185920842627
3.060986907454192
19.55113547326038
105.8850713895075
126.7741672679235
140.6582358252839
148.5698358621687
114.3599815036216
128.8939380551242
142.1819292947821
149.2636599988551
119.667458563266
130.6898185440377
142.6098254629692
149.2080123157288
134.5834662992116
134.0437423850768
144.954990813364
150.3701602231158
153.3866729512402
158.2744873252467
167.8952999013111
178.1480206110866
153.7600142934013
158.9645564519985
169.279493761688
180.1462763464604
153.7252858037989
159.5122713197377
169.488533933465
181.294795309353
154.8234813993581
161.1737455029278
170.9139357918584
183.701135891049
190.537232638708
201.7902584899016
209.337306138653
218.1624977745269
192.3777963929314
203.947422597988
212.1163388296047
219.3304338126159
193.4985436633318
205.0479383464596
213.6469934314639
218.3262600155605
195.2366207852087
206.9708982745634
215.5719196645319
213.2095249172553
181.4274745940712
165.0710045873843
114.0354173816517
78.67375672593721
173.2947022686751
162.5395630420365
121.5220162131247
81.36363373721326
171.9959991019632
161.3142834066736
125.2967479393405
83.4947296154653
171.9731525462174
161.6595312546802
130.7126998017115
84.86395220053785
73.05110872529066
72.10768400158906
71.2923016431462
70.93002850983473
72.92899033524559
71.73549140093681
70.85089414146664
70.47271185131518
72.80671231782122
71.87247004545087
71.13417040254356
70.90445562229435
72.84651799397669
71.5536449785578
70.61803317250003
70.29686624480985
70.9854526761777
70.60489092933233
71.90502155606204
82.8304932298411
70.38169575276456
69.65703726540971
69.03041978222623
75.82086201830539
70.92985338333945
70.22940671238115
68.89582665914027
69.99730835310351
70.19839483108728
69.23778240552161
66.59795324780752
60.73660682048921
109.340098721823
114.2518261445296
117.8559554287549
119.6768242976466
109.8050837781876
114.3868052973821
118.0398233228637
119.9429428055015
110.2398952660097
114.3690005875823
118.2215929893499
120.2786287288353
108.5601487495898
114.5207842333047
118.1133336337182
120.4534076833006
122.392906287854
123.6401687151994
119.5301536877004
106.8656243065058
123.2434990524126
125.050704431551
123.6041013471543
115.1013875326293
123.3303005886109
125.4943631095465
123.645679211468
119.0252254066653
123.7373834690638
126.3198605873098
126.2797348775778
127.9924470918271
54.09179123620792
71.27150627972485
77.56388822585306
79.75943646259844
50.81839511715578
69.89465435373647
76.93566826875025
79.66603118200611
48.22186752005727
68.23882826067596
76.32173954965761
79.5498905130937
46.39893562886275
65.93395541361812
75.50434787655783
79.42095370831868
79.26090335015823
73.28903869444406
58.94006204413597
53.28236434097007
79.25268248359136
73.51417360068785
60.1452111367859
51.93676974319035
79.25458380504045
74.01476796758675
61.86251950083158
49.49684323092842
79.3131018547747
74.73196847389421
63.82092956208594
47.17469960467433
79.42095370796754
79.54989051302451
79.66603118168234
79.75943646224232
75.5043478762971
76.3217395495448
76.93566826823965
77.56388822538855
65.93395541378896
68.23882826054167
69.89465435390011
71.27150627992484
46.39893562886992
48.22186751998136
50.81839511715492
54.09179123633471
)
;

boundaryField
{
    back
    {
        type            empty;
    }
    inlet
    {
        type            zeroGradient;
    }
    front
    {
        type            empty;
    }
    top
    {
        type            zeroGradient;
    }
    outlet
    {
        type            fixedValue;
        value           uniform 80;
    }
    bottom
    {
        type            zeroGradient;
    }
    wall
    {
        type            zeroGradient;
    }
}


// ************************************************************************* //
