/*--------------------------------*- C++ -*----------------------------------*\
  =========                 |
  \\      /  F ield         | OpenFOAM: The Open Source CFD Toolbox
   \\    /   O peration     | Website:  https://openfoam.org
    \\  /    A nd           | Version:  11
     \\/     M anipulation  |
\*---------------------------------------------------------------------------*/
FoamFile
{
    format      ascii;
    class       surfaceScalarField;
    location    "0.35923715";
    object      phi;
}
// * * * * * * * * * * * * * * * * * * * * * * * * * * * * * * * * * * * * * //

dimensions      [0 3 -1 0 0 0 0];

internalField   nonuniform List<scalar> 
1652
(
1.706212168242977
0.5337381654478366
-1.763034163104749e-13
1.17247400376836
0.5337381584212333
9.350298313393068e-13
0.6387445850792558
0.5335571547234006
5.060396546241464e-13
0.5291695198443243
-8.919975869048358e-12
0.1057111338792002
1.706212168247671
1.067476330876201
1.17247400582948
1.067476302840209
0.6387502464127065
1.067105507618742
1.0534699522796
0.1085008302040158
1.706212168244342
1.601214496297514
1.172474013702351
1.601214386895568
0.6388068711415417
1.600473899207365
1.575038117812367
0.1089061385656989
1.706212168319533
2.13495266152512
1.172474043756418
2.134952228725286
0.6388942761612378
2.133493277701384
2.097351319886539
0.1052259073052663
2.651191214816909
1.723711780177983
3.16742976378219
1.723711779125781
3.683668090047074
1.723711851207474
1.723712858919862
4.19990697163875
2.651189460774597
1.207473399364225
3.167421594038443
1.207473287099419
3.683647048399032
1.20747596835034
1.207511808102354
4.19982070526673
2.649581363043417
0.689995489893014
3.166040556181832
0.6888415052209287
3.682702429738978
0.6872903328233032
0.6887247574532396
4.194525732287015
2.650874527185603
0.1168378723118262
3.273932087987436
0.04172461203428968
3.912955185107818
0.01811961601154077
4.554446581783846
0.01129148314104361
4.164891486862394
0.03501639689641867
4.129861133626497
0.0350048164446809
4.094845354348378
0.03485880916117912
0.03478328167086675
4.059707999100696
4.164989933189972
0.06971402135587262
4.130355905729507
0.06893656122103314
4.096344159897488
0.06750052898639658
0.06567960864403527
4.062546348784518
4.174765261673651
0.08242249019245079
4.160204209662886
0.07410490089356653
4.152940724268811
0.06155646699798162
0.05298173544705476
4.147974896519951
4.603056358595068
0.0062292056209029
4.647547478474087
0.005264135192462438
4.68068393907444
0.006631574721914446
4.712916975991789
0.007741204630881071
4.670365430201278
0.1044175592394196
-0.06872497395563723
4.585724730670668
0.1015336269803828
-0.0183818853361658
4.503680326649533
0.09666919501012455
-0.008941769570570246
0.08785846858134072
4.431572611968703
-0.006796809864369369
4.220096439497592
0.01360744681230919
4.275163132505631
0.02651447193240147
4.314339929637769
0.03726916352220649
0.045409923672797
4.338142598518563
4.068844785523968
0.001073231178124523
4.081319801827068
0.002963615877832004
4.098854815139378
0.005655623473692306
0.00995014185235843
4.11843344302832
4.059561396366427
4.059934642128739
4.061254174868578
4.064432385989055
4.069795857107617
-0.01554494495006176
4.077679550873622
-0.02162148519233764
4.087623584139256
-0.02801785378851407
-0.03210804061825334
4.096917233287528
4.138847561198356
-0.05369595082046413
4.158817430069726
-0.0600354036235064
4.176997494925912
-0.06321998225759601
-0.06156525339361829
4.190974781496123
4.347633823058977
-0.07864943151928422
4.345713667620382
-0.06822783987100828
4.333663747179909
-0.05402393548785134
-0.04809068149700596
4.319208253383166
4.365059652161602
-0.007518741265030826
4.316425433665173
-0.005960745665772038
4.27321595420652
-0.003535209951588542
4.244284333166174
-0.002871865230137216
0.04263141664489895
4.228674974042135
-0.01747983996824184
0.05775058160702862
4.308730555755978
0.03447600088855074
4.199832072456931
4.101809029165621
0.04041923226256861
4.249422928754975
-0.1456635328525706
0.04760740762142152
4.301615549000324
0.03368349674597704
4.206144187380488
4.102832939053284
0.07818251936266979
3.985003622861278
-0.140005192767583
0.04627170012370346
4.308885346855727
0.02810074563147191
4.211434378167159
4.098034299154824
0.1746613880936476
3.682272912031621
-0.04233658726226874
0.06565796454304029
4.316410979424706
0.02803778181518091
4.226445711857542
4.100476994082799
0.07033220030504184
3.979814670745985
0.1235562287118886
4.132435496985336
0.08027891732179093
4.217518820521705
3.560891106652841
0.1473565287086627
0.06627748590098737
3.876833145320245
0.08925324718044408
4.042792706605389
0.008554765846146339
4.094876318383698
3.434665693356405
0.1117999962239181
0.05279799792405904
3.784938228883379
0.01845230596022962
3.95572017628118
-0.07013771252559042
3.934667984996624
3.332935803093073
0.05847372593073774
0.02148954246876766
3.70544253296762
-0.08849365054746294
3.861474758531976
-0.1185520488621529
3.745428792511124
3.239256310064564
0.02716046988500775
0.1401538733503507
3.155192100110865
0.00227255087722178
0.1880862218448563
3.584086319569282
0.03402741912946461
3.734484265330541
3.642165381465549
0.1485179400957105
3.077803148804977
-0.006619682983722064
0.2559950427361285
3.472521693915276
0.1028858618828886
3.584916130058723
3.59214872917808
0.1404618654869565
2.99552071683969
0.002475227500095878
0.2945974784447292
3.346351984916136
0.1909923528602782
3.450091567125003
3.557359238339614
0.1099858849935668
2.890871360194057
0.01568640541543054
0.2666314071652713
3.221602366172765
0.2510984915290913
3.304256574146701
3.515472401822931
-0.2198605372860319
3.464405268791964
-0.1874176441975841
3.230011810830006
-0.04683123332025185
3.10724446703068
2.789610818599489
0.04415746146098465
-0.1620750958581726
3.402433325737789
-0.1271062807611212
3.139808542151762
0.001551367671859261
3.004997753418698
2.707307243770322
0.06647366454887804
-0.1025098536856482
3.328925320992008
-0.05274300367554541
3.057281276386917
0.06928482298203059
2.911614946884213
2.64131224686973
0.121961412233811
-0.03597119010852223
3.22430415911103
0.0338716559513228
2.967053627994671
0.1556889899586142
2.819841831167306
2.569307868436617
0.2296404920744409
-0.3468342968272224
3.454813708567237
-0.5764961543144437
3.185793662172252
-0.7153241566942145
3.000044258523774
2.633113833363867
-0.7690707846231638
-0.3002086649583095
3.65965150318975
-0.5257819583032057
3.407277084930748
-0.6286982521887035
3.1766105788226
2.28126222095682
-0.2632236159934461
-0.2736584792899624
3.844645271945212
-0.4821409226007237
3.621430310129577
-0.5140375282110252
3.331023842491784
1.803007312679252
-0.02966562079939548
-0.2402587807266006
4.011169053539827
-0.4394776846057643
3.827813852662949
-0.363069049881622
3.438904281942487
1.417727328273368
-0.01228119041418588
0.157680711098063
1.459264289828498
-0.01047809558770535
0.2075842573720657
3.529868715358051
0.1042119528342937
3.93819442537167
4.062976889318088
0.1656291895621449
1.439674973570694
-0.007978922371723002
0.1877442944024688
3.625674595160873
0.09472370252670864
4.050909974797839
4.108049786896097
0.1503822063373384
1.343317198803718
-0.003393876503757474
0.1686297800769192
3.723211121463619
0.08924764761304216
4.160213283147059
4.149925026234041
0.1199113123826091
1.254281934823738
0.002202899243032005
0.1500456062473539
3.816528531921582
0.08903416539129483
4.257715848927123
4.196626241695308
-0.2359524364398564
1.570202142251533
-0.01567253944402446
-0.1845880310383211
3.985441180788688
-0.04698251567526346
4.19799701483427
4.097717958849162
-0.2649895256676661
1.927847053407471
0.005973833886029484
-0.1781056219991566
4.069002698621105
-0.03211450321662923
4.113303925602072
4.060050848182591
-0.2623645381364938
2.245154533568621
0.0335871245633608
-0.1344457447361439
4.102206480049183
-0.02063090538601964
4.067476229716452
4.05653598958239
-0.2321307253190437
0.08786579302197772
2.498256756564627
-0.1113842717310707
4.099524651714032
-0.01648780028307684
4.039832545144023
4.056691361000249
0.3370436182367115
-0.4386168961785708
-0.01287169206383971
5.615063969344192e-12
0.892867620874771
-0.4130661882554563
-3.326228181776969e-13
1.633809448101423
-0.4646876574369951
7.505107646466058e-13
-0.517101170554187
-1.258237958268182e-11
0.3341160553349825
-0.8918365876921384
-0.01277406982400765
0.9068203339169371
-0.8655167457285491
1.634735296057062
-0.9425088834757354
-1.03575908410015
0.3307524812312442
-1.351360267271088
-0.01558022551037293
0.9266015308630169
-1.343380826312635
1.638842674650167
-1.451593475001336
-1.556743709507394
0.324081310052159
-0.01607248229724903
-1.703816988405549
0.9567803053867273
-1.851429572780396
1.647526387022888
-1.983871157773383
-2.08228563447691
-0.2321307253194616
-2.245154533572468
0.08786579302200477
2.498256756559536
-0.1113842717271873
-4.102206480051137
4.099524651715344
-0.01648780027932362
-4.067476229713778
4.039832545143214
-4.056535989574216
4.056691360995983
-0.2623645381347995
-1.927847053410681
0.03358712456411575
-0.1344457447392351
-4.069002698633008
-0.02063090538757484
-4.113303925606973
-4.060050848187594
-0.2649895256689441
-1.570202142257357
0.005973833886360871
-0.1781056220015955
-3.985441180794032
-0.03211450322167408
-4.197997014835433
-4.097717958845578
-0.2359524364394696
-1.254281934825639
-0.01567253944379479
-0.1845880310425123
-3.816528531934077
-0.04698251568007406
-4.257715848927647
-4.196626241688135
-0.1042119528294748
4.062976889336822
-4.011169053565048
-0.207584257359756
3.938194425393888
-3.827813852693071
-0.1576807110917921
3.529868715335134
-3.438904281912736
1.459264289800261
-1.41772732825118
-0.01047809558793403
-0.09472370252093831
4.108049786899488
-0.1877442943879902
4.050909974811517
-0.1656291895571693
3.625674595148205
1.439674973560348
-0.007978922371844291
-0.08924764760760329
4.149925026228051
-0.1686297800592655
4.160213283156895
-0.1503822063323365
3.723211121461416
1.343317198802259
-0.003393876503491485
-0.0890341653842936
-0.1500456062313205
-0.1199113123775454
0.002202899242913003
0.3630690498854012
-1.803007312666095
-0.01228119041418611
0.4394776846207356
-3.331023842478045
0.2402587807418033
-3.621430310155751
-3.844645271964407
0.514037528215131
-2.281262220944352
-0.02966562079863795
0.4821409226152087
-3.176610578818014
0.2736584793014576
-3.407277084952608
-3.659651503205101
0.6286982521959759
-2.633113833360877
-0.2632236159922106
0.5257819583181466
-3.000044258521582
0.3002086649685065
-3.185793662183543
-3.454813708573512
0.7153241567015186
-2.569307868437166
-0.7690707846251189
0.5764961543268599
-2.819841831168594
0.3468342968301574
-2.967053628001101
-3.224304159110137
-0.2198605372848914
3.464405268804215
-3.515472401837967
-0.1874176441910237
3.230011810845379
-3.304256574169485
-0.04683123331498751
3.107244467019983
-3.2216023661538
2.78961081858999
-2.89087136018237
0.0441574614572755
-0.1620750958507313
3.402433325744229
-0.1271062807530429
3.139808542160088
0.001551367678511273
3.004997753409714
2.707307243762475
0.06647366454886139
-0.1025098536831466
3.32892532099492
-0.05274300366791362
3.057281276393594
0.06928482298632799
2.911614946879929
2.64131224686674
0.121961412233066
-0.03597119010398553
0.03387165596070552
0.1556889899617184
0.2296404920748347
0.1099858849963919
-2.995520716828346
0.01568640541637178
0.2666314071703083
-3.346351984907874
0.2510984915324096
-3.450091567139504
-3.557359238350878
0.1404618654896092
-3.077803148800235
0.002475227499792787
0.2945974784512085
-3.472521693912036
0.1909923528651253
-3.584916130066079
-3.592148729185361
0.1485179400988045
-3.155192100103569
-0.006619682984966402
0.2559950427417558
-3.584086319572838
0.1028858618824402
-3.734484265334033
-3.642165381467692
0.1401538733524764
-3.239256310067038
0.002272550876856738
0.1880862218526912
-3.745428792511991
0.03402741913337726
-3.861474758532608
-3.705442532965449
0.07033220030632359
3.979814670746967
-4.100476994081088
0.1235562287124149
4.132435496986225
-4.226445711855511
0.0802789173251558
4.217518820525432
-4.316410979427164
3.560891106656486
-3.682272912034225
0.1473565287072274
0.06627748590298999
3.876833145321736
0.08925324718146233
4.042792706607393
0.008554765848247214
4.094876318387462
3.434665693356141
0.1117999962219304
0.05279799792551154
3.784938228885171
0.01845230596824754
3.955720176284735
-0.07013771252556777
3.934667985003282
3.332935803092484
0.05847372593010391
0.02148954247104717
-0.08849365054150904
-0.1185520488614383
0.02716046988570697
-4.098034299154351
-0.02803778181435157
-4.102832939054854
-0.02810074563057852
-4.10180902916704
-0.03368349674541304
-0.03447600088882719
-4.096917233288686
-4.211434378168581
-0.06565796454564804
-4.206144187379224
-0.04627170012423093
-4.199832072451833
-0.04760740762043569
-0.05775058160672031
-4.190974781491403
-4.308885346859181
-0.1746613880907967
-4.301615549004055
-0.07818251936137993
-4.308730555755747
-0.04041923226376537
-0.04263141664473491
-4.319208253384308
-3.985003622869628
-0.04233658726252731
-4.249422928756217
-0.1400051927683074
-4.228674974041046
-0.1456635328496592
-4.244284333166656
-0.01747983996811908
-0.03210804061681605
-4.087623584137762
-0.06156525339225138
-4.176997494921118
-0.04809068149562734
-4.333663747184395
-4.273215954206848
-0.002871865230998333
-0.02801785378960275
-4.077679550874246
-0.06321998225555447
-4.158817430064494
-0.05402393548596379
-4.345713667626414
-4.316425433663406
-0.003535209949580786
-0.02162148519054896
-4.069795857109147
-0.06003540362425208
-4.138847561192048
-0.06822783986994624
-4.347633823067627
-4.365059652161215
-0.005960745666137329
-0.01554494494713965
-4.064432385995313
-0.05369595082152129
-4.118433443021394
-0.07864943151905279
-4.338142598530159
-4.431572611969933
-0.007518741263269402
-0.001073231179920975
4.059561396367243
-4.059707999094923
-0.01360744681439452
4.068844785507018
-4.062546348764732
-0.1044175592429704
4.220096439514406
-4.147974896537872
4.670365430210516
-4.712916976003757
-0.06872497395560703
-0.002963615879671866
4.059934642128816
-0.02651447193750561
4.081319801813774
-0.1015336269837315
4.275163132519184
4.585724730678231
-0.01838188533727941
-0.005655623479892014
4.061254174870122
-0.03726916353162818
4.098854815127381
-0.09666919501422677
4.314339929650271
4.50368032665382
-0.008941769572402808
-0.00995014185434695
-0.0454099236765938
-0.0878584685841714
-0.006796809864145215
-0.05298173545210461
-4.680683939082396
0.007741204630458465
-0.06567960865762512
-4.152940724275915
-0.03478328167590372
-4.096344159889177
-4.094845354347582
-0.06155646700363537
-4.647547478479083
0.006631574721506828
-0.06750052899936965
-4.160204209662053
-0.03485880916439221
-4.130355905733485
-4.129861133634889
-0.07410490090077931
-4.603056358597285
0.005264135191413943
-0.06893656123284364
-4.174765261667457
-0.03500481644539355
-4.164989933208446
-4.164891486860183
-0.08242249019657194
-4.554446581766644
0.006229205622824585
-0.06971402136847471
-4.194525732273341
-0.0350163968998749
-4.19982070529351
-4.199906971644959
-0.6887247574514048
-3.912955185077715
0.01129148314133754
-1.207511808094511
-3.6827024297275
-1.72371285892528
-3.683647048416693
-3.683668090047001
-0.68729033282125
-3.273932087954294
0.01811961601492729
-1.207475968342876
-3.166040556177576
-1.723711851209023
-3.167421594052893
-3.167429763785854
-0.6888415052205539
-2.650874527157874
0.04172461203027739
-1.207473287095707
-2.649581363042563
-1.723711779126115
-2.651189460777702
-2.651191214823015
-0.6899954898930057
-2.097351319874761
0.1168378723050745
-1.207473399364425
-2.133493277706744
-1.723711780188847
-2.13495222873025
-2.134952661529125
1.706212168246033
0.5337381654428739
1.172474003772976
0.5337381584278846
0.6387445850824885
0.5335571547241904
0.5291695198331687
0.1057111338827579
1.706212168248594
1.067476330870286
1.172474005829726
1.067476302839545
0.6387502464133108
1.067105507626462
1.053469952268754
0.1085008302053343
1.706212168246498
1.601214496294726
1.172474013702235
1.601214386893312
0.6388068711407948
1.600473899209738
1.57503811781259
0.1089061385649124
1.706212168319974
1.172474043754026
0.6388942761583072
0.1052259073037103
0.1054762317993063
0.1054762318034478
0.1054653916631444
0.1079721221964033
0.1059225135981199
0.1078287804169866
0.1026793071387908
0.1077871453011254
0.1079721221938326
0.105465391667484
0.1076782119504759
0.1076782119529353
0.1081688405490599
0.106695697898396
0.09903951038085172
0.1111325203942669
0.1078287804181331
0.1059225136014713
0.1066956978988539
0.1081688405517567
0.1063680709340974
0.1063680709341965
0.09589779179799021
0.10892438790182
0.1026793071433743
0.1077871453029768
0.09903951038346354
0.1111325203959984
0.09589779180258361
0.108924387901319
0.09567817180991697
0.09567817181488571
-0.03916483136136228
0.1340424843849543
-0.06253203529573026
0.1313125566213595
-0.08851461443804626
0.1359908524550811
0.1348760669636455
-0.00568216389715781
0.138860938569609
-0.0161753334990879
0.1408669271660789
-0.02705987798208243
0.1458977448602238
0.1484336076048744
-0.0009897356261234225
0.1391851962117689
-0.007344031786248761
0.1464985116055519
-0.0131343952513181
0.1509051654355496
0.1525076650379242
-0.001218718777167893
0.1398031429424819
-0.00613505770591205
0.1507758045883301
-0.009219358795281796
0.1533082238762309
0.1538215407746936
0.1533031193047031
0.006169573869447609
0.1533720862591927
0.004948540679948599
0.1526200949694436
0.007183192243888747
0.006669560860256607
0.1537744798079312
0.1535206733777905
0.005391474602352231
0.1538379624058153
0.004325676897013075
0.153916146120512
0.006914480083153818
0.00319957752024419
0.1574316245104091
0.1528814106756229
0.002725278431934153
0.153862926087922
0.003033506723209678
0.1547047606268591
0.005885409068620284
-0.009752648851313772
0.1676840144734057
0.141977629945357
0.1446515524237603
0.1502910749532627
0.1404652899931406
0.140298895329268
-0.05510089193616546
0.1310927749244925
-0.008870380839200193
0.1296687685979156
-0.006961207565809951
-0.006209408075140421
0.1296550906028114
0.1446496179791297
-0.04222971205817391
0.1388102754236274
-0.002739833864790764
0.1356409872128203
-0.003209404164098428
-0.003925130455949999
0.1339572668609535
0.1511964617844107
-0.02570026236896428
0.1456023035268786
0.003129660338779927
0.1416372724313062
0.001326783811389676
8.870956104717331e-05
0.1382175607981702
0.1147562594846475
0.11817591070034
0.1201040491594859
0.1208093828139827
0.1299200886614508
-0.006882543935306573
0.1308441572804614
-0.005824215753344048
0.132014404811558
-0.003767080707219567
-0.00303849450511931
0.1331207438347353
0.1327149586190745
-0.004747775413936561
0.1322448617493261
-0.004284424169190587
0.1322700914605186
-0.002830339221009559
-0.002528169320241552
0.1326951042071761
0.1355128467697562
-0.001149127200466948
0.1336078581551939
-0.001296573974898713
0.1325487237837693
-0.0007878341739933903
-0.001115501384211709
0.1321948583516426
0.1205604453211531
0.1203303024740372
0.1204691453417118
0.1203652572228733
0.1377885746965828
-0.02482868432144539
0.1348825822725212
-0.1505003991527698
0.1107595657544049
-0.1229658062284638
-0.01104201159621926
0.08051131961248198
0.1322027789193301
-0.02831633816992746
0.1023249680709437
-0.1270273933774563
0.05610813888355409
-0.08144729037516529
-0.00261657882103461
0.04679667725056352
0.1239352917397895
-0.02441162545636966
0.0539125505751577
-0.06299658780807016
0.002564365081333175
-0.03524048185971562
-0.006634798052620794
0.00484920811230749
0.09095623069154601
0.02205299272416131
-0.01732387561145562
-0.02687792373381252
0.1047430044949834
0.1254178454682603
0.1177022119388107
0.1030275532049646
0.1245918793346298
0.05756170348580769
0.02675348929996624
0.1298440094404233
0.08613651060297643
0.08814306956673279
0.1121676579055435
0.08104225962704958
0.1233710873809628
0.05040373463745595
0.02496201158925848
0.129595328326532
0.05318273955368298
0.04164875358672016
0.09764518875549645
0.04051987556397607
0.1175439043225803
0.03378395457713301
0.02014571456972836
0.1261442059008755
0.01606347695154925
0.06047010197013312
0.09669637897639795
0.1200202732233615
0.1350665283425257
0.00306809539272479
0.1400248701325899
-0.006417229313279926
0.1434898117793908
0.001381635087212674
0.01112160580004129
0.1477709671059919
0.1347762434028094
0.00505467034941276
0.1395686219969692
-0.002602992187937692
0.1424688000195277
0.001754762183389214
0.006795061489047627
0.1464998317480941
0.1319895384985745
0.006205197903864978
0.1376969540361816
0.000134582543527606
0.1417125498530614
0.001461569149845854
0.003119764807392289
0.1452932536659735
0.1330968807562012
0.1388412779248983
0.1429866695794074
0.1462795119709169
0.1586638457737252
0.03178754075158663
0.1726591579451217
0.0512175495719851
0.192247572978679
0.1023173170360679
0.180513468486216
0.2412399783703712
0.1566728721724199
0.0199362169101428
0.170461207654604
0.03610931130767869
0.1914989023830397
0.08113530822141357
0.1229079913814696
0.2492073343650882
0.1538903225324012
0.009770583547140443
0.1672302633772483
0.02142001133620786
0.1942631679712124
0.05345213839434787
0.03428842807297799
0.2830991300055972
0.1546647511686051
0.1746625532805475
0.2273712732742689
0.2615308852188314
0.1220014341207214
-0.6494854618030673
0.01214932302499528
-0.1526509164163359
-0.002597112761750655
-0.01384693183156654
-0.009765692139484305
-0.003860725731201517
0.08463896524028419
-0.484521104225593
0.001807036284783752
-0.06912178859869303
-0.004315324151794009
-0.006798982403482166
-0.006316587702994288
-0.006748275621757143
0.04503313660050971
-0.246329844202541
-0.002596040739962615
-0.02080254356839362
-0.005881485497350392
-0.002576860592204743
-0.003320582218131424
-0.008045770561757808
0.01517957038008763
-0.00492615041716386
-0.006659498602054464
-0.009082458312221559
-0.005367080644897165
-0.007899554885970678
-0.006842744703743859
-0.005047378376735575
-0.008519321960437155
-0.0008105413699934297
0.003538109390577467
-0.009128795455767228
-0.008192571754541765
-0.00561130726864436
-0.009147304064487487
-0.002763170092707035
-0.009653888023215198
0.000706591210220063
0.003168498766224333
-0.008476749256662842
-0.009688779636035252
-0.002882236812608957
-0.009469021989837935
-0.001545647054022995
-0.008702839237101669
0.0009290502533382955
0.002634956716149127
-0.007328881196928006
-0.01079235459258383
-0.01094988301721749
-0.009120766719259639
-0.005723278776204646
-0.008421300345877068
-0.01576929076571064
0.001942982371397908
-0.00284964437048317
0.02247356430680203
0.01462011895784748
0.07047377758900758
0.04243660793513337
-0.009509156896126487
-0.01396209908647303
-0.007053887278872302
-0.00368191353137938
0.008908815010644749
4.059886035472082e-05
0.04770553321866884
0.03388578542288607
-0.01176765150423058
-0.008575115756527987
-0.01145459079563815
-0.002555932266469371
-0.003607533166376707
-0.006446034059727115
0.02557341328076927
0.02032651847080127
-0.01309202314975128
-0.01388673757435907
-0.01901303342295466
0.008975668035690415
0.04129056052561071
-0.006356736865661725
0.01063477029969009
0.03999942997912256
-0.007445376367955753
0.01126596286735081
0.03677226534452277
-0.01237316661446108
0.0170404456273483
-0.01696908915073561
0.02817972586132025
0.02546622859808307
0.03266451838082571
-0.003783814560173286
0.03078331197263496
-0.00478408060545478
0.02748559453742094
-0.008732157201699974
-0.01083076494471777
0.02109977345658156
0.01849752943250184
-0.001709143215234868
0.01641335922709308
-0.002220625431839762
0.01257204840932744
-0.004436956966204945
-0.005015144495042322
0.006837802928297124
0.006533049089069119
0.004582729262068118
0.0002902137647222275
-0.004408724936583473
-0.006411080871064984
0.002584394242744151
-0.006056231291531461
0.0007783960449842774
-0.003634249056388941
-0.0008802481824256858
-0.001874212545576417
-6.217942827291267e-14
0.003495837598762715
0.006009682353050588
0.00102796372815743
0.003639470724753183
-4.02472450699437e-05
0.0009232162059850911
-0.0009164629576261796
-2.754046990460779e-14
0.01669108133056939
0.01018020178691813
0.01132016787344223
0.008928088487955049
0.005680759176535259
0.006652509386219179
0.005072957482371614
1.680600103526331e-14
0.0217398673830432
0.01431330495341085
0.007707622035119939
5.653116863513219e-14
-0.001874212545583131
0.003634249056285475
-0.0009164629576285804
4.024724504646249e-05
0.005072957482371562
-0.005680759176502279
-0.007707622035000826
0.01287169206373836
-0.0008802481824264768
0.006056231291454668
0.0009232162059804767
-0.001027963728258044
0.006652509386255466
-0.0113201678735415
-0.01431330495336701
0.01277406982412155
0.0007783960449583398
0.006411080870921952
0.003639470724751528
-0.003495837598716259
0.008928088488079303
-0.01669108133058857
-0.02173986738304706
0.01558022551018572
0.002584394242816604
0.004408724936631504
0.006009682353048718
-0.006837802928375873
0.01018020178700949
-0.02109977345654574
-0.0281797258615377
0.01607248229706251
-0.03677226534444408
-0.01696908915052448
0.02546622859832658
-0.03999942997913235
-0.01237316661442976
0.0170404456273075
-0.04129056052562204
-0.007445376367926082
0.01126596286741347
-0.006356736865739267
-0.04243660793517108
0.0106347702996703
-0.02748559453746068
-0.01083076494474159
-0.03078331197257104
-0.00873215720175332
-0.03266451838088762
-0.004784080605493131
-0.003783814560236923
-0.03388578542296094
-0.01257204840939844
-0.005015144495001064
-0.01641335922706395
-0.004436956966119517
-0.01849752943266189
-0.002220625431898295
-0.001709143215262787
-0.0203265184708822
-0.0002902137647294301
-0.00458272926211855
-0.006533049089097374
-0.008975668035783618
0.01901303342281718
-0.02557341328083279
0.01388673757434256
0.006446034060065706
0.0130920231497366
0.002555932266411591
0.008575115756305381
0.005723278776222848
0.00360753316637067
-0.04770553321872177
0.01145459079555696
-4.059886059257223e-05
0.01176765150411519
0.003681913531285351
0.01396209908658259
0.00732888119694235
-0.00890881501077681
-0.07047377758903878
0.007053887278765655
-0.01462011895808278
0.009509156896025108
0.002849644370509857
0.01576929076539369
0.008476749256645464
-0.02247356430699365
-0.001942982371474639
0.008421300345690165
0.009128795455773187
0.008519321960441981
0.003538109390588608
0.006842744703818134
-0.000810541369951099
0.00536708064495328
-0.005047378376872627
-0.007899554886024271
0.003860725731156761
0.009653888023206471
0.003168498766213508
0.009147304064525803
0.0007065912101929736
0.008192571754553124
-0.002763170092778204
-0.005611307268685244
0.006748275621763659
0.008702839237060715
0.002634956716161832
0.009469021989869632
0.0009290502534688716
0.00968877963604186
-0.001545647054098362
-0.002882236812651248
0.008045770561757402
0.009120766719321181
0.01094988301725168
0.01079235459260878
0.009082458312222159
0.002597112761723636
-0.009765692139410137
-0.01214932302447643
-0.01384693183130581
-0.1220014341197604
-0.1526509164156522
-0.6494854618036624
-0.2412399783695234
0.004315324151836383
-0.006316587702918555
-0.001807036284598162
-0.006798982403382526
-0.08463896523961467
-0.06912178859844957
-0.4845211042255498
-0.2492073343651033
0.005881485497379256
-0.003320582218119132
0.002596040740031332
-0.002576860592158565
-0.04503313660021181
-0.02080254356825786
-0.2463298442024826
-0.2830991300056149
0.00665949860206053
0.004926150417195742
-0.01517957038002917
-0.2615308852190334
-0.1922475729787744
0.1805134684872349
-0.1726591579448944
0.1023173170379231
-0.1586638457738746
0.05121754957420421
0.03178754075310009
-0.1477709671060238
-0.191498902382828
0.1229079913800451
-0.1704612076547399
0.08113530822062559
-0.1566728721722181
0.0361093113092753
0.01993621690880309
-0.1464998317480613
-0.1942631679708724
0.03428842807330962
-0.1672302633774202
0.05345213839538054
-0.1538903225320472
0.02142001133957372
0.009770583547720757
-0.1452932536661377
-0.2273712732736444
-0.174662553281179
-0.1546647511684031
-0.1462795119709597
-0.1434898117794522
0.01112160579999688
-0.1400248701324833
0.001381635086969424
-0.1350665283419531
-0.006417229312375206
0.003068095392453674
-0.1298440094403407
-0.1424688000196698
0.006795061487476106
-0.1395686219965191
0.001754762186622072
-0.134776243402471
-0.0026029921879267
0.005054670348942691
-0.129595328326383
-0.1417125498528271
0.003119764809472292
-0.1376969540358984
0.001461569149091124
-0.13198953849817
0.0001345825434720949
0.006205197904749382
-0.1261442059008257
-0.142986669579504
-0.1388412779247706
-0.1330968807559192
-0.1200202732231956
-0.1245918793348261
0.02675348929986909
-0.1177022119388149
0.05756170348564482
-0.1047430044951754
0.1030275532043023
0.1254178454685163
-0.08051131961261697
-0.1233710873810054
0.02496201158852063
-0.1121676579055541
0.05040373463603698
-0.08613651060329941
0.08104225962506251
0.08814306956809992
-0.04679667725066911
-0.1175439043225077
0.02014571456987335
-0.09764518875581873
0.03378395457687666
-0.05318273955375546
0.04051987556578684
0.04164875358445175
-0.004849208112835957
-0.09669637897605353
-0.06047010196973439
-0.0160634769518338
0.02687792373434959
-0.1107595657548776
-0.01104201159624041
-0.1348825822729774
-0.1229658062291092
-0.1377885746967822
-0.1505003991517274
-0.02482868432109708
-0.1331207438350107
-0.05610813888390842
-0.002616578821914628
-0.1023249680715949
-0.08144729037558102
-0.1322027789195938
-0.1270273933770034
-0.02831633816964113
-0.1326951042073737
-0.00256436508154545
-0.006634798052414237
-0.05391255057576713
-0.03524048185975498
-0.1239352917400664
-0.06299658780799289
-0.02441162545621214
-0.1321948583517826
0.01732387561144837
-0.02205299272421418
-0.09095623069167741
-0.1203652572228353
-0.1320144048116323
-0.003038494504447764
-0.1308441572802651
-0.00376708070698073
-0.1299200886615153
-0.005824215753519296
-0.006882543935706753
-0.1296550906026539
-0.1322700914605824
-0.002528169319711393
-0.1322448617491835
-0.002830339220532774
-0.1327149586189762
-0.004284424169448409
-0.004747775413873417
-0.1339572668609336
-0.1325487237836502