/*--------------------------------*- C++ -*----------------------------------*\
  =========                 |
  \\      /  F ield         | OpenFOAM: The Open Source CFD Toolbox
   \\    /   O peration     | Website:  https://openfoam.org
    \\  /    A nd           | Version:  11
     \\/     M anipulation  |
\*---------------------------------------------------------------------------*/
FoamFile
{
    format      ascii;
    class       volVectorField;
    location    "0.35923715";
    object      U;
}
// * * * * * * * * * * * * * * * * * * * * * * * * * * * * * * * * * * * * * //

dimensions      [0 1 -1 0 0 0 0];

internalField   nonuniform List<vector> 
880
(
(24.99999999999999 -2.806314837935022e-12 0)
(24.99999998203183 -1.217485128769379e-08 0)
(24.99829021014378 -0.0005554019915166622 0)
(24.7173606961153 0.007624725318925187 0)
(24.99999999998872 -2.831493813743583e-11 0)
(24.99999994445427 -7.040017950354961e-08 0)
(24.99747953971708 -0.001722105272462544 0)
(24.63269395982584 -0.1593360719966121 0)
(24.99999999963697 -2.437906659763506e-10 0)
(24.99999976102305 -2.871934965007982e-07 0)
(24.99514548031325 -0.003584509853501933 0)
(24.51359948833647 -0.2644845735895171 0)
(24.99999999829957 1.052151677185996e-09 0)
(24.9999988181946 -1.167874136715134e-06 0)
(24.98908568900764 -0.007016838056343976 0)
(24.13724232746876 -0.4137218493399746 0)
(25.0000000111903 -4.114238859877004e-09 0)
(24.99999998001881 8.77830687926007e-09 0)
(24.99999953213299 -9.298710955581068e-07 0)
(24.99999314126271 -1.184398542166404e-05 0)
(24.99999376786038 -4.448763618647833e-06 0)
(24.99996304587531 -1.867027428626803e-05 0)
(24.999855889974 1.067112239181178e-05 0)
(25.00017477389874 -0.001107692606833154 0)
(24.97171051955037 -0.01019841625129522 0)
(24.95164267305926 -0.006360500970886945 0)
(24.92414615554939 0.01073092911350385 0)
(24.91407715412148 -0.0668346842364117 0)
(23.40263800227775 -0.09542161674484706 0)
(22.69016957563878 0.6348513731383066 0)
(22.26855027463062 1.335028540921389 0)
(22.24429798596901 1.746230220141365 0)
(24.99988402648695 -6.197157647540105e-06 0)
(24.99960661256105 -0.0003640903668364732 0)
(24.99925374243466 -0.001529073356872589 0)
(24.99747567008512 -0.004522274072271792 0)
(24.99801874662349 -0.0006931087057956133 0)
(24.99019672802529 -0.0003535707275614309 0)
(24.97715011720042 0.005493429694299483 0)
(24.9544190837492 0.008911121821871789 0)
(24.75585982549513 -0.01080212741583077 0)
(24.63017648914582 0.09839516525140352 0)
(24.46164918702707 0.278520693029958 0)
(24.31834416639446 0.4062591512914699 0)
(21.98166795331315 2.340709862552493 0)
(21.98732202389686 2.779774512795316 0)
(21.88511765499143 3.317364418046145 0)
(22.33925512611854 3.758413235485681 0)
(23.38567258302269 4.323117584121974 0)
(24.11422182187163 4.173025887261687 0)
(24.45809612517021 3.766270995236212 0)
(24.81732785859397 3.316637572531724 0)
(24.07885607445973 0.7464007194153252 0)
(24.09385488320647 1.104404103051632 0)
(24.19611466672341 1.349491158607909 0)
(24.3821307980023 1.475563346414802 0)
(24.87563994144105 0.0352937805744957 0)
(24.77190120807834 0.1155051370629036 0)
(24.67953772652822 0.2412744721196095 0)
(24.63421220177423 0.3945587868670433 0)
(24.98787360765665 -0.01055580615433946 0)
(24.97236264041662 -0.02426031694753201 0)
(24.95024654284854 -0.04404420646173717 0)
(24.92405059764704 -0.07056245580322963 0)
(24.90149025425353 -0.1010177238713919 0)
(24.88771006484284 -0.1311323713290215 0)
(24.88284521457503 -0.1445283182811851 0)
(24.88832626465133 -0.1379825795357548 0)
(24.63263511862839 0.5574775737406764 0)
(24.67445497356663 0.7120277073133898 0)
(24.76092029482928 0.8382278250520386 0)
(24.87668965891378 0.8925724407985365 0)
(24.54953704297488 1.608776414956625 0)
(24.75257651286627 1.654948292848434 0)
(24.94052477306338 1.627185786772177 0)
(25.09323155699144 1.555469818939401 0)
(24.9911511773116 2.905794436584233 0)
(25.17872651665036 2.489600521203586 0)
(25.29112375919172 2.09435973097782 0)
(25.36345180691823 1.778077085679878 0)
(25.42831331537295 1.377472579126336 0)
(25.24434997802313 1.453734881303211 0)
(24.99915835827474 0.9127427929480103 0)
(24.89607394632405 -0.1212267491912408 0)
(24.54803812038084 1.559500550931343 0)
(25.34338414370724 1.289321111474993 0)
(25.14340306145213 0.8617827677964577 0)
(24.90333203098875 -0.09618350201809006 0)
(19.15441635739388 1.728678020663597 0)
(25.15904583122056 1.297220116845287 0)
(25.25814680829027 0.751764502401459 0)
(24.91621883547449 -0.08053496733623301 0)
(14.12713120572247 2.095960468967176 0)
(23.70232907566869 1.62880223430761 0)
(25.27711796808939 0.7747453237963929 0)
(24.94896332119037 -0.09185147314454672 0)
(24.95453143329102 -0.06679620488488075 0)
(25.21733308535203 0.7182271954008123 0)
(22.05147493147514 2.269355674008303 0)
(12.4898438888617 3.860304835866994 0)
(24.8313649517769 -0.08882945093933732 0)
(24.99459662366052 0.8082428025830561 0)
(20.6059962596371 3.314564129610895 0)
(12.79857637793303 5.640553360439619 0)
(24.78950534225718 -0.1158517489330876 0)
(24.47444759213916 1.156907035627751 0)
(18.8249602046176 4.649483826564435 0)
(12.64752212264224 7.07864266267832 0)
(24.69831528768511 -0.1634672136022472 0)
(23.59934106816609 1.928822036165504 0)
(17.58775545963756 6.058375268743394 0)
(13.13583084249152 8.144176404168309 0)
(14.04754563477019 8.855725153805102 0)
(16.96791698989185 7.293799692969521 0)
(22.43002645219317 3.156638357817618 0)
(24.51831534110208 -0.186496234531087 0)
(15.13573120456066 9.39329093751763 0)
(17.24087496462712 8.219378601060111 0)
(21.21729131426266 4.641949704162084 0)
(24.19844421954202 -0.07129707407853109 0)
(16.37659114710832 9.684261758402062 0)
(18.11055365712057 8.75431303619585 0)
(20.707548564046 5.995929706942333 0)
(23.69387899729958 0.2364216120467999 0)
(17.54806443722673 9.756784771546503 0)
(19.39762678585695 8.854124645003742 0)
(20.87608631292255 7.035984164083696 0)
(23.19627109213772 0.7229222557766884 0)
(22.91097383362426 0.8509691372414004 0)
(22.04903523673871 7.091148310999467 0)
(21.12109434891602 8.806650604846647 0)
(18.96386096650153 9.897790926574448 0)
(23.45621520069106 0.6463889793932474 0)
(23.50851219977189 6.648122712096695 0)
(23.10798586136607 8.41524266468236 0)
(20.90706681607812 9.810493364274171 0)
(24.04000305731733 0.3441201648005276 0)
(24.931627022006 5.875076016306661 0)
(25.19364658133091 7.620150527564877 0)
(23.44735988180797 9.238277542579542 0)
(24.51868777258516 -0.2494394500747562 0)
(26.06332920827379 4.606850485564181 0)
(27.16639067436799 6.226688329966859 0)
(26.40060241907096 7.616389482709716 0)
(24.88419812588494 -0.3075625773947686 0)
(26.92926580623685 3.6280926377218 0)
(29.04980109271598 4.804324815863971 0)
(30.68347050247945 4.759030911077215 0)
(25.3004725635362 -0.4989516906900689 0)
(27.49766451363679 2.601741001175785 0)
(30.1108560021412 3.390623807931964 0)
(34.00252139765461 0.7046234415405649 0)
(25.54327812029748 -0.5425594207753998 0)
(27.54996673323362 1.647316348787695 0)
(30.83478232324284 1.25605928474149 0)
(36.34819357635217 -4.253925042495038 0)
(25.65369733233378 -0.5437393908105126 0)
(27.22446198544644 1.022789963406825 0)
(30.31238914657122 -0.310780623540529 0)
(37.77942588447949 -9.251968727260431 0)
(34.0192023339001 -7.32809311457401 0)
(29.13041334832141 -1.417314313915603 0)
(26.94233632073608 0.3554867435848941 0)
(25.69371856314008 -0.546752340684645 0)
(25.63451453603007 -3.215027420932676 0)
(28.24647116444745 -1.936572417896873 0)
(26.64811615270375 -0.1001457349854744 0)
(25.62905905341375 -0.4720581738789727 0)
(23.08907488877573 -3.61273402198132 0)
(27.75006801382457 -2.841731087009828 0)
(26.39350386252888 -0.5594332426549079 0)
(25.50627187121017 -0.3592931151338301 0)
(19.90314511744941 -3.659486689749009 0)
(26.97783592679131 -3.450134170940898 0)
(26.0493134835229 -0.9532399894995758 0)
(25.38980166010071 -0.2751089403478199 0)
(18.08530346707282 -4.760144481673635 0)
(25.7242974718353 -4.39114615556531 0)
(25.48602158016696 -1.289828006904301 0)
(25.18022086277443 -0.215672190110021 0)
(15.43326601043393 -6.813604475390968 0)
(24.0864993642987 -4.635065564559158 0)
(24.89652242989656 -1.125741330267742 0)
(25.00123680201401 -0.1079275338818936 0)
(14.37828997838255 -6.976651023627598 0)
(23.02532624276898 -4.04855248209051 0)
(24.65192862000946 -0.7359136191116732 0)
(24.97081064972451 -0.04913614594036161 0)
(14.33665148165605 -5.861270040441205 0)
(22.80033215491012 -3.60048407756523 0)
(24.67303555259425 -0.6014592104822319 0)
(24.97608458260536 -0.03607982111252254 0)
(14.22225314689063 -0.6632524751309065 0)
(20.34302744988194 -0.1132511987423639 0)
(23.64824817774445 0.01057928353309243 0)
(24.85559198023114 0.001982462457343043 0)
(14.20383571633964 -1.75574504005 0)
(20.33967024617088 -0.5378103073363452 0)
(23.66316130695263 0.0006294721626512069 0)
(24.85253508277485 0.004365022711420659 0)
(14.41815245627916 -3.256066834110862 0)
(20.34758352011835 -0.987917585022099 0)
(23.70248373785024 -0.07175968998646044 0)
(24.85178510075447 0.0002501689876874716 0)
(14.46996298188091 -4.649571117060725 0)
(20.55618271166155 -1.352449615204693 0)
(23.80221946661141 -0.194720969902322 0)
(24.8601715924306 -0.0113907655017783 0)
(14.33665148166544 5.861270040418576 0)
(22.800332154937 3.600484077558088 0)
(24.67303555272109 0.6014592104354568 0)
(24.97608458271709 0.03607982109315869 0)
(14.37828997838578 6.976651023589319 0)
(23.02532624286103 4.048552482144754 0)
(24.65192862008909 0.7359136190969906 0)
(24.97081064986397 0.04913614598659375 0)
(15.4332660104732 6.81360447540886 0)
(24.0864993643174 4.63506556459765 0)
(24.89652242988637 1.125741330311966 0)
(25.00123680203526 0.1079275339322077 0)
(18.08530346710211 4.760144481676762 0)
(25.72429747197241 4.391146155640607 0)
(25.48602158019014 1.28982800693897 0)
(25.18022086274895 0.2156721901578449 0)
(25.69371856310922 0.5467523406262588 0)
(26.94233632073325 -0.3554867436189574 0)
(29.1304133483525 1.417314313908111 0)
(34.01920233382592 7.328093114702193 0)
(25.62905905342895 0.4720581738278787 0)
(26.64811615271099 0.1001457349781789 0)
(28.24647116453098 1.93657241790434 0)
(25.63451453611881 3.215027421038658 0)
(25.50627187113612 0.3592931150873823 0)
(26.39350386244962 0.5594332426796328 0)
(27.75006801390975 2.84173108714247 0)
(23.08907488869539 3.612734022023254 0)
(25.38980165999181 0.275108940326916 0)
(26.049313483445 0.9532399894709715 0)
(26.97783592681015 3.450134171017938 0)
(19.90314511753687 3.659486689780901 0)
(37.77942588447786 9.251968727393059 0)
(30.31238914654421 0.3107806235349631 0)
(27.22446198543971 -1.022789963413246 0)
(25.65369733230336 0.5437393907628698 0)
(36.34819357636324 4.253925042544386 0)
(30.8347823232901 -1.256059284700443 0)
(27.54996673326117 -1.647316348793645 0)
(25.54327812032184 0.5425594207885123 0)
(34.00252139767934 -0.7046234414991883 0)
(30.11085600202487 -3.390623807906437 0)
(27.49766451364515 -2.60174100115051 0)
(25.30047256339482 0.4989516907585923 0)
(30.68347050242428 -4.759030911055263 0)
(29.04980109275077 -4.804324815833374 0)
(26.92926580637121 -3.628092637698054 0)
(24.88419812573376 0.3075625774822369 0)
(22.91097383354124 -0.8509691372223406 0)
(22.04903523667865 -7.091148311003193 0)
(21.12109434886687 -8.806650604847459 0)
(18.96386096652886 -9.897790926579372 0)
(23.45621520068127 -0.6463889793489501 0)
(23.50851219977916 -6.64812271209238 0)
(23.10798586130022 -8.415242664658031 0)
(20.90706681611186 -9.810493364284874 0)
(24.04000305735484 -0.3441201647803319 0)
(24.93162702203421 -5.875076016316148 0)
(25.19364658127673 -7.620150527533591 0)
(23.44735988180473 -9.238277542566484 0)
(24.51868777253664 0.2494394501442907 0)
(26.06332920835251 -4.606850485543534 0)
(27.16639067440093 -6.226688329939258 0)
(26.40060241902835 -7.616389482693018 0)
(17.54806443724852 -9.756784771553056 0)
(19.39762678590165 -8.85412464503494 0)
(20.87608631288368 -7.035984164081193 0)
(23.19627109200952 -0.7229222557931239 0)
(16.37659114714667 -9.684261758423297 0)
(18.11055365717017 -8.754313036215649 0)
(20.70754856402885 -5.995929706950571 0)
(23.69387899727653 -0.2364216120436428 0)
(15.1357312045707 -9.393290937530821 0)
(17.24087496470531 -8.21937860107235 0)
(21.21729131428465 -4.641949704136913 0)
(24.19844421943943 0.07129707408550441 0)
(14.04754563480278 -8.855725153807821 0)
(16.96791698989911 -7.293799692939175 0)
(22.43002645210719 -3.156638357783763 0)
(24.51831534109535 0.186496234532723 0)
(24.95453143333486 0.06679620490762953 0)
(25.21733308538177 -0.7182271953752914 0)
(22.05147493148392 -2.269355674020214 0)
(12.48984388891554 -3.860304835876915 0)
(24.83136495169087 0.08882945093764133 0)
(24.99459662366006 -0.808242802539536 0)
(20.60599625966354 -3.314564129611331 0)
(12.79857637797823 -5.640553360464598 0)
(24.78950534211415 0.1158517489265101 0)
(24.47444759199301 -1.156907035562956 0)
(18.82496020468205 -4.649483826544277 0)
(12.64752212268039 -7.078642662689735 0)
(24.69831528763617 0.1634672136054295 0)
(23.59934106814723 -1.928822036086008 0)
(17.58775545971693 -6.0583752687246 0)
(13.13583084249824 -8.144176404167764 0)
(24.94896332116589 0.09185147315835784 0)
(24.9162188355116 0.08053496734886871 0)
(24.90333203090602 0.09618350204771556 0)
(24.89607394631529 0.1212267491876044 0)
(25.27711796816868 -0.774745323797872 0)
(25.25814680835938 -0.7517645023924138 0)
(25.14340306133986 -0.8617827677823618 0)
(24.99915835826982 -0.9127427929643361 0)
(23.70232907577192 -1.628802234327355 0)
(25.15904583124962 -1.297220116850404 0)
(25.34338414377198 -1.289321111488207 0)
(25.24434997805141 -1.453734881296088 0)
(14.12713120580061 -2.095960468972648 0)
(19.15441635746051 -1.728678020659261 0)
(24.54803812031987 -1.559500550903618 0)
(25.42831331536479 -1.377472579100727 0)
(24.88832626459645 0.137982579542952 0)
(24.87668965883523 -0.8925724407769366 0)
(25.09323155698121 -1.555469818914264 0)
(25.36345180699638 -1.778077085633095 0)
(24.88284521464448 0.1445283182619673 0)
(24.76092029480474 -0.8382278250452887 0)
(24.9405247731483 -1.627185786754327 0)
(25.29112375923502 -2.09435973093843 0)
(24.8877100648298 0.1311323713196977 0)
(24.6744549735618 -0.7120277072613567 0)
(24.75257651286326 -1.654948292856906 0)
(25.17872651670399 -2.489600521203415 0)
(24.90149025430732 0.1010177237904898 0)
(24.63263511868175 -0.5574775737195782 0)
(24.54953704301257 -1.608776414954383 0)
(24.99115117732241 -2.905794436575099 0)
(24.98787360766073 0.01055580606920452 0)
(24.87563994154976 -0.03529378048066896 0)
(24.07885607449627 -0.7464007194083054 0)
(23.38567258305024 -4.323117584105492 0)
(24.97236264042235 0.02426031683156842 0)
(24.77190120815265 -0.1155051369915367 0)
(24.09385488325081 -1.104404103017966 0)
(24.11422182195353 -4.173025887274321 0)
(24.95024654273396 0.04404420643479837 0)
(24.67953772668749 -0.2412744720490538 0)
(24.19611466676503 -1.349491158608548 0)
(24.45809612531518 -3.766270995290781 0)
(24.92405059766336 0.07056245573509727 0)
(24.63421220178078 -0.3945587868133256 0)
(24.38213079811652 -1.475563346382016 0)
(24.81732785864491 -3.316637572556783 0)
(22.33925512614385 -3.758413235473427 0)
(24.31834416636376 -0.4062591512942366 0)
(24.95441908381873 -0.008911121727060486 0)
(24.99747567008069 0.004522274059007935 0)
(21.88511765502713 -3.317364418031121 0)
(24.46164918701543 -0.2785206930340045 0)
(24.97715011726549 -0.005493429656322859 0)
(24.99925374246735 0.001529073325848055 0)
(21.98732202397604 -2.779774512789293 0)
(24.63017648920562 -0.09839516525733946 0)
(24.99019672818473 0.0003535707345673634 0)
(24.9996066125143 0.0003640902451694875 0)
(21.98166795328562 -2.340709862532733 0)
(24.75585982557083 0.01080212740833207 0)
(24.99801874670001 0.0006931087209475403 0)
(24.99988402653474 6.197171914058009e-06 0)
(22.244297985952 -1.746230220127239 0)
(24.91407715410686 0.06683468424090817 0)
(25.00017477393933 0.001107692626119799 0)
(24.99999314123308 1.18440286552162e-05 0)
(22.26855027457907 -1.335028540908323 0)
(24.92414615556141 -0.0107309291166836 0)
(24.99985588999926 -1.067112322925641e-05 0)
(24.99999953209123 9.298803657435674e-07 0)
(22.69016957548573 -0.634851373147109 0)
(24.95164267308636 0.006360500961994209 0)
(24.99996304587799 1.867026503740057e-05 0)
(24.99999998004261 -8.823724193857152e-09 0)
(23.40263800204077 0.09542161669780663 0)
(24.97171051962601 0.01019841624601191 0)
(24.99999376802149 4.448776676145595e-06 0)
(25.00000001114298 4.117407428976429e-09 0)
(25.00000000000002 5.955163451363237e-12 0)
(24.99999998201898 1.215814176606828e-08 0)
(24.9982902101368 0.000555401973618213 0)
(24.71736069608299 -0.0076247251622015 0)
(24.99999999997173 4.1825273402318e-11 0)
(24.99999994453042 7.037670708366271e-08 0)
(24.99747953965784 0.001722105250082133 0)
(24.63269395967023 0.1593360720673058 0)
(24.99999999962681 2.564975037479798e-10 0)
(24.99999976109916 2.871971950685291e-07 0)
(24.99514548033614 0.003584509840148245 0)
(24.51359948798414 0.2644845735201133 0)
(24.99999999828481 -1.026259994633361e-09 0)
(24.99999881823999 1.167886791303211e-06 0)
(24.98908568901317 0.007016838046055529 0)
(24.1372423271793 0.4137218492842284 0)
(24.52527240850918 1.098679143407082e-10 0)
(24.35979429357301 0.149554890788511 0)
(23.97404553851868 0.1736328444055192 0)
(23.03855148938179 0.01871690288989665 0)
(24.35979429378959 -0.1495548905715939 0)
(24.08843487092994 4.096705019412733e-11 0)
(23.40957383449318 -0.06031093534323 0)
(21.96066624752019 -0.4863801717047685 0)
(23.97404553896108 -0.1736328443125904 0)
(23.40957383485648 0.06031093541920381 0)
(22.12861933054371 6.32886489953256e-11 0)
(20.03096231743749 -0.5819753339404041 0)
(23.03855148975659 -0.0187169029105005 0)
(21.96066624809577 0.4863801716475139 0)
(20.03096231770018 0.5819753338936403 0)
(17.78919030215893 -2.400773651635634e-10 0)
(17.25878743059292 2.521584780198702 0)
(17.89935364651012 2.917349760816338 0)
(19.54339827090248 2.655843996160747 0)
(21.08693844078882 1.887815752621194 0)
(18.24491288928439 4.246788147102598 0)
(18.30812748400178 4.203002747053023 0)
(19.0406608812006 4.114781285742562 0)
(20.07397916107739 3.952547285807557 0)
(17.68385952098285 5.193200700229449 0)
(18.85057665383117 4.491073292662008 0)
(19.52792533386433 4.691879068646903 0)
(20.05233757338986 4.563749828583289 0)
(18.3352547922569 5.754219454519878 0)
(19.70555745472621 4.717194014547124 0)
(20.20571748966393 4.891232745640921 0)
(20.49070193653876 4.805574323549978 0)
(20.79096631211912 4.932705761927918 0)
(21.02925877516159 5.061731028773378 0)
(21.40435231852101 5.120579053564432 0)
(22.16084947031247 5.280348412204118 0)
(20.7290038658561 4.994247234458363 0)
(21.03869038838305 5.101569672559815 0)
(21.53836834591915 5.117412895181695 0)
(22.65128669312343 5.500671444862642 0)
(20.47284842923845 4.931258893246011 0)
(20.9734393093842 5.105922567465503 0)
(21.55536645114544 5.15819042596767 0)
(24.10136947290144 5.943006868111825 0)
(18.97616960622563 5.851119731689799 0)
(19.5993305192235 5.875947412121558 0)
(20.50317457847073 5.734758085294129 0)
(25.83118921388156 7.125897742738379 0)
(25.81525362433564 3.187582033010137 0)
(26.40945127019711 0.8090349675887806 0)
(25.72185617647454 0.4870791889495953 0)
(25.59509817053365 0.3820585244603105 0)
(28.37610594711398 2.198782506784756 0)
(28.69592328938887 0.3397477358499875 0)
(27.56801974632221 0.2832497245876311 0)
(26.89269666686744 0.3137578413038364 0)
(31.54902017233466 1.904715468429657 0)
(30.14995124919705 0.04577666795080096 0)
(28.75773797975449 0.05144592570180929 0)
(27.77933218619236 0.09386625957132656 0)
(25.07990653959854 1.987933128531145 0)
(24.21747514128776 0.6522722874838185 0)
(24.07232475673512 0.08970222195422517 0)
(24.15978678645748 -0.2164446879750115 0)
(25.66542981074415 0.3867734250713465 0)
(25.71344243207384 0.3198130572145861 0)
(25.70095906972841 0.205137637963896 0)
(25.65343569712821 0.1716680005664391 0)
(26.53712577928395 0.3417377012043087 0)
(26.22460377687763 0.2915141775910268 0)
(25.94663655493716 0.1915943926107924 0)
(25.7212764938078 0.1306864413599219 0)
(27.15030429929779 0.1478463907503823 0)
(26.59225051128716 0.1471934802538735 0)
(26.09881317494991 0.0983031420251229 0)
(25.66598692463129 0.08514155817852413 0)
(24.13124281926255 -0.4622503578688027 0)
(23.90332375476756 -0.620733983747894 0)
(23.70232619134865 -0.7154385352308335 0)
(23.3699466294646 -0.6662487542468426 0)
(25.20553041861581 0.7717249617533595 0)
(20.09239884422651 5.098303405365703 0)
(13.71994251732721 3.924526016388737 0)
(9.345209189253525 1.059323300121116 0)
(24.62759847231233 1.255375081144729 0)
(16.07225007539112 4.951623623437345 0)
(8.863799234105731 2.740820741751462 0)
(4.471032872939573 -0.1764386356719648 0)
(23.4356759452598 1.295057028177319 0)
(11.69331975058252 3.634460653465478 0)
(3.139659514060271 2.029131550537237 0)
(-0.7690298512758055 0.2418309492520149 0)
(19.41395201161054 -0.7286191476811431 0)
(7.302811988991618 -0.7957855418263768 0)
(0.2337143580923518 0.5430003327552437 0)
(-2.595589710781532 0.1743950517406676 0)
(8.569155142624348 2.693896797291503 0)
(10.58536270245565 4.559499254649391 0)
(11.49760999637654 6.280350715841015 0)
(12.44952271873352 7.625634465674998 0)
(6.136684643147023 1.993688805289315 0)
(9.511372180175261 4.411051711517783 0)
(11.20128789374638 6.226225740094758 0)
(12.40431462112046 7.672156806809749 0)
(2.933316680250218 0.01198149164593781 0)
(7.442485880998971 3.33196641092478 0)
(10.26714452718305 6.036195802526185 0)
(12.02123035450908 7.596918734535491 0)
(0.2395612456227953 -0.1062544961260224 0)
(3.470289427088212 2.475988164742765 0)
(7.538055236451328 3.976192933934784 0)
(10.63465817812194 5.463980972692869 0)
(13.63848954379186 8.986490569704459 0)
(14.77053589482111 10.0081523540484 0)
(15.91945163737384 10.56578445575016 0)
(16.81353026559223 10.85599183341641 0)
(13.55816434676017 8.921002607011754 0)
(14.71383006037662 9.954782933593039 0)
(15.8239679685512 10.54167110657037 0)
(16.69639855425308 10.88142008503517 0)
(13.23585719952224 8.764174605916701 0)
(14.51737926771107 9.775720752477412 0)
(15.7420925445118 10.47462438673416 0)
(16.62306976387017 10.9619790559294 0)
(13.11738309562866 6.748233151984145 0)
(14.6720454740423 8.448540696787489 0)
(15.7661162182716 10.30179888375928 0)
(16.64565694502621 10.93921297604903 0)
(17.82792024445688 11.27568457357931 0)
(19.42337566505478 11.76984834664044 0)
(21.77504847616747 11.69322903795479 0)
(24.77798014790222 10.42096446206396 0)
(17.62277964794209 11.27976353084637 0)
(19.07492255884419 11.72985267358256 0)
(21.21153639912148 11.74952387344358 0)
(24.97582595728546 12.47347681477585 0)
(17.47370196669434 11.36885737055765 0)
(18.72297207282843 11.78346014143394 0)
(21.34547313061984 12.58553909805374 0)
(31.48515781038156 18.45884135590286 0)
(17.43735224064706 11.39312212110796 0)
(18.64011713069734 11.79211073347688 0)
(22.06806875505836 13.17483888927171 0)
(43.24394333014021 25.51573811471579 0)
(30.59388063767952 5.261213085991758 0)
(32.03812460913104 -3.58240844763683 0)
(12.65433556633919 8.691237874966681 0)
(7.857706813531768 30.84082784216823 0)
(32.23135390408702 4.900232538784246 0)
(26.46681106159113 -1.952396432860638 0)
(8.976515210714011 17.41678406066348 0)
(8.448185195344953 29.02684867524664 0)
(31.97401061646356 3.292519322900717 0)
(17.20847583791338 -4.302871374555588 0)
(3.828899897959325 21.32887362619908 0)
(4.61200416657989 29.02657359295931 0)
(20.3081930329982 -8.299020729534185 0)
(7.328068237635618 -0.5716289709167575 0)
(2.088268666536278 24.8180858358131 0)
(2.648160948832548 28.73394992950712 0)
(7.017486906960396 24.62068808791 0)
(2.699568242223952 17.69710821324177 0)
(-0.773407699868255 14.87153882013149 0)
(-2.833095328695327 9.937949045941851 0)
(6.71220252301423 23.57248844578887 0)
(1.915066390002861 19.24745362167437 0)
(-0.4568178553832798 14.98170680146787 0)
(-1.253579909646853 7.687176508080494 0)
(3.278209338415442 22.6147595396826 0)
(1.43040970129631 18.10667410613674 0)
(-0.3153916689158675 12.35861201798378 0)
(-0.8159269195932368 4.90043507023329 0)
(0.7861782040368687 22.03875183911562 0)
(-0.4547205829928241 17.36657306363954 0)
(-1.909241069094616 10.96804188243323 0)
(-1.738860786403123 3.285189739409748 0)
(-6.073824006558682 3.289747450109509 0)
(-2.016728196832339 0.2621680988883066 0)
(2.428986089203349 -2.420489999290286 0)
(4.456995949823912 -6.632195967259153 0)
(-6.812447485698918 3.05112844596794 0)
(-5.955762649953805 0.3487561339707861 0)
(-1.266767416184807 -0.7973463341299964 0)
(2.67913719669217 -5.57549322919764 0)
(-6.212904889843855 2.126698760051336 0)
(-7.806422787913531 0.6687256557663861 0)
(-4.517921634733165 0.3046643579785292 0)
(0.03243303554493911 -4.086213438945308 0)
(-4.585751769040495 2.184285426700582 0)
(-7.136648005135026 2.668593847008301 0)
(-5.229503605374966 3.072718262665678 0)
(-0.6499461324928525 -1.05222759201338 0)
(2.361376937706691 -6.935598415810168 0)
(2.29328773214702 -7.541105338634675 0)
(3.156920749439225 -7.215761219060393 0)
(4.462978150196563 -6.469139087257938 0)
(1.465752472409481 -6.803509160094353 0)
(1.926634179559841 -6.275233649419052 0)
(3.127031416581019 -5.840677926542794 0)
(3.899674808486779 -4.92436615121373 0)
(0.4567346719366754 -4.750758449145842 0)
(0.6585017691422471 -3.491302385974229 0)
(1.655337651918505 -3.003646182463137 0)
(2.137341839856235 -1.923657973566857 0)
(1.658871412037185 -1.98633461670318 0)
(1.311097353766701 -0.7524966981016309 0)
(1.877038908380126 -0.3122925952356399 0)
(1.653197818112821 0.6367103135583949 0)
(0.7800784903321417 1.147316097638804 0)
(-0.03299235720118417 1.284712059492433 0)
(-0.6587101065041407 0.9682837675676781 0)
(-0.9813028705464512 0.3366272758914114 0)
(1.587001072959741 -0.980437070917724 0)
(0.5863094185362437 -0.4815314722237706 0)
(-0.2570302015181246 -0.05723444626147434 0)
(-0.675059423398875 -0.02422335424428073 0)
(3.363736614439766 -3.805978977498901 0)
(2.444052131709802 -2.796844044365125 0)
(1.338026937335441 -1.704870178357734 0)
(0.6067269835096608 -0.6385165159936318 0)
(5.107005279068447 -4.816662200866057 0)
(4.969853866149673 -3.302382511119541 0)
(4.187869842572054 -2.02200236328118 0)
(3.720945561083123 -0.7293608293743522 0)
(-0.9813028705487462 -0.3366272758685262 0)
(-0.6750594233988892 0.02422335425406023 0)
(0.6067269835099552 0.6385165159883156 0)
(3.720945561084428 0.7293608293548509 0)
(-0.6587101065082566 -0.9682837675485398 0)
(-0.2570302015190342 0.05723444627099909 0)
(1.338026937339868 1.704870178355222 0)
(4.187869842600004 2.02200236326197 0)
(-0.03299235720500122 -1.284712059479108 0)
(0.5863094185348215 0.4815314722309653 0)
(2.444052131708887 2.796844044363093 0)
(4.96985386617026 3.30238251112069 0)
(0.7800784903294542 -1.147316097627857 0)
(1.587001072962305 0.9804370709228534 0)
(3.363736614430243 3.805978977500744 0)
(5.107005279071943 4.816662200875238 0)
(4.462978150176503 6.469139087229874 0)
(3.156920749441318 7.215761219046906 0)
(2.293287732150335 7.541105338624035 0)
(2.361376937720891 6.935598415795903 0)
(3.899674808486503 4.924366151213815 0)
(3.127031416589836 5.840677926536467 0)
(1.926634179576338 6.275233649412307 0)
(1.465752472430321 6.803509160080563 0)
(2.13734183985681 1.923657973564303 0)
(1.655337651921257 3.00364618245463 0)
(0.6585017691532409 3.491302385975172 0)
(0.4567346719503476 4.750758449139943 0)
(1.653197818114244 -0.6367103135543336 0)
(1.877038908387774 0.3122925952399947 0)
(1.311097353775734 0.7524966981086511 0)
(1.658871412045799 1.9863346167111 0)
(-0.6499461324753825 1.05222759201566 0)
(-5.229503605337598 -3.072718262637209 0)
(-7.136648005098297 -2.668593846977372 0)
(-4.585751769013145 -2.184285426692098 0)
(0.03243303556025246 4.086213438943215 0)
(-4.517921634713145 -0.3046643579561468 0)
(-7.806422787856514 -0.6687256557490177 0)
(-6.212904889776408 -2.126698760019539 0)
(2.679137196705427 5.575493229189164 0)
(-1.266767416152838 0.7973463341542125 0)
(-5.955762649882941 -0.3487561339450019 0)
(-6.812447485646811 -3.051128445916186 0)
(4.45699594983665 6.632195967254253 0)
(2.428986089227637 2.420489999311684 0)
(-2.016728196746905 -0.2621680988674789 0)
(-6.073824006455773 -3.289747450037926 0)
(-2.833095328688813 -9.937949045827175 0)
(-0.7734076999259176 -14.87153882013357 0)
(2.699568242261114 -17.69710821349713 0)
(7.01748690668525 -24.62068808801281 0)
(-1.253579909642583 -7.687176508016534 0)
(-0.4568178553942371 -14.98170680143838 0)
(1.915066390091678 -19.24745362175947 0)
(6.712202523045232 -23.57248844577993 0)
(-0.8159269195948226 -4.900435070208484 0)
(-0.3153916689204177 -12.35861201795423 0)
(1.430409701322498 -18.10667410617718 0)
(3.278209338432829 -22.61475953969031 0)
(-1.73886078639807 -3.285189739417569 0)
(-1.909241069101786 -10.96804188245684 0)
(-0.4547205829941383 -17.36657306364133 0)
(0.7861782040466709 -22.03875183912268 0)
(7.857706813165844 -30.84082784218253 0)
(12.65433556607065 -8.691237875272012 0)
(32.03812460909828 3.582408447686714 0)
(30.5938806377142 -5.26121308598296 0)
(8.448185195194666 -29.02684867524836 0)
(8.976515210663729 -17.41678406087116 0)
(26.46681106164153 1.952396432836455 0)
(32.23135390401856 -4.900232538755343 0)
(4.612004166594995 -29.02657359302533 0)
(3.828899897906052 -21.32887362631637 0)
(17.20847583785852 4.302871374497269 0)
(31.97401061638671 -3.292519322887766 0)
(2.648160948838345 -28.73394992957971 0)
(2.088268666514977 -24.81808583594497 0)
(7.328068237658687 0.5716289708525022 0)
(20.3081930329931 8.299020729508445 0)
(24.77798014789052 -10.42096446204361 0)
(21.77504847614587 -11.69322903792378 0)
(19.42337566510223 -11.76984834664241 0)
(17.82792024443202 -11.27568457356081 0)
(24.97582595732188 -12.47347681478124 0)
(21.21153639916777 -11.74952387344651 0)
(19.07492255884306 -11.7298526735657 0)
(17.62277964799973 -11.27976353087438 0)
(31.48515781031285 -18.4588413558529 0)