/*--------------------------------*- C++ -*----------------------------------*\
  =========                 |
  \\      /  F ield         | OpenFOAM: The Open Source CFD Toolbox
   \\    /   O peration     | Website:  https://openfoam.org
    \\  /    A nd           | Version:  11
     \\/     M anipulation  |
\*---------------------------------------------------------------------------*/
FoamFile
{
    format      ascii;
    class       volScalarField;
    location    "0.0025";
    object      p;
}
// * * * * * * * * * * * * * * * * * * * * * * * * * * * * * * * * * * * * * //

dimensions      [0 2 -2 0 0 0 0];

internalField   nonuniform List<scalar> 
880
(
79.99999999999999
80
80
80
80.00000000000001
80
80
80
80
80.00000000000001
80
79.99999999999368
79.99999999999996
80
80
79.99999999994793
80
80
79.99999999999999
80
80
80
80
80
80
79.99999999999999
79.99999999999999
80.00000000000001
80.00000001850047
80.00000001838501
80.00000001653548
80.00000001512706
80
80.00000000000004
80
79.99999999999999
80.00000000000004
80
80
79.99999999999999
80.00000000000013
80.00000000000001
80.00000000000003
80
80.00000000637739
80.00000000637338
80.00000000646638
80.00000000495918
80.000000058151
80.00000000891224
80.00000000006209
80
80.00000000000361
80.00000000000044
80
80
80.00000000000001
79.99999999999999
80
80
79.99999999999999
80
79.99999999999997
79.99999999999999
80
80
79.99999999999999
80
80
79.99999999999999
79.99999999999999
79.99999999999999
80
80.00000000000001
80
80
80
80.00000000000003
80
80
79.99999999999999
80.00000000000003
80
80
80
80
80
79.99999999999999
80.00000000000009
79.99999999999999
80
79.99999999999999
79.99999999744054
80
80.00000000000001
80
80
79.99999999999999
80
80.00000000058067
80
80
80
80.00000000063177
79.99999999999999
80.00000000000001
80.00000000000001
80.00000000066225
79.99999999999999
80
80
80.00000000069504
80.00000000072897
80
80
80
80.00000000077038
79.99999999999997
80
79.99999999999997
80.000000000814
80
80.00000000000001
79.99999999999997
80.00000000085407
80
79.99999999999999
79.99999999999999
80
80
80
80.00000000466393
79.99999999999997
80
80
80.00000000447473
80
79.99999999999999
80.00000000000001
80.00000000511157
80
80
79.99999999985651
80.00000025810722
80
80.00000000000347
80.00000003885218
80.00016186236853
79.99999999999999
80.00000000000162
80.00000002809269
80.00014618075913
80
80.00000000000085
80.00000002040321
80.00012975030391
80
80.00000000000057
80.00000001519668
80.00011772266066
80.00017635237526
80.00000002382031
80.00000000000132
79.99999999999999
80.00016944919767
80.00000002022922
80.00000000000087
79.99999999999999
80.00015856484836
80.00000001692224
80.00000000000057
79.99999999999999
80.00017157435123
80.00000001747368
80.00000000000057
80
80.00000113008272
80.00000000009825
80
79.99999999999999
79.99999999572921
79.99999999999973
80
80
79.99999999887706
79.99999999999999
80.00000000000001
80
79.99999992197895
79.99999999998967
79.99999999999999
80
80.00000056589141
80.00000000014253
80
79.99999999999999
80.00000056589231
80.00000000014249
80
80
80.00000056532265
80.00000000014316
79.99999999999999
80
80.00000053817907
80.00000000013418
79.99999999999999
80
79.99999992197942
79.99999999998943
79.99999999999999
79.99999999999999
79.99999999887798
79.99999999999999
80
80.00000000000001
79.99999999572545
79.99999999999966
80
80
80.00000113008984
80.00000000009626
80
80
79.99999999999999
80.00000000000134
80.00000002382333
80.00017635237465
80
80.0000000000009
80.00000002023455
80.00016944919798
80
80.00000000000058
80.00000001691831
80.00015856484085
80
80.00000000000105
80.00000001747473
80.00017157435144
80.00011772266454
80.00000001519552
80.00000000000088
80
80.00012975030553
80.00000002040295
80.00000000000068
79.99999999999997
80.00014618075934
80.00000002809367
80.00000000000145
80
80.00016186236866
80.00000003884819
80.00000000000244
80
80
80
80.00000000000003
80.00000000465941
80
80
80
80.00000000447889
79.99999999999999
80.00000000000001
80.00000000000001
80.00000000510974
80
80
79.99999999985607
80.00000025810662
80.00000000085373
79.99999999999999
80
80.00000000000001
80.00000000081394
80
80
79.99999999999997
80.00000000076922
80
80
79.99999999999999
80.00000000072765
80
80
80.00000000000001
80
80
79.99999999999999
80.00000000057931
80.00000000000001
80.00000000000003
79.99999999999999
80.00000000063221
79.99999999999999
80.00000000000001
80.00000000000001
80.00000000065999
80
79.99999999999999
80.00000000000003
80.00000000069336
80
79.99999999999999
79.99999999999999
80
79.99999999999999
79.99999999999999
79.99999999999999
80
80
80
79.99999999999999
79.99999999999999
79.99999999743955
80.00000000000009
80
79.99999999999999
79.99999999999999
79.99999999999999
80
80
79.99999999999999
80
80.00000000000001
80
80
80
80
80
79.99999999999999
80.00000000000001
80
80
79.99999999999999
79.99999999999997
80.00000000000362
80.00000005815392
80
80
80.0000000000005
80.00000000891357
80
80
80
80.00000000006123
79.99999999999999
80
80
80
80.00000000495801
80
80
80
80.00000000646445
80.00000000000003
79.99999999999999
80
80.00000000637421
80.00000000000004
80
79.99999999999999
80.00000000637502
80.00000000000001
79.99999999999999
79.99999999999999
80.00000001512612
80.00000000000001
80
80
80.00000001653457
80
80.00000000000001
80
80.0000000183833
80
80
79.99999999999997
80.00000001849907
80
80.00000000000001
80.00000000000001
79.99999999999999
80
80
80
80
80
79.99999999999999
80
80
80
80
79.99999999999376
80
80
80
79.99999999994628
79.9999999999996
79.99999999993238
79.99999999523661
80.00000000305359
79.99999999993405
80.00000000420636
80.00000066734479
80.00001117737274
79.9999999952382
80.00000066734611
80.00025594824265
80.01107675463045
80.00000000305738
80.00001117737121
80.011076754633
80.85594141552774
91.8786114559277
80.98883659422592
80.0108648901749
80.00001205499517
92.68126788637807
81.09487332069109
80.01223680036354
80.00001358340369
92.68526102101904
81.09379234618905
80.01221722038852
80.00001355579862
92.68666925158405
81.09236322136535
80.01216416256443
80.00001348644237
80.0000069475423
80.00000684131125
80.00000684142054
80.00000584758665
80.012898911311
80.01293522414734
80.01293527376029
80.01273911238107
81.15372387324767
81.1557894449967
81.15579885736447
81.19081431322203
93.13010221749533
93.15860921826214
93.15878017787817
93.88977939414092
80.00003521404534
80.00000466110411
80.00000002151357
79.99999999999825
80.00472506471701
80.00007356008236
79.99999997261521
80.00000000004636
80.04090400929962
79.9999886762424
79.99999895273481
80.00000000148117
80.06013850218042
79.99896788029622
79.99995066113249
79.99999998519559
80
80
80
79.99999999999999
79.99999999999999
79.99999999999999
80
79.99999999999999
80.00000000004671
80.00000000000004
80
79.99999999999999
80.00000000076587
80.00000000001037
80
79.99999999999999
79.99999999999999
79.99999999999999
80
79.99999812330476
79.99999999999999
79.99999999999999
80
79.99775897832211
79.99999999999999
79.99999999999999
80
79.82608856235342
79.99999999999999
79.99999999999999
80
78.11244043614438
80.00000094691279
80.00000098766495
80.00000098838908
80.00000098847516
80.00886058896498
80.00915539408166
80.00915842424777
80.00915840176175
82.24208331099483
82.28108290057831
82.28083613980546
82.28082445717216
117.3128297272606
117.4711728370301
117.4516519554085
117.4515643617332
80.00000098856641
80.00000098868425
80.00000098881377
80.00000099439455
80.00915839443135
80.00915839449257
80.00915839449794
80.00919236609379
82.28082552554059
82.28082553633689
82.28082553627679
82.28136773498665
117.4515964646712
117.4515965966175
117.451596593757
117.4516771204121
80.00000357991469
80.00000319129521
80.00000304280763
80.00015536342829
80.00831585757403
80.00764586410783
80.0072236765876
79.99772044507144
82.09942749037218
82.01519645835998
81.92069440569597
81.89056176706848
115.6048478557179
114.861930935649
114.0084971626988
118.3464823372881
80.01628220885149
80.01614660656047
80.01583129084177
80.01614100946786
80.0507442011093
80.04650629639369
80.04500541599241
80.04705454269633
76.71204100204886
76.43562052558278
76.42730966068041
76.43533450325353
37.05741628610122
33.39197019181498
33.37411566212695
33.32846788681879
80.04193729121481
80.04311472103159
80.04305610746898
80.04267312410673
80.16498467976747
80.1707486327355
80.17050298852486
80.13894988525614
76.25009161256743
76.25178897886593
76.24745023338461
75.53687342832644
31.19245598500673
31.14622481351379
31.15478584864694
28.84653432301478
80.00049087126935
79.99999797653203
79.99999945717815
79.99994776492726
80.01079481853348
79.99999353721272
79.99995491055383
79.99799540236707
80.01223719630394
80.00172749746737
79.99761976582899
79.9758547441085
79.07309173880141
79.99777840855157
79.97575510091288
80.28215837301126
80.00050422078615
80.00042158835164
80.00041508248712
80.00042639382572
80.01248502782614
80.01357899310509
80.01322483659972
80.01532862950761
79.61009443193107
79.61488139477825
79.6104648279169
79.61513614963441
57.92598175094125
56.15737969797848
55.87760625715288
55.73336856412215
53.76075387616144
53.61712319616139
53.597829845813
53.59757809906151
79.6481666766983
79.65439564208533
79.65431120721152
79.65430485358891
80.04639072132007
80.0508878079294
80.05096147066961
80.05096158299295
80.00089390755662
80.00095451562287
80.00095563389645
80.00095563511222
53.59757809906147
79.65430485358675
80.0509615829903
80.00095563511269
53.5978298458141
79.65431120721641
80.05096147066942
80.00095563390026
53.61712319616466
79.65439564209112
80.05088780793021
80.00095451562527
53.76075387616614
79.64816667669675
80.0463907213167
80.00089390756
80.00042639382782
80.00041508249009
80.00042158835534
80.00050422078597
80.01532862950597
80.01322483659932
80.01357899310409
80.01248502782479
79.61513614963751
79.61046482791332
79.61488139478
79.61009443193095
55.73336856412522
55.87760625715318
56.1573796979817
57.92598175094166
80.28215837301283
79.97575510091519
79.99777840855199
79.07309173879651
79.97585474410853
79.99761976582943
80.00172749746741
80.01223719630141
79.99799540236666
79.99995491055689
79.99999353721198
80.0107948185307
79.99994776492738
79.99999945717818
79.99999797652806
80.00049087127417
80.04267312410695
80.04305610746995
80.04311472103291
80.04193729121603
80.13894988525962
80.17050298853107
80.17074863274314
80.16498467976608
75.53687342832551
76.24745023338485
76.25178897886531
76.25009161256732
28.84653432300365
31.15478584866732
31.14622481350887
31.19245598500159
80.01614100946483
80.01583129084084
80.01614660656259
80.01628220885117
80.04705454269244
80.04500541599199
80.0465062963961
80.05074420110823
76.43533450325521
76.4273096606791
76.43562052558957
76.71204100204891
33.32846788679929
33.37411566212091
33.39197019182778
37.05741628611707
80.00015536342528
80.00000304280245
80.00000319129281
80.00000357991573
79.99772044507226
80.00722367658666
80.0076458641103
80.00831585757251
81.89056176706737
81.92069440569382
82.01519645836007
82.09942749037688
118.3464823372937
114.0084971626983
114.8619309356432
115.6048478557202
80.00000099439079
80.00000098881219
80.00000098868081
80.0000009885708
80.00919236609575
80.00915839450148
80.00915839449577
80.00915839443145
82.28136773498849
82.28082553627742
82.28082553633433
82.28082552553948
117.4516771204099
117.451596593759
117.451596596612
117.4515964646725
80.00000098847615
80.00000098838656
80.00000098766337
80.00000094691205
80.00915840175648
80.00915842425204
80.00915539408186
80.00886058896171
82.28082445717583
82.28083613980479
82.28108290058036
82.242083310998
117.4515643617271
117.4516519554155
117.4711728370311
117.3128297272586
79.99999812330472
80
79.99999999999999
79.99999999999999
79.99775897832212
80
79.99999999999999
79.99999999999999
79.8260885623536
80
79.99999999999999
79.99999999999999
78.11244043614704
80
79.99999999999999
79.99999999999999
79.99999999999999
79.99999999999999
80
79.99999999999999
79.99999999999999
79.99999999999999
79.99999999999999
79.99999999999999
79.99999999999999
79.99999999999999
80.00000000000004
80.00000000004692
79.99999999999999
80
80.00000000001036
80.00000000076797
79.99999999999825
80.00000002151359
80.00000466110441
80.00003521404565
80.00000000004636
79.99999997261521
80.00007356008236
80.00472506471688
80.00000000148117
79.99999895273481
79.9999886762424
80.04090400929968
79.99999998519556
79.99995066113249
79.99896788029622
80.06013850218044
80.0000058475875
80.00000684142181
80.00000684131102
80.00000694754021
80.01273911237978
80.01293527376302
80.01293522414687
80.01289891130882
81.1908143132184
81.15579885736913
81.15578944499957
81.1537238732476
93.88977939413888
93.15878017788253
93.15860921826668
93.13010221749444
80.00001348644479
80.00001355580019
80.00001358340738
80.00001205499329
80.01216416256861
80.01221722039058
80.01223680035871
80.010864890173
81.09236322135911
81.09379234617967
81.09487332068942
80.98883659421102
92.68666925156525
92.68526102097503
92.68126788633839
91.87861145587146
80.00000051800149
80.00000000011009
79.99999999999999
80
80.00000046227036
80.00000000009986
79.99999999999999
80
80.0000004543835
80.00000000010091
80
79.99999999999999
80.00000045878015
80.0000000001009
79.99999999999999
80.00000000000001
80
79.99999999999999
80.00000000014246
80.00000056589288
80
79.99999999999997
80.00000000014317
80.00000056589323
79.99999999999999
80
80.00000000014283
80.00000056531763
80
80
80.00000000013573
80.00000053817644
79.99999999999999
80
80.00000000000001
80
79.99999999999999
80
79.99999999999999
80
80.0000000001003
80.00000000009952
80.00000000010183
80.00000000010876
80.0000004587783
80.0000004543821
80.00000046227503
80.00000051800224
)
;

boundaryField
{
    back
    {
        type            empty;
    }
    inlet
    {
        type            zeroGradient;
    }
    front
    {
        type            empty;
    }
    top
    {
        type            zeroGradient;
    }
    outlet
    {
        type            fixedValue;
        value           uniform 80;
    }
    bottom
    {
        type            zeroGradient;
    }
    wall
    {
        type            zeroGradient;
    }
}


// ************************************************************************* //
