/*--------------------------------*- C++ -*----------------------------------*\
  =========                 |
  \\      /  F ield         | OpenFOAM: The Open Source CFD Toolbox
   \\    /   O peration     | Website:  https://openfoam.org
    \\  /    A nd           | Version:  11
     \\/     M anipulation  |
\*---------------------------------------------------------------------------*/
FoamFile
{
    format      ascii;
    class       volScalarField;
    location    "0.171";
    object      p;
}
// * * * * * * * * * * * * * * * * * * * * * * * * * * * * * * * * * * * * * //

dimensions      [0 2 -2 0 0 0 0];

internalField   nonuniform List<scalar> 
880
(
80
80
80.00000001124405
80.00123317391734
80
80
80.00000005378203
80.00441017512699
80
79.99999999999999
80.00000039441569
80.01907475519751
80
79.9999999998422
80.00000583731857
80.06975570460359
80
80.00000000000001
79.99999999941683
79.99999999832004
80.0000000380641
79.99999952624472
80.00000604004823
79.99996348167979
79.99995087538359
80.00013894025174
80.04188276622406
79.94869680371232
81.75500588259672
85.42269759863943
88.03159565923561
89.03054940947236
80.00000909951778
80.00015794645491
80.00021795276486
80.00024158092549
80.00041154934097
80.00091582451452
80.00302018360203
80.00335336852565
80.13655524428802
80.25925201746782
80.4371949192678
80.60011808610848
90.38704021076059
92.09009479361491
93.79529437152404
95.87886347115959
95.03676978344529
91.98821780258633
89.28478036134464
87.95522956637781
81.13035943560718
82.19664420317606
82.702382053948
82.86038262912273
80.01053408555018
80.03907594121721
80.08287149090575
80.11857262347129
80.00072339930068
80.00233601335091
80.006165611135
80.00910455099444
80.00930432447083
80.00794623206164
80.00546942442969
80.00280074946502
80.13155506967561
80.1216255395577
80.10353955270581
80.07764825864815
82.74267845475366
82.429129964024
82.05803210032701
81.63651653664857
87.53403336783153
87.12175342773992
86.26832694501277
85.25384627494591
84.20651479530552
81.17699187596519
80.04621116681403
80.00091587952406
83.22762716308897
80.72248176667324
80.01866296596866
80.00014474733156
81.79285673331125
80.26427703516941
80.00339234387458
79.99996769045562
85.38248654353858
80.10296420379409
80.00049735585024
80.00007968819311
79.99993727181779
80.00008084243947
80.24846009694178
107.8451947217928
80.00010376074397
80.00503561010657
81.16328025306466
128.3275192901719
80.00060589854617
80.01377995596067
82.5191077006733
139.5007365088241
80.00229218568218
80.04254291469871
84.4943039147572
149.5249857011329
157.0128006247628
87.06875334104637
80.08249055352759
80.00485357466363
164.3289578440158
90.2128862262053
80.16373894273735
80.01112167519651
171.5650166636793
94.3799756192624
80.29360858791354
80.01701213890607
179.9327392943496
99.18152739773966
80.46710932328752
80.03048894060045
80.04353436690425
80.73615008000904
105.1676328328246
185.8728682544656
80.07138234513954
81.15299632603013
110.3101471567507
184.8775902785412
80.18293933881635
81.33297377625098
106.5259658010685
165.2956962241383
79.95914025909927
80.86567044221184
97.94477620947697
136.8735947045855
80.17551790966823
81.81436101737988
93.40208118759408
101.8429624888392
80.23863853513984
81.60721656919283
84.20595438514211
68.21018381424823
80.12732081185753
80.85322654369865
80.56562354576771
47.88001015904754
80.02119749888219
80.37092447455815
78.15332798330098
39.86810123478448
40.79500228439109
76.62461563503841
79.95613846220411
79.99877975556551
40.6113525455298
75.12598889847847
79.70595673804658
79.99150400479212
40.93638626778828
73.99150906618476
79.60426836082382
79.99103346877585
38.7678377376228
72.54774228679703
79.54959629195866
79.993743479876
43.69878577439891
73.84032767259157
79.73288783209945
79.99762668865563
46.86305208412038
75.64522678648373
79.89223339486585
79.9993477435528
49.18829319248245
76.99444154315304
79.95257716573202
79.99977867935499
53.72706206360969
78.70845355492371
79.99235823165296
79.99992560634344
69.58993165895403
78.2078959503995
79.8913936214515
79.99825086676597
68.2038815926924
78.23234636431187
79.89557805624894
79.99826957215723
66.397977316851
78.2062890541758
79.90368532172792
79.99836328016343
65.53658574942969
78.31582373419563
79.91652932630247
79.99849832248155
53.72706206333584
78.70845355456549
79.99235823099315
79.99992560700447
49.18829319220638
76.99444154289347
79.95257716332607
79.9997786786832
46.86305208359615
75.64522678663371
79.8922333945318
79.99934774436309
43.69878577438595
73.84032767371599
79.73288783203516
79.99762668797203
79.99877975713937
79.95613846355788
76.62461563517107
40.79500228436904
79.991504005322
79.70595673878319
75.1259888990235
40.61135254586657
79.99103346746176
79.60426836232917
73.99150906608278
40.93638626789618
79.99374348003265
79.5495962926291
72.547742288931
38.76783773745462
39.86810123336323
78.15332798204183
80.37092447399969
80.0211974984216
47.88001015814227
80.56562354456064
80.85322654281298
80.12732080916278
68.21018381427147
84.20595438397984
81.60721656930427
80.23863853375354
101.842962489038
93.40208118714338
81.81436101587563
80.17551791384381
80.04353436630053
80.73615008269476
105.1676328329753
185.8728682558086
80.07138234540902
81.15299632728605
110.3101471562448
184.8775902782785
80.18293933131061
81.33297377557584
106.5259657997711
165.2956962240598
79.95914027008972
80.86567044212995
97.94477620871895
136.8735947044913
179.9327392977437
99.18152739875316
80.46710932405864
80.03048894078911
171.5650166683278
94.37997562558805
80.29360859330886
80.01701213932562
164.3289578434342
90.21288622381442
80.1637389416551
80.01112167484074
157.0128006246597
87.06875333917944
80.08249055311094
80.00485357408333
79.99993727363213
80.00008084286952
80.24846009700327
107.8451947203223
80.00010376071032
80.00503560952725
81.16328025352769
128.3275192888873
80.00060589763217
80.0137799550249
82.51910770129648
139.5007365105751
80.00229218446266
80.04254291556047
84.49430391550561
149.5249857023499
80.00007968642394
79.99996769137533
80.00014474708433
80.00091587911487
80.00049735406522
80.00339234478854
80.01866296734592
80.04621116590434
80.10296420419424
80.26427703556114
80.72248176551724
81.1769918757326
85.38248654344704
81.79285673340235
83.22762716278926
84.20651479553131
80.00280074778063
80.07764825861632
81.63651653778702
85.25384627575136
80.00546942406861
80.10353955242601
82.05803210180902
86.26832694544422
80.0079462332544
80.12162553966475
82.4291299634114
87.12175342752479
80.00930432479475
80.13155506975399
82.74267845536674
87.53403336765506
80.00072339777351
80.0105340841347
81.13035943650765
95.03676978333378
80.00233601172009
80.03907594108551
82.19664420333494
91.9882178015157
80.00616561039337
80.08287149250627
82.70238205383531
89.28478036085188
80.00910455044166
80.11857262460556
82.86038262896905
87.95522956560266
95.87886347180681
80.60011808964259
80.00335336756342
80.00024157233655
93.79529437180587
80.43719492281946
80.00302018289415
80.00021795189271
92.09009479442663
80.25925201811329
80.00091582455306
80.00015795482477
90.38704020873776
80.13655523848279
80.00041154929433
80.00000910009081
89.03054940876744
79.94869680215187
79.99996348185401
79.99999999895748
88.03159565847827
80.04188276555409
80.00000604024666
79.99999999936843
85.42269759854619
80.00013893983869
79.99999952634974
79.99999999999999
81.75500588309717
79.99995087485304
80.00000003810857
79.99999999999989
80
79.99999999999997
80.0000000117108
80.00123317766014
80.00000000000003
80.00000000000001
80.0000000539785
80.00441017721387
80
80
80.00000039443324
80.01907475894942
80
79.99999999983356
80.00000583623792
80.06975570198196
80.00341989346146
80.01190043451203
80.03939907671456
80.38604620503938
80.01190044024725
80.01990048515457
80.0688998776175
81.27068218563723
80.03939908209514
80.0688998768199
80.55417227376819
86.82109736073859
80.3860461767689
81.27068211378574
86.82109723402888
105.6762340039296
135.4749837729741
114.9654714525278
103.4505661344741
91.71012208059469
130.7063944647496
126.0109811794119
124.0843104845723
115.1851466166321
128.4453401716303
127.0778343782027
126.5761202501251
122.7039159702496
128.59787842996
127.6638515895994
127.4563294927566
124.9722112285948
125.7739685467288
125.209346349915
125.2949380967273
126.2546421605396
127.449478786442
126.0425754757629
125.9083235921154
126.7994613169269
127.7236371759168
126.5340650319526
126.2620590668387
126.8010006740842
127.9987262783017
126.7963460742661
126.4135298088602
123.2091578951659
104.8353162226564
83.38434829988826
76.48327950729511
77.32680065295087
95.47363416683122
76.5159699290145
74.54373609004816
76.78031045636112
86.08211827882022
73.98143131497534
75.35893356635266
77.53113682666437
68.79158983761764
69.39954092311534
74.26086402039252
76.83056841008418
79.11788026759474
80.6666633385415
81.42643197300964
81.63836512622495
78.99374651128386
80.2902663364505
81.09526315715881
81.3982557065319
79.47584900632738
80.37278309020004
81.05943160764504
81.47753483014351
78.76626551731395
79.84039095184565
80.78695675051796
81.39241422947175
81.76430749237561
81.69615197204432
82.47434239839677
119.3842533684411
81.52470077668475
81.58221743471985
83.29274921816015
134.8774691322682
81.56683775887367
81.67151908679696
84.13898852415194
142.6096395685551
81.47104465590061
81.53508376154382
85.84708976772407
148.6824761620547
216.8746030712059
226.3555823069108
223.3315440966186
220.9171616088803
233.4570233182183
231.7067578733648
225.7768086814419
221.9248858190296
229.5988125451331
228.6514610729536
226.0874615724108
222.9436454804355
237.060024975034
231.8639925576924
228.0025722540263
223.7659293913086
216.3241794984107
211.3677465138903
208.5860484407348
209.4364911318353
216.8170675232435
211.8236850231227
208.5846059083848
208.9901276755841
217.5426930994277
212.337977051439
208.750768229776
209.0039878435272
219.4432427801383
213.4952814442649
208.9473874684529
208.8216142779416
209.937835331564
205.3927499650241
188.5592833152165
158.2961417320015
209.0557350817218
205.3593954058395
188.8556577862823
168.8620328308442
208.9087548138557
205.2396936705768
191.4929017145555
177.8100483973975
208.5582811566778
205.6980137961864
193.9543893722176
197.1648144634167
92.3728732311222
18.37337327223528
2.71255150355247
3.71786561410154
73.68072003740144
10.75713331630888
3.291613587581828
3.822338707804407
50.12558815297201
5.315816243892434
2.818486247938334
4.3007373083704
27.54405933663421
1.805153508232459
3.155690909639337
4.577507011476602
6.146045564801225
8.82646630904688
11.38006971221162
11.53377093421678
6.127716822020905
9.306990153573777
11.73536267935175
12.06127381019195
6.836989179323092
9.955310480637829
11.96447509827041
13.0594759454186
7.22826993379299
10.40393634888793
12.64435461826986
14.50243485205183
20.22596603597632
23.77728596629316
26.26421221451521
30.5415569993082
20.01771858626056
23.54982615549642
25.15974396577255
29.83811182019992
18.76754015489573
23.07642394658907
24.62409383952116
28.55260962080348
17.09591104401055
22.16798653254815
23.72697919595717
29.37039635280266
21.77305233922286
14.65039752027737
13.08437811747341
12.93038960432972
20.71068380632649
16.19101296742472
15.68752830843545
12.75110129512278
17.40958772769334
16.36940618807877
14.55202247584944
13.21595710056134
13.39358482672507
14.65423510863635
14.23712567685243
13.83720943392082
13.4555828701044
13.07774034847871
12.86436399350721
12.55699704750604
12.26923240864003
11.35163198726374
10.85825832442173
10.66868461800543
11.80527037762161
11.82914572197347
11.3597260044603
10.95563218148719
15.52183509002269
16.16392286203801
15.41810065641921
14.97461139032461
12.5569970475034
10.66868461800812
10.95563218149352
14.97461139041006
12.86436399348775
10.85825832442196
11.35972600449681
15.41810065646182
13.07774034846329
11.35163198727387
11.82914572200935
16.16392286199132
13.45558287010348
12.26923240865576
11.80527037764745
15.52183508991742
12.93038960426226
13.08437811737787
14.65039752014393
21.77305233892379
12.75110129510783
15.6875283083982
16.19101296740254
20.71068380613152
13.21595710057261
14.55202247584817
16.36940618804768
17.40958772760609
13.83720943393088
14.23712567684268
14.6542351086079
13.39358482667692
29.37039635262292
23.7269791956708
22.16798653205995
17.09591104374232
28.55260962064438
24.62409383935103
23.07642394615433
18.76754015459418
29.83811182000287
25.15974396564991
23.54982615512298
20.01771858598914
30.54155699905706
26.26421221441721
23.77728596594969
20.22596603570029
11.53377093397703
11.38006971221082
8.826466309068302
6.146045564728627
12.0612738099684
11.73536267927715
9.306990153578219
6.12771682199338
13.05947594520729
11.96447509814852
9.955310480625583
6.836989179301207
14.50243485179493
12.64435461812617
10.40393634883551
7.228269933771058
3.717865614024958
2.71255150348499
18.3733732720025
92.37287323096555
3.822338707788775
3.291613587500823
10.75713331617994
73.68072003707064
4.300737308338396
2.818486247855724
5.315816243832966
50.12558815292244
4.577507011454348
3.155690909565092
1.805153508191335
27.54405933665189
158.2961417319435
188.5592833157848
205.392749965726
209.9378353335524
168.8620328309422
188.8556577873181
205.3593954071884
209.0557350841072
177.8100483976697
191.4929017156498
205.2396936725646
208.9087548164198
197.1648144640812
193.9543893739088
205.6980137984043
208.5582811592205
209.4364911347031
208.5860484415797
211.3677465138196
216.3241794980396
208.9901276783164
208.5846059091415
211.823685022949
216.8170675230059
209.0039878459226
208.7507682305189
212.3379770509723
217.5426930995904
208.8216142803072
208.9473874691928
213.4952814436851
219.4432427804413
220.91716161069
223.3315440984535
226.3555823063556
216.874603070092
221.9248858212543
225.7768086830673
231.7067578730912
233.4570233185009
222.9436454826098
226.0874615737786
228.6514610726278
229.5988125460195
223.7659293932784
228.002572255578
231.863992557316
237.060024975559
119.3842533666692
82.47434239792483
81.69615197220776
81.76430749316168
134.877469130645
83.29274921735164
81.58221743516111
81.52470077761106
142.6096395665988
84.13898852334725
81.67151908765132
81.56683775986787
148.6824761607738
85.84708976643823
81.53508376260022
81.471044657058
81.63836512674675
81.42643197353793
80.66666333824033
79.1178802671497
81.39825570700886
81.09526315765622
80.29026633610965
78.99374651075679
81.4775348306311
81.0594316079363
80.37278308994564
79.47584900571296
81.3924142300788
80.78695675087748
79.84039095152065
78.76626551678579
77.32680065215106
76.48327950675426
83.38434829943446
104.8353162232391
76.78031045543618
74.54373608950465
76.51596992858283
95.47363416765718
77.53113682568976
75.35893356597622
73.98143131458039
86.08211827983902
76.8305684089913
74.26086401979867
69.39954092248092
68.79158983859736
126.254642160728
125.2949380960465
125.2093463511942
125.7739685460472
126.7994613169307
125.9083235917365
126.042575476917
127.4494787848467
126.8010006738239
126.2620590665107
126.5340650329512
127.723637174557
123.2091578955735
126.4135298081331
126.7963460746351
127.9987262770192
124.9722112279307
122.7039159635425
115.1851466090498
91.71012209844022
127.456329491356
126.5761202434146
124.0843104804568
103.4505661285693
127.6638515890566
127.0778343726543
126.0109811586003
114.9654714291948
128.5978784305501
128.4453401691546
130.7063944521967
135.4749837430731
55.03741874673625
78.24465163506957
79.96198545555914
79.99974546066343
54.29345593026265
78.03317864619989
79.95567816248359
79.9996355277154
56.84417496111171
78.1567287784526
79.95201688547047
79.99952071345089
61.18623619050867
78.27010389842954
79.93833037623928
79.99913664665375
79.99825086694246
79.8913936229048
78.20789594945619
69.58993165977014
79.99826957258139
79.89557805742756
78.23234636345984
68.20388159243799
79.99836327889858
79.90368532226611
78.20628905441714
66.39797731596194
79.99849831976539
79.91652932726848
78.31582373266322
65.53658574876233
79.99913664475717
79.99952071167846
79.99963552417171
79.99974545731098
79.93833037710863
79.95201688561026
79.95567816229141
79.96198545490751
78.2701038980461
78.15672877637148
78.03317864687712
78.24465163482077
61.18623618977816
56.84417496037526
54.29345593019042
55.03741874691988
)
;

boundaryField
{
    back
    {
        type            empty;
    }
    inlet
    {
        type            zeroGradient;
    }
    front
    {
        type            empty;
    }
    top
    {
        type            zeroGradient;
    }
    outlet
    {
        type            fixedValue;
        value           uniform 80;
    }
    bottom
    {
        type            zeroGradient;
    }
    wall
    {
        type            zeroGradient;
    }
}


// ************************************************************************* //
