/*--------------------------------*- C++ -*----------------------------------*\
  =========                 |
  \\      /  F ield         | OpenFOAM: The Open Source CFD Toolbox
   \\    /   O peration     | Website:  https://openfoam.org
    \\  /    A nd           | Version:  11
     \\/     M anipulation  |
\*---------------------------------------------------------------------------*/
FoamFile
{
    format      ascii;
    class       volScalarField;
    location    "0.359237";
    object      rho;
}
// * * * * * * * * * * * * * * * * * * * * * * * * * * * * * * * * * * * * * //

dimensions      [0 0 0 0 0 0 0];

internalField   nonuniform List<scalar> 
880
(
0.2239950333699092
0.2239950336977215
0.2240219316033486
0.2277382607325525
0.2239950333702082
0.223995034333608
0.2240283853685235
0.2294907060067485
0.2239950333717012
0.2239950371321023
0.2240567391540011
0.231587562829705
0.2239950333941023
0.2239950499075351
0.2241222562490431
0.2347100251770367
0.223995033259515
0.2239950334139612
0.2239950459401247
0.2239952242250021
0.2239951096742502
0.2239953271771603
0.223996860875033
0.2239977477659044
0.2242817680427546
0.22445668791156
0.2247513476039059
0.2250683458363943
0.2401925208369744
0.2455343710135401
0.2500085334798453
0.2520202399514788
0.2239955037658757
0.2239988445563274
0.2240094183900316
0.2240395956636895
0.2240201691629181
0.224102266759117
0.2242088546019941
0.2244461026515862
0.2264583101506502
0.2276525100988472
0.2291735075476607
0.2311938061532854
0.2539939978042889
0.2568433321191557
0.257450948311464
0.2560354570951432
0.2436280013345068
0.2366721039865972
0.2331385174010975
0.2308249122054886
0.2347449351783215
0.2358607033501984
0.236538384203398
0.2365730545404862
0.2252532941913922
0.2262087846005208
0.2272170954256244
0.2279428774556045
0.2241532014605881
0.2243777876542854
0.2247180623238811
0.2251948759450479
0.2257495316427487
0.2263070223800128
0.2268586810096849
0.2272747205729317
0.2284637330404222
0.2287683610154634
0.2289177261658842
0.2289562616324904
0.2358869753152836
0.2349358307842105
0.2336846484587272
0.2323892242395658
0.2284543676618693
0.227099844604057
0.2263600738898042
0.2255255802853292
0.2257913727575702
0.2314865424959792
0.2288735579486608
0.2275322618884938
0.2365888394088897
0.2310972115930121
0.2286240143574769
0.2274951657052124
0.2954162733073708
0.2338488365667042
0.2283256876793764
0.2269978494522232
0.3573535900030027
0.2486714136028688
0.2292793064906891
0.2268111768301373
0.2267524689499011
0.2306964744893106
0.2665979788868587
0.3845282322841119
0.2257541852294273
0.2332912234630713
0.2862193505993674
0.384115239796263
0.2261775815009007
0.2392096081277081
0.3116800652635978
0.3875967730717194
0.2277763450642785
0.2496194837189074
0.3348901483016815
0.3832616159364864
0.3736730302036017
0.347097803820725
0.2651514171288026
0.2312646648096355
0.3618909948909856
0.3484420217772092
0.2820888447912383
0.237372797797145
0.3493505452354551
0.3444409666260751
0.29660323335576
0.2469826226991743
0.3360856965824494
0.3272444789409693
0.2987923883136862
0.2586682266633548
0.2688485206636194
0.2915295279546441
0.3056280643108905
0.3202638447752293
0.2674712391758644
0.2769601551611705
0.2821379022975855
0.2973622945372911
0.2634550659218762
0.2629451418092134
0.2588575120959739
0.2680360976069062
0.2581469146205402
0.2516079123244951
0.2376535388240167
0.2330812770114397
0.2537300675038283
0.2402838391966605
0.2167388937144239
0.1875799480967568
0.2465605851169528
0.2298995326583851
0.1990006788410549
0.1311076713761078
0.2410506339863246
0.2255981603509336
0.1852429305635847
0.08691817714702078
0.2363160203172715
0.2232416334092186
0.1728890159727163
0.05198507412558973
0.05321518526242042
0.1741783281660199
0.2213941472096176
0.2320722363668474
0.07253483623306062
0.1742441221149183
0.2201203540663386
0.2291994475694352
0.07399464710618538
0.1723929950142438
0.2183943313288043
0.2272666050993661
0.06823131551641122
0.1690864000908698
0.2169799091321632
0.2262496222883969
0.08121601453121231
0.1750669662759504
0.216609141241699
0.2244899599275023
0.09692912401661774
0.1821350822727974
0.2169353008762279
0.2234647375105038
0.1160785770519742
0.1914403690603019
0.2176617851455879
0.2234194713845938
0.1390484942382231
0.1994236984099458
0.2188313349363422
0.2235311337147199
0.155476664227869
0.1757858436585783
0.2098485715120837
0.2225128089775133
0.153313493026722
0.1786600260064198
0.2102828221441205
0.222489800583707
0.1489455132050478
0.1829367945612912
0.2113251276574566
0.2224888145468299
0.1437273717841205
0.1876058935054721
0.2129159693250123
0.2226132064467282
0.1390484942382825
0.1994236984100118
0.2188313349360201
0.2235311337139108
0.1160785770522874
0.1914403690595226
0.2176617851449964
0.2234194713829783
0.09692912401671389
0.1821350822726292
0.2169353008756
0.2234647375096815
0.0812160145313001
0.1750669662751654
0.2166091412414084
0.2244899599272339
0.2320722363672863
0.2213941472098694
0.1741783281657338
0.05321518526161299
0.2291994475691954
0.2201203540662544
0.1742441221142762
0.07253483623231931
0.2272666050997063
0.2183943313294651
0.1723929950133195
0.07399464710610192
0.2262496222888842
0.2169799091327967
0.1690864000907923
0.06823131551622215
0.05198507412561771
0.1728890159726885
0.223241633409526
0.2363160203176369
0.08691817714664322
0.1852429305635512
0.2255981603511338
0.2410506339859548
0.1311076713757404
0.1990006788420018
0.2298995326587158
0.2465605851177645
0.1875799480971161
0.2167388937140897
0.2402838391955927
0.2537300675046496
0.2688485206645552
0.2915295279559006
0.3056280643118706
0.3202638447747061
0.2674712391757463
0.2769601551609111
0.2821379022983155
0.2973622945368046
0.2634550659213338
0.2629451418090816
0.2588575120961839
0.26803609760687
0.2581469146205201
0.2516079123239829
0.2376535388235395
0.2330812770117957
0.3360856965821049
0.3272444789404284
0.2987923883144016
0.2586682266649138
0.3493505452347695
0.3444409666255812
0.2966032333561068
0.246982622699369
0.3618909948907579
0.3484420217762528
0.2820888447907678
0.2373727977981006
0.3736730302027157
0.3470978038211708
0.2651514171295373
0.2312646648096039
0.2267524689495655
0.2306964744891323
0.2665979788869289
0.3845282322830496
0.2257541852303127
0.2332912234632267
0.2862193505992575
0.3841152397951255
0.2261775815023624
0.2392096081293162
0.3116800652627346
0.3875967730710714
0.2277763450645941
0.2496194837192565
0.334890148301227
0.3832616159361273
0.2268111768302794
0.2269978494518984
0.2274951657060453
0.2275322618886002
0.2292793064899047
0.228325687678809
0.2286240143582765
0.2288735579484835
0.248671413601879
0.2338488365666503
0.2310972115924457
0.2314865424956966
0.3573535900014637
0.2954162733066513
0.2365888394094651
0.2257913727576492
0.2272747205735114
0.2289562616329484
0.2323892242398689
0.2255255802849556
0.2268586810088904
0.2289177261659119
0.2336846484584073
0.2263600738895644
0.2263070223800773
0.2287683610154537
0.2349358307846642
0.2270998446033985
0.2257495316421892
0.2284637330395828
0.2358869753155078
0.2284543676620406
0.2241532014604813
0.2252532941907074
0.2347449351784431
0.2436280013343426
0.2243777876541747
0.2262087845997296
0.2358607033504419
0.2366721039858475
0.2247180623247471
0.227217095424155
0.2365383842034302
0.2331385173996355
0.2251948759448899
0.2279428774554522
0.2365730545404492
0.2308249122048864
0.2560354570948583
0.2311938061537051
0.2244461026513528
0.2240395956639833
0.2574509483112257
0.2291735075478864
0.2242088546015778
0.2240094183900386
0.2568433321185972
0.2276525100984649
0.2241022667575652
0.2239988445565641
0.2539939978045125
0.226458310150172
0.224020169162412
0.2239955037658456
0.2520202399511266
0.2250683458367015
0.2239977477657509
0.2239952242259381
0.2500085334788878
0.2247513476038709
0.223996860874817
0.2239950459407107
0.2455343710127689
0.2244566879114498
0.2239953271772831
0.2239950334137216
0.2401925208364536
0.2242817680423458
0.223995109673393
0.2239950332612173
0.2239950333699093
0.2239950336979472
0.2240219316034241
0.2277382607323757
0.2239950333704065
0.2239950343328749
0.2240283853691073
0.2294907060060476
0.2239950333721685
0.2239950371315927
0.224056739153947
0.2315875628303649
0.2239950333946447
0.2239950499073844
0.2241222562491465
0.2347100251774659
0.2309860604467065
0.2340818602850537
0.2390622012133781
0.2488979546359202
0.2340818602856378
0.2381173551943484
0.2455747664025777
0.2600340805550163
0.2390622012136719
0.2455747664023154
0.2575888740372225
0.2748616793179531
0.24889795463657
0.2600340805538807
0.2748616793190453
0.292812815671552
0.3104166948929709
0.2953225629892417
0.2891128748763586
0.2745363361530357
0.3072131522345946
0.3028631212074184
0.3034058357198483
0.2963689932569437
0.3073449352809335
0.3059055322273334
0.3051217762303393
0.3025787220221576
0.3028576111577815
0.3020909307489814
0.3018049616768317
0.3000916833363289
0.2950240588212122
0.2917401471221761
0.2853881428040939
0.2766609274326882
0.2958574914557031
0.2924022509460308
0.2858384180532926
0.2774974326192062
0.2966769404081193
0.2929358442582439
0.285925136302459
0.2782979031225766
0.2970754220474899
0.2928005732235991
0.2862005514682245
0.2758410622894874
0.2263160401318744
0.2042670077072629
0.2017444118915639
0.2026248840946176
0.211521036905391
0.1977466360100629
0.1990277001127218
0.2006370327998059
0.1993451680504945
0.1972927016646873
0.200014499406313
0.2014855234654064
0.1809417614594253
0.1925853642962579
0.197857718368076
0.199910155017634
0.202325242609436
0.2029379671924851
0.204625641904039
0.2066685140663199
0.2009344959192518
0.2018167668043058
0.203763583725404
0.2063169451433529
0.2016265225228773
0.2022706335279884
0.2039852131432173
0.2060234299804919
0.2003334034141521
0.201178565082998
0.2033035086206553
0.2060924600026043
0.2180899939706412
0.2812251361791883
0.3614448088265848
0.3822064952494613
0.2229329136951086
0.2927336099127094
0.3544351036720601
0.3674467828707754
0.2263447284227313
0.2975610080199008
0.351779646309427
0.3643077405442022
0.22837201695357
0.3061295993941453
0.3524202862298168
0.3640318513514396
0.4398968750752233
0.4300650698149953
0.4215541100199298
0.4060838325590327
0.4369340659359284
0.4303672927651368
0.4218066401145967
0.4064951531408155
0.4312652539143836
0.4288334191905259
0.4202847938687843
0.4055023600281945
0.422395442475349
0.4303389179984806
0.4216463801114195
0.4068338628348587
0.3875009798011981
0.371308514517004
0.3555406743920022
0.3469266118436428
0.3887678862190241
0.3719720419368332
0.3555326447602144
0.3465954344908526
0.3881569137606838
0.3703906069084312
0.354742150111365
0.3453439365063351
0.3906689194523102
0.371721536735169
0.356460443622642
0.3464651933250499
0.3381631792162212
0.3240654534990129
0.300314278201912
0.2623605732125322
0.3387634288882577
0.3267217918172269
0.3038970713296889
0.2701430933762933
0.3380922365798439
0.3272110486764433
0.3035346651274048
0.2700298428805574
0.3396839973461304
0.3305058022802019
0.3044648407166319
0.3119512424015298
0.1731391380636647
0.05034373350232921
0.00891187174539354
0.004212730686987134
0.1365655225698112
0.03448455848458468
0.01027394237062196
0.008104176591806051
0.1037545787050059
0.02499450482059495
0.01089991412780665
0.009786636316619033
0.07437612674636812
0.01516455414713869
0.01060708014955878
0.01059512887407322
0.007180812737284601
0.01439546076109281
0.02016566637029286
0.02856980266025566
0.01249878728595938
0.01872649957604247
0.02471761253303268
0.03400874306278778
0.01535742035945885
0.02183503058775067
0.02993091886224646
0.03977551755060316
0.01757981128642368
0.02469612304516654
0.03513795613320665
0.04478693565168091
0.03597860693120489
0.05195645771218472
0.07156267327397023
0.09542393051109238
0.03896830058182779
0.05280885115137626
0.07024349354492494
0.09111885459102514
0.04275485182359695
0.05287643650278206
0.06805793882411686
0.08778023162703597
0.04171618013686154
0.04958579005928945
0.05995639801993403
0.08264992817395538
0.09972260845841403
0.09878531909655169
0.09918744773910829
0.1010378536872992
0.09008931425316727
0.09155971569451442
0.09365983284448445
0.09517704178761735
0.08610358298268353
0.09010296968303308
0.09206418085741896
0.09461474639268128
0.08127603855274372
0.08658438841932137
0.0891985336355073
0.09399549304049189
0.09891489163648759
0.1032400220079577
0.1060216732318429
0.10698876101266
0.09791345065130326
0.1011867347062295
0.1034640943455444
0.1045902126573291
0.09812567754665305
0.1013573528091706
0.1046579905892696
0.1063073522144757
0.1051231552545268
0.108908812933866
0.1123103252280625
0.1130949283744102
0.1069887610126747
0.104590212657338
0.1063073522144654
0.1130949283744009
0.1060216732318643
0.1034640943455156
0.1046579905892644
0.1123103252280741
0.1032400220079925
0.1011867347063414
0.1013573528094058
0.1089088129338969
0.09891489163678112
0.09791345065133318
0.09812567754684624
0.1051231552545593
0.1010378536876767
0.09918744773924741
0.09878531909668657
0.09972260845853585
0.09517704178767011
0.09365983284460624
0.09155971569453678
0.09008931425328047
0.09461474639292278
0.09206418085775651
0.09010296968309293
0.08610358298283009
0.09399549304063184
0.08919853363560465
0.08658438841949473
0.08127603855288992
0.08264992817417792
0.05995639802029503
0.04958579005956197
0.04171618013710278
0.0877802316272302
0.0680579388242166
0.05287643650305539
0.04275485182399993
0.09111885459120916
0.07024349354516456
0.05280885115165092
0.03896830058208742
0.09542393051123856
0.07156267327424785
0.05195645771233672
0.03597860693162594
0.02856980266043417
0.02016566637038399
0.01439546076102388
0.007180812737229742
0.03400874306295364
0.02471761253317163
0.01872649957603567
0.01249878728597327
0.03977551755077942
0.02993091886245244
0.02183503058773175
0.01535742035945446
0.04478693565184898
0.03513795613329732
0.02469612304521732
0.01757981128643183
0.004212730686902467
0.008911871745233503
0.05034373350189475
0.1731391380632652
0.008104176591804764
0.01027394237055505
0.03448455848434843
0.1365655225698061
0.009786636316619178
0.01089991412775847
0.02499450482058356
0.1037545787050709
0.01059512887404206
0.01060708014950913
0.01516455414710651
0.07437612674636927
0.2623605732125037
0.3003142782018746
0.3240654534980135
0.3381631792165322
0.2701430933756661
0.303897071328679
0.3267217918169142
0.3387634288871098
0.270029842880769
0.3035346651271224
0.3272110486776251
0.3380922365796234
0.3119512424015177
0.304464840715659
0.330505802281043
0.3396839973456403
0.3469266118431309
0.3555406743912301
0.3713085145167555
0.3875009797995591
0.3465954344904211
0.3555326447603266
0.37197204193505
0.3887678862175423
0.3453439365068888
0.3547421501103253
0.3703906069071915
0.3881569137598367
0.3464651933242761
0.3564604436222789
0.3717215367344852
0.390668919451171
0.4060838325581477
0.4215541100197397
0.430065069814686
0.4398968750757563
0.4064951531402393
0.4218066401140937
0.4303672927645676
0.4369340659363982
0.4055023600282117
0.4202847938684962
0.4288334191907484
0.4312652539140553
0.4068338628348631
0.4216463801112866
0.4303389179973433
0.4223954424764432
0.382206495249472
0.3614448088261643
0.2812251361793621
0.2180899939712257
0.3674467828706758
0.3544351036718383
0.292733609912855
0.2229329136956828
0.3643077405441381
0.3517796463092903
0.2975610080199793
0.2263447284233287
0.364031851350489
0.3524202862296885
0.3061295993942271
0.2283720169541929
0.2066685140666757
0.2046256419032595
0.2029379671913221
0.202325242608403
0.2063169451438064
0.2037635837252246
0.2018167668032051
0.20093449591879
0.2060234299810131
0.2039852131429703
0.202270633526955
0.2016265225224654
0.2060924600031169
0.2033035086201604
0.2011785650819358
0.2003334034133248
0.2026248840936765
0.2017444118908387
0.2042670077074685
0.2263160401320872
0.2006370327988893
0.199027700111874
0.1977466360104807
0.2115210369055115
0.2014855234645061
0.2000144994054784
0.197292701665235
0.1993451680505493
0.1999101550167209
0.1978577183670768
0.192585364296805
0.1809417614595787
0.2766609274327036
0.2853881428040518
0.2917401471226171
0.2950240588209163
0.2774974326192989
0.2858384180538487
0.292402250945894
0.2958574914551481
0.2782979031226205
0.2859251363024214
0.2929358442580581
0.2966769404077264
0.2758410622894494
0.2862005514689301
0.2928005732242718
0.2970754220472162
0.3000916833353399
0.3025787220199667
0.2963689932561145
0.2745363361529413
0.301804961674989
0.3051217762294721
0.3034058357179171
0.2891128748752342
0.3020909307477465
0.3059055322258349
0.3028631212056938
0.2953225629871274
0.302857611156545
0.3073449352796124
0.3072131522318491
0.310416694889782
0.149915081596187
0.2006578644758605
0.2185669750582775
0.2235520797454379
0.1465633833283388
0.1988681909431378
0.217418551505539
0.2233523553669641
0.1435235639697096
0.1964071647355306
0.2163007826649179
0.2231149293049541
0.1411688911063334
0.1921316149721945
0.2146288601208303
0.2228456987745712
0.2225128089773357
0.2098485715122031
0.1757858436584344
0.1554766642282594
0.2224898005834584
0.2102828221440363
0.1786600260061255
0.1533134930266837
0.2224888145466231
0.2113251276575914
0.1829367945609287
0.148945513205323
0.2226132064463433
0.2129159693247911
0.1876058935052294
0.1437273717844156
0.2228456987738127
0.2231149293047869
0.2233523553660831
0.2235520797444517
0.2146288601202107
0.2163007826646837
0.217418551504387
0.2185669750571388
0.1921316149725703
0.1964071647350655
0.1988681909433692
0.2006578644762464
0.141168891106396
0.143523563969564
0.146563383328333
0.1499150815965008
)
;

boundaryField
{
    back
    {
        type            empty;
    }
    inlet
    {
        type            calculated;
        value           nonuniform List<scalar> 
16
(
0.2239950333699092
0.2239950333702082
0.2239950333717012
0.2239950333941023
0.223995033259515
0.2239950334139612
0.2239950459401246
0.2239952242250021
0.2239952242259381
0.2239950459407107
0.2239950334137216
0.2239950332612173
0.2239950333699093
0.2239950333704065
0.2239950333721685
0.2239950333946447
)
;
    }
    front
    {
        type            empty;
    }
    top
    {
        type            calculated;
        value           nonuniform List<scalar> 
40
(
0.2239955037658757
0.2239988445563274
0.2240094183900316
0.2240395956636895
0.2241532014605881
0.2243777876542854
0.2247180623238811
0.2251948759450479
0.2257495316427487
0.2263070223800128
0.2268586810096848
0.2272747205729317
0.2275322618884938
0.2274951657052124
0.2269978494522232
0.2268111768301373
0.2267524689499011
0.2257541852294273
0.2261775815009007
0.2277763450642785
0.2312646648096355
0.237372797797145
0.2469826226991743
0.2586682266633548
0.2688485206636194
0.2674712391758644
0.2634550659218762
0.2581469146205402
0.2537300675038283
0.2465605851169529
0.2410506339863246
0.2363160203172715
0.2320722363668474
0.2291994475694352
0.2272666050993661
0.2262496222883969
0.2244899599275023
0.2234647375105038
0.2234194713845938
0.2235311337147199
)
;
    }
    outlet
    {
        type            calculated;
        value           uniform 0.2239950333699093;
    }
    bottom
    {
        type            calculated;
        value           nonuniform List<scalar> 
40
(
0.2235311337139108
0.2234194713829783
0.2234647375096815
0.2244899599272339
0.2320722363672863
0.2291994475691954
0.2272666050997063
0.2262496222888842
0.2363160203176369
0.2410506339859548
0.2465605851177645
0.2537300675046496
0.2688485206645552
0.2674712391757463
0.2634550659213338
0.2581469146205201
0.2586682266649138
0.246982622699369
0.2373727977981006
0.2312646648096039
0.2267524689495655
0.2257541852303127
0.2261775815023624
0.2277763450645941
0.2268111768302794
0.2269978494518984
0.2274951657060453
0.2275322618886002
0.2272747205735114
0.2268586810088904
0.2263070223800773
0.2257495316421892
0.2241532014604813
0.2243777876541747
0.2247180623247471
0.2251948759448899
0.2240395956639833
0.2240094183900386
0.2239988445565641
0.2239955037658456
)
;
    }
    wall
    {
        type            calculated;
        value           nonuniform List<scalar> 
104
(
0.3104166948929709
0.3072131522345946
0.3073449352809335
0.3028576111577815
0.2970754220474899
0.2928005732235991
0.2862005514682245
0.2758410622894874
0.1809417614594253
0.1925853642962578
0.197857718368076
0.1999101550176339
0.2003334034141521
0.201178565082998
0.2033035086206553
0.2060924600026043
0.22837201695357
0.3061295993941453
0.3524202862298168
0.3640318513514396
0.422395442475349
0.4303389179984806
0.4216463801114195
0.4068338628348587
0.3906689194523102
0.371721536735169
0.356460443622642
0.3464651933250499
0.3396839973461304
0.3305058022802019
0.3044648407166319
0.3119512424015298
0.07437612674636812
0.01516455414713869
0.01060708014955878
0.01059512887407322
0.01757981128642368
0.02469612304516654
0.03513795613320665
0.04478693565168091
0.04171618013686154
0.04958579005928945
0.05995639801993403
0.08264992817395538
0.08127603855274372
0.08658438841932137
0.0891985336355073
0.09399549304049187
0.09891489163648759
0.1032400220079577
0.1060216732318429
0.10698876101266
0.1069887610126747
0.1060216732318643
0.1032400220079925
0.0989148916367811
0.09399549304063183
0.08919853363560465
0.08658438841949473
0.08127603855288992
0.08264992817417792
0.05995639802029503
0.04958579005956197
0.04171618013710278
0.04478693565184898
0.03513795613329732
0.02469612304521732
0.01757981128643183
0.01059512887404206
0.01060708014950913
0.01516455414710651
0.07437612674636927
0.3119512424015177
0.304464840715659
0.330505802281043
0.3396839973456403
0.3464651933242761
0.3564604436222789
0.3717215367344852
0.390668919451171
0.4068338628348631
0.4216463801112866
0.4303389179973433
0.4223954424764432
0.364031851350489
0.3524202862296884
0.3061295993942271
0.2283720169541929
0.2060924600031169
0.2033035086201604
0.2011785650819358
0.2003334034133249
0.1999101550167209
0.1978577183670769
0.192585364296805
0.1809417614595787
0.2758410622894494
0.2862005514689301
0.2928005732242718
0.2970754220472162
0.302857611156545
0.3073449352796124
0.3072131522318491
0.310416694889782
)
;
    }
}


// ************************************************************************* //
