/*--------------------------------*- C++ -*----------------------------------*\
  =========                 |
  \\      /  F ield         | OpenFOAM: The Open Source CFD Toolbox
   \\    /   O peration     | Website:  https://openfoam.org
    \\  /    A nd           | Version:  11
     \\/     M anipulation  |
\*---------------------------------------------------------------------------*/
FoamFile
{
    format      ascii;
    class       volVectorField;
    location    "0.359237";
    object      U;
}
// * * * * * * * * * * * * * * * * * * * * * * * * * * * * * * * * * * * * * //

dimensions      [0 1 -1 0 0 0 0];

internalField   nonuniform List<vector> 
880
(
(24.99999999999999 -2.806290637249597e-12 0)
(24.99999998203183 -1.21747776579433e-08 0)
(24.99829021392905 -0.0005554022413714372 0)
(24.71736099155727 0.007624710631203332 0)
(24.99999999998872 -2.831474812090317e-11 0)
(24.99999994445427 -7.039988588234141e-08 0)
(24.99747954463346 -0.001722102823108775 0)
(24.63269430981712 -0.1593360521037469 0)
(24.99999999963697 -2.437893514454929e-10 0)
(24.99999976102305 -2.871924909995554e-07 0)
(24.9951454879481 -0.003584505314449471 0)
(24.51359992408211 -0.264484555798206 0)
(24.99999999829957 1.052147495374083e-09 0)
(24.9999988181946 -1.167870780350288e-06 0)
(24.98908570297152 -0.007016830246843119 0)
(24.13724286330987 -0.4137218509538057 0)
(25.0000000111903 -4.114248540535464e-09 0)
(24.99999998001881 8.778393583679873e-09 0)
(24.99999953213299 -9.298682116627207e-07 0)
(24.99999314126271 -1.184395321099533e-05 0)
(24.9999937678824 -4.448752436793107e-06 0)
(24.99996304590194 -1.867026065689022e-05 0)
(24.999855890095 1.067132246824805e-05 0)
(25.00017477386065 -0.001107691452323224 0)
(24.97171054892658 -0.01019840799964928 0)
(24.95164271692044 -0.006360490658149001 0)
(24.92414622444572 0.01073093789393079 0)
(24.91407725369726 -0.0668346435366392 0)
(23.40263863033559 -0.09542169149011485 0)
(22.69017028734989 0.6348512290735873 0)
(22.26855110930223 1.335028319807666 0)
(22.2442987982542 1.746229982195928 0)
(24.99988402659872 -6.197234676486176e-06 0)
(24.9996066133155 -0.0003640900842332191 0)
(24.99925374436161 -0.001529070540576391 0)
(24.99747567474062 -0.004522268274793568 0)
(24.9980187492866 -0.0006931076539858033 0)
(24.99019674051463 -0.000353567485026515 0)
(24.97715014600947 0.005493428448099879 0)
(24.95441914147129 0.008911119326950233 0)
(24.75585998553092 -0.01080210878109755 0)
(24.63017672656804 0.09839513315344797 0)
(24.46164952160016 0.2785206043332066 0)
(24.31834459416926 0.4062589891059106 0)
(21.98166874797113 2.34070958610117 0)
(21.98732280561635 2.779774120373567 0)
(21.88511841015433 3.317364066531881 0)
(22.3392557807065 3.758412675899607 0)
(23.38567312737304 4.323117067762922 0)
(24.11422216174197 4.173025320753832 0)
(24.45809646591664 3.766270404788904 0)
(24.81732807773093 3.31663709381299 0)
(24.07885655782563 0.7464005047274307 0)
(24.09385530817755 1.104403954309135 0)
(24.1961152090256 1.349490850926716 0)
(24.38213121405305 1.475563136729126 0)
(24.87564007350024 0.03529376151960802 0)
(24.77190145385278 0.1155050708865403 0)
(24.67953803370312 0.2412743402604553 0)
(24.63421254327539 0.394558583546169 0)
(24.98787362600199 -0.01055579262192922 0)
(24.97236267923829 -0.02426029243350483 0)
(24.95024660921964 -0.04404417511135549 0)
(24.92405070364608 -0.07056241498925062 0)
(24.90149040048457 -0.1010176714720746 0)
(24.88771024070278 -0.1311322886784159 0)
(24.88284540221774 -0.1445281778403394 0)
(24.88832643524426 -0.1379824037790293 0)
(24.63263547659876 0.5574773121543083 0)
(24.67445534491951 0.7120273630043377 0)
(24.76092068372891 0.8382273422608001 0)
(24.8766900173516 0.892571856123014 0)
(24.54953746224089 1.60877607769706 0)
(24.75257692193853 1.654947832165755 0)
(24.94052508910718 1.627185288808704 0)
(25.09323182009481 1.555469244394345 0)
(24.99115117191463 2.905794021242929 0)
(25.17872673828385 2.489600161117903 0)
(25.29112378597625 2.094359420245557 0)
(25.36345206917307 1.778076822990419 0)
(25.42831364663208 1.377472068419747 0)
(25.24435025871899 1.453734219752923 0)
(24.99915867259352 0.9127421276065263 0)
(24.89607404876819 -0.1212265784784345 0)
(24.54804194229181 1.559499539752053 0)
(25.34338437570312 1.289320338930164 0)
(25.14340333610729 0.8617820221130539 0)
(24.90333208727791 -0.09618335831933345 0)
(19.1544268210462 1.728677883976427 0)
(25.15904699603535 1.297219100028992 0)
(25.25814692885774 0.751763806981995 0)
(24.91621885184793 -0.08053483701306674 0)
(14.12713648914642 2.095959474485933 0)
(23.70233212540595 1.628800679829721 0)
(25.27711821426915 0.7747444544622246 0)
(24.94896349851013 -0.09185136531996788 0)
(24.95453112568394 -0.06679596186566468 0)
(25.21733329761944 0.7182261571178192 0)
(22.05147868900002 2.269353635007544 0)
(12.48984719338089 3.860303502421797 0)
(24.83136517820895 -0.08882925827953987 0)
(24.99459714274391 0.8082413499597565 0)
(20.60600106058036 3.314561478910774 0)
(12.79857896683256 5.640552516742472 0)
(24.78950578309573 -0.1158515018335713 0)
(24.47444894559047 1.156904777956505 0)
(18.82496603565612 4.649480621298108 0)
(12.6475243683911 7.078642572463304 0)
(24.6983160391624 -0.1634669617404625 0)
(23.5993438199851 1.928818459694262 0)
(17.5877602067757 6.058372520583599 0)
(13.13583137916749 8.144177123000388 0)
(14.04754555333458 8.85572635304267 0)
(16.96791885974297 7.293798116665376 0)
(22.43003015212602 3.156633574229637 0)
(24.51831659036051 -0.1864962439718487 0)
(15.13573083038111 9.393292194382076 0)
(17.24087634590582 8.219377253958202 0)
(21.21729559748987 4.641944466797137 0)
(24.19844613157546 -0.07129786371372568 0)
(16.37659070194498 9.684263045262718 0)
(18.11055366307234 8.754313064027651 0)
(20.707551586659 5.995925038527731 0)
(23.69388191688422 0.2364199369277165 0)
(17.54806408523444 9.756785715529594 0)
(19.39762519664993 8.854125421376413 0)
(20.87608698425137 7.03598079457984 0)
(23.1962742758697 0.7229196818877224 0)
(22.9109761959886 0.8509669998440076 0)
(22.04903628790902 7.091147019632605 0)
(21.12109319514576 8.806651184750059 0)
(18.96386048161057 9.897791329344605 0)
(23.45621669566961 0.6463871305516961 0)
(23.50851236090484 6.648122131022668 0)
(23.10798515201517 8.415242994061902 0)
(20.9070663229618 9.810493329644208 0)
(24.04000366480516 0.3441185886779802 0)
(24.93162711796016 5.875075553953813 0)
(25.19364648102556 7.620150727856362 0)
(23.44735933661706 9.238277237229665 0)
(24.51868765813929 -0.2494403881532245 0)
(26.06332851657248 4.606850343608595 0)
(27.16639054886053 6.226688257514867 0)
(26.4006018797712 7.616388877944511 0)
(24.88419757970915 -0.3075628921326936 0)
(26.92926467756738 3.628092741630764 0)
(29.04979989102946 4.804324840869071 0)
(30.68346956800663 4.759030116317968 0)
(25.30047165090338 -0.4989515468935716 0)
(27.49766318884737 2.601741022667131 0)
(30.1108537186498 3.390623619365628 0)
(34.00252005765395 0.7046223883776113 0)
(25.54327710402343 -0.5425589615442317 0)
(27.54996491144308 1.647316446801232 0)
(30.83477905930243 1.256059220493552 0)
(36.34819396416923 -4.253928860546514 0)
(25.65369622283984 -0.5437388022696958 0)
(27.22446008024105 1.022790172202003 0)
(30.31238459888821 -0.3107798551384749 0)
(37.77939929412656 -9.251955045280731 0)
(34.01920792929238 -7.328082606436937 0)
(29.13041084042647 -1.417312891649966 0)
(26.94233469351109 0.3554870579240927 0)
(25.69371735926006 -0.5467517040742982 0)
(25.63450132777657 -3.215025422393148 0)
(28.24646953333028 -1.936571793615701 0)
(26.64811454798856 -0.1001454248525387 0)
(25.62905787941045 -0.4720573579800238 0)
(23.08907069670306 -3.612735006436101 0)
(27.75006628958418 -2.84173054346402 0)
(26.39350226169424 -0.559432841696397 0)
(25.5062707627703 -0.3592922016584921 0)
(19.90314041309663 -3.659485935018162 0)
(26.9778343399783 -3.450134086605377 0)
(26.04931192599668 -0.9532395819693622 0)
(25.38980057384141 -0.2751081405434749 0)
(18.08529839829783 -4.760146874096954 0)
(25.72429469570271 -4.39114616152511 0)
(25.48602015418943 -1.289827022351586 0)
(25.18022015154082 -0.2156715277836744 0)
(15.43326270082543 -6.813609481870321 0)
(24.08649750746995 -4.63506421830605 0)
(24.89652174449278 -1.125739950759781 0)
(25.00123664876677 -0.1079271999318851 0)
(14.37828953822562 -6.976655315142666 0)
(23.02532521138347 -4.048550775232187 0)
(24.65192859036229 -0.7359123958326531 0)
(24.97081067464952 -0.04913600250956813 0)
(14.33665311543814 -5.861271065519892 0)
(22.80033263627263 -3.600481394960749 0)
(24.67303574558271 -0.6014582100714587 0)
(24.97608463376029 -0.03607972060499205 0)
(14.22225684081964 -0.6632534938947908 0)
(20.34303080903483 -0.1132504623699856 0)
(23.64825063426372 0.01057935568595451 0)
(24.85559245887415 0.001982458362268287 0)
(14.20384045282681 -1.755747772424575 0)
(20.3396734206622 -0.5378081458797157 0)
(23.66316364017087 0.0006297951954267486 0)
(24.85253554875083 0.004365025115508079 0)
(14.41815748956892 -3.256070251935616 0)
(20.34758673768433 -0.9879146880472447 0)
(23.70248579745053 -0.07175908062254467 0)
(24.8517855355632 0.0002501903076075297 0)
(14.46996875097601 -4.649570983941108 0)
(20.55618580758457 -1.352446273504389 0)
(23.80222119197075 -0.1947201861558127 0)
(24.86017196250052 -0.01139069664071173 0)
(14.3366531154486 5.861271065497681 0)
(22.80033263629911 3.600481394953544 0)
(24.67303574570818 0.6014582100246528 0)
(24.97608463387179 0.03607972058562772 0)
(14.37828953823166 6.97665531510572 0)
(23.02532521147244 4.048550775285916 0)
(24.65192859043904 0.7359123958178877 0)
(24.97081067478238 0.04913600255578768 0)
(15.43326270086653 6.813609481888955 0)
(24.08649750748898 4.635064218344612 0)
(24.89652174448265 1.125739950804006 0)
(25.00123664878983 0.1079271999822068 0)
(18.08529839832721 4.76014687410008 0)
(25.72429469583594 4.391146161599733 0)
(25.48602015421229 1.289827022386231 0)
(25.18022015151743 0.2156715278315166 0)
(25.6937173592292 0.5467517040159114 0)
(26.94233469351111 -0.3554870579581933 0)
(29.13041084045684 1.417312891642454 0)
(34.01920792921806 7.32808260656505 0)
(25.62905787942413 0.472057357928906 0)
(26.64811454799607 0.1001454248452437 0)
(28.24646953340785 1.936571793622765 0)
(25.63450132786171 3.215025422498689 0)
(25.50627076269813 0.3592922016120673 0)
(26.39350226162 0.559432841721244 0)
(27.75006628966931 2.841730543596668 0)
(23.08907069662417 3.612735006478248 0)
(25.38980057373562 0.2751081405226095 0)
(26.04931192592008 0.9532395819408049 0)
(26.97783433999732 3.450134086682582 0)
(19.90314041318089 3.659485935049491 0)
(37.77939929413596 9.251955045416109 0)
(30.31238459886546 0.3107798551329535 0)
(27.22446008023839 -1.022790172208584 0)
(25.65369622281159 0.5437388022221071 0)
(36.34819396418031 4.25392886059586 0)
(30.8347790593469 -1.256059220452383 0)
(27.54996491147212 -1.647316446807271 0)
(25.54327710404518 0.5425589615572844 0)
(34.00252005767548 -0.7046223883361669 0)
(30.11085371853995 -3.39062361934088 0)
(27.49766318885981 -2.601741022642273 0)
(25.30047165076319 0.4989515469621156 0)
(30.68346956795332 -4.759030116296364 0)
(29.04979989106518 -4.804324840838586 0)
(26.92926467769738 -3.628092741606478 0)
(24.88419757956241 0.3075628922202181 0)
(22.91097619590292 -0.850966999824874 0)
(22.04903628784835 -7.091147019636113 0)
(21.12109319509762 -8.806651184751313 0)
(18.96386048163692 -9.897791329348964 0)
(23.45621669565753 -0.6463871305073371 0)
(23.50851236091189 -6.648122131018275 0)
(23.1079851519505 -8.415242994037985 0)
(20.90706632299209 -9.810493329653136 0)
(24.04000366484356 -0.3441185886577994 0)
(24.93162711798935 -5.875075553963495 0)
(25.19364648097486 -7.620150727826224 0)
(23.44735933661363 -9.238277237216513 0)
(24.51868765809202 0.2494403882227728 0)
(26.06332851664944 -4.606850343587699 0)
(27.16639054889048 -6.226688257486578 0)
(26.40060187972919 -7.616388877928109 0)
(17.5480640852567 -9.756785715536486 0)
(19.39762519668755 -8.854125421404349 0)
(20.87608698421257 -7.035980794577358 0)
(23.19627427573917 -0.7229196819040874 0)
(16.37659070198275 -9.684263045283581 0)
(18.11055366312037 -8.754313064046706 0)
(20.70755158664164 -5.995925038535942 0)
(23.69388191685819 -0.2364199369245307 0)
(15.13573083039113 -9.393292194395281 0)
(17.24087634598149 -8.219377253969251 0)
(21.21729559751152 -4.641944466771863 0)
(24.19844613147495 0.07129786372070497 0)
(14.04754555336712 -8.855726353045359 0)
(16.96791885974961 -7.293798116634726 0)
(22.43003015204022 -3.156633574195782 0)
(24.51831659035244 0.1864962439734739 0)
(24.95453112572522 0.06679596188840711 0)
(25.21733329764615 -0.7182261570922297 0)
(22.05147868901124 -2.269353635019725 0)
(12.48984719343356 -3.86030350243136 0)
(24.83136517812155 0.08882925827783887 0)
(24.99459714274206 -0.8082413499161968 0)
(20.60600106060653 -3.314561478911179 0)
(12.79857896687706 -5.640552516767095 0)
(24.78950578294755 0.1158515018269692 0)
(24.47444894544882 -1.156904777891922 0)
(18.82496603571685 -4.649480621277059 0)
(12.64752436842737 -7.07864257247368 0)
(24.69831603911348 0.1634669617436441 0)
(23.59934381997197 -1.92881845961521 0)
(17.58776020685358 -6.058372520564313 0)
(13.13583137917462 -8.144177123000068 0)
(24.94896349848607 0.09185136533378072 0)
(24.91621885188297 0.08053483702569622 0)
(24.9033320871958 0.09618335834896133 0)
(24.89607404875941 0.1212265784747977 0)
(25.27711821434859 -0.7747444544637033 0)
(25.2581469289265 -0.7517638069729367 0)
(25.14340333600035 -0.861782022099138 0)
(24.99915867258706 -0.9127421276227929 0)
(23.70233212550883 -1.628800679849428 0)
(25.15904699606318 -1.297219100034059 0)
(25.34338437576684 -1.289320338943327 0)
(25.24435025874662 -1.453734219745779 0)
(14.12713648922239 -2.095959474491143 0)
(19.15442682111285 -1.728677883972089 0)
(24.54804194223466 -1.559499539724581 0)
(25.42831364662385 -1.377472068394137 0)
(24.88832643518995 0.137982403786229 0)
(24.87669001727398 -0.8925718561014583 0)
(25.09323182008453 -1.555469244369198 0)
(25.36345206924697 -1.778076822943335 0)
(24.88284540228656 0.1445281778211198 0)
(24.76092068370301 -0.8382273422539944 0)
(24.94052508918585 -1.627185288790475 0)
(25.29112378601501 -2.094359420205899 0)
(24.88771024069023 0.1311322886690958 0)
(24.67445534491457 -0.7120273629523038 0)
(24.75257692194218 -1.654947832174618 0)
(25.17872673833699 -2.489600161117716 0)
(24.90149040053828 0.1010176713911717 0)
(24.6326354766488 -0.5574773121331476 0)
(24.54953746227405 -1.608776077694518 0)
(24.99115117192776 -2.90579402123404 0)
(24.9878736260055 0.01055579253679392 0)
(24.8756400736076 -0.03529376142577943 0)
(24.07885655785868 -0.7464005047203044 0)
(23.38567312739561 -4.323117067745441 0)
(24.97236267924724 0.02426029231754448 0)
(24.77190145392857 -0.1155050708151808 0)
(24.09385530821907 -1.104403954275355 0)
(24.11422216181898 -4.17302532076556 0)
(24.95024660910759 0.04404417508441957 0)
(24.67953803385738 -0.2412743401898534 0)
(24.19611520906835 -1.349490850927434 0)
(24.45809646605814 -3.766270404842945 0)
(24.92405070366395 0.07056241492112207 0)
(24.63421254328337 -0.3945585834924725 0)
(24.38213121416571 -1.475563136696302 0)
(24.8173280777815 -3.316637093837985 0)
(22.33925578073185 -3.758412675887369 0)
(24.31834459414132 -0.4062589891087304 0)
(24.95441914154301 -0.008911119232139254 0)
(24.99747567473135 0.004522268261528747 0)
(21.88511841018925 -3.317364066516739 0)
(24.46164952158869 -0.2785206043372548 0)
(24.97715014607291 -0.005493428410123019 0)
(24.99925374439455 0.001529070509552293 0)
(21.98732280569048 -2.779774120367072 0)
(24.63017672662691 -0.09839513315937898 0)
(24.99019674067347 0.0003535674920323581 0)
(24.99960661327529 0.0003640899625657392 0)
(21.9816687479466 -2.340709586081747 0)
(24.75585998560547 0.01080210877359844 0)
(24.9980187493632 0.0006931076691377292 0)
(24.99988402663989 6.197248943182931e-06 0)
(22.24429879823592 -1.746229982181701 0)
(24.91407725368444 0.0668346435411413 0)
(25.00017477389947 0.001107691471609849 0)
(24.99999314123308 1.184399644463199e-05 0)
(22.26855110925065 -1.335028319794595 0)
(24.92414622445779 -0.01073093789711059 0)
(24.99985589012351 -1.067132330565716e-05 0)
(24.99999953209123 9.298774818656089e-07 0)
(22.69017028719697 -0.6348512290824002 0)
(24.95164271694737 0.00636049064925619 0)
(24.99996304590961 1.867025140785778e-05 0)
(24.99999998004261 -8.823810704494798e-09 0)
(23.40263863010017 0.09542169144308055 0)
(24.97171054900065 0.01019840799436549 0)
(24.99999376803545 4.448765494379855e-06 0)
(25.00000001114298 4.117416942214089e-09 0)
(25.00000000000002 5.955117292608853e-12 0)
(24.99999998201898 1.215806814478279e-08 0)
(24.99829021392229 0.0005554022234728766 0)
(24.71736099152548 -0.00762471047447854 0)
(24.99999999997173 4.182508976824217e-11 0)
(24.99999994453042 7.03764134701543e-08 0)
(24.99747954458036 0.001722102800728796 0)
(24.63269430965547 0.1593360521744059 0)
(24.99999999962681 2.564961818908391e-10 0)
(24.99999976109916 2.871961895405848e-07 0)
(24.99514548796927 0.003584505301095621 0)
(24.51359992373114 0.2644845557288063 0)
(24.99999999828481 -1.02625584064025e-09 0)
(24.99999881823999 1.167883434915946e-06 0)
(24.98908570297708 0.007016830236554655 0)
(24.13724286302187 0.4137218508980813 0)
(24.52527289731156 1.098685790267363e-10 0)
(24.35979489219162 0.1495548776571178 0)
(23.97404632800231 0.1736328598469399 0)
(23.03855247950562 0.01871699737808205 0)
(24.35979489240812 -0.1495548774401943 0)
(24.08843562559812 4.096681781543645e-11 0)
(23.40957477881072 -0.06031091636506682 0)
(21.96066738516453 -0.4863800779890297 0)
(23.97404632844431 -0.1736328597540084 0)
(23.40957477917151 0.06031091644103052 0)
(22.12862042299069 6.328825296577529e-11 0)
(20.03096346634634 -0.5819753090528987 0)
(23.03855247988555 -0.01871699739869223 0)
(21.96066738573435 0.4863800779316542 0)
(20.03096346661323 0.5819753090062559 0)
(17.78919133333911 -2.400772107241773e-10 0)
(17.25878831016963 2.521584875601551 0)
(17.89935459097143 2.917349905326344 0)
(19.54339933296729 2.655844048132286 0)
(21.08693949159599 1.887815640630212 0)
(18.24491376101797 4.246788283218899 0)
(18.30812836982231 4.203002917472291 0)
(19.04066179542345 4.114781469735552 0)
(20.07398013351173 3.952547381418186 0)
(17.68386050205888 5.193200992237761 0)
(18.85057744912837 4.491073404305095 0)
(19.52792620352073 4.691879179239813 0)
(20.05233852954207 4.563749883499956 0)
(18.3352558046674 5.754219753764308 0)
(19.70555821905837 4.717194218146206 0)
(20.20571828315694 4.891232937137103 0)
(20.49070276921823 4.805574495305814 0)
(20.79096710550722 4.932705916567311 0)
(21.02925940486715 5.061731090897387 0)
(21.40435286133064 5.120579204128077 0)
(22.16084979329583 5.280348495220515 0)
(20.72900459260137 4.99424740884214 0)
(21.03869094230197 5.10156980661076 0)
(21.53836882036694 5.117413048928072 0)
(22.65128702128113 5.50067154795473 0)
(20.47284913622645 4.931259063450455 0)
(20.9734398190838 5.105922727168342 0)
(21.55536693869033 5.158190607814819 0)
(24.10136978437785 5.943006934592412 0)
(18.97617054613693 5.85111994233741 0)
(19.59933117180864 5.875947757124585 0)
(20.50317499649623 5.734758451866664 0)
(25.83118943820175 7.125897862119491 0)
(25.81525403825263 3.18758202941202 0)
(26.40945148148777 0.809034934848015 0)
(25.72185638502133 0.4870791095956498 0)
(25.59509827907286 0.3820585100881083 0)
(28.37610627874581 2.198782478838641 0)
(28.69592324587448 0.3397476974055653 0)
(27.56801966991877 0.2832497154369853 0)
(26.89269668362157 0.3137578610760969 0)
(31.54902057849739 1.904715408382714 0)
(30.14995105330572 0.04577662941580635 0)
(28.75773767222142 0.05144592351926515 0)
(27.77933210915988 0.09386628017081182 0)
(25.07990657939319 1.9879333159079 0)
(24.21747490827931 0.6522717178756977 0)
(24.07232465646472 0.08970246636887874 0)
(24.15978667350803 -0.2164446658742371 0)
(25.66542935466217 0.38677345380645 0)
(25.71344191244106 0.3198131327659867 0)
(25.70095868993896 0.2051379190062546 0)
(25.65343529941215 0.1716682655780966 0)
(26.53712528003474 0.3417377688397042 0)
(26.22460307835181 0.291514228159919 0)
(25.94663601036842 0.1915945974971318 0)
(25.7212760239223 0.1306865703970051 0)
(27.15030373236298 0.1478463965288936 0)
(26.5922496804616 0.1471934874283777 0)
(26.09881256148771 0.09830331461830444 0)
(25.66598622581918 0.08514168513719934 0)
(24.13124206324507 -0.4622503166015623 0)
(23.90332296375323 -0.6207339169810686 0)
(23.70232540313476 -0.7154384947260336 0)
(23.36994574334719 -0.6662485715340305 0)
(25.2055332003553 0.7717217089064148 0)
(20.0924101460972 5.098298912053319 0)
(13.71995082590871 3.924530014131643 0)
(9.345212810938472 1.059324753196221 0)
(24.62760338573182 1.255370651893583 0)
(16.07226524057745 4.951620798898126 0)
(8.863807846897927 2.740825273576712 0)
(4.471036174174366 -0.1764377667181465 0)
(23.43568423865706 1.295053388801726 0)
(11.69333712060865 3.634459615282161 0)
(3.139668452410262 2.029135418250482 0)
(-0.7690278179760278 0.2418308288343347 0)
(19.41396414127879 -0.7286179695340543 0)
(7.302826345010438 -0.7957874721770143 0)
(0.2337195318373994 0.5429987684102714 0)
(-2.595588495107114 0.1743956471678338 0)
(8.569157361904471 2.693897611750347 0)
(10.58536196682839 4.55949897385169 0)
(11.49760854359917 6.280349585365913 0)
(12.4495216394258 7.625634129412789 0)
(6.136687637377639 1.993690221143927 0)
(9.511373160495523 4.411052126298451 0)
(11.20128683009374 6.22622456950535 0)
(12.40431330035595 7.672156802988765 0)
(2.933319755801095 0.01198281867835412 0)
(7.442488404923132 3.331967834749404 0)
(10.2671449961146 6.036196096028225 0)
(12.02122935401237 7.596918948540861 0)
(0.2395621160699959 -0.1062530437863306 0)
(3.470291887397737 2.475989544411256 0)
(7.538057332514664 3.976195072159504 0)
(10.63465756992463 5.463982137487095 0)
(13.63848914915075 8.986488914227667 0)
(14.7705356768388 10.00815125572112 0)
(15.91945106698214 10.56578489214475 0)
(16.81353047020173 10.85599207536583 0)
(13.5581636527614 8.921001838237926 0)
(14.71382798826615 9.954783398934008 0)
(15.82396758256303 10.54167155691086 0)
(16.69639903302593 10.88142063024495 0)
(13.23585737760784 8.764174188868763 0)
(14.51737907663869 9.775721328010286 0)
(15.74209297493256 10.4746253437827 0)
(16.62307068350879 10.96197991009535 0)
(13.11738136863009 6.748233502336227 0)
(14.67204148428927 8.44854599658894 0)
(15.76611681297783 10.30180067565776 0)
(16.6456580930728 10.93921368998771 0)
(17.82792082510751 11.2756849411258 0)
(19.42337616735413 11.76984870013396 0)
(21.77504806422118 11.69322816033168 0)
(24.77797973865824 10.42096343979995 0)
(17.62278049262466 11.27976422981489 0)
(19.07492316570636 11.72985330353925 0)
(21.21153628684809 11.74952368601113 0)
(24.97582552112804 12.47347592430123 0)
(17.47370313782981 11.36885825454704 0)
(18.72297284878731 11.78346078388104 0)
(21.34547346440058 12.58553910267447 0)
(31.4851569331739 18.45884046499111 0)
(17.43735358271857 11.39312303002454 0)
(18.64011785645001 11.79211153904907 0)
(22.06806897164404 13.1748390989157 0)
(43.24394208917341 25.51573720739275 0)
(30.59387975882955 5.261211883929771 0)
(32.03812221978364 -3.582408128293585 0)
(12.65433516040405 8.691246970328377 0)
(7.857717643668 30.840820996431 0)
(32.23135289741163 4.900231738299707 0)
(26.46680810508138 -1.952394706108257 0)
(8.976517735993434 17.41678522360325 0)
(8.448191779624519 29.02684174783516 0)
(31.97400988095812 3.292519029041141 0)
(17.20847273867996 -4.302868285651655 0)
(3.828902584814746 21.328870476598 0)
(4.612001516595636 29.02656521879415 0)
(20.30819298639 -8.299021122494009 0)
(7.328066194623692 -0.5716279433819429 0)
(2.088271016303934 24.81807886203587 0)
(2.64816001291431 28.73394232787413 0)
(7.017512480066293 24.62067779703904 0)
(2.699556844058781 17.69708696689026 0)
(-0.7734117457301608 14.87153064961237 0)
(-2.83309779303407 9.937946428631788 0)
(6.712198061412094 23.57248619965198 0)
(1.915055942010383 19.24744315494658 0)
(-0.4568236349407818 14.98170045670505 0)
(-1.253582117110822 7.687173353394129 0)
(3.278205929245253 22.61475486553078 0)
(1.430405459794076 18.10666987760994 0)
(-0.315395801714777 12.35860752211181 0)
(-0.8159268862318289 4.900433098352933 0)
(0.7861771301686793 22.0387465126852 0)
(-0.454721312179849 17.36656995066176 0)
(-1.909241031768208 10.96803842600067 0)
(-1.738859849710781 3.285188508478423 0)
(-6.073818325464455 3.289744153920539 0)
(-2.016718849964065 0.2621612479989771 0)
(2.428994728660888 -2.420496264155216 0)
(4.457001794910584 -6.632198518148599 0)
(-6.812439788174609 3.051124204210164 0)
(-5.955752154293056 0.3487490387656778 0)
(-1.266756498019505 -0.7973531156532299 0)
(2.679144095678538 -5.575498497785233 0)
(-6.21289775464422 2.126695780762947 0)
(-7.806412965458941 0.6687211822875263 0)
(-4.517909211389272 0.3046609395636954 0)
(0.03244545183608259 -4.08621627669412 0)
(-4.585747544321029 2.184283507517355 0)
(-7.136641092362727 2.668587125077978 0)
(-5.229489727289327 3.07271652763418 0)
(-0.6499270129744162 -1.052228710302155 0)
(2.361382097344406 -6.935597696675708 0)
(2.293292715408974 -7.541105685224132 0)
(3.156925173284292 -7.215764388437447 0)
(4.462982545585909 -6.469146165396176 0)
(1.4657567444558 -6.803512188938648 0)
(1.926638701019119 -6.275238174045812 0)
(3.127035746417719 -5.840683628428077 0)
(3.899679154540048 -4.924373693225819 0)
(0.4567400270167653 -4.750764915746747 0)
(0.6585079096898347 -3.491307235307432 0)
(1.655343421251374 -3.003649367777674 0)
(2.137345316800021 -1.923661411774962 0)
(1.658881799298741 -1.986347538854181 0)
(1.311105057826025 -0.7525016647208966 0)
(1.87704591675401 -0.312292830078976 0)
(1.65319971831569 0.6367123999251046 0)
(0.7800773158281272 1.147317917696088 0)
(-0.03299461626045119 1.284713464098228 0)
(-0.6587127904439325 0.9682845271740883 0)
(-0.9813057657615369 0.3366273714261814 0)
(1.587003078359031 -0.9804403037849835 0)
(0.5863106639465855 -0.4815329008577056 0)
(-0.2570308538640744 -0.05723490056907075 0)
(-0.6750613347523924 -0.0242238163356625 0)
(3.363741135768107 -3.805986756656702 0)
(2.444056547396863 -2.796850433700311 0)
(1.338031704244008 -1.704873296428678 0)
(0.6067298386056662 -0.6385177608729393 0)
(5.10700998653992 -4.816669975593295 0)
(4.969860641183313 -3.302388469065624 0)
(4.187877601989033 -2.022003411713434 0)
(3.720948995490971 -0.7293614377512686 0)
(-0.9813057657638302 -0.3366273714032966 0)
(-0.6750613347524019 0.02422381634544227 0)
(0.6067298386059736 0.6385177608676214 0)
(3.720948995492293 0.7293614377317689 0)
(-0.6587127904479231 -0.968284527154744 0)
(-0.2570308538649804 0.05723490057859557 0)
(1.338031704248396 1.704873296426179 0)
(4.187877602017088 2.02200341169433 0)
(-0.03299461626427068 -1.28471346408498 0)
(0.5863106639450933 0.4815329008648561 0)
(2.444056547396086 2.796850433698379 0)
(4.969860641203838 3.302388469066766 0)
(0.7800773158254597 -1.147317917685219 0)
(1.587003078361613 0.9804403037901165 0)
(3.363741135759105 3.80598675665908 0)
(5.107009986543299 4.816669975602368 0)
(4.462982545566761 6.46914616536891 0)
(3.156925173286521 7.215764388423912 0)
(2.293292715412278 7.541105685213648 0)
(2.361382097358889 6.935597696662198 0)
(3.8996791545397 4.924373693225872 0)
(3.127035746426542 5.840683628421717 0)
(1.926638701035429 6.275238174038535 0)
(1.465756744476792 6.803512188925512 0)
(2.137345316800783 1.923661411772572 0)
(1.655343421254294 3.003649367769542 0)
(0.6585079097007688 3.491307235308069 0)
(0.4567400270304393 4.750764915740853 0)
(1.653199718317191 -0.6367123999210793 0)
(1.877045916761661 0.3122928300833301 0)
(1.311105057835132 0.7525016647279679 0)
(1.658881799307345 1.986347538862096 0)
(-0.6499270129569448 1.052228710304433 0)
(-5.229489727252163 -3.07271652760584 0)
(-7.136641092325971 -2.668587125047055 0)
(-4.585747544293694 -2.184283507508875 0)
(0.03244545185139578 4.08621627669203 0)
(-4.51790921136861 -0.3046609395412752 0)
(-7.806412965401908 -0.6687211822701535 0)
(-6.212897754577638 -2.126695780731464 0)
(2.679144095691795 5.575498497776773 0)
(-1.266756497987479 0.7973531156774122 0)
(-5.955752154222223 -0.3487490387398923 0)
(-6.812439788122814 -3.05112420415855 0)
(4.457001794923279 6.632198518143659 0)
(2.428994728685188 2.420496264176613 0)
(-2.016718849878509 -0.2621612479781349 0)
(-6.07381832536244 -3.289744153849441 0)
(-2.833097793027536 -9.937946428516959 0)
(-0.7734117457878747 -14.87153064961537 0)
(2.699556844096201 -17.6970869671472 0)
(7.017512479792334 -24.6206777971459 0)
(-1.253582117106552 -7.687173353330063 0)
(-0.456823634951749 -14.98170045667582 0)
(1.915055942099209 -19.24744315503177 0)
(6.71219806144361 -23.57248619964482 0)
(-0.8159268862334209 -4.900433098328184 0)
(-0.3153958017193922 -12.3586075220848 0)
(1.430405459820125 -18.10666987764866 0)
(3.278205929262685 -22.61475486553859 0)
(-1.738859849705772 -3.285188508486315 0)
(-1.909241031775156 -10.96803842602306 0)
(-0.4547213121811861 -17.36656995066434 0)
(0.786177130178616 -22.03874651269629 0)
(7.857717643303025 -30.84082099644895 0)
(12.65433516013639 -8.691246970634348 0)
(32.0381222197479 3.582408128343095 0)
(30.59387975885767 -5.261211883919922 0)
(8.448191779475195 -29.02684174784027 0)
(8.976517735942458 -17.41678522380951 0)
(26.46680810512645 1.952394706083676 0)
(32.23135289734943 -4.900231738271686 0)
(4.612001516610983 -29.02656521886181 0)
(3.828902584761335 -21.32887047671467 0)
(17.20847273862872 4.302868285594246 0)
(31.97400988088725 -3.292519029028742 0)
(2.648160012920021 -28.73394232794597 0)
(2.088271016282526 -24.81807886216644 0)
(7.328066194646623 0.571627943317676 0)
(20.30819298638764 8.299021122469314 0)
(24.77797973864634 -10.42096343977961 0)
(21.77504806420333 -11.69322816030263 0)
(19.42337616740048 -11.76984870013533 0)
(17.82792082508554 -11.27568494110912 0)
(24.97582552116244 -12.47347592430563 0)
(21.2115362868901 -11.74952368601158 0)
(19.07492316570577 -11.72985330352283 0)
(17.62278049268057 -11.27976422984198 0)
(31.48515693311148 -18.45884046494475 0)