/*--------------------------------*- C++ -*----------------------------------*\
  =========                 |
  \\      /  F ield         | OpenFOAM: The Open Source CFD Toolbox
   \\    /   O peration     | Website:  https://openfoam.org
    \\  /    A nd           | Version:  11
     \\/     M anipulation  |
\*---------------------------------------------------------------------------*/
FoamFile
{
    format      ascii;
    class       volScalarField;
    location    "13.9";
    object      p;
}
// * * * * * * * * * * * * * * * * * * * * * * * * * * * * * * * * * * * * * //

dimensions      [0 2 -2 0 0 0 0];

internalField   nonuniform List<scalar> 
5472
(
102.44278
100.44589
98.442705
96.466568
94.516389
92.621473
90.77974
89.013752
87.349348
85.793216
84.330347
83.020566
81.797407
80.74472
79.814994
79.060201
78.536152
78.114936
77.880138
103.03078
101.20676
99.33879
97.485565
95.64393
93.827121
92.061714
90.350858
88.708084
87.176958
85.749519
84.419487
83.208497
82.149914
81.210852
80.439924
79.840465
79.37104
79.100376
103.5696
101.89345
100.18526
98.461282
96.731208
95.008178
93.291238
91.638185
90.040106
88.533456
87.120388
85.793783
84.603973
83.521353
82.583968
81.792706
81.165679
80.690924
80.397771
104.05188
102.49657
100.95097
99.37926
97.75631
96.117189
94.477585
92.878914
91.340945
89.85391
88.453805
87.167409
85.960059
84.852816
83.91914
83.112344
82.473611
81.989938
81.687335
104.42826
103.05002
101.64441
100.17993
98.666262
97.12213
95.577469
94.060062
92.556222
91.10941
89.7596
88.470239
87.269234
86.174098
85.226125
84.405994
83.762908
83.265617
82.916828
104.77411
103.54275
102.25836
100.91144
99.507536
98.06375
96.605815
95.14244
93.711182
92.331094
90.976519
89.710894
88.541634
87.448608
86.504949
85.684558
85.035232
84.523702
84.182643
105.04862
103.94256
102.77232
101.55257
100.26231
98.919559
97.542802
96.162069
94.798724
93.453601
92.149046
90.916977
89.744893
88.673225
87.73506
86.919114
86.257823
85.729971
85.385024
105.29904
104.28359
103.21252
102.10757
100.93696
99.700083
98.408347
97.102374
95.809231
94.529794
93.271038
92.05794
90.912868
89.864729
88.921421
88.115357
87.454971
86.942989
86.567712
105.49786
104.56357
103.59966
102.59608
101.51021
100.36377
99.176676
97.96776
96.743336
95.521327
94.313591
93.142036
92.02693
90.998652
90.069185
89.270542
88.601491
88.083318
87.706384
105.63749
104.79488
103.94025
103.03293
102.05313
100.99468
99.87986
98.747447
97.597796
96.443976
95.287146
94.146367
93.069389
92.071101
91.168053
90.383594
89.720657
89.210658
88.815271
105.71715
104.98563
104.21971
103.38096
102.49379
101.53443
100.52061
99.46916
98.39584
97.309626
96.203559
95.108399
94.061451
93.085481
92.203416
91.426689
90.778611
90.266023
89.880714
105.80716
105.16633
104.47657
103.72036
102.89255
101.99459
101.06299
100.09694
99.1112
98.079445
97.039111
96.001554
94.995466
94.06024
93.206361
92.44252
91.799176
91.285453
90.896745
105.84535
105.27728
104.65304
103.99635
103.26803
102.4546
101.58756
100.67869
99.756372
98.789543
97.801981
96.807787
95.85201
94.954572
94.132723
93.391885
92.766519
92.25768
91.86534
105.91954
105.38795
104.81625
104.20192
103.52807
102.80892
102.03265
101.20456
100.34548
99.449806
98.521046
97.578742
96.659037
95.790734
95.001027
94.283754
93.673364
93.171853
92.780052
105.92022
105.47421
104.99277
104.43986
103.81445
103.14214
102.41423
101.65367
100.86065
100.02981
99.158013
98.277352
97.405391
96.579929
95.820442
95.12514
94.531661
94.044781
93.675198
105.9244
105.50335
105.06946
104.59215
104.04415
103.43362
102.77647
102.07937
101.33921
100.55779
99.734914
98.908028
98.079628
97.29465
96.56549
95.896714
95.320273
94.845295
94.474539
105.95008
105.59128
105.19763
104.73916
104.22782
103.66435
103.07072
102.43984
101.76351
101.03052
100.2643
99.486129
98.706309
97.963807
97.263683
96.623395
96.06471
95.609777
95.253405
105.92909
105.62668
105.28301
104.8824
104.42229
103.90359
103.34944
102.76357
102.13462
101.45012
100.73305
99.996549
99.266846
98.55714
97.890827
97.275737
96.73489
96.293665
95.948553
105.95699
105.67191
105.35344
104.98781
104.569
104.09985
103.59457
103.05651
102.47308
101.84057
101.16787
100.47691
99.786698
99.110855
98.47181
97.875652
97.357139
96.924205
96.592158
105.97745
105.73279
105.45007
105.11301
104.71667
104.28049
103.81201
103.30715
102.76213
102.16908
101.53962
100.89424
100.2422
99.607491
98.995828
98.423309
97.921804
97.495943
97.164111
105.98882
105.76749
105.51505
105.21284
104.85689
104.46208
104.03077
103.55991
103.04903
102.48689
101.8877
101.27264
100.64893
100.043
99.461335
98.925182
98.455756
98.058588
97.73826
106.04616
105.84142
105.60123
105.31681
104.98086
104.60716
104.2054
103.77196
103.29761
102.77339
102.21249
101.62067
101.01423
100.41095
99.821299
99.280507
98.808278
98.418308
98.127511
106.06814
105.90326
105.69814
105.44257
105.13516
104.78639
104.40032
103.97896
103.52176
103.02718
102.50492
101.96044
101.4093
100.86638
100.3273
99.814413
99.348149
98.942988
98.617835
106.10692
105.95848
105.77612
105.54955
105.27594
104.95868
104.60034
104.1975
103.74907
103.24687
102.70422
102.13145
101.54565
100.96732
100.41518
99.935255
99.483017
99.135116
98.865503
106.16544
106.03803
105.87649
105.67537
105.42724
105.1361
104.80944
104.45013
104.05265
103.61412
103.13693
102.62263
102.08622
101.52693
100.96535
100.41713
99.952206
99.547436
99.21234
106.19273
106.10188
105.97197
105.79627
105.56657
105.2828
104.94527
104.56096
104.12813
103.65308
103.13955
102.59639
102.03948
101.49108
100.96483
100.46004
100.01135
99.629906
99.33834
106.23026
106.1939
106.11736
106.0005
105.84085
105.62989
105.36395
105.03912
104.65643
104.21918
103.72732
103.18763
102.59442
101.96457
101.34284
100.76091
100.25471
99.827552
99.493598
77.716338
77.771081
77.942672
78.310261
78.77493
79.350085
79.992282
80.755658
81.474612
82.258079
83.061156
83.82174
84.630675
85.359587
86.070904
86.725623
87.236791
87.650056
87.912241
78.958771
79.040117
79.231385
79.615283
80.121439
80.749772
81.441051
82.2571
83.026477
83.896044
84.730145
85.569072
86.373928
87.120662
87.821273
88.438929
88.93822
89.347455
89.598473
80.263394
80.274801
80.515952
80.892247
81.45891
82.117042
82.882369
83.715361
84.579935
85.490771
86.373463
87.251253
88.083424
88.853599
89.575226
90.210435
90.744579
91.196458
91.51001
81.501638
81.527698
81.761119
82.159388
82.769861
83.465919
84.282553
85.155382
86.09511
87.022007
87.943323
88.829977
89.690613
90.478881
91.243069
91.906415
92.519197
93.054754
93.497926
82.737899
82.745876
82.984891
83.44048
84.047852
84.802955
85.654874
86.579756
87.525727
88.477451
89.418005
90.328294
91.206085
92.03978
92.837481
93.569989
94.26533
94.901938
95.495881
83.95813
83.945152
84.221314
84.675294
85.302648
86.106987
86.987362
87.949799
88.906248
89.900156
90.859614
91.789528
92.708079
93.577613
94.42518
95.235904
96.012264
96.779691
97.518025
85.129059
85.149416
85.395948
85.865801
86.543075
87.3755
88.291856
89.270011
90.251296
91.273453
92.241466
93.216489
94.168201
95.082146
95.996269
96.87454
97.751646
98.615451
99.439948
86.300779
86.307676
86.547494
87.069314
87.751769
88.612403
89.552054
90.543193
91.561878
92.597127
93.59473
94.61342
95.58353
96.559858
97.515213
98.458202
99.394108
100.30393
101.15778
87.436048
87.416747
87.673499
88.202387
88.9131
89.799952
90.753193
91.775354
92.815099
93.867484
94.901464
95.937063
96.941746
97.955937
98.935568
99.91865
100.84266
101.75441
102.57308
88.535947
88.498475
88.788511
89.308997
90.056156
90.951187
91.926071
92.968678
94.028543
95.098589
96.151529
97.205645
98.232804
99.255877
100.24206
101.19149
102.08949
102.94669
103.66814
89.582922
89.551714
89.851813
90.359158
91.153332
92.03698
93.04671
94.100141
95.177944
96.257345
97.324217
98.382893
99.410552
100.41206
101.35852
102.2582
103.07912
103.80596
104.40121
90.587575
90.580412
90.862394
91.412016
92.199836
93.09097
94.125641
95.173862
96.271009
97.350845
98.415244
99.455918
100.4509
101.407
102.29861
103.09851
103.78957
104.3628
104.78206
91.548077
91.552002
91.828066
92.399447
93.171775
94.090213
95.124157
96.181323
97.287051
98.340941
99.391581
100.39851
101.34996
102.23128
103.01388
103.69711
104.25229
104.68537
104.98825
92.452001
92.472046
92.751986
93.336137
94.098235
95.041296
96.066064
97.127905
98.204273
99.237403
100.26583
101.20731
102.09079
102.87098
103.53756
104.09304
104.52813
104.8726
105.11331
93.402883
93.355966
93.625939
94.204699
94.971483
95.931053
96.938543
97.996784
99.041329
100.04698
101.00583
101.87661
102.68149
103.3496
103.91309
104.34566
104.6968
104.96986
105.16651
94.187504
94.160887
94.441242
95.019989
95.802226
96.753508
97.737096
98.775058
99.772771
100.72731
101.61899
102.42052
103.11774
103.67509
104.14228
104.46904
104.73801
104.92698
105.03382
94.961127
94.918138
95.205457
95.782115
96.572075
97.494336
98.468352
99.476847
100.41767
101.3173
102.13471
102.84648
103.42487
103.88855
104.24316
104.47075
104.63687
104.65075
104.59192
95.661773
95.619475
95.918907
96.487703
97.268503
98.159186
99.114562
100.06489
100.94985
101.79066
102.51759
103.12587
103.59775
103.96311
104.18647
104.2958
104.30666
104.18837
103.99955
96.307635
96.274371
96.566482
97.121856
97.89651
98.775402
99.706494
100.58944
101.42435
102.18573
102.81301
103.31534
103.67894
103.92698
104.02298
104.02176
103.9236
103.76832
103.57532
96.883063
96.860337
97.141154
97.697238
98.450185
99.291381
100.17662
101.01573
101.79524
102.45698
102.98809
103.38483
103.65118
103.79276
103.80319
103.74598
103.6351
103.52694
103.44675
97.436767
97.390121
97.668416
98.223057
98.964378
99.804354
100.63826
101.41297
102.10194
102.66612
103.11662
103.41433
103.59084
103.65353
103.62895
103.56631
103.50262
103.46341
103.43134
97.871819
97.843854
98.122914
98.656189
99.366374
100.15805
100.95351
101.68428
102.30509
102.80024
103.17209
103.39402
103.50934
103.5365
103.51929
103.49059
103.46485
103.45018
103.41952
98.304361
98.260876
98.53477
99.083669
99.819737
100.5995
101.32451
101.96114
102.50297
102.93187
103.21691
103.38108
103.45165
103.45619
103.44277
103.43135
103.40554
103.35786
103.26598
98.603301
98.575223
98.842628
99.36956
100.04605
100.77762
101.47726
102.12227
102.63768
103.00722
103.24381
103.37273
103.42681
103.45191
103.44412
103.38819
103.30909
103.17143
102.92928
98.898933
98.862371
99.165773
99.751523
100.48164
101.21241
101.86831
102.40934
102.83648
103.12809
103.28872
103.35049
103.34814
103.31227
103.21755
103.07656
102.89645
102.62208
102.26857
99.057423
99.019131
99.312067
99.869461
100.55751
101.26777
101.92043
102.48751
102.90925
103.17411
103.31689
103.39194
103.40031
103.32135
103.15672
102.90777
102.55386
102.11276
101.65732
99.174609
99.159892
99.575505
100.26346
101.03556
101.77669
102.402
102.86289
103.15665
103.29847
103.3172
103.23526
103.06328
102.80377
102.47522
102.07772
101.64438
101.21657
100.82603
87.949926
87.821791
87.463233
86.841714
85.941337
84.750941
83.176551
81.267343
78.947615
76.254317
73.013274
69.493431
65.553336
61.48761
57.820006
54.71583
53.185602
53.666317
56.576581
89.646103
89.574589
89.342953
88.878131
88.254257
87.41846
86.300378
84.88033
83.376132
81.503982
79.238468
76.860342
74.344104
71.934019
69.610571
67.948363
67.101196
67.344641
69.44184
91.6806
91.718204
91.592267
91.258372
90.835315
90.249129
89.354047
88.437531
87.37784
85.906245
84.461953
82.818687
81.0299
79.352308
77.764282
76.610954
76.01939
76.602789
78.267414
93.838523
94.01094
94.034561
93.834216
93.551619
93.17774
92.572282
91.985918
91.224177
90.305685
89.16597
87.807311
86.645144
85.287617
83.840759
82.698647
81.892196
81.846
82.855115
96.011067
96.358329
96.460803
96.39551
96.305509
96.057909
95.755296
95.454592
94.91968
94.136775
93.154447
92.107718
90.772864
89.106102
87.562576
86.084238
84.645796
83.585148
83.006753
98.166877
98.617113
98.801876
98.844017
98.837506
98.729417
98.623822
98.361674
97.899173
97.171256
96.198918
94.885494
93.310429
91.587092
89.403605
86.752434
84.170971
82.053334
80.407402
100.17732
100.66502
100.87188
100.96066
101.01398
101.02985
100.99796
100.81527
100.36247
99.583703
98.531919
97.134121
95.418536
93.012964
89.694558
85.92613
82.103036
78.389577
74.86322
101.89666
102.39061
102.59704
102.75236
102.88186
103.02535
103.06809
102.89552
102.44384
101.75652
100.6337
99.037608
96.673162
93.119765
88.454224
82.979283
76.817971
69.987547
63.010072
103.28328
103.74059
103.96909
104.18048
104.39343
104.61739
104.68511
104.5624
104.20259
103.40022
101.98035
99.9649
96.66373
91.797203
85.980126
79.383765
71.311088
61.611404
50.565209
104.31004
104.69263
104.93114
105.14726
105.39416
105.58645
105.6457
105.54776
105.11577
104.20122
102.7341
100.61618
97.222173
92.612378
87.157107
80.77388
72.94682
63.662522
52.938832
104.89809
105.1978
105.40616
105.57656
105.76213
105.85241
105.84249
105.676
105.18228
104.42468
103.17128
101.44561
98.772972
95.182593
90.749707
85.422655
79.125245
71.983629
64.157838
105.14867
105.39319
105.55232
105.66158
105.76835
105.78892
105.70356
105.50149
105.19723
104.68152
103.74211
102.44261
100.46212
97.714559
94.301041
90.233332
85.607394
80.731635
75.856766
105.28704
105.50939
105.64185
105.7505
105.84977
105.8528
105.7973
105.67132
105.39138
104.7824
104.28294
102.8216
100.90616
98.483443
95.722041
92.774596
89.679139
86.679382
84.263789
105.39746
105.59466
105.69751
105.82832
105.89319
105.86584
105.68881
105.22344
105.10445
104.5174
103.18796
101.23694
98.870379
96.332739
93.869004
91.656184
89.692502
88.010479
86.858728
105.3984
105.52908
105.64659
105.74749
105.72373
105.52704
105.02517
104.58852
103.07483
101.23119
99.070999
96.461876
93.610595
90.740469
88.477327
86.937672
86.077765
86.085133
86.656624
105.10802
105.20666
105.37087
105.4795
105.43356
105.22186
104.54466
103.32231
100.47788
96.703099
92.842777
88.71199
84.646177
80.955369
78.466521
77.863635
78.925952
80.909904
83.191356
104.46044
104.50178
104.62308
104.63394
104.52639
104.2967
103.78677
102.93267
100.8414
96.836765
90.54767
82.950196
74.687617
66.640523
59.612017
55.422823
55.454178
59.615991
66.459491
103.6748
103.63566
103.60158
103.42973
103.06673
102.48538
101.5397
100.04537
97.428489
92.909252
86.620197
79.123331
70.962885
63.517409
57.840557
54.813487
55.412031
59.738394
67.010166
103.32309
103.26137
103.16002
102.95151
102.56624
102.0393
101.2852
100.22179
98.612353
96.198518
92.847319
88.697827
84.109195
79.516994
75.464033
72.581924
71.649859
73.00031
76.2979
103.37902
103.3697
103.35584
103.26111
103.08981
102.83725
102.531
102.04862
101.3336
100.36286
98.943354
97.076378
94.794342
92.139998
89.467614
87.205592
85.598372
85.020296
85.510896
103.51187
103.60144
103.64992
103.64465
103.6747
103.69329
103.69248
103.59909
103.37953
103.00358
102.42828
101.52161
100.19447
98.680902
97.280749
95.859648
94.1521
92.393754
90.98706
103.53527
103.6386
103.6963
103.80718
103.94382
104.07687
104.18226
104.22038
104.29378
104.21986
103.68347
102.62524
101.44131
100.40643
98.965402
96.654089
93.967612
91.277293
88.491027
103.29638
103.36278
103.45027
103.58817
103.71701
103.83067
103.97124
104.0171
103.99298
103.7013
103.15419
102.8208
102.44799
101.31468
99.346642
96.502026
93.460683
90.076675
86.850576
102.7406
102.78144
102.94545
103.05017
103.15168
103.24701
103.33616
103.31151
103.18927
103.20771
102.12646
101.2885
100.60834
99.527503
98.28094
96.757274
95.046507
93.277412
91.681301
101.93564
101.99745
102.1242
102.19068
102.2493
102.25837
102.25733
102.22276
101.91833
101.78299
100.91717
98.773528
97.027058
95.889337
95.194913
94.897437
94.861535
95.099687
95.603658
101.24302
101.1774
101.18876
101.19515
101.17005
101.12099
101.08814
101.01913
100.92294
100.62879
100.18735
99.909969
99.257657
98.292361
97.078713
96.160886
95.822661
96.013192
96.646061
100.47273
100.44117
100.40134
100.3328
100.24046
100.13469
100.01069
99.815199
99.593995
99.231825
98.465457
97.934045
97.399645
96.790733
96.30966
96.121998
96.335019
96.926452
97.802844
62.056043
69.989119
79.235634
88.837453
98.237039
106.10856
112.46351
117.68589
120.31323
120.3648
117.88689
115.13448
112.00023
108.73027
105.70538
102.64869
99.911952
97.296684
94.778495
73.639962
79.402223
86.271704
93.8011
101.38565
107.98932
113.48644
117.79997
120.10015
120.7454
119.71272
117.60647
114.94384
111.95596
109.12498
106.33519
103.68187
101.25617
98.800547
81.136986
85.217316
90.352005
96.212916
102.3842
108.25311
113.44703
117.37354
119.31929
119.50232
119.02316
117.57636
115.93764
113.78802
111.44885
109.14863
106.80451
104.64485
102.39894
84.526074
87.075624
90.692258
95.324341
100.57492
105.81756
110.54995
114.36519
116.54898
117.31201
117.47321
116.39934
115.36456
113.98175
112.33676
110.56617
108.67842
106.85851
104.94337
83.198937
84.657201
87.404706
91.147959
95.435498
100.06162
104.8102
109.07326
112.12763
114.13964
115.08951
115.00042
114.34989
113.33808
112.15086
110.81296
109.34272
107.88127
106.32
79.527684
79.445239
80.299099
82.322639
85.749922
90.478159
95.780621
101.06185
105.54498
109.0509
111.1723
112.07926
111.86593
111.91776
111.2546
110.35753
109.24688
108.13156
106.9196
71.653332
69.181177
67.986269
68.673675
71.32529
75.882391
82.155459
89.200688
95.69365
100.97336
104.81624
107.50277
109.22198
109.92822
109.95549
109.44923
108.67025
107.8189
106.97371
56.410946
50.946154
47.383866
47.045375
50.404775
56.470222
64.314534
73.790138
83.363845
91.86065
98.486256
102.69513
106.03614
107.10729
107.84062
107.89873
107.50516
106.9218
106.39131
38.373767
25.994131
16.497998
13.593442
18.114346
28.767126
42.192336
57.042916
71.183228
83.472896
93.575792
99.092908
102.41495
104.33208
105.35335
105.8109
105.76692
105.51374
105.23503
40.910236
28.149679
17.572866
12.834424
14.518845
22.171456
34.114478
48.466945
62.722187
75.014505
84.837712
91.723273
96.666123
99.918163
101.90691
103.07094
103.57356
103.71952
103.81168
56.067393
48.408097
42.755457
40.800993
42.656449
47.596233
55.154567
63.869386
72.528561
80.267914
86.68692
91.627268
95.417713
98.14301
100.04174
101.31804
102.03996
102.36772
102.66287
71.290711
67.606216
65.579758
65.753088
68.157913
71.704914
75.791371
80.472548
84.972912
89.053231
92.469717
95.187951
97.28873
98.943223
100.18625
101.10128
101.6823
101.98066
102.24089
82.364403
81.026686
80.479672
80.644802
81.834486
84.301553
87.065218
89.924252
92.520018
94.769694
96.685148
98.212025
99.372998
100.33281
101.0714
101.65984
102.03382
102.22699
102.3545
86.703931
87.251207
87.84275
88.75449
90.242762
91.973714
93.591315
95.18215
96.803384
98.146169
99.317902
100.26722
100.94907
101.53502
101.97058
102.33989
102.608
102.72667
102.73145
87.54018
88.901216
90.438842
92.001752
93.65156
95.438976
96.966315
98.135107
99.257779
100.21044
100.98291
101.64257
102.11161
102.48089
102.77888
102.97349
103.15199
103.25268
103.20978
85.600925
88.101162
90.502539
92.669163
94.663566
96.669965
98.366139
99.534097
100.50556
101.39983
102.09798
102.61818
102.98541
103.22377
103.42018
103.55322
103.63594
103.67148
103.57961
73.905664
80.870704
86.626238
90.868804
93.952801
96.76296
99.304233
100.76533
101.62954
102.42553
103.06436
103.53181
103.83534
104.00469
104.08907
104.12274
104.14602
104.1057
103.96624
74.638503
81.772496
87.92266
92.807824
96.341651
98.6571
99.967667
101.15956
102.58753
103.72433
104.34642
104.58602
104.70009
104.74651
104.7283
104.63617
104.58621
104.50912
104.32524
80.653072
85.330148
89.867053
93.82144
97.01801
99.676086
101.96611
103.35629
103.44805
103.40952
104.04686
104.77294
105.05969
105.11157
105.03076
104.91196
104.76853
104.67285
104.51553
86.788669
88.644683
90.832676
93.127976
95.27222
97.315158
99.112115
100.47547
101.63325
103.03671
104.53237
104.79473
104.9897
105.08979
105.04066
104.91743
104.73115
104.57241
104.44325
90.246219
90.225472
90.808278
91.925065
93.132661
94.421501
95.634163
96.749074
98.76072
101.4718
103.52379
104.04609
104.44769
104.51736
104.50286
104.41381
104.2576
104.08357
103.97461
85.79628
83.559262
82.366941
82.638599
84.901481
88.769815
92.882408
96.662302
99.927821
101.98615
103.05836
103.40608
103.55335
103.5951
103.61415
103.58828
103.51904
103.41308
103.35444
84.132915
82.28481
82.024012
82.700525
84.083227
86.30167
89.434653
93.0874
96.526689
99.233382
100.83124
101.6918
102.18917
102.5099
102.68981
102.79516
102.81649
102.81376
102.84075
90.546542
90.186868
90.816085
92.26247
94.087384
96.084393
98.049617
99.701646
100.90635
101.64698
102.08283
102.30049
102.41232
102.50502
102.53353
102.58452
102.56818
102.52287
102.54606
96.417781
97.651297
99.233952
101.00078
102.45773
103.23194
103.53382
103.41337
103.10586
102.85407
102.656
102.55926
102.49352
102.46354
102.4336
102.40609
102.37704
102.34001
102.32402
97.471943
98.242778
98.780184
99.124954
99.596084
100.13057
100.5322
101.26979
102.17843
102.51647
102.59892
102.57783
102.45359
102.30668
102.20285
102.11832
102.01781
101.85319
101.74468
98.898348
100.02238
100.99054
101.73501
102.27104
102.61441
102.9432
103.26116
103.18565
102.77396
102.47021
102.21976
101.97336
101.78277
101.62302
101.51548
101.4277
101.2965
101.17283
92.558532
90.287918
88.2367
86.308959
84.466229
82.828922
81.233405
79.848665
78.598191
77.475109
76.523026
75.64965
74.933046
74.333988
73.867042
73.518663
73.322011
73.281134
73.405921
96.479044
94.130389
91.917258
89.860269
87.864723
86.041289
84.260906
82.64888
81.177639
79.830471
78.650905
77.583802
76.682373
75.938071
75.353437
74.931266
74.676757
74.612374
74.725243
100.06892
97.715228
95.398824
93.226854
91.09196
89.096462
87.166772
85.365182
83.696622
82.160239
80.789864
79.541821
78.465832
77.578128
76.877958
76.368027
76.051815
75.955033
76.068843
102.79286
100.59004
98.324376
96.130361
93.964246
91.859424
89.842048
87.911054
86.108035
84.41729
82.880448
81.490696
80.26391
79.236534
78.421745
77.813712
77.428302
77.290782
77.397943
104.51778
102.61133
100.56808
98.47859
96.38736
94.287621
92.246787
90.254078
88.348779
86.563856
84.894114
83.385715
82.041158
80.883725
79.95262
79.265011
78.810074
78.617103
78.71567
105.49003
103.90836
102.16959
100.31096
98.379498
96.391045
94.381592
92.401725
90.451559
88.600129
86.842113
85.220761
83.772049
82.513035
81.472976
80.698218
80.189544
79.9546
80.027188
105.91126
104.67955
103.26135
101.67333
99.951832
98.141703
96.241203
94.309771
92.380913
90.492372
88.690514
86.987468
85.447654
84.099803
82.977379
82.110857
81.536824
81.269285
81.320692
105.78852
104.96231
103.89239
102.61136
101.14528
99.532122
97.812978
95.985235
94.11973
92.239243
90.424408
88.676644
87.066833
85.639777
84.440926
83.515786
82.884116
82.556636
82.60767
105.11033
104.72834
104.06809
103.10828
101.95683
100.57749
99.059448
97.402478
95.648268
93.82344
92.019429
90.266188
88.60671
87.118507
85.850806
84.858211
84.205013
83.826642
83.85333
104.07011
104.06786
103.8305
103.23006
102.41389
101.3108
100.00903
98.547166
96.946836
95.232582
93.471192
91.733948
90.065389
88.537071
87.227278
86.169279
85.480589
85.082561
85.05878
103.09135
103.29609
103.32029
103.05802
102.54997
101.74976
100.70738
99.450769
98.0156
96.445582
94.774868
93.077841
91.424464
89.871812
88.526489
87.427159
86.678281
86.293798
86.241159
102.56692
102.72242
102.81373
102.75771
102.47187
101.93969
101.1678
100.1345
98.885705
97.470054
95.917113
94.291857
92.678307
91.134432
89.75728
88.64576
87.843145
87.452919
87.388735
102.48449
102.50019
102.52627
102.50762
102.33087
101.98475
101.42362
100.6163
99.58116
98.331244
96.901561
95.362327
93.814477
92.315749
90.921085
89.793757
88.955318
88.538322
88.489209
102.69142
102.59099
102.50508
102.42945
102.25986
101.99798
101.56165
100.93925
100.10263
99.040712
97.744459
96.311162
94.830657
93.382006
92.013123
90.882133
90.033618
89.574075
89.539828
103.03416
102.83925
102.67465
102.51935
102.31182
102.06189
101.6753
101.16481
100.4767
99.596549
98.459512
97.148384
95.740385
94.355404
93.022129
91.893072
91.065989
90.564341
90.516257
103.388
103.17833
102.94991
102.72582
102.46769
102.19876
101.83106
101.38128
100.78835
100.03174
99.039278
97.866204
96.543339
95.222387
93.950905
92.819053
92.014132
91.523904
91.441504
103.69921
103.50294
103.26723
103.00684
102.70522
102.40265
102.03458
101.61052
101.08229
100.4041
99.539987
98.474043
97.268044
96.005229
94.803172
93.696774
92.872713
92.415955
92.314541
103.98679
103.79031
103.54732
103.28648
102.97821
102.6523
102.27254
101.85409
101.37009
100.73093
99.959721
98.974081
97.905181
96.708376
95.549145
94.505271
93.668376
93.223244
93.131889
104.23153
104.04621
103.79911
103.541
103.25045
102.92634
102.54985
102.12117
101.66206
101.05011
100.3493
99.458568
98.462544
97.368198
96.230185
95.230173
94.427709
93.964106
93.888153
104.28963
104.18284
103.984
103.73621
103.47448
103.16241
102.81578
102.39068
101.92153
101.34779
100.6796
99.896147
98.926828
97.912729
96.834049
95.858927
95.096539
94.637445
94.571215
104.05098
104.07812
104.00918
103.85358
103.65228
103.37173
103.05343
102.66609
102.20075
101.6712
101.03045
100.3047
99.395773
98.417092
97.418932
96.463057
95.725561
95.272175
95.20056
103.58375
103.74921
103.856
103.83181
103.72137
103.52296
103.23792
102.89227
102.45447
101.93183
101.30715
100.60771
99.77829
98.826982
97.868271
96.955483
96.227311
95.79739
95.725743
103.06796
103.26837
103.48104
103.60805
103.61431
103.53842
103.35749
103.08355
102.71156
102.25459
101.69256
100.98958
100.20285
99.311893
98.34834
97.468326
96.749344
96.309435
96.238125
102.72336
102.93894
103.15662
103.37382
103.50434
103.52567
103.43669
103.22282
102.89987
102.44997
101.88315
101.20187
100.4221
99.556495
98.645433
97.782816
97.095795
96.670494
96.590892
102.40153
102.62376
102.81658
102.99405
103.16378
103.28496
103.32393
103.24703
103.04615
102.7149
102.2565
101.66417
100.92924
100.06477
99.140855
98.243055
97.516487
97.058622
96.96235
102.00611
102.34788
102.65094
102.92654
103.13354
103.28287
103.36357
103.34738
103.19987
102.88798
102.40209
101.77123
101.04782
100.20126
99.265083
98.375913
97.680055
97.245322
97.13437
101.4897
101.71753
102.00082
102.30029
102.59809
102.85665
103.06946
103.20486
103.2194
103.1378
102.85553
102.34043
101.65414
100.82072
99.857332
98.849005
98.017392
97.461137
97.32446
73.764505
74.254512
74.82048
75.562446
76.489015
77.597125
78.809201
80.202484
81.722317
83.343575
85.066957
86.895261
88.794736
90.772324
92.811957
94.888638
96.982682
99.108095
101.22642
75.045078
75.488133
76.14066
76.952775
77.889337
78.995487
80.21298
81.592137
83.102808
84.703362
86.40532
88.192887
90.034853
91.942927
93.894541
95.840549
97.795397
99.794423
101.759
76.385635
76.85964
77.481621
78.305959
79.264225
80.367669
81.598178
82.959093
84.455175
86.046685
87.71966
89.457773
91.240128
93.068499
94.904546
96.74343
98.597265
100.45495
102.24775
77.711823
78.197225
78.82834
79.64576
80.621451
81.720178
82.957804
84.316394
85.782467
87.348217
88.990865
90.683393
92.396418
94.139227
95.877822
97.619847
99.350915
101.03782
102.68944
79.037498
79.509066
80.173343
80.978686
81.948959
83.052662
84.272044
85.62269
87.068215
88.604075
90.2048
91.849432
93.49433
95.136842
96.765035
98.392345
100.01798
101.56841
103.05683
80.361494
80.83884
81.487252
82.296458
83.249191
84.349872
85.562211
86.891422
88.307318
89.816808
91.3659
92.951079
94.527176
96.068959
97.603757
99.104261
100.58202
102.011
103.39182
81.646174
82.133638
82.769867
83.581062
84.534822
85.619607
86.80787
88.113841
89.502016
90.95988
92.465727
93.97713
95.476934
96.930224
98.348536
99.717326
101.08845
102.4195
103.65913
82.918712
83.400667
84.041054
84.836018
85.778462
86.844895
88.009093
89.288185
90.64958
92.045354
93.491237
94.923403
96.335107
97.69469
99.019404
100.30999
101.55263
102.73671
103.86789
84.166242
84.633341
85.267174
86.048601
86.975733
88.022681
89.178418
90.407911
91.721651
93.073922
94.455473
95.815968
97.148949
98.414515
99.631553
100.80603
101.936
103.03043
104.05374
85.382266
85.836112
86.46049
87.217392
88.139372
89.160235
90.287311
91.474791
92.736873
94.031011
95.344689
96.636721
97.866363
99.037686
100.1623
101.25859
102.28973
103.27616
104.20183
86.566368
86.997565
87.605969
88.360298
89.258919
90.250837
91.335469
92.486796
93.69543
94.930999
96.158898
97.375029
98.531745
99.635349
100.65955
101.63292
102.57907
103.48236
104.31223
87.703188
88.128897
88.72187
89.457427
90.315868
91.28022
92.329028
93.442908
94.588729
95.768308
96.923504
98.060471
99.13492
100.13746
101.08204
101.98149
102.83798
103.64995
104.40404
88.792175
89.209827
89.771149
90.473335
91.309632
92.258662
93.267174
94.339381
95.424236
96.533126
97.615185
98.665527
99.662169
100.59442
101.47289
102.29229
103.06621
103.7896
104.46071
89.834328
90.240438
90.782472
91.48854
92.290145
93.193166
94.155632
95.160349
96.183488
97.214055
98.231995
99.217571
100.15325
101.01521
101.81993
102.56418
103.25859
103.90305
104.50319
90.813321
91.20643
91.729184
92.39295
93.164509
94.029612
94.961995
95.917339
96.896099
97.867189
98.827464
99.742936
100.5948
101.37158
102.10029
102.77868
103.41272
104.00539
104.55247
91.737915
92.120427
92.631144
93.264057
94.013235
94.837894
95.731529
96.637582
97.552768
98.453744
99.329783
100.17055
100.96185
101.69163
102.36999
102.99089
103.55517
104.09
104.57609
92.608083
92.970043
93.463725
94.07117
94.783571
95.570271
96.415737
97.273391
98.129078
98.968867
99.789625
100.58393
101.32574
102.00473
102.61674
103.16947
103.67369
104.15046
104.58315
93.413996
93.765624
94.238198
94.823809
95.505469
96.253981
97.051642
97.864635
98.674749
99.464307
100.22424
100.96005
101.64126
102.25416
102.80436
103.30869
103.77713
104.21791
104.61133
94.160019
94.499362
94.951288
95.511634
96.159261
96.868162
97.625907
98.39777
99.155463
99.89362
100.59393
101.27067
101.90491
102.48007
102.99953
103.47002
103.89712
104.28882
104.64462
94.833268
95.161066
95.597269
96.132751
96.752417
97.434138
98.154589
98.882576
99.590841
100.28158
100.94311
101.57753
102.17031
102.70345
103.18136
103.61175
103.99827
104.3497
104.67404
95.452474
95.766797
96.188018
96.704801
97.302407
97.95526
98.626611
99.313225
99.985515
100.63444
101.2592
101.85334
102.40356
102.89904
103.33812
103.73074
104.09607
104.43201
104.72653
95.978109
96.280943
96.691256