/*--------------------------------*- C++ -*----------------------------------*\
  =========                 |
  \\      /  F ield         | OpenFOAM: The Open Source CFD Toolbox
   \\    /   O peration     | Website:  https://openfoam.org
    \\  /    A nd           | Version:  11
     \\/     M anipulation  |
\*---------------------------------------------------------------------------*/
FoamFile
{
    format      ascii;
    class       volVectorField;
    location    "9.75";
    object      U;
}
// * * * * * * * * * * * * * * * * * * * * * * * * * * * * * * * * * * * * * //

dimensions      [0 1 -1 0 0 0 0];

internalField   nonuniform List<vector> 
4455
(
(99.947302 -0.089087161 0)
(99.980705 -0.47742619 -1.5261766e-18)
(99.604576 -0.89519537 5.2464437e-18)
(99.484213 -1.6737047 2.5078538e-20)
(98.824099 -2.404292 4.9775772e-18)
(98.522859 -3.4383041 -1.8762131e-17)
(97.323845 -4.6493394 8.3488613e-18)
(96.601609 -6.1469304 0)
(94.340065 -8.5777034 -5.1992222e-17)
(99.930023 -0.068576653 -9.9734991e-18)
(99.956239 -0.40204154 9.7358019e-18)
(99.600065 -0.73312958 -1.1995178e-17)
(99.380387 -1.559148 2.0028436e-17)
(98.787823 -2.3054757 -3.8492136e-17)
(98.216344 -3.4894094 4.2132973e-17)
(97.195018 -4.8095897 -4.0537782e-18)
(95.681952 -6.7422822 5.9130505e-18)
(93.46561 -10.248002 2.2687366e-16)
(99.963985 -0.03853683 -1.0476316e-17)
(99.870594 -0.27458798 1.3260157e-17)
(99.638445 -0.62646675 1.1741843e-17)
(99.285618 -1.368382 -1.1692892e-17)
(98.747339 -2.127061 5.1487732e-17)
(97.948852 -3.2444789 -2.9122791e-17)
(96.992637 -4.5859681 3.7400791e-18)
(95.640571 -6.5391621 -8.4211741e-17)
(93.06704 -9.1193949 -1.602713e-16)
(99.961761 -0.012006104 3.8085498e-21)
(99.898312 -0.19500022 -1.4415312e-18)
(99.585989 -0.45941081 2.7935376e-17)
(99.326245 -1.1829812 3.8334698e-18)
(98.573493 -1.8443793 9.5662068e-20)
(97.948547 -3.0601116 -5.5990919e-18)
(96.513168 -4.275185 6.274966e-17)
(95.370911 -6.4304968 1.6891085e-16)
(92.456501 -9.260839 1.3432775e-16)
(99.962131 0.018425275 2.0236313e-17)
(99.886012 -0.090653845 -2.2653106e-17)
(99.63758 -0.32557997 2.8969928e-17)
(99.25438 -0.96080975 2.8567201e-20)
(98.585897 -1.6057729 -3.5365832e-17)
(97.763004 -2.808629 -1.0921935e-17)
(96.354575 -3.9887018 -4.9463588e-17)
(94.862706 -6.4895419 -7.967766e-17)
(92.071523 -9.0464798 -3.9794343e-16)
(99.968845 0.051711059 0)
(99.888314 -0.0064489748 0)
(99.642962 -0.18268351 -5.0435047e-17)
(99.284087 -0.75622091 -5.8241217e-17)
(98.51943 -1.333014 0)
(97.717466 -2.5806362 -7.922478e-17)
(96.02752 -3.5927671 -6.7381486e-18)
(94.499425 -6.4087932 -4.831565e-18)
(91.460055 -8.8837384 4.9324103e-16)
(99.980674 0.088913691 0)
(99.894429 0.06904577 -1.3652473e-18)
(99.660236 -0.052887111 1.5390753e-18)
(99.286249 -0.52990655 5.6921828e-17)
(98.596028 -1.0963555 -4.229809e-18)
(97.576014 -2.2614608 1.6887862e-16)
(95.88687 -3.3135472 0)
(93.792675 -6.3077882 0)
(90.851767 -8.7666878 2.2913993e-16)
(99.997472 0.12251198 3.8326352e-17)
(99.904255 0.13615768 0)
(99.665961 0.068247901 0)
(99.351342 -0.35817814 0)
(98.553398 -0.81806036 0)
(97.585763 -1.9504645 -8.4420869e-17)
(95.709452 -2.8281085 -9.1497786e-17)
(93.513927 -6.0572533 1.3447281e-16)
(89.74379 -8.1780049 4.3064352e-18)
(100.0211 0.1468318 -3.7753848e-17)
(99.914995 0.19675103 -1.3165245e-18)
(99.676297 0.17156999 -1.4951845e-18)
(99.401232 -0.17214974 3.3781557e-18)
(98.623698 -0.58454183 1.3112931e-16)
(97.536779 -1.7039389 1.490893e-16)
(95.521463 -2.4838159 2.9168287e-16)
(92.922228 -5.9177868 -1.3195765e-16)
(88.920447 -7.8247947 -3.9519153e-16)
(100.0435 0.16416509 0)
(100.06211 0.1711244 6.9942827e-17)
(100.07504 0.16979881 -6.9378988e-17)
(100.08174 0.15981361 6.6313908e-17)
(100.08322 0.14438624 -6.4821246e-17)
(100.07675 0.12314972 1.2919065e-16)
(100.06717 0.096664235 -1.2541993e-16)
(100.05219 0.072379792 0)
(100.02105 0.030447306 0)
(99.936308 0.25404902 0)
(99.963956 0.29879349 1.2134727e-18)
(99.995558 0.33013703 0)
(100.03047 0.34428739 3.4485554e-18)
(100.06049 0.3455201 7.0244761e-17)
(100.09368 0.33140378 -2.0967222e-16)
(100.10547 0.30087983 1.3569522e-16)
(100.14593 0.27042286 -2.0651599e-18)
(100.13529 0.18864319 1.3049253e-16)
(99.687638 0.27898008 8.8368853e-17)
(99.709498 0.37408596 -1.7407145e-16)
(99.745874 0.45144191 1.6604367e-16)
(99.800696 0.52165576 -5.31724e-18)
(99.858076 0.55969674 -7.8237706e-17)
(99.940973 0.60156496 -2.3776382e-18)
(99.997997 0.59104478 0)
(100.08861 0.61289361 4.4746305e-18)
(100.15961 0.53000329 -2.1714468e-18)
(99.446502 -0.010529101 9.2484662e-17)
(99.485861 0.12514473 -1.8780041e-16)
(99.532853 0.25062257 1.7844336e-16)
(99.586623 0.37957274 -8.6434209e-17)
(99.659156 0.47250608 -5.4155203e-18)
(99.732825 0.58028312 2.5966749e-18)
(99.821686 0.61530284 0)
(99.904107 0.70324516 -2.4382005e-18)
(100.01658 0.65882124 1.4663334e-16)
(98.679018 -0.27801165 -1.0527856e-16)
(98.728486 -0.0045880113 0)
(98.796547 0.22184582 -9.7149653e-17)
(98.8677 0.46022216 1.0014501e-16)
(99.002397 0.62343693 -9.0124927e-17)
(99.096283 0.8274773 9.3123434e-17)
(99.274335 0.91651136 0)
(99.376175 1.0840701 0)
(99.563238 1.1108677 5.2009943e-18)
(97.665036 -1.4032578 -1.3001991e-16)
(97.695218 -1.0872972 -1.2439349e-16)
(97.791079 -0.80184987 1.1954522e-16)
(97.794723 -0.46168774 1.143859e-16)
(97.959062 -0.16999134 -1.1026693e-16)
(98.002362 0.16689416 0)
(98.214519 0.39750209 2.028923e-16)
(98.310334 0.68270125 -1.0145532e-18)
(98.497703 0.81671914 -3.7693908e-16)
(95.32639 -1.9172351 -1.5459183e-16)
(95.127711 -1.2507302 0)
(95.103335 -0.72459877 0)
(95.103655 -0.14729847 4.3477604e-18)
(95.296864 0.30193552 0)
(95.491261 0.88335234 0)
(95.806435 1.2451607 0)
(96.109544 1.7936691 0)
(96.459891 2.0110528 0)
(92.65419 -5.5514487 6.2138875e-18)
(92.005774 -4.9139548 0)
(91.582368 -4.1405285 5.7243027e-18)
(91.159247 -2.8872537 -1.0494915e-17)
(91.002369 -2.0887626 -1.5826093e-16)
(91.053747 -0.84219314 -1.4957148e-16)
(91.161161 -0.1209768 2.8778552e-16)
(91.537587 0.94618581 2.7639035e-16)
(91.823748 1.5069148 -2.6142919e-16)
(86.46748 -6.7474359 7.6281586e-16)
(84.058451 -3.852079 -4.6725212e-16)
(82.346615 -2.1439878 4.5428966e-16)
(82.322395 1.0950461 -4.2689143e-16)
(82.650169 3.2212157 -6.0521686e-16)
(83.581314 5.9581998 1.1322947e-15)
(84.34807 7.1769206 -7.1373527e-16)
(85.652046 9.2132343 -3.3372385e-16)
(86.568179 9.8329006 3.140171e-16)
(100.03533 0.037457841 -1.7132044e-19)
(100.06135 0.048132812 1.7580375e-16)
(100.09957 0.062791237 -1.4395532e-19)
(100.14624 0.077513971 -1.7701524e-16)
(100.20005 0.091794621 1.7294284e-19)
(100.26045 0.10528063 1.7770089e-16)
(100.3286 0.11883694 -1.7856728e-16)
(100.40375 0.13136431 -1.7384346e-19)
(100.49461 0.14894882 -8.9484255e-17)
(100.17869 0.21855604 -1.8737324e-16)
(100.21401 0.27006335 1.8849778e-16)
(100.28046 0.286013 -1.8853013e-16)
(100.33709 0.33926569 0)
(100.4201 0.3526218 1.8957009e-16)
(100.49312 0.3887704 -9.191923e-20)
(100.56971 0.42479187 2.5601874e-20)
(100.68246 0.43024932 -1.9019589e-16)
(100.75892 0.51588119 9.5321e-17)
(100.20577 0.59345711 1.998156e-16)
(100.26437 0.63044975 -2.0054527e-16)
(100.29008 0.67594751 -2.0150339e-16)
(100.3448 0.68591417 2.0198748e-16)
(100.37307 0.74453369 -2.0316846e-16)
(100.45082 0.75868121 2.024814e-16)
(100.48896 0.83963203 -2.0390018e-16)
(100.59388 0.86101831 2.4729702e-19)
(100.64066 0.95497323 2.0384881e-16)
(100.06843 0.7553804 -2.1429629e-16)
(100.1626 0.82655059 -8.4104395e-19)
(100.16742 0.88372271 8.4837097e-19)
(100.21293 0.9432574 0)
(100.23668 0.99671682 -5.3930359e-21)
(100.25523 1.1205995 -2.1678007e-16)
(100.36255 1.1919973 2.2047557e-16)
(100.36712 1.3439136 8.580532e-19)
(100.52028 1.4232663 8.5873804e-19)
(99.6789 1.2781405 -9.049851e-19)
(99.664764 1.4078148 -2.3364847e-16)
(99.686991 1.5050348 -6.3432235e-19)
(99.605547 1.6023785 2.3564103e-16)
(99.649836 1.6972762 2.3695303e-16)
(99.59911 1.8536551 -2.3809719e-16)
(99.709333 1.9661319 -9.2360288e-19)
(99.68382 2.1688161 -9.2535744e-19)
(99.849781 2.2843653 -9.2682034e-19)
(98.666935 1.0760224 2.5752848e-16)
(98.566476 1.2848622 0)
(98.621114 1.4708706 0)
(98.465127 1.668411 2.5906784e-16)
(98.564783 1.8533793 -2.6255438e-16)
(98.452499 2.1331948 -2.6255328e-16)
(98.638894 2.3350338 5.2498842e-16)
(98.569938 2.6877999 -1.1164415e-18)
(98.842233 2.8904758 -5.2641585e-16)
(96.733541 2.4799701 -1.1587126e-18)
(96.584666 2.8998702 0)
(96.690751 3.1780815 1.1630712e-18)
(96.497192 3.523603 2.9212596e-16)
(96.679344 3.7712597 -2.9392452e-16)
(96.588577 4.1841949 2.934462e-16)
(96.877615 4.41292 -2.9412536e-16)
(96.861052 4.8586989 -1.1612868e-18)
(97.213906 5.0516199 2.931131e-16)
(92.344548 2.2484058 -3.3333018e-16)
(92.431974 3.0945061 3.3782339e-16)
(92.881907 3.534358 -3.367823e-16)
(93.025217 4.2136248 3.3506523e-16)
(93.557985 4.6036924 -3.30645e-16)
(93.784111 5.2463808 1.8229065e-18)
(94.434872 5.5760461 3.3323837e-16)
(94.740166 6.1676013 2.5624843e-18)
(95.43213 6.3883076 1.6323965e-16)
(87.762127 11.197044 0)
(88.306796 12.034458 -3.7890672e-16)
(89.277972 13.0089 5.6485607e-18)
(89.86915 13.542711 7.3042936e-18)
(90.994166 14.160934 7.4221979e-16)
(91.574845 14.394329 -3.6938472e-16)
(92.800207 14.51701 -3.6171035e-16)
(93.501059 13.954866 3.6312891e-16)
(94.728362 13.324202 1.7902884e-16)
(95.272261 12.095188 -2.0912373e-16)
(95.765481 11.091511 0)
(96.065236 10.526884 2.0410005e-16)
(96.022483 9.839235 -2.0410347e-16)
(95.785081 9.4583378 0)
(95.335537 9.0284599 0)
(94.695599 8.3874628 0)
(94.20873 8.2584731 -2.0977541e-16)
(93.321402 7.7923263 2.0977871e-16)
(95.722179 6.762604 -1.8594038e-16)
(96.163495 7.0972061 0)
(96.340842 7.356715 0)
(96.698713 7.534372 0)
(96.772794 7.6667485 0)
(97.00144 7.8479397 0)
(96.938292 8.0097179 0)
(97.040076 8.235223 1.7782752e-16)
(96.88654 8.4715226 -3.554899e-16)
(97.219205 5.4332281 -1.793675e-18)
(97.532966 5.7087347 -3.2059368e-16)
(97.541287 6.0325913 0)
(97.83792 6.2581748 -1.5766293e-16)
(97.832279 6.5327883 1.5759994e-16)
(98.109468 6.7602744 0)
(98.072489 7.0546621 0)
(98.332573 7.3116813 0)
(98.253261 7.6240352 0)
(98.779244 3.272389 2.8271365e-16)
(99.07294 3.5129432 0)
(99.014088 3.9020942 1.3932075e-16)
(99.322781 4.1377349 -2.7788417e-16)
(99.275519 4.5414769 1.3856413e-16)
(99.609854 4.7852732 0)
(99.567243 5.2148506 0)
(99.938618 5.4823743 0)
(99.889775 5.9492258 1.3442851e-16)
(99.829219 2.5162589 0)
(100.0196 2.6524259 2.4939496e-16)
(100.00401 2.9021451 -3.7348596e-16)
(100.21541 3.0385052 1.24099e-16)
(100.21125 3.3103548 1.2280644e-16)
(100.45294 3.4521201 -7.055173e-19)
(100.4591 3.7561066 -2.4336734e-16)
(100.75089 3.9200386 2.417795e-16)
(100.7576 4.2771861 -1.2050066e-16)
(100.53031 1.6266483 0)
(100.71699 1.729695 1.128358e-16)
(100.73271 1.9642557 -1.1282668e-16)
(100.95505 2.0788483 0)
(100.9773 2.3488574 -2.2215114e-16)
(101.22307 2.4609266 2.2215977e-16)
(101.2654 2.7544271 1.0967432e-16)
(101.55435 2.8706437 -2.1854684e-16)
(101.61121 3.204247 1.0889622e-16)
(100.76621 0.97703629 0)
(100.81986 1.1051176 0)
(100.9749 1.1327921 0)
(101.03947 1.2900613 -1.0255179e-16)
(101.23378 1.3266817 2.0454164e-16)
(101.30739 1.5213429 -2.0343477e-16)
(101.55244 1.5936304 1.0142101e-16)
(101.64023 1.7656261 -1.0007782e-16)
(101.90865 1.9567981 1.9940617e-16)
(100.88654 0.49995566 -1.929687e-16)
(100.98071 0.60422575 4.1448983e-19)
(101.12547 0.58885618 9.5879738e-17)
(101.22798 0.70919606 -9.4933013e-17)
(101.3974 0.68431729 9.4933013e-17)
(101.52051 0.82149545 0)
(101.72281 0.78888276 9.3202264e-17)
(101.86625 0.95364664 -1.8571835e-16)
(102.10885 0.91672787 9.2514084e-17)
(100.5511 0.1718371 2.8339924e-19)
(100.68379 0.18686381 9.0378229e-17)
(100.77513 0.22580561 8.9762846e-17)
(100.94073 0.24722381 -8.9762853e-17)
(101.03899 0.27959682 0)
(101.22759 0.30335768 0)
(101.3508 0.34383046 -8.798772e-17)
(101.56744 0.36706038 1.7541312e-16)
(101.73681 0.41751762 -8.7425374e-17)
(101.96281 0.44229028 0)
(102.18647 0.49989479 -8.5424786e-17)
(102.44779 0.5224756 7.8028226e-19)
(102.71512 0.5817836 8.4837882e-19)
(103.01881 0.61542457 9.2006795e-19)
(103.3665 0.70233201 8.2876052e-17)
(103.70374 0.7306098 8.0828604e-17)
(104.13333 0.81205769 -8.082861e-17)
(104.52737 0.85277536 0)
(102.28286 1.1204104 0)
(102.58119 1.0811475 0)
(102.76731 1.2994373 -8.9320832e-17)
(103.14698 1.297558 9.4720383e-19)
(103.35498 1.5042451 1.0070942e-18)
(103.81443 1.5453133 8.7367854e-17)
(104.05361 1.708256 8.5159591e-17)
(104.57756 1.8915049 -8.5159575e-17)
(104.89382 1.9390917 0)
(102.07296 2.0514329 -9.9300661e-17)
(102.31932 2.3371773 0)
(102.56539 2.4206074 0)
(102.83198 2.7552025 -9.5778876e-17)
(103.13978 2.8225248 1.9049313e-16)
(103.41686 3.2135999 -1.1063524e-18)
(103.85638 3.2691074 -1.157615e-18)
(104.09056 3.7319085 -9.2414669e-17)
(104.65497 3.7635797 0)
(101.93843 3.3257624 -1.0719254e-16)
(102.01619 3.7038782 1.0718722e-16)
(102.39593 3.8294323 0)
(102.50049 4.2576468 0)
(102.9402 4.3836775 1.0313168e-16)
(103.07318 4.8640105 -1.031321e-16)
(103.58153 4.998485 1.0075709e-16)
(103.74369 5.5444472 -5.1021394e-17)
(104.32981 5.6873899 -4.9730551e-17)
(101.09761 4.4737893 -1.1875195e-16)
(101.10028 4.8943933 1.1876331e-16)
(101.48748 5.1196109 0)
(101.49521 5.604228 0)
(101.93635 5.8500428 0)
(101.95795 6.3987485 0)
(102.4681 6.6684067 0)
(102.50718 7.297427 0)
(103.10084 7.5947275 0)
(100.29267 6.2545368 -1.3443443e-16)
(100.22569 6.7630642 1.3262518e-16)
(100.65342 7.1056673 -1.326306e-16)
(100.5687 7.6573497 1.3074009e-16)
(101.0252 8.0394256 -1.3073147e-16)
(100.92063 8.6453812 0)
(101.4156 9.0713567 0)
(101.29656 9.7604424 0)
(101.86117 10.236959 0)
(98.502619 7.9102223 0)
(98.376489 8.2281477 -1.522343e-16)
(98.601684 8.569328 1.5219021e-16)
(98.410796 8.9342516 0)
(98.640924 9.3528488 1.5041295e-16)
(98.372608 9.8187614 -1.5035656e-16)
(98.668974 10.35139 0)
(98.328518 10.954719 7.4344217e-17)
(98.680736 11.586058 -1.483918e-16)
(96.884407 8.7358459 1.7771377e-16)
(96.668964 9.0176426 1.7773873e-16)
(96.505394 9.5332497 -1.7773865e-16)
(96.218819 9.79529 1.7831262e-16)
(96.036365 10.354838 -3.5706551e-16)
(95.599146 11.050961 3.5802885e-16)
(95.340151 11.57648 -3.5908481e-16)
(95.037268 12.210209 1.798094e-16)
(94.62168 13.383252 0)
(92.801296 7.564451 -2.1388772e-16)
(91.90091 7.7614533 2.1388724e-16)
(90.988131 7.7000615 0)
(90.243942 7.6084386 0)
(89.449876 8.2442244 0)
(88.064144 8.4289463 0)
(87.539867 8.9474591 0)
(86.319301 9.752764 -1.155325e-16)
(85.197059 10.650696 1.1553848e-16)
(84.236421 11.539164 1.1818565e-16)
(94.188111 14.119791 0)
(98.313736 12.44826 7.4031133e-17)
(101.73934 11.048039 0)
(103.1629 8.3208951 0)
(104.52976 6.3141038 0)
(104.93208 4.291136 4.4249724e-17)
(105.44876 2.2299514 4.0662546e-17)
(105.01292 0.9576712 3.8600194e-17)
(83.258828 13.706054 -1.1818389e-16)
(93.957816 15.285418 0)
(98.741798 13.174995 0)
(102.41119 11.5821 6.135833e-17)
(103.85364 8.6451554 0)
(105.21299 6.4660167 -4.7545696e-17)
(105.54623 4.3159638 -8.7749206e-17)
(105.84386 2.2585129 -8.0620813e-17)
(105.48784 0.98513631 -7.6512379e-17)
(81.50902 15.743986 0)
(93.540963 16.540069 0)
(98.374665 14.29919 7.2737505e-17)
(102.304 12.550285 -6.1360594e-17)
(103.9517 9.4871298 0)
(105.45854 7.1926835 4.7548369e-17)
(105.88638 4.9150967 4.3506259e-17)
(106.49224 2.5981433 3.9952232e-17)
(106.06621 1.091757 3.7912176e-17)
(80.877337 17.487487 1.2151068e-16)
(93.30907 18.156773 0)
(98.944265 15.143311 -1.4492189e-16)
(103.11464 13.134609 0)
(104.75099 9.8259448 0)
(106.24597 7.3508168 -4.5850323e-17)
(106.60348 4.9214682 -4.1898718e-17)
(106.92352 2.647228 0)
(106.61195 1.1329724 -3.6401753e-17)
(80.070296 20.214964 -1.2150708e-16)
(93.070611 19.207725 -9.0737445e-17)
(98.641486 16.575422 7.2170257e-17)
(103.05726 14.297019 0)
(104.9122 10.794303 0)
(106.56045 8.1880255 4.5851087e-17)
(107.00856 5.5909124 4.1895492e-17)
(107.68125 3.0174259 0)
(107.29721 1.249583 3.6401748e-17)
(78.269663 24.916766 0)
(93.413506 21.058793 9.0737282e-17)
(99.317995 17.452228 -7.0642894e-17)
(104.0324 14.897457 0)
(105.83493 11.121301 0)
(107.46392 8.327176 -4.3913915e-17)
(107.80733 5.5615785 -4.0091957e-17)
(108.17398 3.0760547 0)
(107.91736 1.301825 -3.4716359e-17)
(78.216287 27.409537 0)
(92.957671 23.436337 0)
(99.182745 19.185739 7.0642804e-17)
(104.10986 16.286155 -2.8341585e-17)
(106.0966 12.213172 -2.4373129e-17)
(107.87149 9.2698066 6.5342535e-17)
(108.31157 6.3047131 5.9654064e-17)
(109.03995 3.4816291 0)
(108.69718 1.4156019 5.1622802e-17)
(79.58521 30.487126 0)
(94.179784 24.763933 -4.4017691e-17)
(100.09898 20.076922 0)
(105.25078 16.870912 2.833053e-17)
(107.14339 12.493097 2.4360798e-17)
(108.88773 9.369513 -5.6947486e-19)
(109.2077 6.2274139 -3.8589318e-17)
(109.58539 3.5370737 0)
(109.39898 1.4644818 -1.6906446e-17)
(78.135807 30.307722 -5.7956578e-17)
(94.249366 27.192717 4.4006686e-17)
(100.21575 22.193192 0)
(105.55101 18.582476 0)
(107.60593 13.807191 0)
(109.44947 10.457146 -4.1088411e-17)
(109.84857 7.0670478 5.4595177e-19)
(110.58057 3.9548592 0)
(110.24713 1.5671474 0)
(111.36825 1.6200328 0)
(111.15959 4.0212267 0)
(110.78972 6.8390594 -5.4896913e-19)
(110.5164 10.367977 2.1233914e-17)
(108.73075 13.805281 0)
(106.87998 18.887166 -3.4237389e-18)
(101.41629 22.612449 -4.7922718e-19)
(96.108887 28.543786 -3.5284688e-17)
(79.609946 31.117053 1.0913438e-16)
(112.2257 1.6308781 -7.5248012e-18)
(112.28899 4.3197298 -1.0236891e-18)
(111.61047 7.6086636 9.3116524e-18)
(111.29835 11.341515 -2.9329037e-20)
(109.51859 14.945302 -9.3809831e-18)
(107.55269 20.429141 1.2432496e-17)
(102.10121 24.27533 -4.2248529e-18)
(96.722232 30.526236 4.560393e-17)
(80.947306 30.995027 -5.5642328e-17)
(113.21899 1.6456023 1.492511e-17)
(112.95095 4.2764041 0)
(112.65275 7.2651037 1.7277158e-17)
(112.47792 11.132742 -9.2010787e-18)
(110.82382 14.788104 9.5090587e-18)
(109.13651 20.577883 -2.3215276e-17)
(103.59083 24.444219 -1.9308631e-17)
(98.714728 31.759697 1.0265956e-17)
(81.672314 29.659684 9.099282e-19)
(114.28506 1.6578227 -7.3990391e-18)
(114.17763 4.6235472 -9.720487e-19)
(113.62095 8.0444132 -7.5327832e-18)
(113.44405 12.121142 1.0490796e-17)
(111.87109 15.973986 3.775755e-18)
(110.1239 22.186287 1.2286486e-17)
(104.77444 26.022493 1.5425396e-17)
(99.258517 33.820562 5.563058e-18)
(82.983097 28.748467 -6.3691679e-18)
(115.37867 1.6636656 1.7150356e-18)
(114.91745 4.4822511 -1.8404758e-18)
(114.71771 7.5766615 -1.0185815e-18)
(114.68915 11.758682 3.2591926e-18)
(113.30047 15.619025 -3.8436968e-18)
(111.86263 22.20725 -4.213864e-18)
(106.45813 26.284962 -3.9550893e-18)
(101.25163 34.865596 4.4649854e-18)
(84.107998 29.084168 -7.8814251e-18)
(116.49155 1.6554713 -1.7340668e-18)
(116.25653 4.8088299 1.862608e-18)
(115.832 8.3298166 -9.8269629e-19)
(115.83673 12.704601 -3.6759696e-20)
(114.56552 16.754797 -1.1821711e-18)
(113.05181 23.543281 2.8502896e-18)
(107.92585 27.874147 -3.8162229e-18)
(101.80169 36.952615 4.3187781e-18)
(86.015075 29.510469 0)
(117.62899 1.6339819 -1.5924346e-18)
(117.03215 4.6724299 -8.7972579e-19)
(116.95308 7.7310809 -8.993248e-19)
(117.10491 12.172303 -1.0328083e-18)
(116.11174 16.257779 -1.080009e-18)
(115.02092 23.627706 2.8137477e-18)
(109.81786 28.334429 -6.8004029e-18)
(103.7863 37.847757 9.3958933e-18)
(87.182764 30.102607 -6.0708039e-18)
(118.78652 1.5939606 4.667989e-18)
(118.41461 4.9194683 3.3064303e-18)
(118.19197 8.423669 4.517346e-18)
(118.40532 13.024351 4.7639998e-18)
(117.51526 17.180254 3.3473833e-18)
(116.38849 24.635224 -1.21881e-18)
(111.54366 29.681568 -3.459084e-18)
(104.37877 40.14165 -1.1500724e-18)
(89.357772 31.334051 -7.3863625e-18)
(119.95048 1.5411535 -8.9509342e-18)
(119.30039 4.6892165 -3.3476498e-18)
(119.28929 7.700598 -1.1236901e-17)
(119.69359 12.328384 -2.8961287e-18)
(119.16584 16.516944 6.8094358e-18)
(118.49438 24.565203 3.6071769e-18)
(113.84193 29.987167 -1.7220858e-17)
(106.51983 40.841575 3.6883157e-18)
(90.274889 33.635348 1.3639532e-17)
(93.382873 38.080829 -1.2839542e-17)
(107.58137 43.328377 4.6138781e-18)
(115.87739 31.002965 2.4196912e-17)
(120.16991 25.272028 -3.3219805e-18)
(120.69912 17.164856 1.2363375e-18)
(120.97827 12.959902 5.0032271e-18)
(120.62445 8.2912672 7.691416e-18)
(120.60493 4.9283172 -3.9177399e-19)
(121.11643 1.4710275 1.1889213e-17)
(94.859518 41.854331 4.6867455e-17)
(110.45003 43.793074 3.0916518e-18)
(118.40747 31.030612 -3.1264287e-17)
(122.26017 24.842147 -9.7052272e-19)
(122.36485 16.437972 -6.5420948e-18)
(122.43424 12.253973 -6.0246087e-18)
(121.65645 7.4557141 -1.3065746e-17)
(121.58957 4.615754 0)
(122.27408 1.3892591 -5.6690428e-18)
(98.601835 46.144309 -5.9683584e-17)
(112.3767 46.42914 2.8556671e-17)
(120.96109 31.59343 1.6168809e-17)
(124.16529 25.331718 -8.7707271e-19)
(123.83746 16.59916 1.2221274e-17)
(123.51973 12.496383 -4.5190505e-20)
(123.01751 7.919697 2.2911251e-18)
(122.82081 4.7899952 1.0428147e-17)
(123.41287 1.2955556 1.022758e-17)
(100.37751 48.925068 -1.0606509e-17)
(116.01862 46.508199 1.6652668e-18)
(123.56622 31.268452 -2.0137555e-18)
(126.25426 24.477761 0)
(125.65042 15.721573 -1.2480928e-17)
(125.07499 11.771852 0)
(123.98057 7.0050665 1.1106327e-17)
(123.8081 4.3646118 -2.1255419e-17)
(124.51973 1.2008907 -5.7013293e-19)
(104.48227 51.889053 -3.7140827e-18)
(118.58224 48.416398 -1.7409291e-17)
(126.65093 31.315896 1.6183551e-18)
(128.1891 24.471853 0)
(126.95549 15.510861 -1.0634187e-17)
(125.97884 11.652435 1.0261964e-17)
(125.26608 7.3129085 6.4597591e-19)
(124.92285 4.5991216 2.0981126e-17)
(125.59791 1.0985001 -9.8998257e-18)
(106.56428 53.24911 -3.7612366e-17)
(122.66377 47.587127 -7.9556816e-18)
(129.11776 30.566548 -6.8134061e-20)
(130.22688 23.221943 -9.7622787e-19)
(128.619 14.47169 6.7312612e-19)
(127.46152 10.938541 -2.0205966e-17)
(126.15953 6.3670506 6.0691788e-19)
(125.92668 4.0173974 -1.0329191e-17)
(126.63619 1.0020818 0)
(111.0892 55.309463 2.5864331e-17)
(125.75014 48.792957 1.2451657e-17)
(132.52 29.94233 7.1174891e-20)
(131.9099 22.588045 -6.8089951e-19)
(129.84657 13.849745 8.3700575e-18)
(128.21382 10.542627 1.0297762e-17)
(127.30516 6.5399847 6.3530294e-19)
(126.89443 4.3200942 -5.8211576e-19)
(127.63657 0.90738431 0)
(113.63765 56.007565 0)
(130.07925 47.211007 -2.3000825e-19)
(134.74923 28.605514 1.9611096e-19)
(133.85717 21.069134 -6.7527637e-18)
(131.24244 12.669369 -3.4837765e-19)
(129.43954 9.7136845 1.6208989e-17)
(128.11667 5.6246079 -1.7749356e-17)
(127.84853 3.693338 1.8286167e-17)
(128.60112 0.82981395 1.6953931e-17)
(118.81726 57.486175 2.6431973e-17)
(133.68106 47.737858 -1.5825462e-17)
(138.1191 27.193587 3.4777409e-19)
(135.15789 19.848339 7.2960615e-18)
(132.1427 11.770439 -4.8435307e-19)
(130.06298 9.2419801 -1.6652599e-17)
(129.00706 5.690255 1.915887e-17)
(128.64585 4.0239311 -1.9076766e-17)
(129.53526 0.76375559 -5.4612833e-19)
(130.45331 0.71860746 -1.6544997e-17)
(129.57911 3.4363627 1.7082914e-17)
(129.7324 4.8573092 0)
(130.98194 8.3456899 -7.6980452e-19)
(133.26747 10.495828 1.0882331e-17)
(136.72121 17.954783 1.1085552e-18)
(140.12103 25.064341 0)
(138.47833 45.091086 -1.3310206e-17)
(122.38931 57.796869 -2.5744889e-17)
(131.36034 0.69548366 0)
(130.2363 3.7281314 -1.7682729e-17)
(130.42977 4.8836364 0)
(131.39467 7.7567473 -7.2839846e-19)
(133.86725 9.255266 -1.8821463e-17)
(137.63756 15.891913 -7.1371502e-19)
(143.36406 22.390225 -1.7753153e-17)
(143.0377 44.221804 2.8751505e-17)
(130.23378 58.518853 -1.9002793e-17)
(132.27319 0.69995905 0)
(131.11153 3.2840637 0)
(131.06685 4.2116957 -1.694437e-17)
(131.95808 7.0209735 0)
(134.37881 8.0754188 9.5753608e-18)
(138.37906 13.66385 2.0226726e-18)
(144.63146 19.277196 1.5783549e-17)
(148.01668 39.692816 2.3376052e-18)
(135.60408 57.697919 -2.8088781e-17)
(133.21446 0.72315072 0)
(131.7495 3.7134665 0)
(131.55938 4.3414465 1.7288221e-17)
(132.10044 6.5311094 1.426551e-17)
(134.5614 6.9682198 1.0181895e-17)
(138.64123 11.638469 -1.8344841e-18)
(146.93822 16.02969 0)
(152.08482 37.197299 -7.0468526e-17)
(145.74118 56.678848 4.9279347e-17)
(134.20066 0.77678838 2.6377285e-19)
(132.60569 3.3539756 -2.8887462e-19)
(132.14167 3.9359898 0)
(132.42566 6.1580137 4.3649185e-19)
(134.53623 6.0243423 -2.0584855e-17)
(138.32893 9.4289043 2.7463523e-19)
(146.74947 12.328932 -2.482895e-17)
(155.49456 30.660172 7.8444149e-17)
(152.64145 54.21039 -1.3979242e-16)
(135.25137 0.84125446 -2.7150105e-19)
(133.21274 3.9293908 2.9767261e-19)
(132.5253 4.2378153 0)
(132.48369 5.922955 -1.6972768e-17)
(134.33789 5.3309738 1.2005873e-17)
(137.99975 7.955591 -3.5052791e-19)
(147.56138 9.1341365 2.5671675e-17)
(157.46771 26.177231 0)
(165.36077 50.514744 1.4130422e-16)
(136.37956 0.91686672 2.8008271e-19)
(134.22976 3.6644599 1.9245151e-17)
(133.19915 4.0651536 -5.5326635e-19)
(132.65767 5.901417 1.7871701e-17)
(134.08802 4.8190712 1.4856956e-17)
(137.04727 6.4448244 0)
(145.58355 5.7884725 0)
(157.77115 17.136327 8.3975435e-17)
(171.43571 46.464897 0)
(137.69786 0.92625508 0)
(134.94386 4.4405072 -1.9960297e-17)
(133.57163 4.575842 0)
(132.699 6.0460087 -1.9569807e-17)
(133.58155 4.579355 -1.3076807e-17)
(136.38991 5.7799817 4.9549825e-18)
(144.97144 3.5170645 0)
(156.80303 11.863681 -9.7608561e-17)
(181.709 40.667116 3.2003957e-16)
(138.51433 0.63794713 0)
(136.22036 4.2162048 0)
(134.6074 4.5728512 -6.3370728e-19)
(133.02172 6.3305359 -4.3810309e-19)
(133.34203 4.765183 1.273132e-18)
(135.11818 4.8541303 -5.0644857e-18)
(142.32396 1.2050126 0)
(152.9202 1.2240737 0)
(181.00961 22.782299 -3.2223896e-16)
(139.9871 1.1139767 -5.988013e-19)
(136.93285 5.1743599 8.693149e-21)
(134.83499 5.2941482 2.2477918e-17)
(133.20262 6.684448 0)
(132.99937 5.0914563 0)
(134.48686 5.0027212 -1.1613626e-20)
(141.72534 0.97755067 1.0238836e-17)
(150.09309 3.6597867 -6.9827382e-19)
(193.33425 26.191051 0)
(141.94215 0.82701083 -5.812052e-19)
(138.41783 5.4620325 -2.5096014e-21)
(135.58852 5.9070605 -2.0325923e-17)
(133.14353 7.2343261 0)
(132.52715 5.4582662 0)
(134.10467 4.5614106 -3.0335348e-20)
(142.25664 0.40684605 -3.4801518e-17)
(154.95733 4.7461646 9.2623998e-19)
(193.41545 22.448652 -6.8703438e-16)
(143.41519 1.1971774 0)
(139.18552 6.6743164 4.0307279e-17)
(136.03636 6.7145298 0)
(133.50257 7.9056015 1.1514571e-18)
(132.5552 5.743094 -1.2556709e-18)
(134.20522 3.7410014 1.7227613e-19)
(144.48289 -1.4868389 5.8891204e-17)
(159.67459 0.81065407 -1.292574e-18)
(182.72944 19.575136 6.4955011e-16)
(145.4622 1.1763638 3.2577278e-17)
(141.11007 6.9334689 -3.8458556e-17)
(137.27366 7.2624727 4.085309e-17)
(133.68069 8.7645964 4.2694956e-17)
(132.22773 5.8766894 -3.6149134e-17)
(134.05865 3.080989 1.5745883e-17)
(144.19126 -3.4014318 -3.4313479e-17)
(158.83106 -0.14805225 -1.8690768e-16)
(164.50344 23.058918 0)
(147.37119 1.8020975 -6.3575951e-17)
(141.94383 8.1336731 3.843228e-17)
(137.74257 8.2580192 -3.9525931e-17)
(133.93592 9.5915625 1.8852713e-18)
(132.08417 6.2141645 3.4839693e-17)
(133.55863 1.7948103 2.2399354e-19)
(145.69205 -6.5045824 0)
(157.79189 -4.3754538 1.7974086e-16)
(137.47751 40.332298 0)
(149.61207 1.6005988 5.9411651e-17)
(144.11187 8.5791811 -3.6756158e-17)
(139.26461 9.1587255 4.0736636e-17)
(134.26667 11.000815 -4.2949004e-17)
(131.39242 6.7441915 -7.6857209e-19)
(132.65146 1.3908935 -1.3592303e-17)
(144.58315 -8.0213955 -4.6734016e-17)
(154.0351 -5.5150656 -2.5931944e-16)
(103.65256 54.809447 4.7532174e-16)
(151.44646 1.6445221 -2.90872e-17)
(145.17006 9.8332397 1.0832176e-18)
(139.77717 10.313961 -3.890527e-17)
(134.5333 12.053209 1.2041185e-18)
(131.07768 7.19651 -1.2986629e-18)
(131.70382 -0.2329076 -1.8973397e-17)
(142.17957 -12.229913 1.0026211e-16)
(149.12879 -9.7978103 2.4539322e-16)
(85.924545 52.838191 -4.5033169e-16)
(153.88518 1.5190647 -4.5928986e-19)
(147.71456 10.261979 4.8769581e-19)
(141.54129 11.301808 3.8148254e-17)
(134.82478 13.793994 4.4849567e-17)
(129.9833 7.8759399 -3.9575574e-17)
(129.87113 -1.0306774 4.1321863e-17)
(138.74954 -13.833546 -1.1195651e-16)
(140.87574 -11.006479 -2.9023849e-16)
(42.687997 37.807127 4.8673819e-16)
(156.32955 1.9646811 2.2175467e-17)
(149.00633 11.505463 -5.3591642e-19)
(142.26796 12.627016 8.0431857e-19)
(135.33788 15.268038 -4.348914e-17)
(129.69212 8.9160073 3.7315221e-17)
(127.28712 -2.9605143 -2.0650602e-17)
(133.63931 -19.794474 6.0388625e-17)
(125.45681 -17.94636 2.75945e-16)
(-27.41999 -30.64381 -4.6342851e-16)
(-25.487137 -12.503594 -7.7431425e-16)
(111.2883 -18.16459 -4.0858552e-18)
(128.73883 -21.527573 4.0843499e-19)
(123.10176 -4.1882113 -3.4834212e-19)
(128.12391 9.8550858 0)
(135.68145 17.084438 -7.4607458e-19)
(144.44383 13.665258 -7.792272e-17)
(151.71886 11.809208 -3.3586336e-17)
(158.80766 1.6858411 -4.1802723e-17)
(-23.650541 -7.4911879 7.4941977e-16)
(102.14371 -22.594775 0)
(125.53249 -26.86143 0)
(120.54635 -4.8104619 -9.3266512e-17)
(128.19648 11.699928 0)
(136.58589 18.825272 1.044062e-16)
(145.63374 14.94085 1.1784178e-16)
(153.56581 12.912704 3.1822773e-17)
(160.81079 1.389797 -1.5107309e-17)
(-25.951483 -3.3690016 4.679056e-18)
(91.89432 -20.16012 -3.7677004e-18)
(119.65431 -26.892071 0)
(115.93435 -5.6031818 9.1220732e-17)
(126.28843 12.948666 0)
(137.50067 20.612479 -1.0334493e-16)
(147.97728 15.82537 -7.5854975e-17)
(156.38415 12.875102 -6.8676144e-19)
(163.26604 1.1633688 3.4512352e-17)
(-26.322304 -0.96186879 1.3597048e-15)
(84.653582 -27.209203 -7.5246276e-16)
(116.21714 -31.43632 3.179099e-18)
(112.83608 -5.4919391 0)
(126.37203 15.609639 1.1923704e-16)
(138.56749 22.509767 0)
(149.36694 17.123251 5.2137825e-19)
(158.4256 13.765144 -6.3854381e-19)
(165.62953 1.196772 1.5002224e-19)
(-28.574104 1.1980973 -1.3075731e-15)
(73.73271 -26.511325 -9.4700537e-18)
(109.74588 -31.40565 1.6812239e-16)
(107.48512 -6.5134744 -1.1541393e-19)
(124.63056 17.346423 6.5575039e-18)
(139.91402 24.527596 0)
(152.01192 17.801438 6.8968591e-17)
(161.39749 13.544502 0)
(167.84951 0.73842017 0)
(-32.947422 -1.2841746 4.1522422e-18)
(66.647918 -34.31653 7.0613006e-16)
(105.36151 -36.680377 -3.1822364e-16)
(104.73437 -4.9235085 -1.3772632e-16)
(125.06422 20.700001 -1.2133606e-16)
(141.37507 26.36183 -1.047243e-16)
(153.72076 18.93926 -6.6874253e-17)
(163.53994 14.1391 -5.2356899e-19)
(169.58537 0.17065569 1.2922112e-17)