/*--------------------------------*- C++ -*----------------------------------*\
  =========                 |
  \\      /  F ield         | OpenFOAM: The Open Source CFD Toolbox
   \\    /   O peration     | Website:  https://openfoam.org
    \\  /    A nd           | Version:  11
     \\/     M anipulation  |
\*---------------------------------------------------------------------------*/
FoamFile
{
    format      ascii;
    class       volScalarField;
    location    "0.03";
    object      p;
}
// * * * * * * * * * * * * * * * * * * * * * * * * * * * * * * * * * * * * * //

dimensions      [0 2 -2 0 0 0 0];

internalField   nonuniform List<scalar> 
880
(
79.99999999999999
80
80.00000000036655
79.99999981479009
80.00000000000001
80
80.00000000025663
79.99999806667672
80
80.00000000000001
80.00000017797527
80.00017439574835
79.99999999999996
80
79.99999914486169
80.00531896465928
80
80
79.99999999999999
80.00000000004803
80
80
80.00000000016257
80.00000000087874
80.00004056002629
80.00011014144532
80.00015601929675
79.99994143663697
80.15854790422216
80.58288357528092
80.85624077581855
80.86510917378892
80.00000000433126
80.00000000552384
80.00000000604271
80.00000000534318
80.00000043960343
80.00000057787456
80.00000063163503
80.00000052742027
80.00096756208771
80.0010640660538
80.00111392876157
80.00112434527986
80.90839849634521
80.97606699539966
80.97913463972262
81.11535320227803
80.87717709637978
80.43673811815542
80.10607065364181
80.00812456631525
80.00179462385734
80.00108911053351
80.00030826203921
80.0000262159878
80.00000144354144
80.00000093304162
80.00000026566983
80.00000002143821
80.0000000147003
80.00000000868482
80.00000000186826
80.00000000008968
79.99999999999983
80
79.99999999999999
80
80.00000000029513
80.00000000000003
79.99999999999999
79.99999999999999
80.0000003823348
79.99999999986645
79.99999999980881
79.99999999994884
80.0001230764075
79.99999995131643
79.99999988417106
79.99999997188979
79.99999999959887
80.00000000000739
80
80
79.9999988790169
79.9999999745182
79.99999999970569
79.99999999999999
80.00083683757616
80.00000675124946
80.00000001212027
80.00000000015669
79.85895439154277
79.99835265133945
79.99999898890023
79.99999999951083
80.0000000066477
80.00000076468886
80.00161583139939
82.07946032066215
80.00000002070846
80.00000240632897
80.00453734136197
83.97613638490522
80.00000002776653
80.00000318542094
80.00570216759611
84.597362977713
80.00000003525849
80.000003936581
80.00658403642218
84.85854502738779
85.12420931539896
80.00763909940437
80.00000490488011
80.00000004518365
85.42839271973166
80.00895567977176
80.000006194403
80.00000005864206
85.74813205735437
80.01051669236345
80.00000783773078
80.0000000765572
86.14231534012865
80.01277198084765
80.0000104571125
80.00000010622325
80.00000008513999
80.000008372008
80.01173191044232
86.23660316562443
80.00000009933824
80.00000958772023
80.01246203010012
86.0978568331022
80.00000012069886
80.00001079511811
80.01255659952815
85.46901958659058
80.0000000376171
80.00000424376239
80.0055314730235
82.44970971191619
79.99999961356704
79.99971280701469
79.9802564980282
80.24779662683557
79.99999982184445
79.99981234973153
79.9217104548387
74.76344561621883
79.9999998560251
79.99981956399722
79.89306109298182
69.97456675809022
79.99999990403958
79.99983695337228
79.87327614047565
68.23396782298698
71.17200434373026
79.93645171464918
79.99989052018094
79.99999989171617
71.48564347071587
79.94271805375715
79.99991265166256
79.99999992212507
72.55848750634622
79.9581948401578
79.9999406404248
79.99999994954919
71.19985868512096
79.94746655126472
79.99993238506708
79.99999994631098
76.97924021970775
79.99114136341635
79.99998910669569
79.99999999079343
79.63173869547397
79.99949644072794
79.9999995431105
79.99999999973711
79.91029954632303
79.99979275462967
79.99999975319921
79.99999999981135
79.80286928250338
79.99951738660857
79.99999938741399
79.99999999946915
79.35025041340879
79.996687443101
79.99999349885366
79.99999999531853
79.35127239244986
79.99669193373705
79.99999350309076
79.99999999529935
79.3522860054489
79.99669933424366
79.99999348707873
79.99999999484355
79.36654325904725
79.99676162847406
79.99999353233565
79.99999999386297
79.80286928250501
79.99951738659387
79.99999938739582
79.99999999945103
79.91029954632879
79.999792754601
79.99999975317053
79.99999999980854
79.63173869545315
79.99949644070783
79.99999954310809
79.99999999973252
76.97924021973068
79.9911413633949
79.99998910670422
79.99999999079425
79.99999989172846
79.9998905201887
79.93645171466598
71.17200434363261
79.99999992212152
79.99991265166453
79.94271805379492
71.48564347066586
79.99999994955283
79.99994064041596
79.95819484013052
72.55848750629335
79.99999994631408
79.99993238509057
79.94746655127025
71.19985868512615
68.23396782293379
79.87327614046299
79.99983695335817
79.99999990404558
69.97456675804314
79.89306109298093
79.99981956401335
79.9999998560212
74.76344561617991
79.92171045484253
79.99981234972131
79.99999982185665
80.24779662682623
79.98025649800542
79.99971280698929
79.99999961358539
80.00000008513302
80.00000837202377
80.01173191047323
86.2366031656245
80.00000009934224
80.00000958771214
80.01246203011546
86.09785683314919
80.00000012068429
80.0000107951267
80.01255659952785
85.46901958658584
80.00000003762511
80.00000424375349
80.00553147302128
82.44970971191532
86.14231534015404
80.01277198082319
80.0000104571204
80.00000010625175
85.74813205737945
80.01051669236372
80.00000783773278
80.00000007655919
85.42839271973129
80.00895567977732
80.00000619440382
80.00000005864293
85.12420931538826
80.0076390994173
80.00000490488789
80.00000004518873
80.00000000665143
80.00000076469577
80.00161583138951
82.07946032065448
80.00000002072694
80.00000240634866
80.00453734135588
83.97613638491144
80.00000002778637
80.00000318542988
80.00570216759394
84.59736297769877
80.00000003525552
80.00000393657807
80.00658403642868
84.85854502738204
79.99999999951115
80.00000000015459
79.99999999999999
80
79.99999898887305
80.00000001211018
79.9999999996998
80
79.99835265132172
80.00000675125941
79.99999997451074
80.00000000000753
79.85895439153248
80.00083683757562
79.99999887902568
79.99999999959873
79.99999999999999
79.99999999999999
79.99999999995043
79.99999997189411
79.99999999999999
80
79.99999999981091
79.9999998841776
80
80
79.99999999985627
79.99999995129798
79.99999999999987
80.00000000029351
80.00000038233922
80.00012307640279
80.00000001469897
80.00000144352151
80.00179462385944
80.877177096396
80.0000000086644
80.000000933056
80.00108911054228
80.43673811816134
80.00000000187272
80.00000026565671
80.0003082620277
80.10607065362457
80.00000000008917
80.00000002143545
80.00002621599572
80.00812456629882
81.11535320226844
80.00112434527088
80.00000052740927
80.00000000536554
80.97913463970622
80.00111392877933
80.00000063160945
80.00000000606015
80.97606699541109
80.00106406607546
80.00000057784722
80.00000000548947
80.90839849632656
80.00096756206858
80.00000043959086
80.00000000435442
80.86510917378141
79.99994143665418
80.0000000008806
80.00000000005173
80.85624077581272
80.00015601928716
80.00000000014528
80
80.58288357527434
80.00011014144162
80
79.99999999999997
80.15854790421169
80.00004056001482
80.00000000000001
80.00000000000001
79.99999999999999
80
80.00000000037147
79.99999981478669
80
80
80.00000000025732
79.9999980666794
80
80
80.00000017797447
80.00017439575271
80
80
79.99999914485672
80.00531896463683
79.99999932995067
79.99998995800807
80.00201072544476
80.11820223750001
79.99998995800668
79.99992092461012
80.01845260012799
80.82001089230444
80.0020107254466
80.0184526001301
80.50624585988017
84.28367763350997
80.11820223752443
80.82001089233128
84.2836776335606
96.30709195109031
112.0994991078727
98.10680538698097
92.00235557291228
84.91739146281479
113.7148232164969
109.3280637294854
106.7286222305848
97.68049085404391
115.1284531005811
115.1246577325151
113.9605520618571
106.3027224303444
116.2923080229019
117.3757372274752
116.1967083779478
108.2311466371618
109.108799623701
109.3579349247658
109.4838506316816
111.9203261617184
116.6438029882505
116.6624715333692
116.7302587279723
120.3759914875587
117.7648613950649
117.7508199968395
117.7937540454957
119.9983545564609
116.4194793305429
116.3135134003688
116.2847795001483
115.1945427168506
96.33248846994331
85.90740461349725
81.07140514469451
80.06421096026247
95.87558066217618
85.13526625368488
81.13393080466733
80.08598844117648
85.09559311604721
83.22576193830741
81.2329895013404
80.11340798666511
74.3525173696687
79.46546053319311
80.1955831558125
80.00501985064004
80.00088167175075
79.9999922595817
79.9999963411627
79.99999951330203
80.00119633906596
79.99998832768381
79.99999526882526
79.99999940615548
80.0016561753521
79.99998653401951
79.99999585244424
79.99999950938906
79.99960768947334
79.99996765307117
79.99999748855225
79.99999956505647
79.99999995315214
80.00000005111434
80.03098767787058
81.0364162763197
79.99999996996331
80.00000002599452
80.07240538615153
88.01085539744022
79.99999998672729
80.00000000703889
80.10978863350132
95.41620772314016
79.99999998289645
80.00000000227929
80.10744020070454
96.78972613214616
144.9473318448167
164.6526051682549
170.509281224609
171.1796201729023
165.1687245068104
177.0865780577423
184.6101442348346
185.4986017860845
165.1547282665856
174.1383053817516
182.7910652033327
184.0419556019696
169.9887526044419
167.0720716100813
173.2059688792118
174.9268699679718
171.3806249298045
171.5939755462434
171.7833831212535
171.8467666331157
185.5289817147429
185.5453010832437
185.529582348159
185.2950428225996
184.0782559022931
184.0840026003457
184.0620196406315
183.930284435419
175.015631088929
175.0347915340171
175.0447590035973
174.9371182812223
169.5401387850301
166.7182696579699
157.7459419760001
125.1311124429568
184.860037360802
183.0323875642976
174.7419540751007
149.4113495629714
184.3999578990726
183.3157811866842
173.5878604921294
153.826281082097
175.6062877972442
175.2624955325039
167.9783802563925
158.3521748888054
82.96162294354747
45.74660361384829
20.96615258628171
17.17012979326195
78.80351222601638
31.87229684846112
14.41070515147207
11.0906215242757
59.01634262423748
24.49390382809369
14.1347379886491
11.55333471531665
26.9800146221217
13.56869781241882
13.31716593031758
12.69911707278535
16.96962958481947
17.24321208747294
18.02475309266209
15.93549233554442
10.61076374497542
10.90676279845224
12.6806875999564
12.22102306789232
11.28268584504591
11.78097502241559
13.48071056329823
13.25729435099634
12.68851497546562
13.30423133187047
14.57613226978962
12.06986400816717
47.61862362889852
70.66209573072769
76.23076613325809
72.78605149961643
37.13481388348154
60.18213184771535
70.39019509655716
69.35214009871254
29.94958387950351
53.03608407984551
64.02002037817414
68.47752573679134
17.98097920845391
43.2722255642532
58.92415231656653
67.44286613967766
73.11734473749243
65.53664986324003
56.81792109257113
48.05150446691051
61.15661017090193
53.06422836287335
44.64949651895066
32.78963069864573
36.98730614758423
34.92058852174318
39.00163604656894
31.68661534388125
24.06463174543466
8.687729834955539
12.5925990768053
16.53812193404036
14.99042619039938
9.866348033023337
7.310909651542528
7.015022346457079
21.22516850133131
15.72610869187005
14.51343291244325
14.30387840590195
24.92906124885366
22.61640471224216
22.17982693462564
22.08355584240085
43.35326061049293
42.35019420610844
42.08860040382629
42.00706003816939
7.015022346458097
14.30387840590202
22.08355584239625
42.00706003815226
7.310909651545547
14.51343291244508
22.17982693462157
42.08860040381825
9.866348033024614
15.72610869186864
22.61640471224323
42.35019420613002
14.99042619040211
21.2251685013304
24.92906124885251
43.35326061050265
48.05150446692232
56.81792109258446
65.53664986325036
73.11734473749311
32.78963069864978
44.64949651895036
53.0642283628687
61.15661017089646
31.68661534388302
39.00163604656828
34.92058852174817
36.98730614758595
16.53812193404516
12.5925990768086
8.687729834958395
24.06463174543306
67.44286613967543
58.92415231656443
43.27222556424476
17.98097920844714
68.4775257367901
64.02002037816969
53.03608407983827
29.94958387950103
69.35214009871206
70.39019509655549
60.18213184770665
37.13481388348121
72.78605149961643
76.2307661332587
70.66209573071463
47.61862362890055
15.93549233554433
18.02475309265636
17.24321208746341
16.96962958480401
12.22102306789543
12.68068759996128
10.90676279845427
10.61076374497458
13.25729435099951
13.48071056330399
11.78097502241969
11.28268584504636
12.06986400816596
14.576132269797
13.30423133188023
12.68851497546725
17.17012979325375
20.96615258618504
45.74660361366548
82.96162294351082
11.09062152427505
14.41070515143066
31.87229684838513
78.80351222595729
11.55333471531422
14.13473798862151
24.49390382805798
59.01634262422557
12.69911707278333
13.31716593031137
13.56869781241615
26.98001462212121
125.1311124429155
157.7459419759644
166.7182696579737
169.5401387850408
149.4113495629313
174.7419540750759
183.0323875642853
184.8600373607987
153.8262810820705
173.5878604921045
183.3157811866695
184.3999578990733
158.3521748888015
167.9783802563823
175.2624955324946
175.6062877972446
171.8467666331217
171.7833831212789
171.5939755462299
171.3806249298002
185.2950428225986
185.5295823481839
185.545301083234
185.5289817147317
183.9302844354217
184.0620196406515
184.0840026003355
184.078255902278
174.9371182812306
175.0447590036109
175.0347915340077
175.0156310889125
171.1796201729016
170.509281224608
164.652605168282
144.9473318448476
185.4986017860776
184.6101442348405
177.086578057773
165.1687245068244
184.0419556019647
182.7910652033387
174.1383053817815
165.1547282665975
174.9268699679717
173.2059688792179
167.0720716100994
169.9887526044334
81.03641627631249
80.03098767786881
80.00000005108407
79.99999995315318
88.01085539743302
80.07240538614874
80.00000002597817
79.99999996996492
95.41620772313749
80.10978863350006
80.00000000703413
79.99999998672806
96.78972613214566
80.10744020070254
80.00000000227749
79.99999998289691
79.99999951330315
79.99999634116762
79.99999225957532
80.00088167175657
79.9999994061572
79.9999952688228
79.99998832767842
80.00119633907298
79.99999950939056
79.99999585244018
79.99998653401389
80.00165617536109
79.99999956505778
79.99999748855095
79.99996765305868
79.99960768948371
80.06421096025186
81.07140514468159
85.90740461349644
96.33248846995704
80.0859884411652
81.13393080466093
85.13526625368405
95.87558066218135
80.11340798665728
81.23298950133803
83.22576193831175
85.0955931160475
80.00501985063362
80.19558315580943
79.46546053319651
74.35251736967123
111.9203261617133
109.4838506316854
109.357934924774
109.1087996236887
120.3759914875466
116.7302587279843
116.6624715333859
116.6438029882462
119.9983545564442
117.7937540455167
117.7508199968573
117.764861395071
115.1945427168311
116.2847795001635
116.3135134003898
116.4194793305516
108.2311466371417
106.3027224303045
97.68049085408964
84.91739146283376
116.1967083779398
113.9605520618297
106.7286222305949
92.00235557289359
117.3757372274549
115.1246577324987
109.3280637294898
98.10680538690819
116.2923080229174
115.1284531006739
113.7148232165557
112.0994991078473
79.86324347752262
79.99945059062318
79.99999902743026
79.99999999909011
79.65232094984765
79.99852875118918
79.99999727428315
79.99999999723163
79.36635467245665
79.9971889706901
79.99999477090978
79.9999999945896
79.08417562660013
79.99606546808553
79.99999296115864
79.99999999299672
79.99999999533659
79.99999349885464
79.9966874431
79.35025041340677
79.9999999952887
79.99999350310082
79.99669193374289
79.35127239244746
79.9999999948453
79.99999348706029
79.99669933424322
79.35228600543554
79.99999999387137
79.99999353233052
79.99676162848941
79.36654325903557
79.99999999297422
79.99999999460218
79.99999999723927
79.99999999907685
79.99999296113856
79.99999477090898
79.99999727428833
79.99999902744266
79.99606546807956
79.99718897068551
79.99852875120651
79.99945059061444
79.0841756265862
79.36635467245171
79.65232094986493
79.8632434775257
)
;

boundaryField
{
    back
    {
        type            empty;
    }
    inlet
    {
        type            zeroGradient;
    }
    front
    {
        type            empty;
    }
    top
    {
        type            zeroGradient;
    }
    outlet
    {
        type            fixedValue;
        value           uniform 80;
    }
    bottom
    {
        type            zeroGradient;
    }
    wall
    {
        type            zeroGradient;
    }
}


// ************************************************************************* //
