/*--------------------------------*- C++ -*----------------------------------*\
  =========                 |
  \\      /  F ield         | OpenFOAM: The Open Source CFD Toolbox
   \\    /   O peration     | Website:  https://openfoam.org
    \\  /    A nd           | Version:  11
     \\/     M anipulation  |
\*---------------------------------------------------------------------------*/
FoamFile
{
    format      ascii;
    class       volVectorField;
    location    "2";
    object      U;
}
// * * * * * * * * * * * * * * * * * * * * * * * * * * * * * * * * * * * * * //

dimensions      [0 1 -1 0 0 0 0];

internalField   nonuniform List<vector> 
5472
(
(10.571899 2.7906325 1.5367454e-18)
(10.771131 2.7960158 -1.6002086e-18)
(10.969429 2.7590012 -1.6003977e-18)
(11.207516 2.7366352 -1.6175526e-18)
(11.357973 2.6752966 5.0081581e-18)
(11.585266 2.6095074 -4.093834e-20)
(11.789595 2.5231373 -2.6222628e-18)
(11.92962 2.4257053 9.1594122e-19)
(12.14415 2.3099306 0)
(12.298063 2.1847497 0)
(12.454075 2.0390296 0)
(12.594602 1.8972458 -2.755351e-18)
(12.738072 1.7349885 1.4125223e-18)
(12.840455 1.5535628 -2.6870431e-20)
(12.957808 1.3948229 9.3861185e-19)
(13.037411 1.1789913 -4.8410823e-19)
(13.107349 1.0114897 -7.1821734e-19)
(13.171991 0.8075936 2.4794428e-19)
(13.200212 0.6163814 0)
(10.56925 2.5677097 -1.4095606e-18)
(10.739834 2.5760889 2.9020189e-18)
(10.97169 2.5419328 -1.4940458e-18)
(11.122086 2.5324726 -1.4874295e-18)
(11.302705 2.4680161 2.8295736e-20)
(11.551563 2.4160499 0)
(11.659925 2.3402645 1.5702249e-18)
(11.869586 2.2564664 -3.18644e-18)
(12.05519 2.140951 4.1075563e-18)
(12.188687 2.039951 8.3401066e-19)
(12.349791 1.8989228 0)
(12.49498 1.7682353 1.714355e-18)
(12.620807 1.6122807 0)
(12.733688 1.4600844 4.271412e-19)
(12.848918 1.2851295 -4.3997129e-19)
(12.918579 1.1279538 0)
(13.012892 0.94309458 0)
(13.055625 0.78449635 -2.1736882e-19)
(13.124716 0.60253968 0)
(10.508519 2.3652113 0)
(10.709809 2.3864685 1.3270054e-18)
(10.852338 2.3795754 1.3534838e-18)
(11.018774 2.3630308 0)
(11.245636 2.3261523 -2.3292918e-20)
(11.372768 2.2943301 -3.0896004e-20)
(11.55273 2.2354546 -1.4608544e-18)
(11.757221 2.1542354 0)
(11.890763 2.0760664 -1.4765696e-18)
(12.045055 1.9741262 -3.7668288e-18)
(12.21506 1.8550617 1.5101055e-20)
(12.340886 1.7334558 -7.5045917e-19)
(12.472588 1.5949355 -7.7368164e-19)
(12.596661 1.4450366 1.5864723e-18)
(12.698614 1.3008925 1.1870578e-18)
(12.794471 1.128414 3.9964449e-19)
(12.876883 0.97332003 1.9784617e-19)
(12.931205 0.79577431 -2.9865507e-19)
(12.989166 0.62311095 9.9301175e-20)
(10.516221 2.1860729 0)
(10.663301 2.2008251 -1.1977294e-18)
(10.82845 2.1898033 -1.2203156e-18)
(11.006264 2.190813 2.474253e-18)
(11.149961 2.1590435 -1.3056959e-18)
(11.330902 2.1338302 0)
(11.500828 2.0714096 -1.3243414e-18)
(11.668004 2.0172458 1.3224867e-18)
(11.804789 1.9336029 -1.3693936e-18)
(11.984555 1.8464734 -2.2776918e-20)
(12.129663 1.7288217 -1.4007183e-18)
(12.25421 1.6266495 0)
(12.409021 1.4799235 0)
(12.500778 1.3586788 -7.0594304e-19)
(12.631343 1.1932718 -7.0943064e-19)
(12.705543 1.0578283 0)
(12.796639 0.8793219 -1.7900103e-19)
(12.84735 0.72961009 9.1005514e-20)
(12.911451 0.55244837 1.7987056e-19)
(10.452432 1.9966356 0)
(10.622621 2.0259491 0)
(10.741747 2.0294731 0)
(10.900891 2.0367004 -2.2482838e-18)
(11.060421 2.0156005 1.1713939e-18)
(11.211451 2.004451 -3.5106735e-18)
(11.369719 1.9615004 4.7831483e-18)
(11.521318 1.9143183 -2.4262963e-18)
(11.675741 1.8555229 3.5768556e-21)
(11.836963 1.7648515 1.235354e-18)
(11.964031 1.6854054 1.2487141e-18)
(12.112431 1.5711972 -2.5422448e-18)
(12.235589 1.4581813 1.9281795e-18)
(12.350357 1.3309365 -6.4993012e-19)
(12.46286 1.193077 0)
(12.540374 1.0505259 6.5425423e-19)
(12.635035 0.88824195 -3.2740248e-19)
(12.684185 0.7469105 1.6150396e-19)
(12.74655 0.56028731 -1.6037473e-19)
(10.47804 1.8253174 0)
(10.600031 1.8682227 -3.9402373e-18)
(10.729934 1.8676609 2.031507e-18)
(10.889167 1.8794576 2.0630321e-18)
(11.009685 1.8779443 1.0415029e-18)
(11.17124 1.8549245 -1.0519916e-18)
(11.313823 1.8252108 2.1850243e-18)
(11.469347 1.79359 1.0884379e-18)
(11.614953 1.7200693 2.2053558e-18)
(11.766768 1.6664874 -2.2546081e-18)
(11.896017 1.5646345 2.0601811e-20)
(12.046236 1.4768146 2.2990975e-18)
(12.154636 1.3657983 0)
(12.284109 1.2440534 -5.8638036e-19)
(12.373332 1.115055 5.8011307e-19)
(12.476125 0.97386394 -1.4594805e-18)
(12.543347 0.82885955 5.8405577e-19)
(12.611198 0.67857754 -1.454568e-19)
(12.656261 0.52047328 6.1811875e-22)
(10.432887 1.6671327 3.5160251e-18)
(10.542493 1.7044937 3.5677436e-18)
(10.669413 1.7127617 0)
(10.786286 1.743391 -7.1608293e-21)
(10.914676 1.7241142 -3.7843017e-18)
(11.060597 1.7315799 3.8755834e-18)
(11.192571 1.7123379 0)
(11.344602 1.6742645 -9.9805816e-19)
(11.483449 1.6410077 -4.0040647e-18)
(11.624913 1.569942 2.0531605e-18)
(11.762476 1.5021678 1.0187726e-18)
(11.896542 1.4158113 -1.0451029e-18)
(12.016106 1.31522 0)
(12.140221 1.203914 5.1951416e-19)
(12.238661 1.0897627 0)
(12.336944 0.94919521 -5.2316097e-19)
(12.415272 0.81863612 7.9057621e-19)
(12.482593 0.6722879 8.3226361e-22)
(12.534631 0.51862321 -1.0659951e-21)
(10.425506 1.5275759 1.5764306e-18)
(10.530266 1.5539174 -3.2162061e-18)
(10.637853 1.5721634 -3.2619435e-18)
(10.755681 1.5923069 3.3556268e-18)
(10.886369 1.5904611 -1.7186648e-18)
(11.012032 1.59668 -1.727658e-18)
(11.152287 1.5742841 0)
(11.283712 1.5617958 2.6632394e-18)
(11.418882 1.5125527 -1.6183704e-20)
(11.552854 1.4715698 -2.7386209e-18)
(11.681956 1.3979253 2.7963064e-18)
(11.808533 1.3232852 0)
(11.929093 1.2297013 0)
(12.040134 1.1294287 9.3482857e-19)
(12.137912 1.0158576 -4.8157384e-19)
(12.228991 0.88757889 -9.4491859e-19)
(12.302557 0.76587381 2.3965838e-19)
(12.365198 0.61284261 2.4018028e-19)
(12.414173 0.48763821 5.7934051e-20)
(10.395804 1.3875873 -1.4147127e-18)
(10.486216 1.4020498 4.3219017e-18)
(10.584578 1.4362184 -4.4520265e-18)
(10.699674 1.451914 3.0124138e-18)
(10.805824 1.4632177 0)
(10.929698 1.4724526 1.549645e-18)
(11.05049 1.4679062 -1.5977171e-18)
(11.172874 1.4497211 0)
(11.308892 1.4241454 8.0596202e-19)
(11.434418 1.3814104 -1.6691753e-18)
(11.569359 1.3223234 -8.2487612e-19)
(11.690275 1.2579998 -1.1679017e-20)
(11.81343 1.1681515 -2.5285293e-18)
(11.920287 1.0836821 4.3688682e-19)
(12.026795 0.970937 -4.1456506e-19)
(12.112123 0.8665875 8.5120802e-19)
(12.19365 0.73049507 -4.2048521e-19)
(12.257662 0.61327005 2.1659506e-19)
(12.308165 0.46442411 2.0990558e-19)
(10.390824 1.2522198 -2.5557612e-18)
(10.470405 1.2617673 0)
(10.559707 1.3006447 1.3233933e-18)
(10.652352 1.3134441 -4.0368747e-18)
(10.748695 1.3299156 1.3904723e-18)
(10.862508 1.3390415 -1.4052311e-18)
(10.967508 1.3358309 1.4123834e-18)
(11.095078 1.3295435 -1.4528881e-18)
(11.210357 1.3050035 0)
(11.336236 1.2707543 7.3329956e-19)
(11.455788 1.2251931 0)
(11.574944 1.1613432 7.4398788e-19)
(11.688392 1.0933874 1.4330316e-22)
(11.796572 1.0011667 -3.7402321e-19)
(11.896598 0.9117748 3.7524436e-19)
(11.985578 0.79618536 3.7598284e-19)
(12.063076 0.68723297 -3.7550152e-21)
(12.124747 0.55892967 -5.6478162e-19)
(12.174036 0.43089352 0)
(10.372257 1.1338355 0)
(10.435472 1.1484725 1.1656009e-18)
(10.519959 1.1932724 0)
(10.613738 1.2025062 1.1953708e-18)
(10.709191 1.2248824 -3.7026779e-18)
(10.817997 1.230735 3.7730477e-18)
(10.924203 1.2354184 -1.2517922e-18)
(11.041838 1.2304141 3.8936275e-18)
(11.149791 1.2132483 0)
(11.276607 1.1863754 6.6246292e-19)
(11.385439 1.1452737 0)
(11.509948 1.0930815 -1.3283549e-18)
(11.613404 1.0300979 2.6882497e-18)
(11.723963 0.9481137 -9.9585701e-21)
(11.812727 0.86584998 -3.3932433e-19)
(11.908013 0.75965185 0)
(11.973321 0.65726754 0)
(12.046851 0.5320877 0)
(12.082316 0.41806196 -4.1887637e-20)
(10.360954 1.0146086 4.0622349e-18)
(10.407489 1.0267024 -5.2227058e-18)
(10.493183 1.0661284 2.1149572e-18)
(10.560165 1.0700729 -1.0705798e-20)
(10.642983 1.1032294 0)
(10.737406 1.110663 -2.227297e-18)
(10.829334 1.1234519 1.1545613e-18)
(10.935151 1.1178983 -1.1473491e-18)
(11.037274 1.1095292 0)
(11.151041 1.0834841 -5.8532976e-19)
(11.256933 1.0536326 1.17737e-18)
(11.373968 1.0076717 -1.6577791e-20)
(11.474868 0.95405838 -1.2056998e-18)
(11.583795 0.88009816 -2.3924169e-18)
(11.670145 0.80391407 2.1041725e-18)
(11.763326 0.70701555 -1.2007739e-18)
(11.828683 0.61381178 7.5268685e-19)
(11.90295 0.49926297 1.5013959e-19)
(11.939586 0.39510191 3.6764317e-20)
(10.348901 0.918854 -6.3703378e-18)
(10.393756 0.93675066 3.73315e-18)
(10.481398 0.97297405 0)
(10.540404 0.98423474 -4.809645e-18)
(10.628962 1.0113504 3.9496584e-18)
(10.714066 1.0112862 1.0007982e-18)
(10.804888 1.026246 3.0301815e-18)
(10.905578 1.0239469 -2.0642257e-18)
(11.003354 1.019714 -2.5827447e-18)
(11.109718 0.99794055 1.5822774e-18)
(11.214383 0.97298352 2.0959818e-18)
(11.320059 0.93061168 -3.1893326e-18)
(11.416931 0.88568431 2.1294406e-18)
(11.518719 0.8171375 -5.433551e-19)
(11.601837 0.74752102 2.6237639e-19)
(11.691713 0.65412843 -5.6665272e-21)
(11.755813 0.56596904 -6.6660021e-19)
(11.824124 0.45791416 -1.3163529e-19)
(11.866647 0.36053263 -3.3064014e-20)
(10.311803 0.80322666 2.4457574e-18)
(10.346513 0.82658216 3.3034757e-18)
(10.423558 0.85145648 -3.3913774e-18)
(10.469683 0.87644763 8.6129726e-19)
(10.561198 0.89376622 -2.6062112e-18)
(10.627865 0.91141673 2.683972e-18)
(10.716625 0.92080939 8.9372512e-19)
(10.804857 0.92095431 -4.5624646e-18)
(10.897941 0.9183533 3.2216589e-18)
(11.000652 0.90668775 -1.4081866e-18)
(11.096109 0.89048374 0)
(11.201663 0.85953049 -4.7259542e-19)
(11.296699 0.82210279 -1.4130827e-18)
(11.393432 0.76223908 4.8653492e-19)
(11.478162 0.70215368 1.4247066e-18)
(11.55935 0.61861672 4.7026914e-19)
(11.626271 0.53833678 -9.4310746e-19)
(11.690888 0.43673546 2.3765982e-19)
(11.731602 0.34750635 2.6283988e-19)
(10.315482 0.72762437 -3.6043227e-18)
(10.35693 0.74459951 2.9583272e-18)
(10.411519 0.77361762 0)
(10.468313 0.78866553 -7.6346497e-19)
(10.527226 0.80928222 3.0971854e-18)
(10.603479 0.8301379 -6.308967e-18)
(10.679806 0.82691765 8.3204499e-19)
(10.763724 0.84295882 3.2606679e-18)
(10.848528 0.82373501 2.4582839e-18)
(10.94157 0.82214032 -4.1349618e-19)
(11.032676 0.79372157 0)
(11.133874 0.77518933 2.0724281e-18)
(11.222085 0.7348569 -8.4643759e-19)
(11.316236 0.68865167 8.3661806e-19)
(11.401815 0.6283629 -1.2604496e-18)
(11.476669 0.55554153 -2.1000817e-19)
(11.550488 0.47738476 0)
(11.601355 0.39041555 0)
(11.653297 0.30179868 -2.5902331e-20)
(10.267053 0.63213572 6.1543079e-19)
(10.301468 0.65906496 -5.9108046e-18)
(10.36525 0.68627037 2.6587911e-18)
(10.421217 0.70253158 -3.4011086e-18)
(10.474841 0.72458537 -6.8796054e-19)
(10.556002 0.73440899 0)
(10.616235 0.74677503 -3.5260766e-18)
(10.704424 0.75677983 2.1641764e-18)
(10.774197 0.75059969 -7.2526867e-19)
(10.864118 0.7523891 -2.2766888e-21)
(10.949537 0.73064824 0)
(11.036319 0.72158135 0)
(11.123445 0.67918364 -3.6783627e-19)
(11.210678 0.64755674 -3.6812733e-19)
(11.29218 0.58858559 1.8395821e-19)
(11.368686 0.52932435 1.1039047e-18)
(11.435389 0.4545695 -7.3962133e-19)
(11.48666 0.37338876 9.2122618e-20)
(11.534264 0.28826927 2.2629459e-20)
(10.271784 0.54628129 3.9808848e-18)
(10.294763 0.56804293 -4.0770672e-18)
(10.351055 0.60130062 0)
(10.387093 0.62125289 6.0015348e-19)
(10.451371 0.64324034 0)
(10.514047 0.65185309 6.1933321e-19)
(10.57823 0.6586565 6.2722701e-19)
(10.659481 0.66351595 0)
(10.725066 0.65916971 3.180656e-18)
(10.816879 0.65677324 -2.2670156e-18)
(10.889633 0.64468834 1.6128077e-18)
(10.978219 0.62902793 -1.3071536e-18)
(11.057665 0.59727193 1.2965414e-18)
(11.138165 0.56714502 -1.3589941e-20)
(11.2186 0.51367238 -1.3105755e-18)
(11.29004 0.4656829 -1.6190574e-19)
(11.357068 0.39742123 -1.6289049e-19)
(11.409975 0.32967848 -8.0401323e-20)
(11.453796 0.25359129 0)
(10.238633 0.48136326 4.5545207e-18)
(10.266347 0.49888283 0)
(10.326202 0.52363143 0)
(10.357284 0.54623267 5.3179366e-19)
(10.423813 0.57238421 0)
(10.466639 0.5853547 -5.4535853e-19)
(10.539598 0.59790334 -5.5166306e-19)
(10.598962 0.60083726 -2.2244209e-18)
(10.674353 0.59971805 2.2634867e-18)
(10.750728 0.60102196 0)
(10.825301 0.59424815 -2.5545189e-18)
(10.906815 0.58005995 2.0144719e-18)
(10.979317 0.55521361 1.1416517e-18)
(11.058049 0.52331905 -2.2964192e-18)
(11.127982 0.47831645 2.29475e-18)
(11.194073 0.43162794 -1.7203327e-18)
(11.255302 0.36824027 5.7203986e-19)
(11.30375 0.30598911 0)
(11.34706 0.23287181 0)
(10.202902 0.40214148 7.1547798e-18)
(10.225193 0.428366 -3.6469124e-18)
(10.282378 0.44302106 3.6875555e-18)
(10.313484 0.46454025 -4.2321083e-18)
(10.38013 0.48593146 -3.7929877e-18)
(10.421002 0.50012977 3.8652602e-18)
(10.490647 0.51015299 1.9410817e-18)
(10.543898 0.51181965 -1.5216452e-20)
(10.61695 0.51195569 -1.9919749e-18)
(10.682604 0.51118721 0)
(10.763208 0.50890363 0)
(10.835394 0.49681954 2.5088236e-19)
(10.91536 0.48116462 0)
(10.987599 0.45332764 1.0040423e-18)
(11.061811 0.42000972 -1.0125568e-18)
(11.126955 0.37487381 -5.007438e-19)
(11.185565 0.32523013 6.2814229e-19)
(11.233987 0.26585547 -3.1160107e-19)
(11.274373 0.20618762 2.4871855e-19)
(10.196411 0.33528121 0)
(10.215523 0.36864189 0)
(10.26472 0.37844791 3.2558504e-18)
(10.292001 0.40805504 -3.3180915e-18)
(10.355226 0.42203815 3.7626762e-18)
(10.390905 0.44826818 -3.8276196e-18)
(10.463135 0.45393835 0)
(10.507533 0.46070608 4.3323745e-19)
(10.579347 0.45797905 1.7363131e-18)
(10.634804 0.4564087 -1.7612524e-18)
(10.70619 0.45042984 1.7539843e-18)
(10.768784 0.442422 -1.6073242e-20)
(10.839506 0.427676 -3.5393547e-18)
(10.902045 0.40551503 1.7779719e-18)
(10.968528 0.37697258 0)
(11.028603 0.33701114 -8.7819696e-19)
(11.08418 0.29187881 1.3754621e-18)
(11.129039 0.23814053 -6.0308625e-19)
(11.169442 0.18287036 2.1805054e-19)
(10.14743 0.26905512 1.081035e-17)
(10.169266 0.29494687 -5.6779776e-18)
(10.219661 0.30007824 0)
(10.24568 0.32797448 -3.6461558e-19)
(10.306081 0.33827281 -3.6841598e-19)
(10.337935 0.36204341 3.7243264e-19)
(10.409147 0.37482457 0)
(10.451167 0.39214233 -3.7921235e-19)
(10.531233 0.38698386 3.048456e-18)
(10.587786 0.39289808 -3.0892621e-18)
(10.66471 0.38085852 0)
(10.728636 0.37953613 0)
(10.80381 0.36451165 1.9421088e-19)
(10.865195 0.34988805 9.7086326e-20)
(10.934317 0.32509348 -9.6956899e-20)
(10.986884 0.29401775 0)
(11.049367 0.25636305 -4.3130479e-19)
(11.087158 0.20914345 3.8453252e-19)
(11.128311 0.16237438 0)
(10.132646 0.22068007 -9.8443708e-18)
(10.156127 0.24398728 1.0299273e-17)
(10.19401 0.25542258 -1.9712759e-20)
(10.226103 0.27680332 -4.8171912e-18)
(10.278284 0.28343765 0)
(10.31026 0.30459421 2.612359e-18)
(10.368748 0.30633121 -5.4528455e-18)
(10.410718 0.32416912 2.6733115e-18)
(10.476398 0.32182478 0)
(10.521097 0.3323916 -2.6851735e-18)
(10.591911 0.32074066 2.7158902e-18)
(10.64544 0.31985179 1.3494296e-18)
(10.718272 0.30665803 -1.3610262e-18)
(10.771919 0.29514067 1.1796985e-18)
(10.841824 0.27304179 -1.2738759e-18)
(10.889682 0.24391798 0)
(10.948795 0.21133475 -4.2122191e-20)
(10.988818 0.17164544 -1.2495663e-19)
(11.031341 0.12836646 1.7717854e-19)
(10.092275 0.15295328 2.7060461e-19)
(10.111275 0.17418585 -5.4911545e-19)
(10.148418 0.18803996 4.4419357e-18)
(10.177272 0.21143677 2.6323524e-19)
(10.229387 0.22402657 -3.0611182e-19)
(10.267296 0.24448596 -4.6079347e-18)
(10.327834 0.24958822 1.44648e-19)
(10.374607 0.26422128 2.4725575e-18)
(10.437766 0.26363392 -2.3553887e-18)
(10.492742 0.26919454 -1.4760262e-19)
(10.564307 0.26254168 0)
(10.612992 0.26421862 2.5083083e-18)
(10.685515 0.25690425 -2.5278953e-18)
(10.729667 0.25492504 -1.1055374e-18)
(10.805988 0.23431289 8.3788406e-20)
(10.85572 0.21597527 1.7695219e-18)
(10.921709 0.18627374 -5.52399e-19)
(10.950675 0.15615731 -5.4716313e-20)
(10.987829 0.12272475 -9.0456024e-21)
(10.078748 0.10648502 0)
(10.095816 0.1271808 2.4107074e-19)
(10.131133 0.13835719 3.9002307e-18)
(10.160863 0.15167726 -4.3283275e-18)
(10.201385 0.16064266 4.1069968e-18)
(10.236336 0.18005422 -4.03718e-18)
(10.286067 0.1861841 1.27038e-19)
(10.328226 0.20242082 -1.2746513e-19)
(10.390784 0.19900387 1.9171914e-18)
(10.439679 0.20421063 -1.9390868e-18)
(10.513344 0.19567209 1.9267452e-18)
(10.558459 0.19264454 -2.1384944e-18)
(10.628933 0.18298777 0)
(10.672983 0.17779167 1.0269359e-18)
(10.741599 0.15978576 -1.1614895e-18)
(10.782724 0.14477942 5.1097519e-19)
(10.843051 0.12530335 -4.8075728e-19)
(10.876389 0.10757909 -2.2185207e-19)
(10.917746 0.070126017 2.5736617e-19)
(10.033616 0.058183016 -1.106855e-20)
(10.052678 0.075008302 -6.7806064e-18)
(10.0821 0.088213185 1.0717346e-19)
(10.110926 0.10735907 -2.2208278e-22)
(10.154286 0.11264953 1.0913167e-19)
(10.197492 0.12531025 0)
(10.243133 0.13426457 3.5424345e-18)
(10.289908 0.14865675 -3.6942769e-18)
(10.343258 0.15680122 1.1195392e-19)
(10.398761 0.16233563 -1.738567e-18)
(10.458028 0.1655323 3.6650847e-18)
(10.511636 0.16822884 -3.610873e-18)
(10.574523 0.1680294 1.8114744e-18)
(10.630325 0.16263748 0)
(10.69804 0.14645837 -8.6553992e-19)
(10.750818 0.13578656 8.9718791e-19)
(10.80002 0.1209424 -1.3824756e-20)
(10.842925 0.1088252 4.3338812e-23)
(10.876466 0.081780414 -3.4295212e-21)
(10.026167 0.024072623 5.9021665e-18)
(10.036889 0.032678976 -5.9314207e-18)
(10.058896 0.039689907 5.9168921e-18)
(10.084665 0.047206506 9.4665592e-20)
(10.122703 0.055243875 0)
(10.160884 0.060294796 0)
(10.210029 0.061428045 -4.8214161e-20)
(10.260423 0.065242356 -3.0586926e-18)
(10.315561 0.062554691 3.1867233e-18)
(10.375674 0.064549578 3.0990465e-18)
(10.431745 0.060559568 -1.5129442e-18)
(10.49211 0.059863505 -1.6481121e-18)
(10.550365 0.055756597 0)
(10.609119 0.056025167 2.4482612e-20)
(10.663849 0.050273702 2.4313835e-20)
(10.706931 0.04592161 7.6043433e-19)
(10.760342 0.034352191 -7.8688559e-19)
(10.799386 0.030115658 1.7354041e-19)
(10.836629 0.0099445755 -1.9136875e-19)
(10.009253 0.0083098407 -3.9790813e-20)
(10.01888 0.012276524 5.1369656e-18)
(10.034693 0.01801109 -7.5696361e-21)
(10.057075 0.024827985 -1.1039384e-20)
(10.08644 0.03197614 -5.3040598e-18)
(10.122978 0.039378664 0)
(10.165908 0.046485849 2.6373804e-18)
(10.214827 0.052984279 -2.6630416e-18)
(10.26914 0.058766046 -4.2143153e-20)
(10.328133 0.062709667 -2.1105567e-20)
(10.391052 0.064920769 -2.1110681e-20)
(10.455941 0.065064284 2.1097648e-20)
(10.519392 0.064190704 0)
(10.581818 0.062309153 1.3254975e-18)
(10.641933 0.063098703 -1.3565157e-18)
(10.698557 0.05733905 -6.6007451e-19)
(10.748346 0.055556939 6.7317289e-19)
(10.799642 0.049678637 3.3765544e-19)
(10.827435 0.033608378 -3.3214975e-19)
(13.256297 0.44022561 -1.1609616e-19)
(13.262183 0.25063012 -4.6608773e-19)
(13.284803 0.074944586 4.5435088e-19)
(13.262336 -0.089810623 0)
(13.261474 -0.2565014 -8.4372977e-19)
(13.211947 -0.40685335 -1.6323168e-18)
(13.196304 -0.57093109 0)
(13.11684 -0.69352735 -2.0579541e-20)
(13.117998 -0.87015226 2.770872e-18)
(13.008439 -0.97264403 1.3195417e-18)
(13.035092 -1.1488444 -1.2428974e-18)
(12.909335 -1.2577521 2.3311045e-18)
(12.90901 -1.4260997 -2.1835351e-18)
(12.803186 -1.5562632 0)
(12.760288 -1.7029932 9.8375626e-19)
(12.691299 -1.8791167 -9.0098524e-19)
(12.621958 -2.0116139 -1.7241093e-18)
(12.584003 -2.2220835 1.6180321e-18)
(12.4831 -2.4011646 -7.5028461e-19)
(13.126945 0.42500549 -1.0128787e-19)
(13.17052 0.23379896 6.042297e-19)
(13.157761 0.042886471 -3.9603276e-19)
(13.154249 -0.13043138 0)
(13.128894 -0.31041244 -7.4735513e-19)
(13.100927 -0.46989455 2.1475315e-18)
(13.054613 -0.63094846 0)
(13.003075 -0.77481327 0)
(12.946981 -0.93623864 0)
(12.859554 -1.0527255 0)
(12.845763 -1.212962 2.210499e-18)
(12.705042 -1.3205277 -3.1627551e-18)
(12.703545 -1.4792146 -3.0031033e-18)
(12.553266 -1.5804933 1.8703849e-18)
(12.516972 -1.7526627 -1.7766308e-18)
(12.402277 -1.8603484 1.7063392e-18)
(12.303335 -2.0319313 -2.0869988e-20)
(12.233081 -2.2085558 -1.5010325e-18)
(12.111129 -2.3570436 1.4557133e-18)
(13.007318 0.44028157 0)
(13.036321 0.24797695 -3.5519086e-19)
(13.031468 0.063940479 -6.9228012e-19)
(13.00865 -0.12496505 -2.1808259e-21)
(12.987638 -0.2924798 -7.1430515e-21)
(12.939288 -0.46967053 1.2800388e-18)
(12.899107 -0.61097597 -2.4287732e-18)
(12.83018 -0.78611716 1.1513453e-18)
(12.767743 -0.91192522 1.6487959e-20)
(12.688313 -1.0764909 0)
(12.622051 -1.1957507 3.0112354e-18)
(12.530907 -1.3450493 8.4072138e-21)
(12.458796 -1.4716003 1.8096491e-18)
(12.34627 -1.5967692 1.7410574e-18)
(12.262694 -1.7533226 2.4424345e-18)
(12.138993 -1.843007 -3.0666942e-18)
(12.010535 -2.036293 -1.5775453e-20)
(11.898924 -2.1222788 2.7904947e-18)
(11.721864 -2.3338991 1.3747617e-18)
(12.928172 0.37926752 3.0947205e-19)
(12.965267 0.19127581 -6.1707107e-19)
(12.942159 -0.0060906377 9.0767047e-19)
(12.937559 -0.1738904 0)
(12.884672 -0.35572628 1.7208542e-18)
(12.841007 -0.5130357 -2.7767499e-18)
(12.761165 -0.68155328 2.1477366e-18)
(12.698435 -0.82792965 -6.2566865e-21)
(12.604882 -0.97391616 2.0884667e-20)
(12.522293 -1.1101959 -9.5651409e-19)
(12.416235 -1.2345117 0)
(12.322612 -1.3660125 -8.5143242e-19)
(12.204713 -1.4812889 8.5225587e-19)
(12.094347 -1.6046969 -1.5451842e-18)
(11.955411 -1.7324824 0)
(11.852583 -1.8247629 0)
(11.662539 -1.973777 -1.3383462e-18)
(11.528967 -2.0510268 0)
(11.33937 -2.2143404 1.2407215e-18)
(12.773683 0.41226386 2.6932014e-19)
(12.806386 0.18621316 -2.6769803e-19)
(12.791048 0.025837559 4.4553681e-21)
(12.796816 -0.17408037 -5.1426771e-19)
(12.730993 -0.33401435 4.9644851e-19)
(12.695348 -0.51526537 -4.1919543e-21)
(12.608034 -0.6593844 -9.440477e-19)
(12.547569 -0.81429743 0)
(12.433741 -0.95979762 -1.761574e-18)
(12.3573 -1.0747036 8.3702023e-19)
(12.225101 -1.2248398 0)
(12.136536 -1.3089765 0)
(11.985539 -1.4568345 -1.4696964e-18)
(11.870582 -1.5304895 -1.4412743e-18)
(11.706593 -1.6581077 1.3805518e-18)
(11.568936 -1.724994 2.630851e-18)
(11.376754 -1.8343576 1.3046448e-18)
(11.208646 -1.8879083 -1.1698036e-18)
(10.959853 -1.9949464 -3.6980682e-20)
(12.691382 0.34620001 0)
(12.710907 0.15605859 2.3458338e-19)
(12.696992 -0.035240216 -1.1464355e-18)
(12.673239 -0.20972103 4.533067e-19)
(12.617042 -0.39207856 1.3227133e-18)
(12.551221 -0.54216997 -8.723509e-19)
(12.476333 -0.70260863 -1.6812489e-18)
(12.368435 -0.83531196 1.6122378e-18)
(12.269715 -0.98093043 -8.0074322e-19)
(12.14677 -1.0794698 1.5017404e-18)
(12.028626 -1.215211 0)
(11.886956 -1.2842775 0)
(11.74758 -1.4153218 -1.3588606e-18)
(11.6042 -1.4572189 3.8765854e-18)
(11.417406 -1.5683388 -4.9352123e-18)
(11.264288 -1.5918344 2.3703906e-18)
(11.070155 -1.6705519 -4.6103886e-18)
(10.884826 -1.6686229 1.1068233e-18)
(10.668196 -1.7173044 2.130823e-18)
(12.577067 0.36042884 5.1434082e-20)
(12.598413 0.15025903 2.0426685e-19)
(12.590984 -0.015842456 -3.9982976e-19)
(12.565316 -0.21393969 0)
(12.507052 -0.37232269 -7.7832967e-19)
(12.450349 -0.53308023 2.2666893e-18)
(12.343135 -0.69163709 -1.4661165e-18)
(12.264474 -0.81406699 7.2265102e-19)
(12.128406 -0.95731838 -1.3988386e-18)
(12.020243 -1.0392012 4.0462468e-18)
(11.870725 -1.1687543 -2.5840604e-18)
(11.725939 -1.2208697 0)
(11.564422 -1.3294381 1.1973026e-18)
(11.408164 -1.345199 2.3528095e-18)
(11.21234 -1.4237252 -3.3484518e-18)
(11.036349 -1.4184543 3.286138e-18)
(10.819277 -1.4437849 -3.1579808e-18)
(10.627015 -1.4055406 -2.0678798e-18)
(10.411536 -1.3875283 -1.0181327e-18)
(12.453641 0.30090291 1.3322366e-19)
(12.464169 0.13094315 1.7595182e-19)
(12.462668 -0.064865006 -3.4826296e-19)
(12.407849 -0.24479223 0)
(12.367567 -0.3980485 1.3501617e-18)
(12.274535 -0.56545327 -6.6784233e-19)
(12.180523 -0.68976205 0)
(12.077974 -0.82432159 -1.2643114e-18)
(11.92946 -0.92717647 6.2099138e-19)
(11.820803 -1.030626 0)
(11.652204 -1.1024908 -1.1709207e-18)
(11.506112 -1.1755938 1.1345959e-18)
(11.331114 -1.2133214 1.098013e-18)
(11.172141 -1.2404249 -2.1205201e-18)
(10.971904 -1.2518268 2.0205563e-18)
(10.8168 -1.2259299 -9.7326096e-19)
(10.623586 -1.1876585 -9.5843635e-19)
(10.443818 -1.113004 -9.2553354e-19)
(10.245255 -1.0375707 -8.9301373e-19)
(12.356433 0.31543884 3.0809458e-19)
(12.363848 0.1180048 -1.5271263e-19)
(12.363664 -0.06099909 0)
(12.298776 -0.24315076 0)
(12.267196 -0.3941162 -1.1799514e-18)
(12.149494 -0.55207365 1.1606229e-18)
(12.079041 -0.66983754 0)
(11.934633 -0.80187516 5.5254427e-19)
(11.820278 -0.88296385 -5.3951312e-19)
(11.663459 -0.97744079 0)
(11.526993 -1.0175383 1.0231366e-18)
(11.33474 -1.076849 1.8071833e-20)
(11.196281 -1.0730488 1.7456583e-20)
(10.986768 -1.0894054 0)
(10.832165 -1.0392197 -3.6876447e-18)
(10.62162 -1.0134678 3.5223069e-18)
(10.499301 -0.89679417 4.3025824e-18)
(10.30346 -0.82476899 -5.8099466e-18)
(10.164714 -0.684392 3.9821837e-18)
(12.22167 0.27838683 0)
(12.228451 0.0893933 1.9155743e-21)
(12.23019 -0.073324695 0)
(12.153793 -0.25770551 0)
(12.115854 -0.39477663 5.1130399e-19)
(11.977314 -0.55329047 7.7949446e-21)
(11.91519 -0.65884204 -5.0355551e-19)
(11.741989 -0.77521837 -1.4816276e-18)
(11.649352 -0.84115216 1.9100033e-18)
(11.456609 -0.9186027 0)
(11.346964 -0.93087668 -9.2429843e-19)
(11.133378 -0.97121381 -5.3874858e-18)
(11.021393 -0.92979618 2.592153e-18)
(10.810033 -0.91541482 0)
(10.696533 -0.83278715 -3.3006239e-18)
(10.488895 -0.76573551 3.9593384e-18)
(10.433052 -0.61642678 -3.0933998e-18)
(10.22911 -0.52528892 3.7090016e-18)
(10.195041 -0.30758031 0)
(12.137489 0.25315416 -2.3244562e-19)
(12.137127 0.089691953 1.1699901e-19)
(12.146884 -0.092090164 0)
(12.063739 -0.24904405 -9.1228447e-19)
(12.0287 -0.39937544 1.3488099e-18)
(11.879227 -0.53130753 -4.4085465e-19)
(11.809885 -0.63434029 -1.3291425e-18)
(11.629849 -0.72432622 3.0228989e-18)
(11.53517 -0.78629649 -1.6828408e-18)
(11.334104 -0.82395206 0)
(11.227976 -0.8307303 8.0578799e-19)
(11.015265 -0.82796018 4.7802293e-18)
(10.915616 -0.76912859 -3.0730735e-18)
(10.708311 -0.72793533 0)
(10.607427 -0.60724897 0)
(10.432221 -0.5201402 -1.41755e-18)
(10.386202 -0.34780982 6.8891174e-19)
(10.250616 -0.22649357 -1.9916317e-18)
(10.279664 0.0021043385 0)
(11.993015 0.23708478 -2.017647e-19)
(11.986406 0.082371812 6.0339444e-19)
(11.989911 -0.10160233 -5.992785e-19)
(11.913565 -0.24053751 0)
(11.86172 -0.39688972 1.1867078e-18)
(11.721601 -0.50225939 -1.5445179e-18)
(11.640471 -0.61255482 0)
(11.460742 -0.67361869 7.6159509e-19)
(11.362474 -0.72391006 7.4979944e-19)
(11.168864 -0.72890841 0)
(11.067079 -0.72698277 0)
(10.876033 -0.67583033 -6.9730251e-19)
(10.795268 -0.61461618 -2.069141e-18)
(10.627145 -0.51339921 -2.8866162e-20)
(10.570386 -0.39191293 1.9331818e-18)
(10.433005 -0.27585812 1.2597919e-18)
(10.428527 -0.099138534 -6.0890617e-19)
(10.361812 0.028736461 1.1781395e-18)
(10.430566 0.24550818 0)
(11.912979 0.21092622 0)
(11.915652 0.061864732 -6.977449e-19)
(11.903104 -0.11361974 1.3842968e-18)
(11.832478 -0.23654511 -1.0320434e-18)
(11.762871 -0.38724661 0)
(11.638076 -0.46969704 0)
(11.539472 -0.57297399 0)
(11.370256 -0.60178579 -6.5816682e-19)
(11.258559 -0.64824045 -6.4941521e-19)
(11.077075 -0.61968872 0)
(10.97145 -0.60596593 -6.3545083e-19)
(10.793807 -0.51933056 -6.2228165e-19)
(10.722486 -0.45340129 -6.023955e-19)
(10.587934 -0.3144018 2.372251e-18)
(10.568954 -0.2134781 -2.2921998e-18)
(10.476384 -0.056785446 -5.5650265e-19)
(10.51753 0.09037464 3.2510145e-18)
(10.496084 0.22782918 -5.2187309e-18)
(10.62926 0.38951436 3.0295686e-18)
(11.781599 0.20508008 -3.8204492e-20)
(11.779429 0.061543544 7.6027007e-20)
(11.765316 -0.10664453 7.5169007e-19)
(11.702472 -0.22897136 -1.7994085e-18)
(11.618095 -0.36993102 8.8461173e-19)
(11.503958 -0.44041372 0)
(11.386316 -0.53005349 0)
(11.24552 -0.53381818 5.8273921e-19)
(11.123964 -0.56526827 -2.3062101e-18)
(10.971476 -0.50218217 -5.9572887e-19)
(10.872789 -0.47718561 5.2654033e-19)
(10.739133 -0.36344648 2.7099969e-18)
(10.686966 -0.29239086 5.3481104e-19)
(10.596973 -0.13605295 0)
(10.609449 -0.045491944 1.5203252e-18)
(10.577704 0.13381045 0)
(10.659669 0.21910951 -2.8682943e-18)
(10.692525 0.35396052 8.3043461e-18)
(10.865467 0.41783103 -7.134009e-18)
(11.686231 0.18007105 6.5810747e-20)
(11.702086 0.040040273 -6.5136144e-20)
(11.678777 -0.10959131 0)
(11.619463 -0.21883905 -7.8380099e-19)
(11.525215 -0.34327494 2.4730918e-19)
(11.417436 -0.3985461 1.0218348e-18)
(11.297819 -0.47436444 0)
(11.16367 -0.45989899 -2.5400311e-18)
(11.033099 -0.47266231 1.4877727e-18)
(10.915736 -0.39589532 -4.5922718e-21)
(10.818098 -0.35893429 0)
(10.725662 -0.22906043 0)
(10.678559 -0.15652637 -4.6666053e-19)
(10.639176 0.006330189 0)
(10.672975 0.080530662 2.80532e-21)
(10.700833 0.24380439 8.6731162e-19)
(10.796218 0.27450108 -2.525259e-18)
(10.87031 0.39753185 6.5106871e-18)
(11.054019 0.38402158 -3.1536713e-18)
(11.562804 0.17496632 1.9927999e-19)
(11.586917 0.029066204 -1.7035546e-19)
(11.545457 -0.093790179 0)
(11.491775 -0.22038958 0)
(11.400559 -0.30358198 0)
(11.310126 -0.371269 0)
(11.175298 -0.4047713 -1.787462e-18)
(11.072668 -0.38489161 1.7539762e-18)
(10.944801 -0.37393366 2.1932485e-18)
(10.863155 -0.2904546 -8.5483924e-19)
(10.77988 -0.23079124 0)
(10.73621 -0.10176572 3.3612378e-18)
(10.703134 -0.022983353 -6.1516821e-18)
(10.723248 0.11731492 3.2001591e-18)
(10.770598 0.16387922 -3.9149772e-18)
(10.845788 0.28136486 2.2809642e-18)
(10.936306 0.27925987 -7.3998114e-19)
(11.043351 0.37362496 -7.2076117e-19)
(11.216643 0.29747806 6.9316184e-19)
(11.490562 0.15228633 1.9696119e-19)
(11.503409 0.025279956 -6.386853e-19)
(11.46899 -0.09206279 3.909462e-19)
(11.416853 -0.20342119 -7.8274209e-19)
(11.318827 -0.26885417 7.7456169e-19)
(11.222154 -0.33698963 0)
(11.093649 -0.33072795 -3.8773088e-19)
(11.007003 -0.3294285 1.5443568e-18)
(10.885413 -0.27664195 -1.5148867e-18)
(10.829096 -0.20552549 -3.7529784e-19)
(10.753444 -0.12444 -2.9857058e-18)
(10.751392 -0.0089964736 2.9147896e-18)
(10.744978 0.063885395 -3.5809816e-19)
(10.804211 0.1661833 2.1121767e-18)
(10.852022 0.1989221 -2.0513902e-18)
(10.952886 0.28265501 0)
(11.024068 0.26643756 -5.2380677e-18)
(11.139447 0.31561964 5.7079131e-18)
(11.267373 0.17909535 0)
(11.38231 0.14056899 -3.4060544e-19)
(11.394092 0.018931195 3.4034591e-19)
(11.375009 -0.087050026 -6.7840591e-19)
(11.315928 -0.17924276 6.7350171e-19)