/*--------------------------------*- C++ -*----------------------------------*\
  =========                 |
  \\      /  F ield         | OpenFOAM: The Open Source CFD Toolbox
   \\    /   O peration     | Website:  https://openfoam.org
    \\  /    A nd           | Version:  11
     \\/     M anipulation  |
\*---------------------------------------------------------------------------*/
FoamFile
{
    format      ascii;
    class       volVectorField;
    location    "5.1";
    object      U;
}
// * * * * * * * * * * * * * * * * * * * * * * * * * * * * * * * * * * * * * //

dimensions      [0 1 -1 0 0 0 0];

internalField   nonuniform List<vector> 
4455
(
(99.987356 0.17804789 0)
(99.888601 0.26727806 -1.7662247e-18)
(99.659447 0.31280825 6.0684197e-18)
(99.471213 0.14773881 2.5617247e-20)
(98.952043 -0.054848678 5.7185444e-18)
(98.549071 -0.56096321 -2.1603766e-17)
(97.471154 -1.1869792 9.6185062e-18)
(96.65061 -2.3655983 0)
(94.32784 -3.4536113 -5.9238783e-17)
(100.00238 0.22479985 -1.1435152e-17)
(99.893234 0.36990404 1.1172049e-17)
(99.629218 0.4383731 -1.3773138e-17)
(99.431761 0.26039745 2.2995724e-17)
(98.904851 0.087654766 -4.4220469e-17)
(98.378857 -0.53122301 4.8358145e-17)
(97.405828 -1.2990436 -4.636766e-18)
(96.06137 -2.7091587 6.7721405e-18)
(93.619464 -5.0149395 2.5751423e-16)
(100.03579 0.25432489 -1.1868622e-17)
(99.886007 0.496921 1.506608e-17)
(99.68461 0.55609879 1.3484995e-17)
(99.320887 0.49662218 -1.3434376e-17)
(98.942238 0.23328172 5.8892494e-17)
(98.146103 -0.28562128 -3.3344993e-17)
(97.286587 -1.072434 4.2805963e-18)
(95.927595 -2.619763 -9.5891519e-17)
(93.517763 -4.0663659 -1.8217658e-16)
(100.0499 0.29494415 1.3705745e-19)
(99.920015 0.56957796 -1.7807118e-18)
(99.625984 0.71448986 3.1790589e-17)
(99.360128 0.61892302 4.3718917e-18)
(98.866468 0.4875744 -7.1715447e-20)
(98.234642 -0.07889536 -6.3799969e-18)
(96.992159 -0.73955241 7.1200239e-17)
(95.73788 -2.3772734 1.917974e-16)
(93.046751 -3.6081841 1.5191763e-16)
(100.07745 0.31929787 2.2952297e-17)
(99.937939 0.65872515 -2.5771074e-17)
(99.643261 0.84660246 3.2700296e-17)
(99.379686 0.81435745 3.3852557e-20)
(98.889417 0.71723155 -4.0229663e-17)
(98.213103 0.14784199 -1.2382526e-17)
(96.848176 -0.42370802 -5.6128513e-17)
(95.359675 -2.3318596 -9.0235941e-17)
(92.569476 -3.5391862 -4.4828039e-16)
(100.09712 0.33919748 0)
(99.98535 0.72809273 0)
(99.642914 0.99987185 -5.7161594e-17)
(99.385788 0.9345747 -6.5733349e-17)
(98.858007 0.94270838 0)
(98.249161 0.37606279 -8.9231704e-17)
(96.704688 -0.032211811 -7.5985971e-18)
(95.177677 -2.1300237 -5.4339187e-18)
(91.928303 -2.9427579 5.5432587e-16)
(100.12448 0.34717017 0)
(100.00859 0.78886675 -1.5380976e-18)
(99.68271 1.1190926 1.7312001e-18)
(99.430489 1.0883775 6.4240502e-17)
(98.88392 1.150825 -4.7572165e-18)
(98.260914 0.60063408 1.8983177e-16)
(96.593864 0.25892885 0)
(94.825395 -2.038269 0)
(91.39181 -2.7614109 2.5599295e-16)
(100.14662 0.34705238 4.2622979e-17)
(100.03809 0.83338436 0)
(99.737073 1.2277967 0)
(99.485909 1.2442152 0)
(98.92599 1.3778362 0)
(98.285834 0.87151836 -9.468994e-17)
(96.551073 0.69552079 -1.0204562e-16)
(94.665429 -1.7292275 1.4961893e-16)
(90.443675 -2.034416 3.1195565e-18)
(100.1643 0.34168531 -4.1971402e-17)
(100.06721 0.84915025 -1.4683836e-18)
(99.787989 1.2882208 -1.674765e-18)
(99.54205 1.3506397 3.7751301e-18)
(98.983186 1.5284122 1.462656e-16)
(98.307773 1.0663449 1.6606443e-16)
(96.489907 0.99159342 3.246007e-16)
(94.33766 -1.5376182 -1.4683581e-16)
(89.852436 -1.6894336 -4.4084012e-16)
(100.17599 0.32846424 0)
(100.1834 0.31100722 7.7023451e-17)
(100.18 0.28375834 -7.6406023e-17)
(100.16963 0.25635681 7.2719239e-17)
(100.15906 0.22071506 -7.1084592e-17)
(100.13378 0.18534505 1.4127066e-16)
(100.11271 0.14583232 -1.3714576e-16)
(100.08856 0.10498924 0)
(100.03339 0.048594882 0)
(100.10252 0.86961161 0)
(100.12922 0.86116337 1.3403303e-18)
(100.16793 0.83744088 0)
(100.18952 0.78781825 3.7965953e-18)
(100.21564 0.72777313 7.7069603e-17)
(100.24205 0.65292785 -2.2978226e-16)
(100.23444 0.55802024 1.4862627e-16)
(100.26898 0.48233431 -2.2594584e-18)
(100.22371 0.31313462 1.4240918e-16)
(99.853395 1.3675452 9.8240231e-17)
(99.929434 1.4118174 -1.9322302e-16)
(99.994971 1.439031 1.8377498e-16)
(100.08296 1.4395672 -6.0841678e-18)
(100.13993 1.4164991 -8.6228448e-17)
(100.25148 1.3887781 -2.6125919e-18)
(100.2927 1.3029239 0)
(100.41871 1.2601619 4.8926852e-18)
(100.46483 1.0413352 -2.3682437e-18)
(99.626766 1.5058256 1.0290867e-16)
(99.732924 1.6262866 -2.0874414e-16)
(99.815581 1.7016532 1.9781654e-16)
(99.952686 1.7807568 -9.56895e-17)
(100.03837 1.7926957 -5.9699129e-18)
(100.20996 1.8489042 2.8551406e-18)
(100.29445 1.7816171 0)
(100.47417 1.7929264 -2.6676248e-18)
(100.55354 1.6003638 1.6009774e-16)
(99.074673 1.7396094 -1.174968e-16)
(99.203091 1.968117 0)
(99.305073 2.0945045 -1.0744339e-16)
(99.465522 2.3041373 1.1078902e-16)
(99.597521 2.3613065 -9.9228676e-17)
(99.795619 2.5605814 1.0253671e-16)
(99.968718 2.5467465 0)
(100.17515 2.7178565 0)
(100.38287 2.6084447 5.6916386e-18)
(98.390314 1.3277799 -1.4487049e-16)
(98.458656 1.6470709 -1.3756138e-16)
(98.57499 1.8480143 1.3224023e-16)
(98.667181 2.1528588 1.2572126e-16)
(98.841445 2.299648 -1.2121753e-16)
(98.969982 2.597364 0)
(99.194158 2.6723115 2.2134532e-16)
(99.347995 2.9180421 -1.5444642e-18)
(99.561572 2.9007807 -4.0998661e-16)
(96.490634 1.4275887 -1.7185476e-16)
(96.442172 2.0300766 0)
(96.549719 2.400521 0)
(96.634737 2.9669093 4.7400441e-18)
(96.900793 3.2586461 0)
(97.125705 3.8358562 0)
(97.480697 4.0602142 0)
(97.794731 4.5902264 0)
(98.157265 4.684589 0)
(94.064339 -1.1474513 6.8663766e-18)
(93.613451 -0.33445114 0)
(93.410691 0.32997689 6.2039455e-18)
(93.220205 1.3738611 -1.1370407e-17)
(93.254668 1.9757314 -1.7064015e-16)
(93.416792 2.9105933 -1.6024779e-16)
(93.626824 3.4320292 3.0931285e-16)
(94.05342 4.2084671 2.9540928e-16)
(94.376559 4.6637202 -2.7948521e-16)
(88.340966 -0.73542446 8.3814094e-16)
(86.997948 1.4957595 -5.1725769e-16)
(86.050378 2.9446503 4.8555564e-16)
(86.284565 5.3843092 -4.6017476e-16)
(86.764212 6.9810046 -6.438613e-16)
(87.751178 9.1796981 1.1990921e-15)
(88.470385 10.115251 -7.5472835e-16)
(89.639693 11.769465 -3.5084905e-16)
(90.502287 12.166557 3.3011812e-16)
(100.06098 0.071652112 -1.8719154e-19)
(100.10086 0.093115673 1.9178712e-16)
(100.16436 0.12339812 -2.2693629e-19)
(100.24514 0.15774407 -1.9303702e-16)
(100.3406 0.191837 1.8830881e-19)
(100.45123 0.22595074 1.9343803e-16)
(100.57868 0.26018501 -1.9437952e-16)
(100.7222 0.29491303 -1.8872478e-19)
(100.89655 0.33966875 -9.7121617e-17)
(100.27335 0.39225589 -2.0431096e-16)
(100.39187 0.42376719 2.0544196e-16)
(100.47909 0.54942267 -2.0557007e-16)
(100.62894 0.54892902 0)
(100.75233 0.67653124 2.0614493e-16)
(100.93134 0.67225801 -3.4463002e-19)
(101.07756 0.80807116 -2.3145978e-19)
(101.29529 0.7795731 -2.0632248e-16)
(101.45639 0.91954889 1.0311914e-16)
(100.53992 1.1719896 2.1774657e-16)
(100.69386 1.2393852 -2.1872116e-16)
(100.76998 1.3834137 -2.1930301e-16)
(100.9286 1.4150367 2.1983306e-16)
(101.0079 1.5564475 -2.2063287e-16)
(101.19627 1.582461 2.1988255e-16)
(101.29357 1.7308509 -2.2075921e-16)
(101.51543 1.7782547 6.208914e-19)
(101.63068 1.8985257 2.2039153e-16)
(100.70187 1.7072614 -2.3402562e-16)
(100.76807 1.8707647 -9.1702998e-19)
(100.9149 1.9321681 9.2250308e-19)
(100.97353 2.0911857 0)
(101.13409 2.12844 -3.6020964e-21)
(101.20382 2.3038864 -2.3478379e-16)
(101.39895 2.3372447 2.3864267e-16)
(101.49561 2.5473846 9.2452793e-19)
(101.74114 2.5722793 9.2373717e-19)
(100.58357 2.7983379 -9.8863387e-19)
(100.625 3.0065343 -2.5399426e-16)
(100.75652 3.1043913 -1.3798086e-19)
(100.74961 3.2699261 2.5569926e-16)
(100.88278 3.3567459 2.55981e-16)
(100.89956 3.5596079 -2.5720072e-16)
(101.08878 3.6477936 -9.9671074e-19)
(101.14146 3.9032991 -9.9658312e-19)
(101.3972 3.9832563 -9.9624421e-19)
(99.782745 3.1065766 2.7968026e-16)
(99.795473 3.3583403 0)
(99.966143 3.497167 0)
(99.930329 3.7299743 2.7906695e-16)
(100.10952 3.8599255 -2.8273302e-16)
(100.10922 4.1460256 -2.815165e-16)
(100.35682 4.2761997 5.6232953e-16)
(100.40044 4.6207765 -1.8018167e-18)
(100.72216 4.7373656 -5.6143985e-16)
(98.474623 5.1097824 -1.2406332e-18)
(98.433742 5.5388886 0)
(98.591495 5.754411 1.2390294e-18)
(98.510168 6.0870048 3.118622e-16)
(98.724583 6.2622129 -3.1371048e-16)
(98.736753 6.6350725 3.1176762e-16)
(99.051876 6.7885949 -3.1255951e-16)
(99.130836 7.1659066 -1.2234276e-18)
(99.514175 7.3044947 3.0929735e-16)
(94.923083 5.2159082 -3.5462182e-16)
(95.103158 5.8729865 3.5936774e-16)
(95.59921 6.2454195 -3.5638717e-16)
(95.783945 6.7952686 3.5458213e-16)
(96.311004 7.0929896 -3.4820625e-16)
(96.608309 7.5436101 2.6790095e-18)
(97.222106 7.7648945 3.5021253e-16)
(97.575569 8.1308124 2.6837713e-18)
(98.162042 8.2884614 1.7061487e-16)
(91.68191 13.319745 0)
(92.085765 14.026405 -3.9564467e-16)
(93.036929 14.872084 6.6151908e-18)
(93.535336 15.158229 8.2640704e-18)
(94.617893 15.712849 7.717427e-16)
(95.149602 15.718415 -3.8367373e-16)
(96.341502 15.711747 -3.7457329e-16)
(96.984439 15.017679 3.7616036e-16)
(98.112263 14.367773 1.8482811e-16)
(98.66664 12.901739 -2.158601e-16)
(99.172635 11.973247 0)
(99.23775 11.167727 2.0970112e-16)
(99.342563 10.504945 -2.0970492e-16)
(98.923572 9.9493383 0)
(98.386548 9.4865628 0)
(97.836543 8.7779704 0)
(97.090212 8.4792623 -2.1446631e-16)
(96.245049 8.1448502 2.1446605e-16)
(98.519215 8.4796088 -1.9433074e-16)
(98.861179 8.6953185 0)
(99.100196 8.7928516 0)
(99.361839 8.8648427 0)
(99.498733 8.8312506 0)
(99.608459 8.8826714 0)
(99.597938 8.9097003 0)
(99.57122 9.0065887 1.8232371e-16)
(99.413407 9.0674608 -3.649358e-16)
(99.607974 7.6010325 -2.6021819e-18)
(99.930637 7.8170797 -3.3757712e-16)
(100.01507 8.0516032 0)
(100.32342 8.2150148 -1.6491617e-16)
(100.39488 8.4174112 1.6491322e-16)
(100.66084 8.5580325 0)
(100.69016 8.7547144 0)
(100.92039 8.9072648 0)
(100.90151 9.1173541 0)
(100.76015 5.1013284 3.0119692e-16)
(101.09098 5.2525422 0)
(101.13553 5.6134897 1.4744681e-16)
(101.47568 5.7600928 -2.9377427e-16)
(101.5231 6.1160521 1.4631219e-16)
(101.86354 6.258008 0)
(101.90736 6.6201119 0)
(102.26117 6.7774504 0)
(102.29503 7.1553879 1.4035841e-16)
(101.45809 4.2707405 0)
(101.73757 4.3638372 2.6591116e-16)
(101.8116 4.6680968 -3.9798485e-16)
(102.10905 4.7524076 1.3204544e-16)
(102.19761 5.0653793 1.3006091e-16)
(102.51778 5.1455579 -1.0551191e-18)
(102.62095 5.4762737 -2.5689656e-16)
(102.97077 5.5581843 2.546434e-16)
(103.08333 5.9119782 -1.267381e-16)
(101.84757 2.8169788 0)
(102.12197 2.853141 1.2099019e-16)
(102.24362 3.121291 -1.2099627e-16)
(102.54779 3.1549158 0)
(102.68469 3.4461463 -2.3669171e-16)
(103.02243 3.4800617 2.3669875e-16)
(103.17516 3.7984485 1.1632694e-16)
(103.54723 3.833403 -2.3155009e-16)
(103.71267 4.1825829 1.1522772e-16)
(101.86094 2.003277 0)
(102.02346 2.0573187 0)
(102.22097 2.249085 0)
(102.46376 2.2441084 -1.0987384e-16)
(102.62955 2.4719493 2.1893214e-16)
(102.93754 2.4620982 -2.1726192e-16)
(103.12226 2.7194084 1.0817485e-16)
(103.46094 2.6927414 -1.0626042e-16)
(103.67235 2.9852306 2.1149329e-16)
(101.70796 0.87502101 -2.085871e-16)
(101.90635 1.0422886 6.2547555e-19)
(102.18719 0.98209629 1.0337669e-16)
(102.39448 1.1553296 -1.0198487e-16)
(102.70767 1.099573 1.0198487e-16)
(102.90756 1.2525746 0)
(103.27498 1.2354155 9.9514328e-17)
(103.47503 1.3403387 -1.980901e-16)
(103.88084 1.4031531 9.8575761e-17)
(101.00212 0.38009467 4.4673139e-19)
(101.23784 0.43006438 9.7978688e-17)
(101.43892 0.50182973 9.7005808e-17)
(101.6805 0.53233402 -9.7005815e-17)
(101.92383 0.59748795 0)
(102.17813 0.62048732 0)
(102.46671 0.68892505 -9.4437945e-17)
(102.75086 0.71193637 1.8808449e-16)
(103.08926 0.78167755 -9.3646523e-17)
(103.39841 0.8079636 0)
(103.79055 0.88880368 -9.0877442e-17)
(104.12517 0.90586043 1.0590214e-18)
(104.56062 0.99482834 1.1335963e-18)
(104.94955 1.0043808 1.2085538e-18)
(105.42802 1.1064255 8.7476267e-17)
(105.85238 1.1293588 8.4814915e-17)
(106.42183 1.2172451 -8.481492e-17)
(106.88135 1.2377104 0)
(104.12061 1.418492 0)
(104.53025 1.5932339 0)
(104.84154 1.5232881 -9.4208342e-17)
(105.26131 1.7545104 1.250219e-18)
(105.60047 1.6923019 1.3195307e-18)
(106.09445 1.9224273 9.1639479e-17)
(106.44938 1.8761156 8.8793863e-17)
(107.00082 2.1388023 -8.8793844e-17)
(107.39827 2.1002818 0)
(104.05729 2.9564268 -1.0523408e-16)
(104.28859 3.2826445 0)
(104.71654 3.2524038 0)
(104.97184 3.6197585 -1.0045357e-16)
(105.45657 3.5931516 1.9955439e-16)
(105.73831 4.0127609 -1.4199023e-18)
(106.27626 3.9860849 -1.4940596e-18)
(106.59409 4.4607288 -9.6180277e-17)
(107.2009 4.4310851 0)
(104.12374 4.2249205 -1.1287476e-16)
(104.30478 4.6144725 1.1287711e-16)
(104.75718 4.6627723 0)
(104.95288 5.0905181 0)
(105.4488 5.1470921 1.0747565e-16)
(105.6607 5.6190654 -1.074741e-16)
(106.20526 5.6840778 1.0439867e-16)
(106.43666 6.2070297 -5.3019314e-17)
(107.03918 6.2820164 -5.1374306e-17)
(103.46684 6.0025422 -1.2429915e-16)
(103.58405 6.3855776 1.2429991e-16)
(104.00336 6.4949509 0)
(104.11433 6.9100492 0)
(104.56146 7.0451328 0)
(104.66694 7.5059506 0)
(105.16294 7.6746682 0)
(105.27038 8.2105456 0)
(105.84081 8.4214909 0)
(102.6671 7.3411517 -1.4035759e-16)
(102.68116 7.7427061 1.3786667e-16)
(103.07343 7.9757748 -1.3784214e-16)
(103.05738 8.4292732 1.3530365e-16)
(103.48288 8.7208428 -1.3529443e-16)
(103.43812 9.2516632 0)
(103.91672 9.6097364 0)
(103.84477 10.241072 0)
(104.39601 10.66815 0)
(101.10935 9.3278026 0)
(101.01923 9.5710286 -1.5708001e-16)
(101.20052 9.8617265 1.5703803e-16)
(101.02779 10.161738 0)
(101.21109 10.534032 1.5448327e-16)
(100.95946 10.925312 -1.5447099e-16)
(101.18865 11.405013 0)
(100.86049 11.930937 7.6052784e-17)
(101.15308 12.510788 -1.5168327e-16)
(99.340443 9.3153577 1.8244154e-16)
(99.009365 9.4199513 1.8216865e-16)
(98.89946 9.818723 -1.8231576e-16)
(98.416303 9.9865519 1.8251178e-16)
(98.295754 10.528006 -3.6524175e-16)
(97.623709 10.840911 3.6591861e-16)
(97.494036 11.58903 -3.6680911e-16)
(96.649635 11.994373 1.835162e-16)
(96.61121 12.933675 0)
(95.687742 7.8533253 -2.1829077e-16)
(94.578043 7.6003587 2.1829084e-16)
(93.880413 7.8623296 0)
(92.852776 7.3887835 0)
(92.09438 7.931079 0)
(90.801856 7.7149428 0)
(90.165146 8.3497272 0)
(88.689226 8.442743 -1.1730247e-16)
(87.951896 9.5541003 1.1739215e-16)
(86.211455 9.7796085 1.2027558e-16)
(95.589886 13.635075 0)
(100.78999 13.286188 7.5624521e-17)
(104.30732 11.430212 0)
(105.95702 9.0633888 0)
(107.30107 6.8726737 0)
(107.56197 4.9670323 4.5607652e-17)
(108.02044 2.3999075 4.1988308e-17)
(107.50579 1.3433732 4.0100548e-17)
(85.666869 11.059449 -1.2019246e-16)
(95.604314 14.687521 0)
(101.11278 13.931494 0)
(104.96194 11.927055 6.2582746e-17)
(106.62028 9.3141292 0)
(107.97203 6.9491184 -4.8659709e-17)
(108.2285 4.9233839 -9.0298911e-17)
(108.45678 2.361542 -8.3095874e-17)
(108.03098 1.3749291 -7.9343568e-17)
(83.660138 11.923849 0)
(94.535608 15.735925 0)
(100.81327 15.00442 7.4057312e-17)
(104.87836 12.852055 -6.2588208e-17)
(106.76619 10.0858 0)
(108.28379 7.616533 4.8658133e-17)
(108.64788 5.5149193 4.4692531e-17)
(109.1571 2.6825236 4.1107698e-17)
(108.72348 1.4695337 3.9243011e-17)
(82.955537 13.795077 1.2475931e-16)
(94.645429 16.922156 0)
(101.15031 15.717632 -1.4744531e-16)
(105.66791 13.407281 0)
(107.54585 10.360681 0)
(109.0449 7.6824617 -4.6596629e-17)
(109.39193 5.4453891 -4.2722037e-17)
(109.64166 2.6524984 0)
(109.3183 1.5056982 -3.7384951e-17)
(81.125151 15.009605 -1.2475795e-16)
(93.533848 18.480793 -9.3006468e-17)
(100.9661 17.085427 7.3388656e-17)
(105.62586 14.521267 0)
(107.7543 11.2749 0)
(109.43068 8.4377667 4.659691e-17)
(109.88173 6.0934123 4.2722973e-17)
(110.4173 3.028674 0)
(110.08542 1.6049386 3.7384946e-17)
(80.027214 17.723914 0)
(93.678193 19.760879 9.303107e-17)
(101.37963 17.893028 -7.1707468e-17)
(106.55468 15.090319 0)
(108.66963 11.546251 0)
(110.29576 8.4749818 -4.4288977e-17)
(110.69563 5.9850921 -4.0544757e-17)
(110.97761 2.9578713 0)
(110.75315 1.6461913 -3.5337327e-17)
(79.016792 19.616611 0)
(92.773624 21.882193 0)
(101.38866 19.568806 7.1707382e-17)
(106.66628 16.435758 -2.8590621e-17)
(108.98037 12.602029 -2.4444015e-17)
(110.77773 9.3162936 6.5804967e-17)
(111.27439 6.6826562 6.0230528e-17)
(111.81933 3.3906629 0)
(111.58643 1.7426815 5.2462205e-17)
(77.009493 23.258685 0)
(93.037798 23.281384 -4.5876888e-17)
(101.90545 20.46161 0)
(107.67575 16.972283 2.8575243e-17)
(110.04009 12.834087 2.4431197e-17)
(111.75408 9.3052892 -6.6704804e-19)
(112.16595 6.5181264 -3.8744709e-17)
(112.42298 3.3053878 0)
(112.31781 1.7710876 -1.7124882e-17)
(77.174107 26.519935 -6.3896936e-17)
(92.465556 26.151172 4.5865682e-17)
(102.28921 22.528801 0)
(108.07529 18.635285 0)
(110.56183 14.134461 0)
(112.39824 10.287329 -4.0965992e-17)
(112.8799 7.2905484 6.4772267e-19)
(113.39159 3.7363531 0)
(113.18959 1.8449933 0)
(114.31448 1.8542652 0)
(113.99646 3.6497613 0)
(113.79278 6.9792252 -4.3890824e-19)
(113.43002 10.079558 2.1120432e-17)
(111.69219 14.084043 0)
(109.22951 18.89885 -3.4420628e-18)
(102.92955 23.380923 -6.0005849e-19)
(93.514138 27.459929 -3.7164575e-17)
(75.551484 30.922412 1.1828616e-16)
(115.15554 1.832019 -7.4454357e-18)
(115.05371 3.9754981 -1.0113239e-18)
(114.67823 7.6573811 9.2772299e-18)
(114.25756 10.9126 -2.7491277e-20)
(112.58767 15.118341 -9.2074866e-18)
(110.1035 20.337586 1.2345174e-17)
(104.28067 25.130345 -4.3436008e-18)
(94.041922 30.587726 4.7811051e-17)
(77.388211 34.688218 -5.9787659e-17)
(116.11396 1.8084216 1.4717506e-17)
(115.79578 3.7526833 0)
(115.66038 7.2211372 1.6939929e-17)
(115.50281 10.687794 -8.9801446e-18)
(113.93962 15.183748 9.3340051e-18)
(111.62385 20.568748 -2.2977351e-17)
(105.3205 26.105618 -1.918311e-17)
(96.496218 31.313844 1.0460457e-17)
(80.530061 37.422613 1.5302904e-18)
(117.12139 1.7753211 -7.2702234e-18)
(116.81441 4.1103747 -9.4711068e-19)
(116.70339 7.8772398 -7.3618994e-18)
(116.3875 11.261815 1.0232985e-17)
(115.0302 15.844387 3.638843e-18)
(112.92941 21.69658 1.2108926e-17)
(107.65573 27.671072 1.5230546e-17)
(98.075816 34.350373 5.5414754e-18)
(83.730726 40.767453 -6.3443162e-18)
(118.13214 1.7309169 1.6595028e-18)
(117.74664 3.8110015 -1.7749988e-18)
(117.68671 7.308338 -9.8218961e-19)
(117.87821 11.173443 3.131591e-18)
(116.64622 15.922428 -3.7094063e-18)
(114.79728 22.072765 -4.0735003e-18)
(108.86231 28.509235 -3.921831e-18)
(100.8963 34.708713 4.4274567e-18)
(84.999535 43.023155 -7.5385713e-18)
(119.14032 1.6675111 -1.6779341e-18)
(118.72745 4.1729441 1.7963441e-18)
(118.87343 7.8783092 -9.3891076e-19)
(118.78323 11.510655 -4.601573e-20)
(117.88053 16.401598 -1.1257424e-18)
(116.22693 22.839766 2.7559767e-18)
(111.40058 29.826703 -3.7460635e-18)
(102.5438 37.666924 4.2394274e-18)
(87.027653 45.633044 0)
(120.13747 1.5873115 -1.5141934e-18)
(119.7298 3.7302508 -8.3534283e-19)
(119.83227 7.1999515 -8.4052657e-19)
(120.34903 11.27115 -9.7150079e-19)
(119.55957 16.31861 -9.9475701e-19)
(118.35458 23.132182 2.6592643e-18)
(112.81911 30.379867 -6.5186639e-18)
(105.47505 37.880451 9.076055e-18)
(88.538601 46.585081 -5.8437408e-18)
(121.12117 1.4812414 4.4122756e-18)
(120.71159 4.1138971 3.1024629e-18)
(121.08062 7.5638172 4.2267786e-18)
(121.45048 11.433935 4.414972e-18)
(121.03831 16.46169 3.1144474e-18)
(119.9823 23.663959 -1.1325877e-18)
(115.57085 31.64024 -3.3089188e-18)
(107.63121 40.889314 -1.0576638e-18)
(91.576432 47.840019 -6.6142392e-18)
(122.08059 1.3596717 -8.3815495e-18)
(121.72267 3.5679904 -3.1411288e-18)
(122.08415 6.8817107 -1.0385428e-17)
(122.88754 11.052308 -2.6805734e-18)
(122.71028 16.218138 6.0972527e-18)
(122.20645 23.600945 3.2850115e-18)
(117.29319 31.644175 -1.5573515e-17)
(110.80524 40.919373 3.4716806e-18)
(93.554671 48.048872 1.2536258e-17)
(96.623377 49.596137 -1.1569221e-17)
(113.16871 43.92324 4.270159e-18)
(120.3697 32.797468 2.1286262e-17)
(124.15111 23.897692 -2.9479737e-18)
(124.33084 16.043567 9.3894133e-19)
(124.11429 10.988507 4.458769e-18)
(123.19971 6.9596387 7.0702766e-18)
(122.62706 3.814648 -3.6293395e-19)
(122.99777 1.2151737 1.1044816e-17)
(98.618248 50.340999 4.2095108e-17)
(116.37171 43.676133 2.7719266e-18)
(122.27518 32.391437 -2.6390513e-17)
(126.39111 23.440831 -8.3814879e-19)
(126.00292 15.488058 -5.737696e-18)
(125.49471 10.401382 -5.3862791e-18)
(124.28804 6.2036679 -1.1685813e-17)
(123.61129 3.2736023 0)
(123.86324 1.0545572 -5.2415404e-18)
(102.10601 52.524676 -5.3453415e-17)
(119.26267 46.520386 2.5415019e-17)
(125.81335 33.143037 1.3254589e-17)
(128.55374 23.410366 -7.2827643e-19)
(127.60487 14.916334 9.9729338e-18)
(126.65072 10.00158 -5.974644e-20)
(125.23893 6.0698978 2.2007088e-18)
(124.42758 3.3443673 9.3844689e-18)
(124.65947 0.87750275 9.2969457e-18)
(104.38125 53.300977 -9.2810937e-18)
(122.67641 45.835281 3.0960354e-19)
(127.77006 32.156437 -1.6325954e-18)
(130.83699 22.568538 0)
(129.24772 14.070335 -1.0201939e-17)
(127.94589 9.3262928 0)
(126.22856 5.2266868 9.7759365e-18)
(125.25956 2.7941384 -1.903622e-17)
(125.37547 0.69214679 -5.7688656e-19)
(108.29458 55.383747 -3.1597821e-18)
(126.27344 48.498693 -1.4368176e-17)
(131.657 32.22732 1.1776162e-18)
(132.98774 22.046203 0)
(130.80997 13.149851 -7.7929183e-18)
(128.96881 8.622609 8.2261437e-18)
(127.03895 4.8700678 5.4197199e-19)
(125.96896 2.717797 1.8607901e-17)
(125.99725 0.49765791 -8.9402905e-18)
(110.93818 55.50249 -3.1628304e-17)
(129.86016 47.244671 -4.2904063e-18)
(133.66698 30.388209 -9.8228336e-20)
(135.1895 20.684345 -5.0613764e-19)
(132.19665 11.952164 9.9673781e-19)
(130.04274 7.7216204 -1.6042099e-17)
(127.8558 3.9836137 4.9700915e-19)
(126.62321 2.1476064 -9.1213477e-18)
(126.51589 0.30022155 0)
(115.34673 57.264666 2.1978983e-17)
(134.10871 49.450427 6.8294693e-18)
(137.68417 29.855074 5.7007884e-20)
(137.16671 19.728109 -1.6340293e-19)
(133.60162 10.697625 5.5873316e-18)
(130.87461 6.8141675 7.9663372e-18)
(128.44098 3.4251892 5.426947e-19)
(127.12232 1.9744346 -4.9728258e-19)
(126.92402 0.10933159 0)
(118.41876 56.847328 0)
(138.00546 47.49004 5.410455e-19)
(139.68001 27.245687 -4.6131725e-19)
(139.01582 17.676084 1.4255762e-18)
(134.71303 9.1390656 -1.3373225e-19)
(131.64573 5.7150991 1.1638747e-17)
(129.03784 2.5566595 -1.4535562e-17)
(127.58098 1.4291762 1.6002081e-17)
(127.22316 -0.063986969 1.5448489e-17)
(123.70146 58.106429 1.340015e-17)
(142.60986 48.730898 -3.1655141e-17)
(143.65413 26.01401 1.0940732e-18)
(140.73554 16.369744 -1.3014274e-18)
(135.81093 7.6915365 -2.9100871e-19)
(132.16437 4.6661476 -1.2045627e-17)
(129.34901 1.863081 1.5686701e-17)
(127.82065 1.1217859 -1.6684568e-17)
(127.40842 -0.21456781 -2.7062461e-19)
(127.48622 -0.33072045 -1.5398421e-17)
(128.08446 0.67364486 1.5212881e-17)
(129.67433 1.0632881 0)
(132.61492 3.4874729 -4.2211019e-19)
(136.45137 5.8599044 3.4354554e-18)
(142.07645 13.60582 -8.226202e-18)
(145.50096 22.523412 0)
(147.10656 45.602277 -1.5294166e-17)
(127.82853 57.166836 -1.3070056e-17)
(127.47774 -0.40206299 0)
(128.0791 0.30200928 -1.5749687e-17)
(129.68966 0.29744961 0)
(132.69842 2.1987195 -3.6662912e-19)
(137.12878 4.0284651 -4.5467268e-18)
(143.28634 11.44037 9.5671733e-18)
(149.38216 19.894018 -3.2793023e-17)
(152.40802 45.182574 4.4038857e-17)
(136.11694 57.857192 -3.6308139e-17)
(127.37314 -0.45082369 0)
(128.04853 -0.072820925 0)
(129.63061 -0.40332431 -1.4329898e-17)
(132.69519 1.1101699 0)
(137.17244 2.0588196 1.9545592e-18)
(143.73704 8.1327271 1.2854521e-17)
(150.57224 15.277876 2.9493911e-17)
(157.26182 39.874543 3.4785248e-18)
(141.98823 56.036825 -3.2413249e-17)
(127.19247 -0.45088479 0)
(127.9007 -0.36318387 0)
(129.33845 -1.0229109 1.4627411e-17)
(132.28817 -0.07107672 9.9850106e-18)
(137.13151 0.43439971 2.332261e-18)
(144.0481 5.9586185 -1.3607842e-17)
(153.34786 11.892698 0)
(161.62404 37.26817 -9.2743399e-17)
(152.88187 55.376052 7.4317707e-17)
(126.96932 -0.38517421 2.7309474e-19)
(127.6457 -0.61134152 -2.957149e-19)
(129.01224 -1.5090857 0)
(131.85375 -0.96919553 7.693898e-19)
(136.5633 -1.5449871 -3.5992456e-18)
(143.43926 2.536369 -3.9093192e-19)
(153.24044 6.7292519 -4.3254344e-17)
(164.94048 29.755626 1.0328919e-16)
(159.96818 52.016517 -1.8332593e-16)
(126.74935 -0.24690739 -2.9230912e-19)
(127.27477 -0.76459436 3.1700524e-19)
(128.42357 -1.9389239 0)
(131.09967 -1.8142123 -1.2068686e-17)
(136.03733 -2.71804 2.572703e-18)
(142.90989 0.8035127 3.4015117e-19)
(154.39775 3.2473867 4.4735154e-17)
(166.90296 24.721842 0)
(172.87104 49.344705 1.8509025e-16)
(126.58396 -0.017124445 3.1497042e-19)
(126.9908 -0.82490748 2.0666002e-17)
(128.01617 -2.0937216 -4.8565069e-19)
(130.37525 -2.4544738 1.4622757e-17)
(134.90747 -4.4579385 6.0588573e-18)
(141.42243 -2.1264831 0)
(152.62883 -1.4403749 0)
(167.24053 14.370652 1.1090202e-16)
(179.08038 44.541566 0)
(126.51707 0.2660143 0)
(126.51703 -0.75400909 -2.1439042e-17)
(127.26274 -2.3038897 0)
(129.43742 -2.9313509 -1.5677232e-17)
(133.9347 -5.1113474 -4.8425444e-18)
(140.32111 -3.2123975 -9.4955956e-18)
(152.29982 -4.32174 0)
(166.01739 8.2606667 -1.280797e-16)
(189.51151 39.011261 3.8351759e-16)
(126.57386 0.40374534 0)
(126.33465 -0.52548782 0)
(126.76304 -2.2037526 -6.1346648e-19)
(128.52742 -3.25495 -1.4275921e-19)
(132.51171 -6.5919159 9.2546755e-19)
(138.50314 -5.6753404 9.8021532e-18)
(149.3599 -8.2180379 0)
(161.65084 -4.6341984 0)
(189.90341 20.119032 -3.8469257e-16)
(126.3674 0.6197612 -7.6951284e-19)
(125.85704 -0.2618229 1.0186415e-19)
(126.00527 -1.9839222 2.5231189e-17)
(127.58256 -3.3806515 0)
(131.372 -6.795057 0)
(137.6777 -6.3016611 1.0295811e-18)
(149.38716 -8.6142091 3.1360398e-17)
(158.97217 -2.2793611 -1.4299656e-18)
(202.73481 24.396074 0)
(126.84439 0.60091076 -7.9433991e-19)
(125.82092 -0.0036057368 1.0132246e-19)
(125.70859 -1.6807487 -2.2775812e-17)
(126.32998 -3.3458236 0)
(130.06038 -7.3395684 0)
(137.64702 -7.3897335 -1.0785626e-18)
(150.65313 -9.0830174 -9.9188587e-17)
(163.82777 -0.97849623 1.699521e-18)
(203.53018 20.749396 -7.9364166e-16)
(127.02605 1.2741257 0)
(125.50003 0.52177677 5.3815497e-17)
(125.03343 -1.4055349 0)
(125.84259 -3.7424555 9.7184894e-19)
(129.99552 -8.2578408 -1.0610407e-18)
(138.40509 -9.5907003 1.284421e-18)
(152.61845 -11.874529 1.4741965e-16)
(169.96539 -4.3164448 -2.1327255e-18)
(192.61816 18.416714 7.5042317e-16)
(128.06939 1.2264714 5.614943e-17)
(125.8104 0.9315184 -5.1218048e-17)
(124.90912 -0.99965368 5.1945885e-17)
(124.86849 -3.7490755 4.4279527e-17)
(128.96799 -9.4825397 -2.3086127e-17)
(138.66906 -11.090246 -1.9335161e-17)
(154.84887 -13.582171 -8.0931774e-17)
(169.62824 -4.8662779 -2.5238477e-16)
(174.14773 23.126161 0)
(128.44011 1.7728549 -1.1294869e-16)
(125.57231 1.7824791 5.6178384e-17)
(124.29093 -0.61741886 -5.0251567e-17)
(124.2094 -3.9340367 3.2275396e-18)
(128.55508 -10.287523 2.2173493e-17)
(139.4981 -14.052221 -2.9537645e-18)
(155.33535 -17.317004 0)
(169.66428 -8.6096417 2.4320332e-16)
(146.46921 40.788993 0)
(129.78074 1.8783136 1.1313511e-16)
(126.24588 2.37225 -5.3626166e-17)
(124.34998 0.032082148 5.5587415e-17)
(122.91823 -3.4774608 -4.5981266e-17)
(127.06637 -11.653706 -3.1695245e-20)
(138.63495 -15.59843 2.2065102e-17)
(155.91615 -19.222406 -1.0120369e-16)
(167.37978 -9.4483663 -3.3170386e-16)
(110.98396 61.680396 5.3951654e-16)
(130.97534 2.701607 -5.729226e-17)
(126.07719 3.6748648 1.7623853e-18)
(123.65627 0.75194168 -5.3339287e-17)
(122.14083 -3.3244005 1.1191978e-18)
(126.12522 -12.105555 -1.2073514e-18)
(138.86911 -18.760842 2.427984e-17)
(154.54929 -23.587336 2.1086535e-16)
(163.63601 -11.652037 3.1394063e-16)
(95.849414 59.611959 -5.1105222e-16)
(132.69044 2.5915175 -8.7727854e-19)
(127.11371 4.381822 9.3088624e-19)
(123.90006 1.6247554 5.6621294e-17)
(120.5397 -2.4029481 5.2373428e-17)
(124.24686 -13.665411 -2.9262917e-17)
(137.60988 -20.314224 -4.6200454e-17)
(152.30879 -25.78567 -2.2584537e-16)
(157.24535 -11.986218 -3.6806157e-16)
(53.281131 54.765065 5.6090581e-16)
(134.25821 3.1569797 5.7187315e-17)
(127.10607 6.0936667 -8.7771056e-19)
(123.27647 2.7442752 3.8322032e-18)
(119.86601 -1.9631914 -5.0795339e-17)
(122.96924 -13.619314 2.8171465e-17)
(137.21186 -23.869598 2.4304713e-17)
(148.53608 -31.609479 1.1617899e-16)
(142.65609 -17.823489 3.5021798e-16)
(-14.128474 -19.716311 -5.3426667e-16)
(-21.792631 -5.411428 -9.0153046e-16)
(130.58863 -17.134503 -4.9528787e-18)
(144.89947 -33.638587 1.596962e-18)
(133.95049 -25.158196 -1.362121e-18)
(120.8768 -14.914575 0)
(118.1634 -0.59207711 -1.0351232e-18)
(123.58197 3.879543 -1.237424e-16)
(128.80401 7.0266508 -6.5832333e-17)
(136.29731 2.9397728 -1.1380446e-16)
(-21.163485 -4.3640664 8.7280564e-16)
(121.49016 -21.357498 0)
(142.85022 -39.189506 0)
(132.4145 -27.989056 3.1204141e-17)
(119.55896 -14.094321 0)
(118.04276 0.71795527 1.3473765e-16)
(123.6417 5.3527222 1.9735835e-16)
(129.50664 8.9195698 6.2527127e-17)
(138.63877 3.6914895 -5.680411e-17)
(-27.549913 -0.33148201 5.7296822e-18)
(111.10112 -19.761403 -4.619424e-18)
(138.25441 -39.660199 0)
(128.81078 -28.602027 -3.0519549e-17)
(116.96963 -14.644129 0)
(116.33241 2.4970818 -1.3347957e-16)
(124.25012 6.8606913 -1.2895596e-16)
(131.59141 9.8896704 -1.4753358e-18)
(141.51174 3.7374409 1.124088e-16)
(-26.98834 2.2215014 1.6143092e-15)
(103.68141 -25.523947 -9.7397435e-16)
(135.46524 -44.68115 4.5409508e-18)
(126.65804 -31.090903 0)
(115.56204 -13.048779 1.0938116e-16)
(116.56313 4.2440262 0)
(124.61958 8.6030016 1.0941696e-18)
(132.92738 12.008432 -1.487138e-18)
(143.77057 3.7837908 4.5003166e-19)
(-25.632652 10.774867 -1.5522605e-15)
(93.578856 -24.640568 -1.2455993e-17)
(130.44776 -44.864056 3.3295866e-16)
(122.12914 -31.901124 -1.1448279e-18)
(112.50691 -13.204504 1.1364285e-17)
(114.72742 6.549075 0)
(125.62034 10.471564 1.4035317e-16)
(135.48588 12.897096 0)
(146.64504 3.4654257 0)
(-23.142723 14.864969 5.1135092e-18)
(86.689926 -30.797711 9.1301473e-16)
(127.23209 -49.916316 -6.373249e-16)
(119.90356 -33.746956 -1.399794e-17)
(111.20154 -11.010098 -1.1655426e-16)
(115.66946 8.7154488 -1.5983819e-16)
(126.5413 12.294705 -1.3607151e-16)
(137.35996 14.908448 -1.485021e-18)