/*--------------------------------*- C++ -*----------------------------------*\
  =========                 |
  \\      /  F ield         | OpenFOAM: The Open Source CFD Toolbox
   \\    /   O peration     | Website:  https://openfoam.org
    \\  /    A nd           | Version:  11
     \\/     M anipulation  |
\*---------------------------------------------------------------------------*/
FoamFile
{
    format      ascii;
    class       volScalarField;
    location    "0.2475";
    object      T;
}
// * * * * * * * * * * * * * * * * * * * * * * * * * * * * * * * * * * * * * //

dimensions      [0 0 0 1 0 0 0];

internalField   nonuniform List<scalar> 
880
(
500
500.000000067837
500.0032936069767
501.2546368787922
500.0000000000001
500.0000000341039
500.0060715008474
502.1255872725121
500.0000000000657
500.0000000932799
500.0145993437686
503.454281969653
500.0000000012637
500.0000004329949
500.0381265524541
505.5553234063858
499.9999999774906
500.0000000006767
499.9999991302971
500.0000547163722
500.000002625941
500.0000300987472
500.0005691212023
500.0008484720496
500.1024024992257
500.1927943033016
500.3951153980134
500.2855839054835
510.4455661901929
516.072950765056
520.8858407774144
523.1372788626908
500.0001692490587
500.0010852761488
500.0021286607514
500.0103289890546
500.0093178338635
500.0275030338657
500.062755133685
500.1136431152909
501.2314748576089
502.1287559379864
503.067039204552
504.2177523291826
525.6144085170604
528.6490744832796
530.0697828085836
530.0467067192667
521.2323691633103
517.1748226529488
515.8680423906574
514.4806219943404
507.4605083505003
508.8474447947646
509.8887179976564
510.1272612543826
500.4146138194145
500.7621366426201
501.1587836596427
501.5204088208919
500.0377272314873
500.1015851012077
500.202055613199
500.3314174479693
500.4519324413458
500.5212479034597
500.5345321238066
500.4890851824072
501.7798809430787
501.9463534070894
502.0921429084861
502.1676783713214
509.9647865741709
509.4703140488373
508.8930886778576
508.0849516426029
513.330206180239
512.4160014819481
511.5581480832592
510.0714386605445
509.370135436576
507.4007322951077
502.0361802073419
500.4021349479053
510.2668905575944
506.4753888714766
501.8088791731101
500.3081877251345
522.3356520443604
506.1045514769662
501.3809247896936
500.1824512447503
568.2893062316153
509.2754473115716
501.1631243192991
500.0813870146249
500.030317567663
500.9944271085036
516.2825150139081
609.0514972674222
500.0392058679291
501.0074445814329
523.6221532300941
614.8286471571952
500.1082358874779
501.7371991280613
534.986716830462
622.9483136643063
500.2844282643547
503.4933541054457
547.6046928580326
626.4382204904527
628.6403429850453
562.3591598837905
506.8796800290808
500.6458625327912
628.8780126895367
576.9310054024036
512.6594553922901
501.3614118204857
627.297284593119
588.9809806984067
520.6679982738467
502.550771000778
622.4374300649602
593.941119480424
529.9777282148502
504.4544127521417
507.2081711143366
536.9892276058387
589.7456685347282
611.2862743454406
508.4717526747665
532.4552557200661
572.8118407880364
594.9075465132088
508.2072010207482
525.4929515050699
554.7408628492147
572.7321773727244
506.358017884294
516.9450811642196
535.3661217767462
543.438058475193
506.4001032760774
514.0164693790827
520.2138326226565
511.3027773834347
504.769209956084
508.1885858712561
505.3731232211948
468.3869093861621
502.9667451003262
504.9514520335559
504.6469132367791
454.6964046331074
501.6913950014147
504.4816523678491
508.0323782300117
476.4991348239713
530.9571798560135
508.00334665599
502.6817337817759
500.6246322947242
549.2190307838329
509.5721248962309
501.7168727271851
500.052237011894
549.8465385151342
510.916361608958
500.5231760470273
499.9111556618774
539.1336865930489
509.2967381322281
499.2517775378902
499.7317686079932
521.9398006605935
501.8233628863954
498.1663044799606
499.7059322366687
498.6868339804167
496.3410516734959
498.4160109620443
499.8730516354838
480.8397627516395
493.4411884301975
498.7761691910541
499.9539465924313
475.4451747913191
493.4239264330654
499.3355359863181
499.9814049032425
449.5926174941291
489.9046485818381
498.4533777851486
499.9095842400789
454.388646653932
489.2068471915735
498.3969834188986
499.9182872501892
460.3292211123783
488.2846565454717
498.3008705547163
499.9255847957844
464.3615999591374
487.0387185236495
498.1728108972888
499.9287036196441
475.4451747911999
493.4239264331856
499.3355359868634
499.9814049028701
480.8397627518388
493.4411884301718
498.7761691909248
499.9539465919133
498.68683398014
496.3410516731458
498.4160109614963
499.8730516349573
521.9398006603985
501.8233628856316
498.1663044795699
499.7059322364917
500.6246322948644
502.6817337819102
508.0033466563405
530.9571798560636
500.0522370120042
501.7168727272191
509.5721248962628
549.2190307838076
499.9111556622486
500.5231760471901
510.9163616082587
549.8465385148677
499.7317686081535
499.2517775384157
509.2967381316
539.1336865929924
476.4991348242454
508.0323782303183
504.4816523676897
501.6913950014389
454.6964046331259
504.6469132369675
504.9514520336673
502.9667450998806
468.3869093861389
505.3731232214687
508.1885858715205
504.769209955614
511.3027773837448
520.2138326224452
514.0164693785209
506.4001032759464
507.2081711140783
536.9892276080105
589.7456685360145
611.286274345861
508.4717526743387
532.4552557193648
572.8118407883276
594.9075465136571
508.207201020494
525.4929515053651
554.740862849127
572.7321773730438
506.3580178842174
516.9450811636107
535.3661217766369
543.4380584754934
622.4374300652719
593.9411194809559
529.9777282154818
504.4544127530708
627.2972845934411
588.9809806984631
520.6679982740395
502.5507710005667
628.8780126897368
576.9310054022751
512.6594553912322
501.361411820723
628.6403429853914
562.3591598842808
506.8796800302513
500.6458625325924
500.0303175676943
500.9944271084037
516.2825150137467
609.0514972670246
500.0392058685376
501.0074445823878
523.6221532305292
614.8286471573465
500.1082358883084
501.7371991283712
534.9867168301847
622.9483136643918
500.2844282645225
503.4933541050735
547.6046928581311
626.4382204904523
500.0813870145137
500.1824512445998
500.308187725483
500.4021349479575
501.1631243186
501.3809247893427
501.8088791729747
502.0361802071132
509.2754473112647
506.1045514769659
506.4753888711445
507.4007322948246
568.2893062312666
522.3356520443784
510.2668905576488
509.3701354365749
500.4890851826719
502.1676783716728
508.0849516430097
510.071438660957
500.5345321237378
502.092142908833
508.8930886782503
511.5581480832346
500.5212479035362
501.9463534073114
509.4703140489145
512.4160014815649
500.4519324411251
501.779880942961
509.9647865744482
513.3302061800515
500.0377272312556
500.4146138191623
507.4605083507803
521.2323691635175
500.1015851006088
500.7621366427009
508.8474447953104
517.174822652956
500.2020556134149
501.1587836594182
509.8887179972341
515.8680423900233
500.3314174477288
501.5204088208109
510.1272612547689
514.4806219938857
530.0467067190929
504.217752329204
500.1136431152094
500.0103289893383
530.0697828086497
503.06703920473
500.0627551333479
500.0021286605677
528.6490744836332
502.1287559381229
500.0275030330361
500.001085275632
525.614408517233
501.231474857463
500.0093178335413
500.0001692496028
523.1372788627328
500.2855839056683
500.000848472034
500.0000547169768
520.885840777465
500.3951153981383
500.0005691210788
499.9999991303608
516.0729507650788
500.1927943032323
500.0000300985103
500.0000000007038
510.4455661901567
500.1024024991164
500.0000026257924
499.9999999776859
500.0000000000001
500.0000000680064
500.0032936070264
501.2546368755603
500
500.0000000338096
500.0060715008194
502.1255872723794
500.000000000167
500.0000000931094
500.0145993437008
503.4542819694925
500.0000000014199
500.0000004327377
500.0381265523704
505.5553234062277
502.5185990666195
504.167616701065
507.0389493853259
514.2729552868283
504.1676167013326
506.2907638560432
511.6215253589268
522.9253285894522
507.0389493855669
511.621525358789
520.9796369102154
535.903526381811
514.2729552867199
522.9253285894263
535.9035263822292
553.1833268176371
571.8194072426767
557.5972786640283
549.7009732956021
536.5888189979535
569.2376172263997
564.8929289922194
563.3132824196699
556.8024257003074
569.8863250482049
568.4458963481441
567.3939347921425
564.8797924003704
567.5607080277697
566.9511155258223
566.531155735312
565.1871926034192
563.1884549445783
562.4778705448198
559.3922072675422
554.3103622388571
563.8343397596245
562.2141607595471
559.1569445066606
554.7205964914833
564.0371490451147
562.3251992675208
559.1935218429603
555.1022946384328
564.424131134174
562.2922848181537
559.2292951180535
550.5899118880777
514.2950556681014
495.824755625296
494.1866735491933
495.6125081220985
503.2799948412134
491.5867321574314
494.5183141658097
496.1913389225318
491.9383468609792
491.7306654633761
495.9353962332444
497.7435945307
470.0229172390395
486.7426107937992
494.378062386722
496.3168076447099
496.6213525322539
497.9366879250226
499.1293985074655
500.2146154831444
497.127675171956
498.5146609577898
499.9312889384823
501.1941511205166
498.3945391709896
499.5721896507753
500.3658883766552
502.1220241150451
497.3056608404029
498.8592149662344
500.7161584691868
502.5244051673449
501.435768324098
515.2092389263677
574.5932902690868
633.5963127843622
502.8165159741667
522.4849301676632
589.0235167295519
635.0111306881898
503.8751620067635
527.8780991807461
598.9695984198526
633.6345222152668
504.1964932696292
531.7377969274726
606.279058175723
635.0512471243363
678.1810077351204
666.7126761062888
663.3437626352001
663.5989148059417
686.7570112927422
674.1036677381601
667.7898343811221
666.4326262560145
693.6514838162907
681.8171258201979
672.3258113869753
667.8805037945264
692.5586047077587
686.3112054605912
675.5976845423214
669.3164930122538
663.6474504142549
656.5316710750512
645.9607249552705
636.3789919995103
665.6378343061913
659.4816203140784
648.1166674661591
638.0656260596396
667.4391577050405
661.9174636215067
650.8738450547156
640.3715862205609
668.2646413994366
663.3444938382219
651.9143162008517
641.7585182244779
621.5797281332813
608.9344435968634
591.1768635979263
568.744578674274
622.7042573971368
609.034720600735
590.4968448173581
594.974769042134
625.2141111913653
610.3020579090113
599.0900485347797
621.1228404453503
630.3664996780385
615.703569210135
613.6272431195594
605.1856245303513
525.0077632230876
450.561539135016
333.830479031365
300.9696382461933
512.8194767935636
409.8550453326067
270.4567451837129
243.446920475143
470.6401262294045
353.9462836668284
244.0137485620419
232.5097478648846
371.2449346717073
275.5470029290174
231.6477427572146
229.7164796970285
378.5775946261172
427.9645539153633
459.9864858813991
481.2570477784511
319.259494763188
376.9322380775346
417.9047995558839
449.1767429776195
293.0769633975676
344.0988080128398
386.5868587154936
425.9730486902975
290.429519347803
342.3113851809616
390.8979976899319
426.3358395123516
508.1138947702172
493.7633829555673
467.7511575824355
449.9835283846782
475.7652021167261
483.5143872718023
471.8361796373712
459.8956503403953
443.0401315561131
465.5868177280681
470.6040840075019
482.3279411728012
422.1541515927561
449.1594619391312
466.7897037886747
510.3274259433408
438.1660019590969
439.3261719202525
447.4809588495152
445.0099470658939
430.5562906358177
438.6453402924393
460.6388464546457
458.3010121526325
431.7490338985472
437.374313978421
458.6290381964134
447.7266146210038
416.2297976691542
429.8496403020087
440.1509104659584
426.2597865062037
407.8439664384155
397.2994546441284
393.8112110575732
393.613559531581
429.8860400561648
414.755472400579
406.4433287202846
404.9372118296887
448.9121835543766
435.0932002048843
423.1188677757549
418.6540981282283
437.8569224930211
428.363129208559
421.0774013783986
418.4550874689474
393.613559531549
404.9372118296682
418.654098128254
418.4550874690114
393.8112110574479
406.4433287201721
423.1188677757759
421.0774013785947
397.2994546439029
414.7554724003643
435.0932002048281
428.3631292088182
407.8439664381551
429.8860400559317
448.9121835541951
437.8569224930184
445.0099470657398
447.480958849347
439.326171919995
438.1660019587985
458.301012152412
460.6388464544558
438.6453402922639
430.5562906356597
447.7266146208133
458.6290381962932
437.3743139783544
431.749033898473
426.2597865059747
440.1509104657844
429.8496403019287
416.2297976690652
510.3274259432001
466.7897037884659
449.1594619388698
422.1541515928102
482.327941172725
470.6040840073777
465.5868177277306
443.0401315560269
459.8956503402786
471.836179637299
483.5143872714356
475.76520211654
449.9835283845084
467.7511575824381
493.7633829551973
508.1138947697643
481.2570477786574
459.9864858819343
427.9645539159154
378.5775946263497
449.1767429779343
417.9047995567141
376.9322380783636
319.2594947636994
425.9730486906943
386.5868587163875
344.0988080137945
293.0769633982292
426.3358395127847
390.8979976907922
342.3113851820622
290.4295193486362
300.9696382460536
333.8304790303126
450.5615391351631
525.007763223516
243.4469204752734
270.4567451832528
409.8550453326962
512.8194767940793
232.5097478651622
244.0137485619107
353.9462836671859
470.6401262297474
229.7164796974483
231.6477427573536
275.5470029294711
371.24493467219
568.7445786747812
591.1768635983728
608.9344435972429
621.5797281334325
594.9747690427324
590.4968448177474
609.0347206008784
622.704257397132
621.1228404458816
599.0900485351
610.302057909034
625.2141111912565
605.1856245308603
613.6272431197009
615.7035692099458
630.3664996777236
636.3789919995261
645.9607249554098
656.5316710750529
663.6474504143085
638.0656260595335
648.1166674661739
659.4816203140458
665.637834306173
640.3715862205154
650.8738450546583
661.9174636213997
667.4391577049114
641.7585182242534
651.9143162008119
663.3444938381901
668.2646413992235
663.5989148058521
663.3437626354754
666.7126761060849
678.1810077347436
666.4326262557413
667.7898343813771
674.1036677377915
686.7570112923294
667.8805037941181
672.3258113872615
681.8171258196174
693.651483815766
669.3164930118699
675.5976845425723
686.3112054599228
692.5586047072205
633.596312784057
574.5932902689322
515.2092389264877
501.4357683243036
635.011130687889
589.0235167294005
522.4849301677218
502.8165159743888
633.6345222149166
598.9695984196851
527.878099180757
503.8751620069545
635.0512471239718
606.2790581755518
531.7377969274642
504.1964932698162
500.2146154835681
499.1293985073867
497.9366879245308
496.6213525321195
501.1941511209059
499.9312889383076
498.5146609571966
497.1276751717828
502.1220241154025
500.3658883764425
499.5721896501433
498.3945391707811
502.5244051676931
500.7161584689289
498.8592149655412
497.3056608401935
495.6125081215812
494.1866735486965
495.8247556255789
514.2950556683736
496.1913389218845
494.5183141653894
491.5867321578515
503.2799948414518
497.7435945299682
495.9353962328366
491.7306654637879
491.9383468611915
496.3168076439573
494.3780623862116
486.7426107940707
470.0229172392373
554.3103622390329
559.3922072679117
562.4778705454091
563.1884549449135
554.7205964915978
559.156944506996
562.214160760087
563.8343397598676
555.1022946385026
559.1935218432435
562.3251992680151
564.0371490453205
550.5899118881974
559.2292951183274
562.2922848186133
564.4241311343723
565.1871926033273
564.8797924002553
556.802425700412
536.5888189981929
566.5311557352444
567.3939347920524
563.3132824196509
549.7009732956159
566.9511155257721
568.4458963480353
564.8929289920566
557.5972786638184
567.5607080277125
569.8863250480778
569.2376172261932
571.8194072422752
474.2417532151614
492.2602936813768
499.0723363868735
499.9732928828718
466.1281262262239
489.1103386420336
498.6126944668599
499.9546204252503
466.9152390628641
487.4986555093474
498.2943664009834
499.9396571098056
467.6312814685288
486.8925835148577
498.1515244011337
499.9322576863552
499.9095842397546
498.453377785355
489.9046485816916
449.5926174942625
499.9182872501231
498.3969834190679
489.2068471913865
454.3886466542233
499.9255847960429
498.3008705547789
488.2846565451881
460.3292211125202
499.9287036197464
498.172810897265
487.0387185234133
464.3615999591753
499.9322576861778
499.9396571095363
499.9546204254663
499.9732928830141
498.1515244009323
498.2943664007091
498.6126944664149
499.0723363870661
486.8925835149265
487.4986555095012
489.1103386424267
492.2602936816788
467.6312814684888
466.9152390626901
466.1281262259735
474.2417532149352
)
;

boundaryField
{
    back
    {
        type            empty;
    }
    inlet
    {
        type            zeroGradient;
    }
    front
    {
        type            empty;
    }
    top
    {
        type            zeroGradient;
    }
    outlet
    {
        type            fixedValue;
        value           uniform 500;
    }
    bottom
    {
        type            zeroGradient;
    }
    wall
    {
        type            zeroGradient;
    }
}


// ************************************************************************* //
