/*--------------------------------*- C++ -*----------------------------------*\
  =========                 |
  \\      /  F ield         | OpenFOAM: The Open Source CFD Toolbox
   \\    /   O peration     | Website:  https://openfoam.org
    \\  /    A nd           | Version:  11
     \\/     M anipulation  |
\*---------------------------------------------------------------------------*/
FoamFile
{
    format      ascii;
    class       surfaceScalarField;
    location    "13";
    object      phi;
}
// * * * * * * * * * * * * * * * * * * * * * * * * * * * * * * * * * * * * * //

dimensions      [0 3 -1 0 0 0 0];

internalField   nonuniform List<scalar> 
8667
(
1.5883988
0.1893367
4.2284943e-05
1.3984328
0.18986345
0.00010252526
1.2070515
0.19124055
0.00014082393
1.0165858
0.19024611
0.0002195261
0.8246365
0.19168943
0.00025988186
0.63534538
0.18894264
0.00034847553
0.44434644
0.19060052
0.00039841886
0.26020559
0.18363066
0.00051019099
0.1805574
0.0006492198
0.078998973
1.5885506
0.37856392
1.3981569
0.38025718
1.2069809
0.3824165
1.0158288
0.38139819
0.82444245
0.38307581
0.63388828
0.37949681
0.44395242
0.38053639
0.26027629
0.36730679
0.36325579
0.077577898
1.5885066
0.56783514
1.3981266
0.57063715
1.2068503
0.57369277
1.0154765
0.57277203
0.82352092
0.5750314
0.63324106
0.56977667
0.44288709
0.57089036
0.25891337
0.55128051
0.54666883
0.075500334
1.5884174
0.75719556
1.398373
0.76068155
1.206742
0.76532378
1.0154547
0.76405934
0.8229729
0.76751316
0.63212847
0.7606211
0.44139312
0.7616257
0.2570633
0.73561034
0.73010695
0.073625174
1.5884472
0.94652598
1.3984884
0.9506403
1.2070373
0.95677489
1.0154427
0.95565394
0.82285405
0.96010184
0.63136005
0.95211509
0.44035734
0.95262841
0.25538084
0.92058684
0.91328367
0.07220411
1.5885119
1.1357919
1.3987227
1.1404294
1.2074037
1.148094
1.015631
1.1474266
0.8228374
1.1528954
0.63042227
1.1445302
0.43866685
1.1443838
0.25314817
1.1061055
1.0962698
0.07016207
1.5885787
1.324991
1.398997
1.3300111
1.2078948
1.3391962
1.0158926
1.3394287
0.82288821
1.3458999
0.63020274
1.3372157
0.43776461
1.336822
0.25092282
1.2929473
1.2794298
0.067762824
1.5887812
1.5139877
1.3992082
1.5195841
1.2084723
1.5299321
1.0164916
1.5314094
0.82293838
1.5394531
0.62943311
1.530721
0.43615221
1.5301029
0.24849056
1.480609
1.4622994
0.065620906
1.5890115
1.7027539
1.3996265
1.7089692
1.2089127
1.7206458
1.0171074
1.7232147
0.82348081
1.7330797
0.62966462
1.7245372
0.43527717
1.7244903
0.24576755
1.6701186
1.6463849
0.061682022
1.8851656
1.5953662
2.0673409
1.5956025
2.2491949
1.5959243
2.4308749
1.596098
2.6122399
1.596411
2.7933187
1.5966992
2.9742303
1.5968664
3.1545176
1.5974907
1.5973242
3.3349715
1.8920702
1.4122652
2.074911
1.4127617
2.2575992
1.4132361
2.4398951
1.4138022
2.6220707
1.4142354
2.8036649
1.415105
2.9850643
1.415467
3.1659911
1.4165638
1.4164706
3.3468447
1.9056627
1.2272483
2.0903932
1.2280313
2.2748193
1.22881
2.4586462
1.2299753
2.6422111
1.2306705
2.8252218
1.2320943
3.0080188
1.23267
3.1904533
1.2341293
1.2345082
3.3724158
1.9098858
1.0405772
2.0962894
1.0416277
2.2829176
1.0421818
2.4692692
1.0436236
2.6556264
1.0443134
2.84172
1.0460006
3.0276529
1.0467372
3.2133088
1.0484734
1.0492174
3.3985996
1.9221677
0.85148916
2.1114614
0.85233399
2.301036
0.85260715
2.4908667
0.85379292
2.6806904
0.85448964
2.870764
0.85592703
3.0604445
0.85705667
3.2502472
0.85867069
0.86016306
3.4393015
1.9146094
0.66141691
2.105926
0.66101742
2.2978667
0.6606664
2.4910313
0.66062832
2.6844017
0.66111931
2.8788801
0.66144861
3.0732512
0.66268558
3.2686504
0.6632715
0.66478686
3.4640266
1.9153847
0.47052256
2.1089162
0.4674859
2.3033285
0.46625409
2.5008927
0.46306413
2.6991643
0.46284773
2.8997199
0.460893
3.1004773
0.46192811
3.3029194
0.46082947
0.46270959
3.5049967
1.858358
0.28228311
2.0531868
0.27265711
2.2517992
0.26764171
2.4551868
0.25967652
2.6602979
0.25773668
2.8685704
0.2526205
3.0776178
0.25288065
3.2889172
0.24953004
0.25143931
3.5001875
1.8370656
0.091602411
2.0474424
0.062280347
2.2714929
0.043591245
2.5021278
0.029041616
2.7348349
0.025029571
2.9682091
0.019246344
3.2029577
0.018132005
3.4369247
0.015563088
3.6721593
0.016204692
3.3240796
0.01089185
3.3137684
0.010311259
3.3035931
0.010175304
3.2942044
0.0093886482
3.2849049
0.009299522
3.2765355
0.0083694134
3.2681812
0.0083543227
3.2608874
0.007293764
0.0073278435
3.2535596
3.3385517
0.019184834
3.33099
0.017872989
3.323569
0.017596299
3.3168755
0.01608215
3.310292
0.015883006
3.3045399
0.014121531
3.2988791
0.014015118
3.2941886
0.011984277
0.012025198
3.2894912
3.3653328
0.02626778
3.3587376
0.024468162
3.3524373
0.023896605
3.3465267
0.021992738
3.3409668
0.021442976
3.3358274
0.019260955
3.3310992
0.0187433
3.3268673
0.016216182
0.015803648
3.3230888
3.3933988
0.031468614
3.3886658
0.029201146
3.3842681
0.028294335
3.380175
0.026085854
3.3764019
0.025216017
3.3729477
0.022715171
3.369808
0.021882985
3.3669874
0.019036787
0.018334401
3.3644567
3.4343054
0.03646469
3.4296766
0.033829968
3.4253158
0.03265508
3.4212663
0.030135372
3.4174568
0.029025542
3.4139619
0.026210103
3.4106802
0.025164599
3.4076791
0.02203796
0.021162082
3.4048514
3.4613842
0.039107029
3.4590794
0.036134777
3.4571233
0.034611153
3.4552619
0.031996812
3.4536671
0.03062031
3.4519152
0.027962059
3.4503667
0.026713098
3.4483496
0.024054986
0.023039031
3.4464727
3.5033958
0.040707847
3.5015862
0.037944376
3.5001956
0.036001759
3.4984052
0.03378726
3.4968337
0.032191777
3.4944955
0.030300273
3.4920897
0.029118956
3.4884962
0.027648404
0.026808592
3.4847267
3.5095742
0.031321182
3.5180953
0.029423277
3.527408
0.026688984
3.5353476
0.025847733
3.5433863
0.024153034
3.5491764
0.024510186
3.5539647
0.024330642
3.5547924
0.026820696
0.028668105
3.5529329
3.6900629
0.013417592
3.704772
0.014714162
3.7153643
0.016096708
3.7222298
0.018982184
3.7234316
0.022951263
3.7185558
0.029385951
3.7070554
0.035831059
3.6883709
0.045505198
3.6654865
0.05155251
3.6490026
0.068156609
-0.051672683
3.6184141
0.066054929
-0.035466462
3.5817729
0.062754315
-0.026113099
3.5427372
0.061432385
-0.022396689
3.501984
0.058384684
-0.017631489
3.4602341
0.057701469
-0.015951606
3.4183886
0.054881846
-0.013036285
3.3769983
0.055057528
-0.013667278
0.052672662
3.336221
-0.011895382
3.5593279
0.061761632
3.562252
0.063130776
3.5611987
0.063807688
3.5580013
0.064629726
3.5513265
0.065059531
3.5431828
0.065845149
3.5316379
0.06642676
3.5193863
0.067309101
0.067866151
3.5041928
3.4916664
0.05482195
3.498229
0.056568135
3.5031897
0.058846999
3.5073127
0.06050676
3.509663
0.062709143
3.5112328
0.064275422
3.5111992
0.06646035
3.5104189
0.068089404
0.070374798
3.5079102
3.4564251
0.044869533
3.4666388
0.046354422
3.4758875
0.049598276
3.4853456
0.051048757
3.493702
0.054352657
3.5021476
0.055829897
3.5093671
0.059240844
3.5166257
0.060830819
0.064403267
3.5225972
3.4144837
0.0352372
3.4245363
0.036301811
3.4344238
0.039710783
3.4447125
0.040760073
3.4546921
0.044373073
3.46508
0.04544203
3.4750286
0.049292203
3.485432
0.050427405
0.054557121
3.4952782
3.3749658
0.024728069
3.3859188
0.025348808
3.3971042
0.028525371
3.4087599
0.029104341
3.42055
0.032582999
3.4328602
0.033131878
3.4452137
0.03693872
3.4581645
0.037476602
0.041654687
3.4710669
3.3323868
0.015430094
3.342276
0.015459584
3.352587
0.018214376
3.3635414
0.018149995
3.3748868
0.02123757
3.3869643
0.021054371
3.3994128
0.024490219
3.4126969
0.024192473
0.02804102
3.4263106
3.2984142
0.006507139
3.3075734
0.006300345
3.3176141
0.008173713
3.3278946
0.0078694889
3.3392661
0.0098660167
3.3508764
0.0094441136
3.3637502
0.011616392
3.376791
0.01115166
0.013558678
3.3912734
3.2600667
3.266367
3.2745408
3.2824102
3.2922763
3.3017204
3.3133368
3.3244884
3.3380471
3.3510782
-0.013031133
3.3668071
-0.0157289
3.3819692
-0.015162105
3.4001087
-0.018139474
3.4176481
-0.017539429
3.4385193
-0.020871186
3.4587553
-0.020236012
3.4827202
-0.023964835
-0.023313871
3.506034
3.40588
-0.027637734
3.4221127
-0.031961639
3.438416
-0.031465421
3.4566022
-0.036325652
3.4748115
-0.035748726
3.4951671
-0.041226757
3.5155112
-0.040580198
3.5383256
-0.046779225
-0.046065321
3.5610771
3.4408834
-0.042210501
3.455736
-0.046814254
3.4716962
-0.047425691
3.487897
-0.052526363
3.5053823
-0.053234051
3.5230817
-0.058926153
3.5422687
-0.05976718
3.5616615
-0.066172042
-0.067169153
3.5827653
3.4846747
-0.055818259
3.4981435
-0.060283147
3.5124591
-0.061741273
3.5265588
-0.066626021
3.5416793
-0.068354607
3.5565345
-0.073781312
3.5726121
-0.075844786
3.5884082
-0.081968148
-0.084411701
3.6056508
3.5056692
-0.066209279
3.5153944
-0.070008329
3.5258062
-0.072153086
3.5354627
-0.076282538
3.5459787
-0.078870591
3.5556896
-0.083492264
3.5664421
-0.086597226
3.576381
-0.091907046
-0.095586233
3.5875555
3.528662
-0.07227406
3.533395
-0.074741359
3.5383406
-0.077098706
3.5419334
-0.079875359
3.5459132
-0.082850305
3.5485674
-0.086146503
3.5518222
-0.089852048
3.5538025
-0.09388738
-0.098391472
3.5566078
3.5049593
-0.069323136
3.5004924
-0.070274496
3.4957048
-0.072311069
3.4896663
-0.073836825
3.4833222
-0.076506282
3.4759728
-0.078797096
3.4683424
-0.082221585
3.4599325
-0.085477506
-0.089751263
3.4512923
3.488638
-0.053768312
3.4703482
-0.051984705
3.4519694
-0.053932229
3.4309574
-0.052824829
3.4100768
-0.055625749
3.3865723
-0.055292539
3.3633748
-0.059024121
3.3375298
-0.059632525
-0.064380926
3.3121595
3.2960074
-0.01355472
3.255959
-0.011936252
3.2163146
-0.014287828
3.1761566
-0.012666864
3.136367
-0.015836169
3.0952366
-0.014162104
3.0544924
-0.018279884
3.0115361
-0.016676237
2.9692406
-0.022085433
0.066210419
2.923554
-0.020523838
0.094222043
3.2841479
0.10343434
3.44208
0.10178883
3.5582533
0.09140497
3.5979394
0.074427517
3.6226282
0.053109036
3.6040838
0.02752386
3.5866623
3.5335579
0.072235387
2.8789966
-0.027677969
0.099343679
3.2570396
0.10867519
3.4327485
0.10607133
3.5608571
0.094246791
3.6097639
0.075580341
3.6412947
0.052314464
3.6273497
0.026877981
3.6120987
3.5604359
0.075583872
2.8296824
-0.02626969
0.10544577
3.2271777
0.11515399
3.4230403
0.11337527
3.5626359
0.10228984
3.6208493
0.083840491
3.659744
0.06032999
3.6508602
0.031627749
3.640801
3.5920636
0.083270242
2.7824776
-0.036065418
0.11143609
3.1990118
0.12108062
3.4133957
0.11824806
3.5654684
0.10551276
3.6335846
0.085116036
3.6801407
0.059419199
3.676557
0.030984053
3.6692361
3.6230477
0.088525886
2.7296103
-0.035658646
0.11942307
3.1681147
0.12922615
3.4035927
0.12686414
3.5678304
0.11478263
3.6456661
0.094519735
3.7004036
0.068538062
3.7025387
0.036363834
3.7014104
3.6594115
0.098301107
2.6816867
-0.050377456
0.12635076
3.140065
0.13574802
3.3941954
0.132167
3.5714115
0.1183196
3.6595135
0.095849438
3.7228738
0.067449625
3.7309385
0.035693588
3.7331664
3.6951051
0.10551047
2.6286836
-0.052507363
0.13654482
3.1090306
0.14590661
3.3848336
0.14244224
3.5748758
0.12898222
3.6729736
0.10652207
3.7453339
0.077678172
3.7597824
0.041631501
3.7692131
3.7367366
0.11833444
2.5867181
-0.076368929
0.14438929
3.0829758
0.152854
3.3763689
0.14798323
3.5797466
0.13265427
3.6883025
0.10780462
3.7701836
0.076580858
3.7910061
0.041188443
3.8046055
3.7779251
0.12907891
2.5351869
-0.077547757
0.15769003
3.0543647
0.16587549
3.3681835
0.1608709
3.5847512
0.14568365
3.7034898
0.12033483
3.7955324
0.087872368
3.8234686
0.047387519
3.8450903
3.8253126
-0.0084397367
3.8337523
-0.0079955244
3.8446461
-0.0054012213
3.8208743
0.0039356817
3.7861955
0.016744775
3.6906807
0.036029767
3.5654662
0.056665975
3.3475473
0.073532856
3.0374978
2.5514498
0.057269948
-0.013109731
3.846862
-0.017405966
3.8489423
-0.016321961
3.8197903
-0.0080362241
3.7779098
0.004115988
3.6785285
0.022351658
3.5472305
0.040489115
3.3294098
0.058687882
3.019299
2.555111
0.05502671
-0.012070356
3.8589324
-0.014948066
3.8518201
-0.014484876
3.8193271
-0.0069879848
3.7704129
0.0037160219
3.6678245
0.020934933
3.5300116
0.038776075
3.3115687
0.053391564
3.0046835
2.5582035
0.050299097
-0.016513464
3.8754459
-0.024049805
3.8593564
-0.025910876
3.8211882
-0.019949963
3.764452
-0.0094141696
3.6572887
0.007150458
3.513447
0.023854641
3.2948645
0.040155156
2.988383
2.5635413
0.034817322
-0.015541001
3.8909869
-0.021513777
3.8653292
-0.023319016
3.8229934
-0.017470589
3.7586036
-0.0083074853
3.6481256
0.0073196887
3.4978198
0.023741863
3.2784423
0.036418086
2.9757068
2.5628891
0.037070287
-0.020155865
3.9111427
-0.030344473
3.8755178
-0.034927403
3.8275763
-0.030939408
3.7546156
-0.021773908
3.6389601
-0.0066013047
3.4826472
0.0092716164
3.2625694
0.025360577
2.9596178
2.5605495
0.02770016
-0.01945083
3.9305936
-0.027570751
3.8836377
-0.031530419
3.831536
-0.02709713
3.7501823
-0.019340187
3.6312031
-0.005063204
3.4683702
0.010629129
3.246877
0.023844556
2.9464024
2.5524571
0.03193697
-0.023975079
3.9545686
-0.035825134
3.8954878
-0.043143681
3.8388546
-0.040826955
3.7478655
-0.032978234
3.6233544
-0.018861233
3.4542532
-0.0030025165
3.2310183
0.014438688
2.9289612
2.5432368
0.023658965
-0.022925634
3.9774943
-0.033017933
3.9055801
-0.03910738
3.844944
-0.035380312
3.7441385
-0.028979417
3.6169535
-0.015685228
3.440959
0.00012312964
3.21521
0.014395295
2.914689
2.5289609
0.028671203
-0.0063176695
2.5138188
0.021459821
0.012870607
2.8955008
0.029058974
3.1990216
0.042565702
3.4274523
0.04896513
3.6105541
0.050318338
3.7427853
0.040594719
3.8546676
0.027064418
3.9191104
4.0045587
-0.0074581235
2.4943115
0.026965421
0.0081970807
2.8798456
0.024150007
3.1830687
0.036826003
3.4147763
0.042187212
3.6051929
0.045223058
3.7397494
0.037457515
3.8624332
0.025740929
3.9308269
4.0302996
-0.00046986084
2.4745411
0.020240258
0.020315342
2.8590604
0.03678997
3.166594
0.050226715
3.4013395
0.055316507
3.6001031
0.055461525
3.7396044
0.044099231
3.8737955
0.029416056
3.9455101
4.0597157
-0.0026355126
2.4512055
0.025971075
0.01412408
2.8423008
0.030279131
3.150439
0.042765373
3.3888533
0.047146477
3.595722
0.04959342
3.7371575
0.040487944
3.8829009
0.02772902
3.958269
4.0874447
0.0036160729
2.4280589
0.019530525
0.02547645
2.8204404
0.041955755
3.1339597
0.055096304
3.3757128
0.059348276
3.59147
0.058402359
3.7381034
0.045986066
3.8953172
0.030798155
3.973457
4.1182429
8.5747576e-05
2.4024903
0.025482917
0.01770669
2.8028194
0.034152013
3.1175144
0.046207282
3.3636575
0.049822883
3.5878544
0.05174518
3.7361811
0.041756051
3.9053064
0.028638571
3.9865744
4.1468814
0.0055410964
2.377688
0.019261184
0.028093148
2.7802674
0.044477087
3.1011304
0.057166889
3.3509677
0.060755092
3.5842662
0.058807162
3.738129
0.045942655
3.9181709
0.030967676
4.0015494
4.1778491
0.00074156876
2.3516913
0.025255107
0.018572083
2.7624369
0.035206115
3.0844964
0.046740295
3.3394335
0.049759017
3.5812475
0.051170124
3.7367179
0.040957097
3.9283839
0.028231895
4.0142746
4.206081
0.0049683554
2.3275341
0.019188816
0.027900295
2.7395049
0.044077219
3.0683195
0.056172588
3.3273381
0.059270629
3.5781494
0.05628719
3.7397013
0.043733326
3.9409378
0.029791243
4.0282167
4.2358722
-0.011863905
4.2477361
-0.012557958
4.0289108
-0.011941727
3.9403215
-0.0056827442
3.7334424
0.00082023133
3.5716465
0.010259705
3.3178987
0.022818438
3.0557607
0.029778404
2.732545
2.3153733
0.0419392
-0.011330462
4.2590666
-0.012437395
4.0300177
-0.01326865
3.9411528
-0.011836803
3.7320105
-0.0054349226
3.5652446
0.004455139
3.3080086
0.015205045
3.0450108
0.028595031
2.719155
2.3095476
0.034420726
-0.005586822
4.2646534
-0.0042574505
4.0286883
-0.00089514489
3.9377905
0.005217102
3.7258983
0.0116878
3.5587739
0.021161003
3.2985354
0.034394339
3.0317775
0.04121644
2.7123329
2.3060164
0.044747727
-0.0030501299
4.2677036
-0.0022314648
4.0278697
0.00041348571
3.9351455
0.0016674558
3.7246443
0.0086080724
3.5518333
0.018539383
3.2886041
0.030387016
3.0199299
0.044162802
2.6985571
2.3117391
0.038440086
0.0037197686
4.2639838
0.0079759863
4.0236134
0.013813982
3.9293075
0.021331898
3.7171264
0.027677697
3.5454875
0.037256772
3.279025
0.051617204
3.0055694
0.060290825
2.6898835
2.3265912
0.045438711
0.0070181956
4.2569656
0.011966038
4.0186656
0.017484906
3.9237887
0.020728177
3.7138831
0.027778238
3.5384374
0.037207183
3.2695961
0.050636471
2.9921401
0.070479643
2.6700403
2.3628836
0.034187261
0.014378568
4.242587
0.023489707
4.0095545
0.032926571
3.9143518
0.042134816
3.7046749
0.048940115
3.5316321
0.05745895
3.2610772
0.072777678
2.9768214
0.091703834
2.6511141
2.4098919
0.044695505
0.019205041
4.223382
0.028998002
3.9997615
0.038731868
3.9046179
0.044285456
3.6991213
0.051849188
3.5240684
0.059209039
3.2537174
0.071776026
2.9642544
0.10751697
2.6153732
2.4790643
0.038344575
0.026609159
4.1967728
0.041576109
3.9847945
0.055670407
3.8905236
0.067473078
3.6873186
0.07494227
3.5165992
0.081973165
3.2466865
0.094710555
2.951517
0.134362
2.5757218
2.4952381
0.11818823
-0.17783625
4.3746091
-0.35131884
4.1582771
-0.51927617
4.058481
-0.66903266
3.8370751
-0.79395168
3.6415182
-0.8867754
3.3395102
-0.92721399
2.9919556
-0.93134315
2.5798509
2.4621947
-0.89829976
-0.17810315
4.5527122
-0.35594059
4.3361146
-0.52782583
4.2303662
-0.68006383
3.9893131
-0.80899292
3.7704473
-0.89907642
3.4295937
-0.93409961
3.0269788
-0.90668875
2.55244
2.2187974
-0.66329151
-0.17661914
4.7293314
-0.35431301
4.5138084
-0.52815672
4.4042099
-0.68896807
4.1501244
-0.82056178
3.902041
-0.91261565
3.5216476
-0.93036316
3.0447263
-0.8430623
2.4651392
1.5520545
-0.17631941
-0.17526123
4.9045926
-0.35677871
4.6953259
-0.53432619
4.5817574
-0.70118645
4.3169847
-0.8356987
4.0365532
-0.92722471
3.6131736
-0.92114282
3.0386444
-0.78413519
2.3281316
0.81393553
-0.046016181
-0.17183914
5.0764317
-0.35444204
4.8779288
-0.53196031
4.7592757
-0.71007274
4.4950971
-0.84661396
4.1730945
-0.93834649
3.7049061
-0.90464001
3.004938
-0.65570767
2.0791992
0.15954854
-0.0013206773
-0.1681202
5.2445519
-0.35614486
5.0659535
-0.53683203
4.9399628
-0.71977032
4.6780354
-0.86081766
4.3141418
-0.94554206
3.7896305
-0.85162923
2.9110251
-0.40058521
1.6281552
-0.31662927
0.0755926
-0.16192403
5.406476
-0.35312671
5.2571562
-0.53288255
5.1197187
-0.72695261
4.8721055
-0.87047065
4.4576598
-0.937285
3.8564449
-0.7572305
2.7309706
-0.28365295
1.1545777
-0.65990903
0.05962681
-0.1555614
5.5620374
-0.35052551
5.4521203
-0.53577832
5.3049715
-0.73450936
5.0708365
-0.88097506
4.6041255
-0.92784536
3.9033152
-0.65833774
2.461463
-0.20831591
0.70455581
-0.92347269
0.055247753
-0.14918265
5.71122
-0.34506205
5.6479997
-0.52974647
5.4896559
-0.73930669
5.2803967
-0.885668
4.7504868
-0.88875126
3.9063984
-0.52051418
2.0932259
-0.098785996
0.28282763
-1.0917556
0.069496943
0.035068533
-1.1671152
0.040291085
0.26807008
0.049826087
0.54689541
1.8144006
0.56693907
3.8863548
0.47213188
4.845294
0.32755912
5.4249695
0.20343838
5.6137767
0.07432425
5.7771138
5.7855443
0.034371701
-1.2446799
0.043192911
0.25003809
-0.1658403
0.52206483
1.5423739
0.56522499
3.8431946
0.46522081
4.9452982
0.31437883
5.5758115
0.19343679
5.7347187
0.067728931
5.9028217
5.8532732
0.050718792
-1.3403529
0.044954257
0.26553581
-0.38065732
0.5064221
1.3014876
0.56175973
3.787857
0.46429758
5.0427604
0.31114727
5.7289618
0.1847073
5.8611587
0.058746745
6.0287822
5.9120199
0.061776675
-1.4486618
0.046532193
0.26784698
-0.58672763
0.49012227
1.0792123
0.55826119
3.7197181
0.45465518
5.1463664
0.29672225
5.8868947
0.17393712
5.9839438
0.05225107
6.1504683
5.964271
0.061041426
-1.5563416
0.046638411
0.25894763
-0.78463383
0.47123009
0.86692983
0.55228352
3.6386646
0.45164197
5.2470079
0.29149145
6.0470452
0.16371637
6.1117189
0.043262842
6.2709218
6.0075338
0.058258053
-1.6621269
0.047527238
0.24127526
-0.96765104
0.4512213
0.6569838
0.54653658
3.5433493
0.43941164
5.3541329
0.27589941
6.2105575
0.15222467
6.2353936
0.036929528
6.3862169
6.0444634
0.052837403
-1.7541602
0.039195876
0.22020428
-1.1350179
0.42581442
0.45137366
0.53787746
3.4312863
0.43435917
5.4576512
0.26895394
6.3759627
0.1407731
6.3635745
0.028138332
6.4988517
6.0726017
0.047033472
-1.8470732
0.045879578
0.20451114
-1.2924956
0.41262927
0.24325552
0.52743344
3.3164821
0.41678979
5.5682948
0.25151521
6.5412373
0.12861532
6.4864744
0.02276914
6.6046979
6.0953708
0.044265839
-1.8934304
0.0020913048
0.19214602
-1.4403758
0.39558958
0.039811965
0.5150212
3.1970505
0.41242363
5.6708924
0.24588834
6.7077726
0.11721912
6.6151436
0.015762867
6.7061541
6.1111337
0.34350898
-2.1881423
-0.048797078
0.5247073
-1.6215741
0.63684573
-0.07232647
0.50258367
3.3313126
0.1957782
5.9776978
-0.031980368
6.9355311
-0.1281362
6.7112994
-0.15677819
6.7347961
5.9543555
0.36762867
-2.5574979
0.001727001
0.54922106
-1.8031665
0.61856875
-0.14167415
0.40547123
3.5444101
0.10528416
6.2778849
-0.12651174
7.167327
-0.21756563
6.8023533
-0.20559668
6.7228272
5.7487588
0.38434145
-2.8331915
-0.10864792
0.59104365
-2.0098687
0.63057903
-0.18120953
0.29507262
3.8799165
-0.044667738
6.6176253
-0.22969652
7.3523558
-0.26148777
6.8341446
-0.21243449
6.6737739
5.5363243
0.39770014
-2.9775898
-0.25330185
0.59274597
-2.2049145
0.55899398
-0.14745754
0.18905326
4.2498572
-0.13066506
6.9373436
-0.30160243
7.5232932
-0.32614519
6.8586873
-0.23964649
6.5872752
5.2966779
0.3969508
-3.0190756
-0.35546495
0.60178683
-2.4097505
0.52237304
-0.068043748
0.05492373
4.7173065
-0.27970119
7.2719685
-0.37861609
7.6222081
-0.34624037
6.8263116
-0.22098834
6.4620232
5.0756895
0.39299532
-3.0205376
-0.39153332
0.57113808
-2.5878933
0.41493416
0.088160172
-0.04453596
5.1767766
-0.34097265
7.5684052
-0.41592566
7.6971611
-0.38815868
6.7985446
-0.23301387
6.3068784
4.8426756
0.36894685
-2.9912729
-0.39821158
0.52808284
-2.7470293
0.32324089
0.29300212
-0.20256273
5.7025803
-0.4709428
7.8367853
-0.46844346
7.6946618
-0.38630465
6.7164058
-0.19455493
6.1151286
4.6481207
0.35259444
-2.9938571
-0.35001021
0.47973184
-2.8741667
0.21404113
0.55869283
-0.27468548
6.1913069
-0.49477408
8.0568739
-0.47965937
7.679547
-0.41169479
6.6484412
-0.19474424
5.8981781
4.4533765
0.33908106
-0.23188529
-3.1010529
0.44844265
-2.9835283
0.10129989
0.90583559
-0.47146198
6.7640687
-0.62762145
8.2130334
-0.51907017
7.5709958
-0.3918021
6.5211732
-0.13672135
5.6430973
4.3166551
-0.37871279
0.26295236
0.060388427
0.055371998
-0.81977506
0.37950995
0.061552326
-1.2874827
0.44069072
0.027016879
-1.5695723
0.40544596
-0.12335633
-1.4328636
0.026007048
-0.16271572
-1.161618
-0.36601479
0.094769128
-0.94796734
-0.29669733
0.083046708
-0.23035753
-0.68517673
-0.032433081
-0.66081871
-0.025522271
-0.37500476
0.57426227
0.063694859
-0.79906769
0.80357287
-1.2415754
0.88319842
-1.4545715
0.61844206
-1.2191865
-0.2093779
-0.86852575
-0.71667558
-0.64599608
-0.51922701
0.0011461748
-1.332319
-1.339448
-0.36932619
0.87520146
0.068386994
-0.76748031
1.201727
-1.1762183
1.2919364
-1.3287357
0.77095952
-1.0530641
-0.48504952
-0.60002798
-1.1697117
-0.16093936
-0.95831563
0.34819219
-1.8414505
-1.7744996
-0.35773599
1.1608995
0.0720379
-0.724663
1.568654
-1.0974209
1.6646943
-1.1732229
0.84676149
-0.85722464
-0.80104778
-0.40072181
-1.6262145
0.11189342
-1.4709309
0.62561388
-2.355171
-2.2142834
-0.34544121
1.4301607
0.076180082
-0.68441338
1.9076262
-1.0269424
2.0072234
-1.015924
0.83574303
-0.60036297
-1.2166088
-0.12675513
-2.0998224
0.45316132
-2.0508473
0.93963124
-2.8416409
-2.5493946
-0.32883285
1.681585
0.077408566
-0.64030923
2.2191026
-0.94161703
2.3085312
-0.85263813
0.74676413
-0.353087
-1.7161599
0.1477378
-2.6006472
0.71532195
-2.6184315
1.166975
-3.2932939
-2.872555
-0.31736216
1.9194864
0.079460728
-0.5976788
2.4994192
-0.84190353
2.5527559
-0.66083511
0.56569571
-0.080116413
-2.2968786
0.42703217
-3.1077958
1.0049909
-3.1963901
1.4274335
-3.7157366
-3.1363055
-0.29770954
2.1349899
0.082206019
-0.54780009
2.7495098
-0.7562524
2.7612082
-0.48792236
0.29736567
0.17659454
-2.9613955
0.7008826
-3.6320838
1.2438973
-3.7394048
1.601848
-4.0736873
-3.3736027
-0.28536413
0.089064468
2.3312896
-0.50844832
2.9725939
-0.62987627
2.8826362
-0.25242372
-0.080086876
0.43208574
-3.645905
0.94990675
-4.1499048
1.4611104
-4.2506084
1.7970751
-4.409652
-3.5876792
0.35042362
3.0710464
-0.24127089
-3.1801991
0.4530699
2.9199743
-3.0226206
0.083506211
-0.64809282
1.0176565
-0.49077901
-6.3186423
6.8929275
-0.61947625
-8.045553
8.1742502
-0.51369513
-7.6439551
7.5381739
-0.38997103
-6.636046
6.5123219
-0.13500035
-5.887316
5.6323453
-4.4514542
4.3164538
0.36497909
3.0653578
-0.35929045
0.48772505
2.7972284
0.2032419
-0.36360966
-0.2917872
-5.8236132
-0.49518527
-7.8421549
-0.47491718
-7.6642231
-0.40891121
-6.7020519
-0.1931366
-6.1030906
-4.6445908
0.38091212
3.0888456
-0.40439998
0.53854124
2.6395993
0.31516295
-0.14023138
-0.22162638
-5.2868239
-0.47544518
-7.5883361
-0.4659782
-7.6736901
-0.38441128
-6.7836189
-0.19287168
-6.2946302
-4.8374625
0.40441619
3.0809623
-0.39653287
0.58017523
2.4638402
0.40781863
0.032125215
-0.061184214
-4.817821
-0.34774641
-7.3017739
-0.41465044
-7.6067861
-0.38593963
-6.8123297
-0.23139366
-6.4491762
-5.0688561
0.40794179
3.0309433
-0.3579228
0.61383907
2.2579429
0.51932609
0.12663819
0.039138113
-4.337633
-0.28918234
-6.9734534
-0.37926385
-7.5167046
-0.34535582
-6.8462377
-0.21942776
-6.5751042
-5.2882839
0.40785719
2.8738061
-0.25071995
0.60443134
2.0613688
0.55794584
0.17312369
0.17582514
-3.9555123
-0.14098033
-6.656648
-0.30429416
-7.3533908
-0.3256771
-6.8248548
-0.23853219
-6.6622492
-5.5268161
0.39341221
2.587815
-0.10742111
0.60355797
1.851223
0.63330836
0.14337331
0.28370036
-3.6059043
-0.056150667
-6.316797
-0.23483659
-7.1747048
-0.26288316
-6.7968082
-0.2117767
-6.7133556
-5.7385928
0.3761301
2.2094915
0.0021933692
0.56227231
1.6650808
0.62257836
0.083067259
0.39641362
-3.3797396
0.094849044
-6.0152324
-0.13277395
-6.9470818
-0.2197005
-6.7098816
-0.20564868
-6.7274074
-5.9442415
0.35072401
1.9070024
-0.048234866
0.53836097
1.4774439
0.64554415
-0.024115918
0.49648641
-3.2306819
0.18606462
-5.7048106
-0.03876753
-6.7222497
-0.13149542
-6.6171538
-0.15738172
-6.7015211
-6.1016232
-0.073486058
5.7817147
-5.7082287
-0.20207248
5.7796762
-5.6510897
-0.32614616
5.6196897
-5.495616
-0.47142864
5.4378793
-5.2925968
-0.56786741
4.8624292
-4.7659904
-0.54804595
3.8983181
-3.9181396
-0.26823567
1.792348
-2.0721583
-0.035024229
0.029526771
-0.26273821
-1.1694433
1.0939104
0.040508748
-0.066889767
5.8486045
-0.19200602
5.9047924
-0.31281235
5.740496
-0.46419388
5.5892608
-0.56594184
4.9641771
-0.52397915
3.8563555
-0.25363802
1.5220069
-0.036401996
-0.18770925
-1.2489104
0.043065067
-0.057918262
5.9065228
-0.18315639
6.0300305
-0.30937882
5.8667184
-0.4630882
5.7429702
-0.56241696
5.0635059
-0.50852347
3.802462
-0.27049954
1.283983
-0.053810869
-0.40439792
-1.3476411
0.044919789
-0.051455987
5.9579787
-0.17235977
6.1509343
-0.29482948
5.9891881
-0.45313365
5.9012743
-0.55864951
5.1690218
-0.4926168
3.7364293
-0.27157944
1.0629456
-0.063226996
-0.61275037
-1.4570611
0.046193033
-0.04249609
6.0004748
-0.16205492
6.2704931
-0.28941042
6.1165436
-0.44990864
6.0617726
-0.55259585
5.271709
-0.47390507
3.6577385
-0.26218376
0.8512243
-0.062305742
-0.81262838
-1.5657786
0.046411738
-0.036217827
6.0366927
-0.15056647
6.3848418
-0.27371743
6.2396946
-0.43736457
6.2254197
-0.5465501
5.3808945
-0.45442449
3.5656129
-0.24457968
0.64137949
-0.059343528
-0.99786453
-1.6721272
0.047005128
-0.027479886
6.0641725
-0.13907506
6.496437
-0.26660946
6.367229
-0.43207604
6.3908863
-0.53785283
5.4866713
-0.42921303
3.4569731
-0.22371041
0.43587687
-0.054060622
-1.1675143
-1.7645302
0.038342337
-0.022191594
6.0863641
-0.12690078
6.6011462
-0.24906158
6.4893898
-0.41414488
6.5559696
-0.52709686
5.5996233
-0.41621958
3.3460958
-0.20799924
0.22765652
-0.048230617
-1.3272829
-1.8585348
0.045774036
-0.015259037
-0.11563402
-0.243398
-0.4096781
-0.51486541
-0.39945147
-0.19591087
-0.045749947
0.0027175614
0.096494999
0.9272751
0.070140268
0.51912697
-0.68537018
0.8913189
-2.4443503
0.88750023
-3.9143209
0.73920623
-4.6176964
0.5287013
-5.0820919
0.34390547
-5.3108201
0.14839321
-5.4555775
-5.5598355
0.20554605
0.66534027
0.056388791
0.65666642
-1.1364906
0.93069241
-2.7183762
0.88282183
-3.8664504
0.73459941
-4.469474
0.5348712
-4.8823636
0.34947041
-5.1254193
0.15440065
-5.2605077
-5.4054348
0.28227175
0.32237977
0.060688742
0.75740318
-1.611622
0.94015459
-2.9011277
0.87210317
-3.7983989
0.72716891
-4.3245397
0.53220727
-4.687402
0.35227851
-4.9454906
0.16154488
-5.0697741
-5.2438899
0.39746213
-0.15312933
0.078046972
0.85140456
-2.0655644
0.94831849
-2.9980416
0.86257151
-3.712652
0.72016696
-4.1821352
0.53628439
-4.5035194
0.35547041
-4.7646766
0.1669616
-4.8812653
-5.0769283
0.65344507
-0.80582693
-0.00074747249
0.90541905
-2.3175384
0.94089026
-3.0335128
0.84811194
-3.6198736
0.71050869
-4.0445319
0.53160203
-4.3246128
0.3538605
-4.5869351
0.17190318
-4.699308
-4.9050251
0.78307106
-1.5437657
-0.04513234
0.92208433
-2.4565517
0.92964674
-3.0410752
0.83729321
-3.5275201
0.70180759
-3.9090463
0.53400942
-4.1568146
0.35626757
-4.4091932
0.17413875
-4.5171791
-4.7308864
0.84238203
-2.2110518
-0.17509585
0.93136359
-2.5455332
0.9149103
-3.0246219
0.82192504
-3.4345349
0.68954074
-3.776662
0.52808223
-3.9953561
0.35396265
-4.2350736
0.17692985
-4.3401463
-4.5539566
0.9062867
-2.4552888
-0.66204977
0.93514011
-2.5743866
0.90107584
-2.9905576
0.8104325
-3.3438915
0.6807931
-3.6470226
0.527869
-3.842432
0.35565814
-4.0628628
0.17703796
-4.1615262
-4.3769186
0.93107045
-2.4891522
-0.89720701
0.92827581
-2.571592
0.88861583
-2.9508977
0.79522481
-3.2505005
0.66966733
-3.5214651
0.51940897
-3.6921736
0.35117597
-3.8946298
0.1783669
-3.9887171
-4.1985517
-0.011909597
4.2511056
-4.239196
-0.012684432
4.0321069
-4.0313321
-0.012252444
3.9434418
-3.9438738
-0.0062203943
3.7360942
-3.7421262
0.00016126014
3.5733191
-3.5797008
0.009498691
3.3181413
-3.3274787
0.022213107
3.0542979
-3.0670123
0.029446807
2.7308234
-2.7380571
2.314405
-2.326864
0.041905865
-0.011382232
4.2624878
-0.012636532
4.0333612
-0.013631949
3.9444373
-0.012400808
3.7348631
-0.0063179809
3.5672363
0.0034697795
3.3083535
0.014393301
3.0433744
0.028179658
2.717037
2.3082186
0.034366047
-0.0055594677
4.2680473
-0.0042917454
4.0320935
-0.001135308
3.9412808
0.0046842496
3.7290435
0.010932274
3.5609882
0.020229027
3.2990568