/*--------------------------------*- C++ -*----------------------------------*\
  =========                 |
  \\      /  F ield         | OpenFOAM: The Open Source CFD Toolbox
   \\    /   O peration     | Website:  https://openfoam.org
    \\  /    A nd           | Version:  11
     \\/     M anipulation  |
\*---------------------------------------------------------------------------*/
FoamFile
{
    format      ascii;
    class       volScalarField;
    location    "0.154";
    object      Ma;
}
// * * * * * * * * * * * * * * * * * * * * * * * * * * * * * * * * * * * * * //

dimensions      [0 0 0 0 0 0 0];

internalField   nonuniform List<scalar> 
880
(
1.443353270571932
1.443353270571932
1.443353270563174
1.443349250471541
1.443353270571932
1.443353270571932
1.443353270504292
1.443326701833444
1.443353270571932
1.443353270571933
1.443353270046365
1.443309277192873
1.443353270571932
1.443353270571932
1.443353264043989
1.443015644337991
1.443353270571932
1.443353270571932
1.443353270571933
1.443353270505244
1.443353270571932
1.443353270571932
1.443353270571935
1.443353270571932
1.443355031464991
1.443348307317496
1.443077645365232
1.444113068751924
1.428527554145814
1.391297155988275
1.370672339518406
1.364659724486001
1.443353204503712
1.443353146152189
1.44335150466621
1.443351445382732
1.443350322925563
1.443343574865542
1.443334609664076
1.443335655598376
1.441865777445044
1.440590403310432
1.439829013104077
1.43935898844697
1.361442313287566
1.351745141032844
1.355514662389366
1.339259169440131
1.371510360906075
1.40410274232064
1.432233214113904
1.448890314425304
1.436715885123934
1.430844839047588
1.43291841882763
1.438866834562019
1.443301442142834
1.443142111656125
1.442984490656577
1.443063218409705
1.443348721967608
1.443340258215885
1.443323120054072
1.443303612251816
1.443299045571911
1.443303095121589
1.443316123971888
1.443333938573184
1.44323284332653
1.443338643611756
1.443421899489882
1.443433021891005
1.442270708112773
1.445168450587338
1.446563169756212
1.446586746443236
1.460982944938682
1.466005569559565
1.466683989514672
1.464230922953275
1.459786734419317
1.445618852574366
1.443395001288118
1.443347201456584
1.454748341011702
1.444313080794358
1.443362564541208
1.443352321713385
1.447870865071055
1.443558760800112
1.443353808221498
1.443353189072738
1.411898368999236
1.443056898589015
1.443354492108672
1.443354110547323
1.443353250691716
1.443353032282943
1.441403278815752
1.20903058012656
1.443351823161287
1.443332291463526
1.434209860909557
1.081499903183044
1.443350783072756
1.44324742899332
1.422547743009566
1.030939323640365
1.443337918301753
1.443150947751467
1.410608550949122
1.023372569919835
1.019271851666848
1.393884513445675
1.442902661352223
1.443329994887041
1.027794570993089
1.378838873093309
1.442669793501286
1.443290372495595
1.03297162239683
1.363554315149814
1.442291877975975
1.443269073845081
1.038060371879631
1.344961644614521
1.441737344102532
1.44320652695663
1.443136846845726
1.441214798647833
1.32530575455714
1.040835758427419
1.443040700380545
1.439565617250427
1.308574357208912
1.072855234629355
1.443111532995328
1.439597026142321
1.330721337159268
1.145300213263973
1.44256247662413
1.440429057242506
1.369819106205556
1.247366267375497
1.442792532035913
1.439566976099727
1.421253449738706
1.44273192244196
1.442202968000087
1.446651878934472
1.476790574642833
1.612144410722392
1.442840821377562
1.448845378161216
1.479572209744608
1.648293294649893
1.443433847132229
1.44566710539206
1.453158517309616
1.458041300004271
1.255138832402583
1.43304040160022
1.443840451195971
1.443404987350338
1.136746849531452
1.41417922976214
1.442722407572582
1.443376868389033
1.060080513643378
1.400479931729446
1.442374994507159
1.443358550094628
0.978879333934266
1.386089473060867
1.441753857323018
1.443347152207664
1.0310755173782
1.395824699018765
1.44221522030018
1.443349196727949
1.146700561734518
1.413682045091477
1.442890633307526
1.443351943472225
1.257905693669028
1.428007046128666
1.443196427456699
1.443352942439632
1.354839666400975
1.438416326991862
1.443351702033442
1.443353221887529
1.305239551747596
1.431664807025678
1.442983128594876
1.443348896942015
1.316917951026057
1.432343065831162
1.443001765148685
1.443348983144367
1.315524246843158
1.431671824023939
1.443000398264489
1.443349145339527
1.311385187218349
1.432309441809581
1.443064449033046
1.443349920841733
1.354839666405947
1.438416326997109
1.443351702044032
1.443353221868199
1.257905693670541
1.428007046133246
1.443196427478571
1.443352942439269
1.14670056173354
1.413682045081774
1.442890633305582
1.4433519434716
1.03107551736987
1.395824699001442
1.44221522029652
1.443349196734111
1.443404987337422
1.44384045118723
1.433040401597161
1.255138832399652
1.44337686836324
1.442722407565961
1.414179229757235
1.136746849524027
1.443358550115334
1.442374994491027
1.400479931731628
1.060080513639858
1.443347152204332
1.441753857315784
1.386089473042908
0.9788793339384189
1.458041300022223
1.453158517323799
1.445667105408941
1.443433847149481
1.648293294667339
1.479572209759664
1.448845378177503
1.442840821408364
1.612144410720019
1.476790574657645
1.446651878942201
1.442202967996731
1.442731922441421
1.42125344974582
1.439566976100147
1.442792531982863
1.443136846850464
1.441214798644049
1.325305754544536
1.040835758419729
1.443040700380873
1.439565617227897
1.308574357201207
1.072855234625526
1.443111532919796
1.439597026142043
1.330721337162416
1.145300213263204
1.442562476686585
1.440429057231496
1.369819106204444
1.247366267376457
1.038060371867522
1.344961644602871
1.441737344056935
1.443206526956415
1.032971622382533
1.363554315136283
1.442291878006489
1.443269073837814
1.027794570990481
1.378838873092597
1.442669793458097
1.443290372504449
1.019271851660321
1.393884513458227
1.442902661375275
1.44332999489578
1.4433532506853
1.443353032273581
1.441403278818268
1.209030580132419
1.44335182316829
1.443332291476861
1.434209860896446
1.081499903194201
1.443350783086344
1.443247429004741
1.422547743004812
1.030939323632276
1.443337918320801
1.443150947718836
1.410608550952609
1.023372569921678
1.443354110536415
1.443353189064156
1.443352321713685
1.443347201461054
1.443354492122918
1.443353808216652
1.443362564523873
1.443395001300902
1.443056898584734
1.443558760794966
1.44431308081014
1.445618852570836
1.411898368999379
1.447870865068057
1.454748341011368
1.459786734420128
1.443333938593925
1.443433021890039
1.44658674642894
1.464230922946609
1.443316123973345
1.443421899494474
1.44656316974434
1.466683989513739
1.443303095107809
1.443338643611615
1.445168450591362
1.46600556956244
1.443299045570356
1.443232843322463
1.442270708107861
1.460982944946982
1.443348721987861
1.443301442155533
1.436715885107975
1.371510360906121
1.443340258236657
1.443142111662007
1.430844839041621
1.404102742329452
1.443323120065209
1.442984490641273
1.432918418823957
1.432233214121596
1.443303612260556
1.443063218396484
1.438866834562164
1.448890314433827
1.339259169437296
1.439358988429247
1.443335655609959
1.44335144539892
1.355514662381447
1.439829013102043
1.443334609668654
1.443351504622803
1.351745141020077
1.440590403337074
1.443343574864809
1.443353146182939
1.361442313281824
1.441865777464727
1.443350322928832
1.443353204497179
1.364659724482365
1.444113068716325
1.443353270571932
1.443353270500179
1.370672339524745
1.443077645410828
1.443353270571932
1.443353270571933
1.39129715598512
1.443348307323295
1.443353270571932
1.443353270571933
1.428527554125899
1.443355031469689
1.443353270571932
1.443353270571934
1.443353270571932
1.443353270571933
1.443353270558874
1.443349250531062
1.443353270571931
1.443353270571932
1.443353270502002
1.443326701888369
1.443353270571932
1.443353270571932
1.443353270045459
1.443309277202825
1.443353270571932
1.443353270571932
1.443353264055672
1.443015644356177
1.443340574617609
1.443311271374865
1.443196011969941
1.44037441392958
1.443311271196722
1.443274305298535
1.442957270653883
1.432000803289575
1.443196011684061
1.442957270445844
1.437980922978775
1.375846216838712
1.440374413638386
1.432000803653168
1.375846217798019
1.185707769411015
1.019280256406559
1.107992094734378
1.262662052062889
1.358843577948628
1.075463208486964
1.093895264166675
1.150344613524351
1.225461239084408
1.098667986805337
1.139182461448003
1.18640196755134
1.235832579023802
1.136413976512702
1.174641711307659
1.208589176149763
1.239015320956998
1.246156755438054
1.256341708164331
1.265217373845753
1.263966614348166
1.227042766985194
1.248531222118581
1.259501950877595
1.292687582009012
1.198860937069189
1.233098197885836
1.249927791765491
1.37555335722251
1.157378764352216
1.168361633153236
1.17425092909262
1.492436612000461
1.395939105587461
1.526935413206064
1.520133285621458
1.504412124552318
1.486133571659665
1.63400493794118
1.591557721429199
1.552064773924373
1.663855072632723
1.734094554945351
1.635143635611115
1.572260974472649
1.279051903505194
1.305013178325204
1.301560303611083
1.291785451224567
1.491968078092582
1.487782268852656
1.481455020055873
1.47484154934896
1.520886563942877
1.504763626971386
1.494456681166201
1.484286911715529
1.532693645766573
1.512510375466137
1.500281090857321
1.49016810955653
1.295669860856847
1.317399089784469
1.349393834170484
1.37955475604132
1.466895423467554
1.462361286750506
1.452488230702383
1.192157547088794
1.474841660495338
1.468484756139647
1.456363467486072
1.017543928290133
1.481129807939536
1.472875489481736
1.453879017587671
0.8421158491625417
1.403959617484568
1.425593142013163
1.388382000648224
0.5526540305331381
0.8033866472364342
0.8037222391914574
0.8246447950567281
0.8703358135404365
0.7181759276307944
0.7710035294916224
0.8189305967616657
0.8720705187649047
0.5837962238693828
0.686915462482523
0.7811675478843347
0.8571059778109691
0.3217645683057183
0.4433843761844142
0.6011454779034793
0.7373244472161489
0.9115884370946613
0.9319090454133847
0.9462780585039723
0.9469334753810446
0.914902044877862
0.9330368568946371
0.9448732568684028
0.9470067432491018
0.9083234656102088
0.9310081515348246
0.9436295018762929
0.9469908328714278
0.8447354870278435
0.8909745422639684
0.9119054788940784
0.9112150273455826
0.9632648488420665
0.9977621646528968
1.079288325222223
1.181108279314683
0.9636253846991851
0.9985566113811256
1.069610799125533
1.222664882237985
0.962838961250529
0.9929259810407776
1.084209029198628
1.550703262668608
0.9362037524892178
0.9667258474395732
1.102067982764838
2.174448780666966
1.438466091101057
1.771777767738435
0.7380274790817373
0.474988018715614
1.501819510465265
1.585376001665193
0.4699107849083509
0.3416038183267099
1.547751721821983
1.312356255665885
0.1744547675535948
0.2812292399234829
1.204838549843115
0.8290552336415622
0.1744938829627407
0.1850403634124609
0.2570063433668042
0.1005853734597895
0.06366033427968208
0.09280878645709892
0.2672567326482113
0.1546518582841005
0.1176487503310863
0.1511131308714398
0.2260911923534384
0.2060770348474842
0.2163013800681301
0.2150985841133467
0.1629708765123525
0.2032881081295495
0.2541323443000614
0.2243105407556233
0.4094131172144274
0.8075134763918819
1.082833253493247
1.342620429666439
0.1755758933674211
0.5849109574158093
0.9180732494274787
1.225868329551452
0.12560138019381
0.3021203303662526
0.6658554378663031
1.115127023834062
0.1190668568992347
0.07161303239036887
0.5104716985758411
1.204590265935378
1.538231063424166
1.871411435582643
1.891314374949069
1.528673159684267
1.440389526175168
1.625061545502254
1.35110989655331
0.9939772153450868
1.420417389659631
1.20079632236783
0.7651352917557156
0.3974174377310966
1.111186564696487
0.4672780092086996
0.2248064658686413
0.1625602682352135
0.1782877133355824
0.204407146717491
0.1984743718650129
0.1666108896557787
0.1904712632010067
0.1602990958111988
0.2416550001470097
0.2748926639118108
0.4599184492136519
0.04864686458747659
0.1848849222563928
0.2294862386047886
0.9227202738038935
0.51449342747511
0.3345317902904757
0.2834559874431003
0.1666108896551553
0.2748926639122044
0.2294862386044939
0.2834559874328783
0.1984743718636442
0.2416550001474522
0.1848849222559827
0.3345317902871334
0.2044071467184435
0.1602990958122089
0.04864686458124169
0.5144934274735175
0.1782877133375293
0.190471263200502
0.4599184492078117
0.9227202737994412
1.528673159681957
1.891314374950756
1.871411435589147
1.538231063433065
0.9939772153430465
1.35110989655158
1.625061545499602
1.440389526179249
0.3974174377285682
0.7651352917539286
1.200796322365203
1.420417389659046
0.1625602682363951
0.2248064658679205
0.4672780092082865
1.111186564693619
1.204590265934387
0.5104716985746591
0.07161303238851384
0.1190668568975854
1.115127023833184
0.6658554378620928
0.302120330358654
0.1256013801930122
1.225868329552808
0.9180732494229135
0.584910957406123
0.175575893364636
1.342620429669984
1.082833253487951
0.807513476383808
0.4094131172091004
0.09280878645025996
0.06366033428109102
0.1005853734497483
0.2570063433650424
0.151113130866644
0.1176487503264313
0.1546518582860079
0.2672567326588215
0.2150985841101378
0.2163013800622215
0.2060770348480425
0.2260911923672766
0.2243105407522805
0.2541323442944134
0.2032881081312939
0.1629708765227814
0.4749880187164052
0.7380274790688428
1.771777767740959
1.438466091104063
0.3416038183401452
0.4699107849232382
1.585376001672066
1.50181951047255
0.2812292399379575
0.1744547675531147
1.312356255671464
1.54775172182828
0.1850403634252977
0.1744938829729891
0.8290552336495739
1.20483854984721
1.181108279314992
1.079288325219943
0.997762164649536
0.9632648488382191
1.22266488223908
1.069610799124101
0.9985566113777922
0.9636253846947451
1.550703262674128
1.084209029199379
0.9929259810368476
0.9628389612464652
2.174448780677355
1.102067982769678
0.9667258474450627
0.9362037524954392
0.9469334753759735
0.9462780585014908
0.9319090454117329
0.9115884370832925
0.9470067432448726
0.9448732568675463
0.9330368568942777
0.9149020448686838
0.9469908328679374
0.9436295018769315
0.9310081515351651
0.9083234656025301
0.911215027347627
0.9119054788980233
0.8909745422657226
0.8447354870151085
0.8703358135374064
0.8246447950547228
0.8037222391971637
0.8033866472407932
0.8720705187592817
0.8189305967593792
0.7710035294939351
0.7181759276334344
0.8571059778040957
0.781167547880273
0.6869154624803709
0.5837962238714861
0.7373244471994961
0.6011454779027888
0.4433843761749985
0.3217645683013338
1.192157547102392
1.452488230702574
1.462361286743701
1.466895423467788
1.017543928310176
1.456363467489683
1.468484756132536
1.47484166049265
0.8421158491825275
1.453879017597815
1.472875489472848
1.481129807934372
0.5526540305608317
1.38838200068025
1.425593142006851
1.403959617474626
1.47484154934333
1.4814550200534
1.487782268856063
1.491968078098233
1.484286911710936
1.494456681163014
1.504763626974179
1.520886563948331
1.490168109554767
1.500281090853272
1.512510375468715
1.532693645771409
1.379554756039
1.349393834172166
1.317399089782976
1.295669860859332
1.504412124561839
1.520133285629833
1.526935413215747
1.395939105591448
1.552064773934252
1.591557721437963
1.634004937952686
1.486133571664733
1.572260974482387
1.635143635620617
1.73409455496075
1.663855072636559
1.29178545123003
1.301560303612303
1.305013178334049
1.279051903503436
1.263966614352283
1.265217373845905
1.256341708146881
1.246156755417036
1.292687582015313
1.259501950877709
1.248531222104315
1.227042766977527
1.375553357236395
1.249927791771325
1.233098197882122
1.198860937069577
1.492436612024851
1.174250929101389
1.168361633134435
1.157378764320433
1.239015320947012
1.235832579028292
1.225461239094717
1.358843577812431
1.208589176158439
1.186401967558907
1.150344613440873
1.262662051807282
1.174641711317393
1.139182461442614
1.093895264041955
1.107992094338026
1.136413976454554
1.098667986713937
1.07546320842377
1.019280256213758
1.392766131976005
1.436403460382977
1.443240680676533
1.443352776983983
1.394177270227699
1.437266830566855
1.443228532220366
1.443352410163206
1.368446060019944
1.436467997606697
1.4432050485118
1.443352033782029
1.318967473641792
1.434016528352126
1.44314335477919
1.443351195091214
1.443348896934191
1.44298312859532
1.431664807023639
1.305239551714557
1.443348983134478
1.443001765137358
1.432343065850376
1.316917951046549
1.443349145350653
1.443000398250064
1.431671824040418
1.315524246858806
1.443349920870383
1.443064449018094
1.432309441835896
1.311385187229598
1.443351195100567
1.443352033795345
1.44335241020131
1.443352777018195
1.443143354773707
1.44320504851371
1.443228532227584
1.443240680696243
1.434016528356125
1.436467997616597
1.437266830557493
1.436403460396804
1.318967473651048
1.368446060036796
1.394177270229516
1.392766131976013
)
;

boundaryField
{
    back
    {
        type            empty;
    }
    inlet
    {
        type            calculated;
        value           nonuniform List<scalar> 
16
(
1.443353270571932
1.443353270571932
1.443353270571932
1.443353270571932
1.443353270571932
1.443353270571932
1.443353270571932
1.443353270575788
1.443353270573848
1.443353270571932
1.443353270571932
1.443353270571933
1.443353270571932
1.443353270571932
1.443353270571932
1.443353270571932
)
;
    }
    front
    {
        type            empty;
    }
    top
    {
        type            calculated;
        value           uniform 0;
    }
    outlet
    {
        type            calculated;
        value           nonuniform List<scalar> 
16
(
1.44334679220792
1.44334671240225
1.443346683387726
1.443346658321344
1.443352533195414
1.443352054610475
1.443351475663176
1.443349430120593
1.443346792202333
1.443346712395366
1.443346683393352
1.443346658338873
1.443349430125074
1.44335147566816
1.443352054631988
1.443352533216613
)
;
    }
    bottom
    {
        type            calculated;
        value           uniform 0;
    }
    wall
    {
        type            calculated;
        value           uniform 0;
    }
}


// ************************************************************************* //
