/*--------------------------------*- C++ -*----------------------------------*\
  =========                 |
  \\      /  F ield         | OpenFOAM: The Open Source CFD Toolbox
   \\    /   O peration     | Website:  https://openfoam.org
    \\  /    A nd           | Version:  11
     \\/     M anipulation  |
\*---------------------------------------------------------------------------*/
FoamFile
{
    format      ascii;
    class       surfaceScalarField;
    location    "0.046";
    object      phi;
}
// * * * * * * * * * * * * * * * * * * * * * * * * * * * * * * * * * * * * * //

dimensions      [0 3 -1 0 0 0 0];

internalField   nonuniform List<scalar> 
1652
(
2.843686947071611
0.8895636090847481
0
1.954123337988149
0.8895636090834618
2.220446049250313e-16
1.064559728903287
0.8895636090848602
-4.440892098500626e-16
0.8895635434465978
-3.377587098896129e-11
0.1749961557548804
2.843686947076741
1.779127218162428
1.954123337998014
1.779127218162188
1.064559728910183
1.779127218172632
1.779126540953409
0.1749965341048922
2.843686947090741
2.668690827246526
1.954123338008367
2.668690827244562
1.064559728914314
2.668690827270308
2.668671014484477
0.1749987787839215
2.843686947092868
3.558254436328659
1.954123338013008
3.558254436324421
1.064559728916166
3.558254436363451
3.558270462478657
0.1748917187582712
4.418652025448567
2.872852967045247
5.279049614570545
2.872852967043177
6.139447203693202
2.872852967042502
2.872852967040008
6.999844792811158
4.41865202543751
2.012455377932159
5.279049614550977
2.012455377929712
6.139447203664234
2.012455377929244
2.012455377926213
6.999844792778029
4.418652025527113
1.152057788850459
5.279049618160161
1.152057788248812
6.139361807913843
1.152059238400136
1.152052037246445
7.000154723079552
4.4261516908523
0.2708652723714749
5.332843923440627
0.1709471030830064
6.258742003035214
0.06720367677494765
7.15959002838406
0.02247643560617085
6.941512752166435
0.05833202969386764
6.883180712125214
0.05833202545213445
6.824848672243655
0.05833202340127908
0.05833203286971678
6.766516632945824
6.94151295420505
0.1166632529061518
6.883180941485552
0.116663156450262
6.824848895450883
0.1166630539935898
0.1166633191450037
6.766517167421544
6.941805742032577
0.17422264141175
6.883495649737441
0.1741179775689223
6.825154936937842
0.1740600003393452
0.1740109107543165
6.767132150542817
7.124045427027892
0.005749386353489316
7.071673750675361
0.003553867906547659
7.008493051776962
0.003381678139132149
6.970253203472784
-0.02186685852792003
6.98473597183922
0.001902235496655025
-0.2070894036430186
6.904510837915565
0.001614777780119758
-0.08928921202136048
6.811503740265651
0.0008115629962252013
-0.0239487629894703
0.0001805742834967705
6.771720050301859
-0.003858484510134041
6.767210970443745
3.265215896330886e-06
6.767067030494885
2.772432442621486e-06
6.766721552803184
1.417352595289856e-06
3.227504936642589e-07
6.76654056130683
6.766517357750417
5.599619323781724e-08
6.766517226347867
4.839713452220451e-08
6.766516846224771
2.43727819038142e-08
5.185854967670878e-09
6.766516655583219
6.76651663140097
6.766516631209037
6.766516632225493
6.766516632944309
6.766516633044781
-3.221087840898917e-10
6.766516633047139
-4.330757974457811e-12
6.766516633048259
-1.111888359162094e-12
-1.081357225984902e-12
6.766516633049343
6.766516633463376
-2.197990323082877e-08
6.766516633047279
-2.466815640644882e-10
6.766516633047774
9.050982185954126e-12
5.157874127803552e-12
6.76651663304923
6.766517137513388
-1.192862126447869e-05
6.766516631742772
-1.146008578589708e-07
6.766516630852369
7.544215696597689e-09
4.83186907151989e-09
6.766516631963509
6.766640562459219
-0.0001766755020932709
6.766516375095048
4.602222360594599e-06
6.766516087030559
4.921808782198944e-07
6.766516462220779
8.050468269793498e-08
-5.657598278752118e-10
6.766516594307231
2.197425963412769e-09
-5.804245972740318e-13
6.76651663282785
-7.771561172376096e-16
6.766516633049128
6.766516633049344
-1.64879016550934e-08
6.766516715614715
-3.823486027787482e-09
-8.519032146381278e-10
6.766516630774503
-1.820987804990182e-12
6.766516632882146
6.766516633049339
6.044582580744251e-06
6.76651711263123
3.655290095716524e-06
2.125294843446923e-07
6.766518819432882
1.061598142726439e-09
6.766516640546978
6.766516633054781
-0.00185923310898678
6.755988644081318
-0.01081571935205244
-3.021925126578395e-06
6.766237283128424
-1.757253786927038e-09
6.766516578437875
6.766516632889847
0.1555520674302695
6.610964565418119
0.3111036759097404
6.61096452841621
0.4661301189470214
6.611182082773541
6.684793655482689
0.2730253839620491
0.1555520229833582
6.455412499233559
0.3111012162788332
6.455413011171759
0.4640903600252276
6.455959724495612
6.62868090560773
0.05637468523647948
0.1555519829626669
6.299860432245832
0.3110990898973353
6.299861043597748
0.4626784660481707
6.300478836416932
6.502305200799822
-0.03127103301494039
0.155551961056641
6.144308365477766
0.3110979282164543
6.144309062474209
0.4620608990836572
6.144954387163826
6.330535992289784
-0.04819924906141038
-0.461507849664851
6.157866268111002
-0.0493780747052851
-0.3110968560373941
5.989446822987119
-0.1555520513010079
5.98875699887441
5.98875618244014
-0.4608079303875597
5.974686241055917
-0.04911752472556596
-0.3110950925647489
5.833890536593823
-0.1555520146847204
5.833204896409343
5.833203999882016
-0.4600456936357704
5.797352885117912
-0.04949686573711143
-0.311093034092448
5.678434739945978
-0.1555519715518341
5.677652992315847
5.677651818273434
-0.458870094380883
5.612622814472364
-0.04901962192519516
-0.3110893284139229
5.522764171967913
-0.1555518836938637
5.52210067540702
5.522099635150871
0.1993008526658813
5.322798538242399
0.3985897371647982
5.322799315799979
0.5899038343592788
5.323331198180328
5.382885052677944
-0.02502419295341141
0.1993008227971577
5.123497443281762
0.3985880308894083
5.123498230477374
0.5894043059017913
5.123966688964131
5.147867391020012
-0.007219703865047444
0.1993007760534437
4.924196336667547
0.3985861924105021
4.924196991725898
0.5892912264112524
4.924541792820397
4.922900330668313
0.08533216641160557
0.1993008864197662
4.724895240152599
0.3985918605576429
4.724895634098069
0.5930567837460028
4.725037390523481
4.717133549624864
0.3715831774088365
-0.335388190808354
5.060304337862096
-0.6708094702473562
5.060254138706993
-1.012181845084346
5.058520432702386
4.995039526382917
-1.41508720331003
-0.3354083801653058
5.395713640975598
-0.6706394108123125
5.395646842284748
-0.9874559634882346
5.385171731556713
4.745653397182931
-0.5257762781081559
-0.3354087835649324
5.731122870325677
-0.6705464897997979
5.73105099577121
-0.954249244078114
5.705380571922804
4.291033992614383
-0.06946174704310677
-0.3354087602952
6.066532119918612
-0.6704274420921981
6.066494577191845
-0.9226645614064379
6.041705788731831
4.309006906561669
-0.007797078699660301
0.4849005138140817
4.630996272705057
0.002333445413563215
0.3498139509114955
6.220342579055319
0.1749957894596209
6.241492954074848
6.24152824629664
0.4918950106265141
4.945381089084044
0.0003756884336233446
0.3498493759980325
6.401653455440345
0.1749958649772534
6.416504575297408
6.416524380044926
0.4998074447119383
5.170995143628692
-0.003482277997497875
0.3499005337866498
6.577749131534913
0.1749959666276765
6.591501660237236
6.591520500468851
0.4951541078046085
5.408073001802787
0.01176744363203584
0.3498806438381812
6.75590384249688
0.1749959419507986
6.766502975732711
6.766516623592076
-0.01136933879806923
6.323836277605936
0.2132856090153999
-4.670109559579139e-05
6.765507085614989
-8.559828135190628e-08
6.766515741837223
6.766516632511657
-0.001865058581951629
6.708686320116645
0.1167005123555437
-4.745482693024883e-06
6.766480993153333
-6.260765905707899e-09
6.7665166139181
6.766516633062227
-0.0004101019829708674
6.770446496231136
0.06550699783158104
-8.370598765239379e-07
6.766520310383729
-9.97103510869124e-10
6.766516644717535
6.766516633110329
-0.0006693839308885563
0.06929409957492139
6.770925458364099
-1.9740610834873e-06
6.766450178762381
-3.172770268733416e-09
6.766516253196663
6.766516632968564
1.1009540966503
-0.848760057470523
-0.03693867839966616
-1.584776754270933e-11
1.983236454309065
-0.8747293845480608
-1.720401598959143e-11
2.858269805845005
-0.874979778683191
2.216893335571513e-12
-0.8749805987807036
-4.60964599824365e-13
1.100961021651897
-1.697044934756765
-0.0374872229188959
1.983236510206848
-1.749453382954792
2.85826980580757
-1.74995953510276
-1.749961197078197
1.100933477142475
-2.542958577623691
-0.04108950195065864
1.983236394342252
-2.624154205170109
2.85826980427496
-2.62493925620696
-2.624941794507611
1.100924291436897
-0.05237581452623246
-3.388657441026424
1.98323656415051
-3.498896934493788
2.858269802581622
-3.499919054159762
-3.499922392627604
-0.0006693839312985617
-6.770446496239429
0.06929409957453453
6.770925458352782
-1.974061267340232e-06
-6.766520310383501
6.766450178760623
-3.172497153869358e-09
-6.766516644721018
6.766516253197262
-6.766516633104288
6.766516632970196
-0.0004101019830524688
-6.708686320123209
0.0655069978310146
-8.370614266173249e-07
-6.766480993153917
-9.973251113848391e-10
-6.766516613923179
-6.766516633062091
-0.001865058584260559
-6.323836277614044
0.1167005123571174
-4.745484742274542e-06
-6.765507085618297
-6.260723051099149e-09
-6.766515741837263
-6.766516632514023
-0.01136933879850888
-5.408073001792522
0.2132856090160666
-4.67010950766511e-05
-6.755903842494379
-8.559804220986678e-08
-6.766502975732003
-6.766516623591945
-0.1749957894503625
6.241528246335029
-6.066532119963534
-0.3498139508895418
6.241492954110901
-6.066494577240848
-0.4849005138051385
6.220342579024487
-6.041705788680823
4.630996272671049
-4.309006906512161
0.002333445413509508
-0.1749958649647055
6.416524380069375
-0.3498493759767742
6.416504575318899
-0.491895010616801
6.401653455419074
4.94538108905189
0.0003756884335906763
-0.1749959666155471
6.59152050048135
-0.349900533764106
6.5915016602471
-0.4998074447015375
6.577749131524824
5.170995143612561
-0.003482277996849435
-0.1749959419389643
-0.3498806438122026
-0.4951541077920359
0.01176744363111372
0.9226645614145572
-4.291033992578158
-0.007797078700312876
0.6704274421199667
-5.705380571891423
0.3354087603092086
-5.731050995805301
-5.73112287035741
0.9542492440866718
-4.745653397160244
-0.06946174704218611
0.670546489822579
-5.385171731538671
0.3354087835773576
-5.395646842307563
-5.395713640996139
0.9874559635003662
-4.995039526375773
-0.5257762781065127
0.670639410834632
-5.058520432694781
0.3354083801744627
-5.060254138718745
-5.060304337872354
1.012181845096424
-4.717133549625008
-1.415087203314411
0.670809470266607
-4.725037390523187
0.3353881908135847
-4.724895634099914
-4.724895240152933
0.1993008526720472
5.322798538260039
-5.522099635175119
0.3985897371792672
5.322799315818896
-5.522100675435575
0.5899038343670587
5.32333119815939
-5.522764171940222
5.382885052655912
-5.612622814444661
-0.02502419295096514
0.1993008228032409
5.123497443292807
0.3985880309033067
5.123498230492129
0.5894043059094075
5.123966688950146
5.147867391004466
-0.007219703864242533
0.1993007760594092
4.924196336673187
0.3985861924235369
4.924196991733913
0.5892912264170439
4.924541792813538
4.922900330661257
0.08533216641180252
0.1993008864254479
0.3985918605700509
0.5930567837511126
0.371583177410277
-0.4588700943742985
-5.797352885096361
-0.04901962192061837
-0.3110893284011466
-5.678434739923493
-0.1555518836879327
-5.677652992337733
-5.677651818291947
-0.4600456936282297
-5.974686241044346
-0.04949686573587331
-0.3110930340793229
-5.833890536568473
-0.15555197154596
-5.833204896428503
-5.833203999894186
-0.4608079303817341
-6.157866268120583
-0.04911752472395969
-0.3110950925510451
-5.989446822985167
-0.1555520146784355
-5.988756998879193
-5.988756182445922
-0.4615078496597548
-6.330535992269614
-0.04937807470649525
-0.3110968560233384
-6.144954387180433
-0.1555520512945796
-6.144309062477376
-6.144308365477201
0.1555520674303434
6.610964565417704
-6.766516632890042
0.311103675910116
6.610964528415616
-6.766516578436987
0.466130118948281
6.611182082771787
-6.766237283127186
6.68479365548365
-6.755988644080223
0.2730253839594488
0.1555520229834038
6.455412499231932
0.3111012162790983
6.455413011170441
0.4640903600252213
6.455959724501468
6.628680905606257
0.05637468523759448
0.1555519829624892
6.299860432245468
0.3110990898968225
6.299861043598392
0.4626784660475619
6.300478836398176
6.502305200810386
-0.03127103301506529
0.1555519610564712
0.3110979282163228
0.4620608990821099
-0.04819924905909523
-6.766516633055851
1.757373135902185e-09
-6.766516633049346
-1.06164010915677e-09
-6.766516633049343
1.663558180098335e-12
0
-6.766516633049345
-6.766516640545174
3.021925385815472e-06
-6.766516632885181
-2.125312354994691e-07
-6.766516633049141
8.54024739815884e-10
7.077671781985373e-13
-6.76651663304923
-6.766518819435672
0.001859233108980618
-6.766516630771886
-6.044581565722851e-06
-6.76651663282799
1.648703989998168e-08
5.656903834250215e-10
-6.766516631962028
-6.766517112632134
-0.0108157193523557
-6.766516715615043
3.655287596049384e-06
-6.766516594306753
-3.824323024925746e-09
-6.766516462220427
2.19772400278373e-09
-1.098787727471517e-12
-6.766516633048242
5.133893310471649e-12
-6.766516633047801
4.831403666027967e-09
-6.766516630854754
-6.766516087030125
8.050504779477663e-08
-1.095235013792717e-12
-6.766516633047139
8.95317153748465e-12
-6.766516633047295
7.544656177582709e-09
-6.766516631745102
-6.766516375094573
4.921806972535414e-07
-4.329647751433185e-12
-6.766516633044803
-2.466400417233672e-10
-6.766516633462748
-1.146005902952218e-07
-6.766517137514
-6.766640562459528
4.602222396177247e-06
-3.221668487540796e-10
-6.766516632944565
-2.198012849508046e-08
-6.766516655582167
-1.192862178406306e-05
-6.766540561306047
-6.771720050301283
-0.0001766755027787226
-5.600149866058501e-08
6.766516631385707
-6.766516632926319
-3.265226067861171e-06
6.766517357732321
-6.766517167398693
-0.001902235502515504
6.767210970459968
-6.767132150564626
6.984735971854737
-6.970253203491512
-0.2070894036427419
-4.840146039519766e-08
6.766516631198263
-2.772441120235669e-06
6.766517226342859
-0.001614777784347265
6.76706703050668
6.904510837924619
-0.08928921202286266
-2.43777413810875e-08
6.766516632220084
-1.417362543665313e-06
6.766516846226086
-0.0008115630012895947
6.766721552805818
6.811503740272076
-0.02394876298952381
-5.191511665003645e-09
-3.227613680767405e-07
-0.0001805742873966509
-0.003858484511841176
-0.1740109107582248
-7.008493051787503
-0.02186685852569248
-0.1166633191639466
-6.825154936948504
-0.05833203287351507
-6.824848895443886
-6.824848672228311
-0.1740600003462563
-7.071673750681692
0.003381678140548683
-0.1166630540134447
-6.883495649734784
-0.05833202340569876
-6.883180941494505
-6.883180712114149
-0.1741179775785595
-7.124045427036494
0.003553867908638653
-0.1166631564698818
-6.941805741995378
-0.05833202545611227
-6.941512954238354
-6.94151275215865
-0.1742226414281372
-7.159590028374698
0.005749386351654673
-0.1166632529275485
-7.000154722990859
-0.05833202969862761
-6.999844792821208
-6.999844792808368
-1.152052037240479
-6.258742003029113
0.02247643560733081
-2.012455377910965
-6.139361807951829
-2.872852967039931
-6.139447203692224
-6.139447203690344
-1.152059238395663
-5.332843923435636
0.06720367677570172
-2.01245537791648
-5.279049618153681
-2.872852967042259
-5.279049614566445
-5.279049614567443
-1.152057788248643
-4.426151690838357
0.1709471030834424
-2.012455377921992
-4.418652025525792
-2.872852967044603
-4.418652025443834
-4.418652025446892
-1.152057788849384
-3.558270462445357
0.2708652723724204
-2.012455377927508
-3.558254436365774
-2.872852967046921
-3.558254436324422
-3.55825443632866
2.843686947076677
0.8895636090796828
1.954123337995112
0.8895636090815646
1.064559728908975
0.8895636090861341
0.8895635435294358
0.1749961558119418
2.843686947077599
1.7791272181565
1.954123337999196
1.779127218159969
1.064559728911147
1.779127218174136
1.779126540977045
0.174996534107262
2.843686947089469
2.668690827241873
1.95412333800662
2.668690827242819
1.064559728912883
2.668690827270585
2.66867101446103
0.1749987787999044
2.843686947088214
1.954123338006611
1.064559728911059
0.1748917187607597
0.1749962692399764
0.1749962693595141
0.1749958849822054
0.1749968342382074
0.1749946309165493
0.1749980509048449
0.1747724180052511
0.1750765229993528
0.1749968342450103
0.1749958849982112
0.1749957845957177
0.1749957845919002
0.1749981931212874
0.1749924409624627
0.174571987925717
0.1748329174739469
0.1749980509008803
0.1749946309238281
0.1749924409604821
0.1749981931187844
0.1749429890403192
0.1749429890427975
0.1721793147624555
0.1760334459057772
0.1747724179976878
0.1750765230025187
0.1745719879286084
0.17483291747215
0.1721793147664366
0.176033445903709
0.1709220588693416
0.1709220588714027
-0.0870034299697991
0.2534986292294181
-0.1620641895362649
0.2414725475148657
-0.2315216469078105
0.2351848543309868
0.2081429118406679
-0.01913900824957582
0.2743506363170635
-0.05323434835760055
0.2736898297278963
-0.1024997602004208
0.2783012785898447
0.2615264614032943
-0.003130370407588567
0.2848898983611372
-0.01247871958657265
0.2958050676615884
-0.02478390223675164
0.2986130682116528
0.2920643222332269
0.002464733436598698
0.2900505405348629
0.007670320553469723
0.3073797798978606
0.005388251911574216
0.3086400195278534
0.3019501657482892
0.3033543710339411
-0.01381695065169453
0.3037832528651926
-0.01475879889387699
0.3039831780736051
-0.01457221701971834
-0.03692570938647965
0.3056373487652956
0.310259934494342
-0.01404134630760556
0.3105527368201845
-0.01498807303602795
0.3108144834796384
-0.01486421874421617
-0.03969717303819087
0.3217745271993538
0.3092199125462202
-0.003512269580898175
0.309490921662192
-0.003833751624338966
0.3097450883996014
-0.003742509953715556
-0.05053443397812579
0.3320515433481686
0.2903515683089914
0.2903836956281226
0.2905978927236864
0.2459266762155334
0.2880015126472603
-0.1949532118327616
0.2614855201294377
-0.05779941167178371
0.2411720736956599
-0.007770455453847469
-0.001487665388018589
0.2342311379322255
0.2867668792076285
-0.138036596799298
0.253598761681756
0.008365585621330662
0.2400316320727618
0.01244109512836261
0.001988164834397343
0.2344843142892963
0.2601990054764175
-0.05694509174625756
0.2522657976761088
0.02706730672059915
0.2468548420239839
0.02296264280142096
0.008550757389909569
0.2361193715869636
0.1885287876081937
0.209277703311574
0.2256904684637743
0.2318253362737261
0.2333504289349005
-8.472485045801781e-05
0.23332810899662
5.647143778708674e-06
0.2333280606054838
5.267488730753556e-07
2.984912500503256e-08
0.2333281490013623
0.2333631670629013
0.0001777485074068719
0.233328431556369
1.638257572939006e-05
0.2333281705135756
1.127794111932534e-06
3.862606129390045e-08
0.2333281589205656
0.233408407765216
0.001180614051686513
0.2333288527367124
4.966884644852509e-05
0.2333281824874603
2.012523226013752e-06
6.805951929811371e-08
0.2333281598259588
0.2332117301667996
0.233323979542209
0.2333280377514453
0.2333281579180984
0.2333281598083609
-8.952976138232316e-10
0.2333281613849599
-1.511285319111266e-09
0.2333286253070789
1.701776129736654e-06
-0.0515748615662226
0.2378371999025356
0.2333281588236643
-2.048350378203168e-10
0.2333281598824193
-7.87201415164418e-10
0.2333284372595836
5.893616657481893e-07
-0.07693227339049258
0.22971771526184
0.2333281594203327
2.344861527170394e-10
0.2333281596087697
-1.211679645507502e-10
0.2333282600178717
1.872901489452516e-07
-0.06310728499011431
0.2030882429624887
0.2333281596719006
0.2333281599821385
0.2333281802084689
0.1779698422544116
0.2785976712365796
0.1915581879600444
0.3027087054821617
0.0530887975485258
0.3138283319838181
-0.02110263909883991
-0.03504509299079195
0.3152387851204775
0.2685046938468246
0.1288318437457965
0.3023899831124646
0.05974100920840386
0.3241196858878198
0.01035663808768772
0.001559947988395427
0.3273064221624963
0.24119695194206
0.07418538469147151
0.2951097317121963
0.02974068625624693
0.3241209916207091
0.02407411394286529
0.02458256190647534
0.3285440307997174
0.2399005777905445
0.2606406317238141
0.2805377806053257
0.2870924969300501
0.3153603207886378
-0.0359219014982346
0.3153476036602486
-0.03563896866865079
0.315408427076681
-0.03567073009819577
-0.03486691506521522
0.315667073600191
0.3274632539831993
0.0005884390252668403
0.327473790808134
0.0006889889220592638
0.3275117372273714
0.0006558703179304626
0.001438174769924694
0.3276527041904254
0.3286266068097817
0.023416383094509
0.3286314434029783
0.02337319366803137
0.3286296627157957
0.02324175909490833
0.0243686638821119
0.3285960572123008
0.2873584257802998
0.2873562941426632
0.287263443753045
0.2880583449482622
0.3240959085278436
-0.02468703777692971
0.3350613111910496
-0.01629656705682692
0.3594157960531729
0.06949588104471238
0.2886245118991192
0.4356920147680692
0.3331717024143481
0.009901426622904941
0.3416379980190485
0.01505088888285711
0.3657585854423792
0.09113597631959125
0.2188831138795078
0.485880352686886
0.3376589652533625
0.03162327411398114
0.3503805077304539
0.04155310967476444
0.3839063567519388
0.09716471603382371
0.1073227920974305
0.5358668974498979
0.296959964030962
0.3183486516182388
0.4090841429339287
0.4741592300531223
0.2317204485386966
-1.232064768033413
0.03816348803348897
-0.2829949260657221
0.00411373774202806
-0.01586022545904894
0.01217700365950601
0.0001408316558350678
0.1577273487496673
-0.9014360198281559
0.01516492023449817
-0.125520697466799
-0.0003230129923256983
0.01109030715124178
0.02408225825398485
0.0001639672628333012
0.09646916920005524
-0.441186236346439
0.008946642038089009
-0.03839444680718723
-0.0003303955939195618
0.01939756183543966
0.02125827629815126
0.0005348644762228679
0.03315009793716113
-0.006069303618930232
0.0001079886864946578
0.0008784175411771043
0.001492600788306863
0.006838800484962111
0.00232499077127362
0.005415553570973831
0.003854856555785007
0.001045617111762764
-0.002030674127998944
0.02181627927118818
-0.00116868062628594
0.01790086129852148
-0.004351583600369648
0.01806301152835631
-0.007759383415889594
0.009682234216600638
-0.0002082607205976042
-0.002566226783492193
-0.001740023766257508
0.01891862291246418
-0.006990579953217273
0.01983831956684498
-0.01119645078434466
0.01087037425195987
0.004130456335226226
-0.01235078334839775
-0.001281428908234121
-0.006559231265174069
-0.01061828590395208
-0.010338098334427
0.1580809624273342
0.1100582416737339
0.2114574514589826
0.1121591510785217
0.2350009970427477
0.08943512291689631
0.0759940571868738
0.2458073500419981
0.1042760049817091
0.03140714695893841
0.1840623491076328
0.06932620749527857
0.2253330017605705
0.09749150538093029
0.06560183199198999
0.2587983181492657
0.04377094006916593
-0.005257806399841317
0.1408894375392691
-0.001990475373892298
0.211975540342318
0.06815197844507329
0.03557238360511161
0.2729174357270365
-0.009152145830432643
0.02792683443846859
0.1445452240114575
0.2211030477188144
0.2087982479454712
-0.3120276262392663
0.3957141594487466
0.1718880102222638
-0.2355231216190355
0.3370050501419041
0.1160942765519484
-0.1750971900786693
0.2523535625691459
-0.1048103813308678
0.04737600344811764
0.1609509951531564
0.2019226950836093
-0.24469626447872
0.1779649470124164
-0.1401953990706245
0.1564192786158356
-0.06378255441994674
-0.05610527820530423
0.1022570427461987
0.1852774652737635
-0.1451573786188764
0.08342515426826697
-0.05549986095342448
0.08163247627767048
-0.01687064823568894
-0.0101502617157131
0.09776247851183249
0.09141225114332517
0.0559757038879057
0.03601631809180421
0.0290679104979415
0.02619720303087244
0.003316848381818019
0.01471918568718994
-0.002414299283644282
0.00162087614908917
-0.001154626120638234
-0.0001871250376657332
-2.611799665430681e-14
0.09127039064133166
0.01777096924344476
0.04298481957800541
0.009966542584467317
0.004666225997668173
0.003403675585173054
0.001694059230796624
-9.391792898938434e-15
0.05218416649014329
0.03306091099444985
0.01132043024848618
0.01995040719760983
0.001293792613138441
0.01267072946294234
0.01228808127287865
4.891920202254596e-16
0.01912805454631721
0.003971488521401938
0.0007410946129363313
2.666616927271548e-14
-0.0001871250376625291
-0.001620876149140006
0.001694059230833858
-0.00466622599770513
0.01228808127289136
-0.001293792613120952
-0.0007410946128009605
0.03693867839925108
-0.001154626120660727
-0.01471918568721854
0.003403675585217848
-0.0429848195780017
0.01267072946303687
-0.01132043024835888
-0.003971488521545309
0.03748722291883783
-0.002414299283638892
-0.02619720303091788
0.009966542584496269
-0.09127039064124574
0.0199504071975825
-0.05218416649011336
-0.0191280545460136
0.0410895019507707
0.00331684838183746
-0.02906791049796698
0.0177709692433999
-0.09776247851177931
0.03306091099446468
-0.1022570427462807
-0.04737600344790667
0.05237581452627896
-0.116094276551526
-0.1048103813306933
0.1609509951530501
-0.1718880102216549
-0.1750971900782333
0.2523535625686633
-0.2087982479452397
-0.23552312161902
0.337005050141938
-0.3120276262391546
-0.2458073500421318
0.3957141594487523
-0.1564192786157123
-0.05610527820528583
-0.1779649470121833
-0.06378255441997699
-0.2019226950832066
-0.1401953990703301
-0.2446962644785522
-0.2587983181491987
-0.08163247627783468
-0.01015026171568831
-0.08342515426815966
-0.01687064823571597
-0.1852774652734299
-0.05549986095336724
-0.1451573786186066
-0.2729174357267527
-0.03601631809178284
-0.05597570388794092
-0.09141225114327256
-0.2211030477185059
-0.1445452240113982
-0.03557238360511084
-0.02792683443887985
-0.0681519784451983
0.009152145830363535
0.001990475373223749
0.00525780639959221
0.01033809833445423
-0.2119755403424737
-0.06560183199142083
-0.1408894375395898
-0.09749150538096985
-0.04377094006936768
-0.06932620749621526
-0.03140714695936768
0.01235078334833533
-0.2253330017606783
-0.07599405718623131
-0.1840623491079722
-0.08943512291691763
-0.1042760049819076
-0.1121591510797798
-0.1100582416741814
0.002566226783420899
-0.2350009970427463
-0.2114574514592947
-0.1580809624275752
-0.02181627927106287
-0.003854856555881716
-0.002030674128076733
-0.002324990771233784
0.00104561711194788
-0.001492600788317415
0.005415553571027142
0.006838800484977019
-0.0001408316556857948
0.007759383415796404
-0.0002082607207095563
0.004351583600422875
0.009682234216482583
0.001168680626289752
0.01806301152831714
0.01790086129842066
-0.0001639672628216508
0.01119645078431238
0.004130456335203307
0.006990579953264743
0.01087037425180055
0.001740023766264473
0.01983831956681475
0.01891862291236931
-0.00053486447622513
0.01061828590398641
0.00655923126521814
0.001281428908248413
-0.0008784175411766914
-0.004113737741864468
0.0121770036588233
-0.0381634880326268
-0.01586022545871062
-0.2317204485370618
-0.2829949260643335
-1.232064768035613
-0.4356920147684396
0.0003230129922617789
0.02408225825313973
-0.01516492023417446
0.01109030715134127
-0.15772734874848
-0.1255206974661217
-0.9014360198287257
-0.4858803526869654
0.0003303955938765649
0.02125827629748902
-0.008946642037857503
0.01939756183555429
-0.09646916919939903
-0.038394446806843
-0.441186236346516
-0.5358668974499015
-0.0001079886864366487
0.006069303619005858
-0.0331500979369536
-0.4741592300530212
-0.3594157960533112
0.2886245119003836
-0.3350613111906598
0.06949588104508719
-0.3240959085274594
-0.01629656705625826
-0.02468703777472991
-0.3156670735996514
-0.3657585854425388
0.2188831138803357
-0.3416379980188713
0.09113597632003234
-0.3331717024141584
0.01505088888336448
0.009901426625002374
-0.3276527041901669
-0.3839063567519892
0.1073227920973872
-0.3503805077308327
0.09716471603409005
-0.3376589652536978
0.04155310967557235
0.03162327411430088
-0.3285960572125574
-0.4090841429344541
-0.3183486516185554
-0.2969599640300783
-0.288058344950108
-0.3154084270762685
-0.034866915061189
-0.3153476036603837
-0.0356707300965089
-0.3153603207885375
-0.03563896866799887
-0.03592190149834373
-0.3152387851197161
-0.3275117372271288
0.001438174772802503
-0.3274737908082355
0.0006558703201944294
-0.327463253983315
0.0006889889232568613
0.0005884390253129146
-0.3273064221621734
-0.3286296627160795
0.02436866388355741
-0.3286314434031795
0.02324175909669979
-0.328626606809818
0.02337319366883228
0.02341638309417915
-0.3285440307997863
-0.2872634437542071
-0.2873562941429859
-0.2873584257806139
-0.2870924969306089
-0.313828331984087
-0.03504509298947434
-0.3027087054821467
-0.02110263909873622
-0.278597671237017
0.05308879755011253
0.1915581879581348
-0.2378371999024951
-0.3241196858879636
0.001559947989322574
-0.3023899831125469
0.01035663808790277
-0.26850469384702
0.05974100920932202
0.1288318437448697
-0.2297177152617304
-0.3241209916208146
0.02458256190697217
-0.295109731712315
0.02407411394300152
-0.241196951942115
0.02974068625729531
0.07418538469090485
-0.2030882429623613
-0.2805377806056936
-0.2606406317239624
-0.2399005777904939
-0.1779698422541474
-0.2333286253066629
-0.05157486156680474
-0.2333281613846557
1.701774739903961e-06
-0.2333281598082617
-1.511588687552745e-09
-8.950215568681585e-10
-0.2333281490013493
-0.2333284372593213
-0.07693227339105735
-0.2333281598822713
5.893610136031846e-07
-0.2333281588236965
-7.872981711010141e-10
-2.046980918102292e-10
-0.2333281589205936
-0.2333282600177339
-0.06310728499042007
-0.2333281596086959
1.872898731658523e-07
-0.2333281594203455
-1.211947764367949e-10
2.346159377886181e-10
-0.2333281598259654
-0.2333281802084224
-0.2333281599821274
-0.2333281596718832
-0.2333281579180807
-0.233328060605425
2.984942165662474e-08
-0.2333281089965656
5.26748776319419e-07
-0.2333504289349763
5.647143500431273e-06
-8.472485117388961e-05
-0.234231137932432
-0.2333281705134418
3.862616065886115e-08
-0.233328431555796
1.127793701816149e-06
-0.2333631670634634
1.638257574509971e-05
0.0001777485071582929
-0.2344843142889409
-0.233328182487303
6.805941688003969e-08
-0.2333288527357952
2.012522698491281e-06
-0.2334084077663339
4.966884707890973e-05
0.001180614051372209
-0.2361193715864947
-0.2333280377515235
-0.2333239795422516