/*--------------------------------*- C++ -*----------------------------------*\
  =========                 |
  \\      /  F ield         | OpenFOAM: The Open Source CFD Toolbox
   \\    /   O peration     | Website:  https://openfoam.org
    \\  /    A nd           | Version:  11
     \\/     M anipulation  |
\*---------------------------------------------------------------------------*/
FoamFile
{
    format      ascii;
    class       volScalarField;
    location    "0.18";
    object      T;
}
// * * * * * * * * * * * * * * * * * * * * * * * * * * * * * * * * * * * * * //

dimensions      [0 0 0 1 0 0 0];

internalField   nonuniform List<scalar> 
880
(
500
500.0000000047679
500.0005225277187
500.269913619051
500.0000000000001
500.0000000156214
500.0012411992038
500.6590080661291
500.0000000000649
500.0000001859842
500.0039406285318
501.5478605287617
499.9999999999322
499.9999998861863
500.0131972125636
503.1593085968186
499.9999999997494
500.0000000018256
500.000000026491
500.0000057504778
500.0000001395812
500.0000021199612
500.0001176359473
500.0004461238497
500.0492857546263
500.0971307824194
500.2422604842831
500.0535013168268
507.6281835560101
512.8735673234249
517.2018400867572
519.29192595956
500.0000643429244
500.0003217385834
500.0021466261615
500.0025459765799
500.0028516111369
500.0084394130854
500.0218376238675
500.0334895413993
500.6689363548419
501.19182538836
501.8224943993449
502.4613331396867
521.6223975823449
524.4241761502809
526.5007032808014
527.1285007226275
520.4544354648775
517.2530376252082
516.2770064157908
515.0105987573279
504.7861215889343
505.9017918615768
506.793340178882
506.8752393775378
500.1259488569921
500.2611715704879
500.4099212315992
500.5433316316382
500.0092981048461
500.0255923868752
500.0533604147894
500.0741277876074
500.0810075849042
500.0724590702294
500.0567351054333
500.0372980936872
500.6539370362658
500.6678857952489
500.6040509428462
500.5075691526725
506.7970468124742
506.3062066507687
505.5341318528149
504.6783792623083
513.6906241498909
512.6594398306258
511.4424890141204
509.9130544933845
508.5394900458619
503.8680372650196
500.3867640346236
500.0198815375641
506.7024534700122
502.9262615959353
500.2539433509679
500.0079938698161
510.5040550520324
501.925623440915
500.106539261026
500.0006690594967
537.2037243617675
502.0142243121668
500.0364319610046
500.0004870198213
500.0014634280894
500.0405789931575
504.8994686265086
579.9395931999608
500.0056205714095
500.1150559423141
508.6159249332038
589.4164933127269
500.0162368180186
500.2742207177767
514.5288967037553
599.5000744892918
500.04290103212
500.6496274203628
522.3941047834111
607.435882805086
615.1081566230249
531.9056643996577
501.2657245421459
500.0911735395334
621.4129706011348
542.8548425823477
502.3801230846944
500.1825179732118
626.5810235262005
554.6565486307857
504.0557082270532
500.3127250567123
627.8363732874144
565.6654246172782
506.7692716290931
500.543137336621
500.868823755268
510.3156780966668
573.6958614481553
623.9973906728426
501.1743384893874
510.7370960743574
563.6683613578623
607.8411638997862
501.4457950205381
508.1302425080416
548.0579086649248
586.14254099164
500.5489718765355
504.6668473037605
528.606780085081
554.8011882075242
500.9241735911388
505.5532265858952
518.9362167210564
521.4075756273472
500.7994255781165
503.4788546213365
507.9931963164238
493.0651446526736
500.3349452464755
502.4943189173667
507.699866935342
495.9228781161195
500.071678268872
501.7863832547
510.3587549012365
537.0631185020278
537.258543158252
508.389093088949
500.4120431954961
499.9493421019523
529.7162760271184
505.5186979482044
499.556602633676
499.9041083268619
522.5343192541243
502.2106656274128
499.1404582422151
499.9004348983303
508.8142595797335
497.6034020694729
498.8033081398927
499.9413748827469
492.129208380775
494.5958078503899
499.0821211720372
499.9775118714472
474.1628615384719
494.1794179761636
499.546332148331
499.993378233913
461.5510006874141
494.135664329472
499.744219836286
499.9974070380351
462.4774290228215
495.8604853790146
499.9282701192553
499.9990306445449
497.5793826611148
497.4669514898353
499.5398034964373
499.9872562966197
492.6931569101811
497.1195803534199
499.6204423621649
499.9900515191765
484.1611974359674
496.563194171364
499.6940330813818
499.9926399090386
475.4930708085087
495.8495114741099
499.7196908267259
499.9942524626965
462.4774290228272
495.8604853790614
499.928270119604
499.9990306443921
461.5510006875298
494.1356643294414
499.7442198362148
499.9974070378871
474.1628615384565
494.1794179760732
499.5463321480564
499.9933782337637
492.1292083806694
494.5958078501855
499.0821211720124
499.9775118714142
499.9493421020506
500.4120431957051
508.3890930891479
537.2585431581521
499.904108326837
499.5566026337617
505.5186979483115
529.7162760269756
499.9004348983731
499.140458242226
502.2106656271646
522.5343192537573
499.9413748827616
498.8033081400272
497.6034020692479
508.8142595795199
537.0631185022199
510.3587549014716
501.7863832546594
500.0716782689633
495.9228781161579
507.6998669353713
502.4943189173727
500.3349452464484
493.0651446524685
507.9931963164607
503.4788546213382
500.7994255782212
521.4075756273003
518.9362167208782
505.553226585506
500.9241735913241
500.8688237550454
510.3156780972797
573.6958614489198
623.9973906731423
501.1743384892582
510.7370960743194
563.6683613582386
607.8411638999823
501.4457950203288
508.1302425082059
548.0579086648914
586.1425409916268
500.5489718764732
504.6668473033216
528.6067800850695
554.8011882074821
627.8363732876005
565.6654246176626
506.7692716285688
500.5431373371687
626.5810235265825
554.6565486310448
504.0557082274771
500.3127250565125
621.4129706013204
542.8548425830801
502.3801230856773
500.1825179732952
615.1081566230727
531.9056643991271
501.2657245412631
500.0911735394917
500.0014634280979
500.0405789931878
504.8994686263882
579.939593199982
500.0056205716588
500.1150559426161
508.6159249331616
589.4164933126741
500.0162368183109
500.2742207178413
514.5288967038239
599.5000744892267
500.042901032019
500.6496274209799
522.394104783772
607.4358828052856
500.0004870198061
500.0006690594225
500.0079938699521
500.0198815375938
500.0364319607497
500.1065392608974
500.2539433508756
500.3867640345219
502.014224312114
501.9256234409518
502.9262615958286
503.8680372649071
537.2037243616783
510.5040550520661
506.7024534700632
508.5394900458724
500.0372980937358
500.5075691527468
504.6783792624348
509.9130544935003
500.0567351053924
500.6040509430005
505.5341318529302
511.4424890142046
500.0724590702765
500.6678857953798
506.3062066506357
512.6594398302864
500.081007584876
500.6539370364793
506.7970468125232
513.6906241499452
500.0092981054027
500.1259488558937
504.7861215893474
520.454435464922
500.0255923871669
500.2611715697029
505.9017918619945
517.2530376250999
500.0533604151584
500.409921231247
506.7933401788665
516.2770064155983
500.0741277876114
500.5433316318971
506.8752393776314
515.0105987571613
527.1285007226641
502.4613331396536
500.0334895413834
500.002545979647
526.5007032808273
501.8224943993794
500.0218376235528
500.0021466235551
524.4241761503584
501.1918253885923
500.0084394153606
500.0003217345493
521.6223975823104
500.6689363548483
500.0028516108221
500.0000643444394
519.2919259595202
500.0535013168898
500.0004461236092
500.0000057501148
517.2018400867767
500.2422604843816
500.0001176360688
500.0000000264969
512.8735673234563
500.0971307824063
500.0000021198707
500.0000000017819
507.6281835560137
500.0492857545332
500.0000001395204
499.9999999998446
500.0000000000001
500.000000004765
500.000522527736
500.2699136189024
499.9999999999995
500.000000015565
500.0012411992017
500.659008066153
500.0000000001381
500.0000001859182
500.003940628506
501.5478605287526
499.9999999998333
499.9999998861065
500.013197212522
503.1593085967406
500.6461068068
501.4763997541856
503.2679782761896
508.9929491923178
501.4763997541939
502.6856891222833
506.6029070208513
516.7181688125227
503.2679782761693
506.6029070208513
514.9125587203833
529.642965968809
508.9929491923594
516.7181688126168
529.6429659689363
547.8335517693403
567.7236776269687
552.6314047972674
544.0056794941577
530.4652562706432
564.5474433647902
560.0192888876005
558.2381702873122
551.1294912709479
565.1440649795588
563.5314200355919
562.1032174454342
559.0057783247482
564.3552647129428
563.4644221617797
562.9519239003827
561.0975729672723
559.8689021180193
559.4807580175409
558.319365796081
555.0606127384283
560.8700085955543
559.2087824427954
557.7090470870295
554.5764007990175
560.8563418951745
558.864881068527
557.3418854915745
554.2265792416904
561.2769668770651
558.8187808533743
557.2495923607
548.7448873223497
516.8304640777939
499.2270860963869
499.5823054259274
500.8395824394075
504.850614379149
494.738098021425
499.4547502116635
501.6604454930135
491.9587922061568
494.3234147613326
500.4238107629661
503.3449762117776
469.8585545453811
489.326421010007
498.7806914181855
501.997900248826
501.6934555931306
502.5559653332239
503.1814605399674
503.5405251305468
502.7043906638179
503.5111532412566
503.9804012416414
504.1917278422544
504.198838952649
504.599275836443
504.7601373733632
504.7191608634321
503.2885148820744
504.4587802648377
505.124702720829
504.9664504530582
503.3387050761812
504.1620057453313
542.3416294889289
603.0752074786052
503.858845925265
505.2789554955626
556.0402586607227
610.8612740064658
504.315946613572
507.022328639251
566.9502505446916
613.5324428789187
504.5407859140605
507.9302129640633
576.1890439155244
619.3735392140695
660.5710517136406
654.3740718404085
652.1858218450938
649.6079550213074
668.1545176824409
659.8298275964911
654.7088490747399
650.5219389147803
672.501397770762
665.2703898513815
657.4303789712401
651.3687022433854
673.3771316569681
668.704990026563
659.9036049828078
652.3071770724947
650.5651066152093
654.4905245401702
656.2246006735819
656.2121852011411
650.7633231054592
653.4388985496886
654.7206724232667
656.1323294499032
650.4571605250638
651.6383562707729
652.1758013745888
654.7451931484546
651.006140192882
651.6701319895251
651.3122786680583
653.9822014907496
650.4093801162635
631.267901684683
609.379899892102
583.7216257694773
652.7241078827985
634.8427842138666
612.2907017960767
613.0244375451123
652.5270001898986
638.3438611229302
622.7010153438395
641.5088299359742
651.8188494754991
643.2250000342825
639.7954781148261
628.5576858350641
542.5148360217531
464.2560314115048
349.2135329271018
354.3535958847337
533.217816236352
426.8550749466516
300.7190778882184
289.0089655356123
487.2091934334683
362.5778353050691
276.4050969412501
267.6358572320402
389.1544237287475
293.955569539263
271.6608782709509
261.3726592810669
388.3775806219156
419.0438995430288
442.2365766030268
445.3550884892347
329.2295752021489
374.4965546381011
410.9829424888487
431.5409122727225
299.3153643613163
343.8950400469308
386.7805500049039
424.9515789220432
292.7996157975473
339.3174639559358
388.0414176398833
429.9533537686372
484.362875621395
454.921207807294
429.0540642557108
417.7671847997678
478.9251101322159
465.7136510432567
440.1101020766847
430.6318973335504
462.4142275309605
469.0595843086174
455.0571338936823
450.6379544288696
445.5369364875386
467.1506585651134
465.9338239871801
477.5732937172443
395.6421529419159
401.8400564569554
420.8824649165508
420.6851741616605
400.5038055175281
399.0660318301167
401.4933080770022
394.8631956222032
407.4196908730857
408.0787388296446
404.6778814243049
388.8952846034174
388.6417205786721
399.4849162008727
393.2140646017389
373.9243193916317
358.5179117133184
351.4293382576509
349.146823513261
347.7942188502761
370.616645294945
359.889555413667
356.1032650012281
354.2626128754903
382.5984340815006
377.097029876352
375.2401569098552
374.4222620343436
410.618548080107
403.4965706280021
398.3689014084328
395.7196623575107
347.7942188502716
354.2626128754893
374.4222620343697
395.7196623575072
349.1468235132449
356.1032650012098
375.2401569099057
398.3689014084916
351.4293382576225
359.8895554136391
377.0970298763945
403.4965706281103
358.517911713266
370.6166452948819
382.5984340815044
410.6185480801321
420.6851741616133
420.8824649165472
401.8400564569864
395.6421529419395
394.8631956221992
401.4933080770515
399.0660318301527
400.5038055174889
388.8952846033446
404.6778814242669
408.0787388296482
407.4196908730863
373.9243193915796
393.2140646017041
399.4849162008413
388.6417205786372
477.5732937171954
465.9338239871578
467.1506585650873
445.5369364877249
450.6379544288355
455.0571338937085
469.0595843085772
462.4142275310597
430.6318973335289
440.1101020767452
465.7136510432692
478.9251101321826
417.7671847997676
429.05406425579
454.9212078072898
484.3628756211926
445.3550884896241
442.2365766034632
419.0438995435255
388.3775806221164
431.5409122731693
410.9829424894065
374.4965546386265
329.229575202237
424.9515789224176
386.7805500054196
343.8950400473545
299.3153643613171
429.9533537689979
388.0414176404213
339.3174639564131
292.7996157975945
354.3535958847187
349.2135329262448
464.2560314112398
542.5148360217008
289.0089655354304
300.7190778877059
426.8550749464974
533.217816236286
267.6358572318102
276.4050969408871
362.5778353051622
487.2091934334929
261.3726592808979
271.660878270601
293.9555695393129
389.1544237288447
583.7216257694286
609.3798998921594
631.2679016846599
650.4093801162416
613.0244375451239
612.290701796079
634.8427842137758
652.7241078826999
641.5088299359131
622.7010153437913
638.3438611228075
652.5270001897889
628.5576858350272
639.7954781147465
643.2250000341875
651.8188494753476
656.2121852012289
656.2246006737186
654.4905245401663
650.5651066155407
656.1323294499659
654.7206724233286
653.4388985497006
650.7633231057274
654.74519314847
652.1758013746517
651.6383562708528
650.457160525363
653.9822014907319
651.3122786681009
651.6701319895869
651.0061401932326
649.6079550213154
652.1858218450271
654.3740718402941
660.5710517136007
650.5219389146985
654.7088490746388
659.8298275963397
668.1545176823199
651.3687022431686
657.4303789711099
665.2703898511805
672.5013977705652
652.3071770722306
659.9036049826764
668.7049900263229
673.3771316567229
603.0752074784215
542.3416294888375
504.1620057454182
503.3387050762389
610.86127400626
556.04025866058
505.2789554956202
503.8588459253198
613.5324428787567
566.950250544512
507.0223286392797
504.3159466136265
619.3735392138547
576.1890439153342
507.9302129640709
504.5407859141102
503.5405251307184
503.1814605400043
502.5559653329381
501.6934555932013
504.1917278424071
503.9804012416884
503.5111532409455
502.704390663939
504.7191608635629
504.7601373734495
504.5992758361425
504.1988389528236
504.9664504532001
505.1247027208765
504.4587802645495
503.2885148822107
500.8395824392097
499.5823054257723
499.2270860963122
516.8304640779413
501.6604454926865
499.4547502115554
494.738098021453
504.8506143792897
503.3449762113424
500.4238107628716
494.3234147614573
491.9587922062459
501.9979002483975
498.7806914180486
489.326421010174
469.8585545454857
555.0606127385678
558.3193657959711
559.4807580176021
559.8689021180613
554.5764007990829
557.7090470869059
559.2087824429088
560.8700085956261
554.2265792416528
557.3418854914215
558.8648810686406
560.8563418952575
548.7448873222492
557.2495923605915
558.8187808535182
561.2769668771477
561.0975729670524
559.0057783247416
551.1294912710548
530.4652562707639
562.9519239001407
562.1032174454322
558.2381702873608
544.0056794941786
563.4644221615936
563.5314200354762
560.0192888875661
552.6314047972108
564.3552647128015
565.1440649794353
564.547443364683
567.7236776268818
458.7107570231915
495.5639663520552
499.818135741426
499.9980392884531
455.2001326455456
494.4672100847829
499.749855042166
499.9969351784724
460.7180259539875
494.530468183931
499.7386992513844
499.9964049133027
467.9946148410363
495.1049907954775
499.7298881870033
499.9955477229996
499.9872562966942
499.5398034962597
497.4669514898296
497.5793826611217
499.9900515191388
499.6204423620493
497.1195803534094
492.6931569102681
499.9926399091514
499.6940330813906
496.5631941712978
484.1611974361563
499.9942524627361
499.7196908267887
495.849511474042
475.4930708085176
499.995547722912
499.9964049132712
499.996935178562
499.9980392884768
499.7298881869487
499.7386992512928
499.7498550419784
499.8181357413654
495.1049907954477
494.5304681839247
494.4672100848962
495.5639663521913
467.9946148408938
460.7180259538085
455.2001326454113
458.710757023103
)
;

boundaryField
{
    back
    {
        type            empty;
    }
    inlet
    {
        type            zeroGradient;
    }
    front
    {
        type            empty;
    }
    top
    {
        type            zeroGradient;
    }
    outlet
    {
        type            fixedValue;
        value           uniform 500;
    }
    bottom
    {
        type            zeroGradient;
    }
    wall
    {
        type            zeroGradient;
    }
}


// ************************************************************************* //
