/*--------------------------------*- C++ -*----------------------------------*\
  =========                 |
  \\      /  F ield         | OpenFOAM: The Open Source CFD Toolbox
   \\    /   O peration     | Website:  https://openfoam.org
    \\  /    A nd           | Version:  11
     \\/     M anipulation  |
\*---------------------------------------------------------------------------*/
FoamFile
{
    format      ascii;
    class       volScalarField;
    location    "0.172";
    object      Ma;
}
// * * * * * * * * * * * * * * * * * * * * * * * * * * * * * * * * * * * * * //

dimensions      [0 0 0 0 0 0 0];

internalField   nonuniform List<scalar> 
880
(
1.443353270571932
1.443353270571932
1.443353270516931
1.443346713121466
1.443353270571932
1.443353270571932
1.44335327023646
1.443318232924414
1.443353270571932
1.443353270571933
1.44335326742756
1.443296608999167
1.443353270571932
1.443353270576994
1.44335322295221
1.442853204144249
1.443353270571932
1.443353270571932
1.443353270576621
1.443353270536035
1.443353271090279
1.443353265262392
1.443353316739033
1.443352873949154
1.443356504438059
1.443345370707946
1.442943652926525
1.444316945780297
1.42675266567115
1.385835145645061
1.362718718640702
1.356333278723546
1.443353149738696
1.443353062068793
1.443350783560997
1.443350400640306
1.443349772089422
1.443340040005556
1.443323931615685
1.443323232098234
1.441668809999765
1.439892075052598
1.438629918616898
1.437829630427779
1.352563764592136
1.341433367902204
1.345200636443286
1.32804583988184
1.360363324581935
1.394774400741076
1.425189353793837
1.442368787660741
1.434219427692079
1.427163121851435
1.42843754226778
1.435378710572199
1.443263109170962
1.442999224809041
1.442681830610642
1.44272002141098
1.443345574994308
1.443329163706298
1.44329680598699
1.443252790428339
1.443236058951678
1.443236475682715
1.443253672016181
1.443284859616944
1.443051385834302
1.443262696931291
1.443444989076817
1.443528085797096
1.440485175656767
1.444340883528523
1.446990236418719
1.447976920634132
1.455039064753524
1.464792615194515
1.468539920216999
1.468878488999146
1.466079203855142
1.447632291421689
1.443504581150653
1.443319129759191
1.461964070556086
1.446384773561764
1.443426795859069
1.44334221735262
1.453671102964782
1.444893015782794
1.44337128969917
1.44335134141776
1.410048686185928
1.443069410151667
1.443355338985501
1.443354632804599
1.443352937410102
1.443351904484144
1.440785170703876
1.187935870991456
1.443350373120083
1.443322811407422
1.431067968272814
1.046199327162757
1.443348361778558
1.443179992379532
1.414863974530377
0.9939243463389136
1.44332640883683
1.443000769568499
1.397731117962056
0.9890938938514587
0.9885735691793504
1.375243241134763
1.442534362716945
1.443307288456174
0.9996227207887648
1.352444604084686
1.441950155549417
1.443235579411869
1.005831477235077
1.330622790644975
1.441166491111541
1.443159676343357
1.012618354603009
1.304671519341759
1.439774868181293
1.443023492045577
1.44282427063962
1.438411341102748
1.280052279247331
1.027944486288726
1.442565851714679
1.43491554293012
1.269797217416102
1.065574960176388
1.443182653250267
1.435540006789386
1.301859842607159
1.148599776340769
1.4407601709434
1.437852759062645
1.358878303217592
1.256987149369388
1.442335154255144
1.436188789551658
1.414286409877918
1.451633479651386
1.441117470089723
1.447517616804107
1.483775042845587
1.624666850125889
1.442133913532347
1.452519835436033
1.496975766364145
1.69689271756577
1.443458731757729
1.448574904829205
1.471456631671703
1.551305950312814
1.314485252687321
1.445645639077294
1.445343405333981
1.443466581850916
1.178660425503022
1.421699718468358
1.443219147262494
1.443423165502444
1.068691914637152
1.402116767185648
1.442095145060979
1.44338829058687
0.9652854941201116
1.38085245952622
1.44119080722346
1.443346663574206
0.9995668425511306
1.385004984842305
1.44154200260836
1.443344796742871
1.104768877207732
1.402813177527165
1.442422983285289
1.443349734844574
1.215646757612143
1.419692933094657
1.442986378676272
1.443352259203561
1.317916696738301
1.434046210318388
1.443332210348294
1.443353041762206
1.278636549157887
1.42689440813637
1.442709233249962
1.443343778110002
1.286377878393927
1.427658192198215
1.44274222942199
1.443344097872899
1.290946102963967
1.426862300267411
1.442732395246005
1.443344515823088
1.285129239526512
1.427748433054401
1.442837578875048
1.443346475318786
1.317916696742122
1.434046210323396
1.443332210358919
1.44335304174135
1.215646757612872
1.419692933097298
1.442986378699258
1.443352259204033
1.104768877207649
1.402813177517587
1.442422983283566
1.443349734844111
0.9995668425437226
1.385004984825566
1.441542002604093
1.44334479674912
1.443466581836237
1.445343405326125
1.445645639076218
1.314485252685716
1.443423165483932
1.443219147255035
1.421699718462454
1.178660425493941
1.443388290599727
1.44209514504506
1.402116767186783
1.068691914633219
1.443346663572528
1.441190807216228
1.380852459506404
0.9652854941238419
1.551305950337682
1.4714566316878
1.448574904847059
1.443458731775767
1.696892717582003
1.496975766382626
1.452519835459066
1.442133913559772
1.624666850124239
1.483775042862659
1.447517616807857
1.441117470088646
1.451633479650494
1.414286409879816
1.436188789542516
1.442335154196571
1.442824270644572
1.438411341094028
1.280052279236104
1.02794448628287
1.442565851713545
1.434915542903942
1.269797217407641
1.065574960172046
1.443182653086244
1.435540006798476
1.301859842608577
1.148599776338273
1.440760171103542
1.437852759043659
1.35887830321615
1.256987149368918
1.012618354591129
1.304671519332743
1.439774868136622
1.443023492044451
1.005831477218494
1.330622790632887
1.441166491156582
1.443159676333337
0.9996227207819595
1.352444604075177
1.441950155488322
1.443235579423663
0.9885735691766038
1.37524324114586
1.44253436274748
1.443307288467456
1.443352937409272
1.443351904472638
1.440785170705481
1.1879358709989
1.443350373129085
1.443322811416998
1.431067968261551
1.046199327170796
1.443348361794206
1.443179992393153
1.414863974521515
0.9939243463285273
1.443326408859279
1.443000769531885
1.397731117969334
0.9890938938562222
1.443354632778911
1.443351341410137
1.443342217354361
1.443319129766481
1.443355339008266
1.443371289691726
1.443426795842524
1.443504581163078
1.44306941014716
1.444893015778474
1.44638477357499
1.447632291417151
1.410048686186843
1.453671102962477
1.461964070557672
1.466079203854634
1.443284859640129
1.44352808579628
1.447976920621275
1.468878488991473
1.443253672015238
1.443444989081398
1.446990236408199
1.468539920217258
1.443236475668777
1.443262696929837
1.444340883529936
1.464792615196361
1.44323605894963
1.4430513858311
1.44048517565413
1.455039064762116
1.443345575016161
1.443263109184161
1.434219427680441
1.360363324580766
1.443329163725409
1.442999224815865
1.427163121847035
1.394774400750126
1.443296805999845
1.442681830595879
1.428437542263153
1.425189353801756
1.443252790439774
1.442720021395189
1.43537871056726
1.442368787671052
1.328045839878426
1.437829630416644
1.44332323211093
1.443350400699293
1.345200636433106
1.438629918613866
1.443323931627021
1.443350783420996
1.341433367886661
1.43989207506888
1.443340040006851
1.443353062150994
1.352563764584675
1.441668810006768
1.443349772093692
1.443353149731454
1.356333278723085
1.444316945759861
1.443352873942874
1.443353270529612
1.362718718648592
1.442943652971354
1.443353316737144
1.443353270577696
1.385835145637199
1.44334537071445
1.443353265260805
1.443353270571933
1.426752665645154
1.443356504442985
1.443353271089619
1.443353270571934
1.443353270571932
1.443353270571933
1.443353270510311
1.443346713123237
1.443353270571931
1.443353270571932
1.443353270233419
1.44331823293659
1.443353270571932
1.443353270571933
1.443353267426707
1.443296608997641
1.443353270571932
1.443353270577118
1.443353222965698
1.442853204185246
1.443333309750195
1.443291687194437
1.443152179885743
1.43991845962429
1.443291687110656
1.443228665200856
1.442804953799373
1.43098534495753
1.443152179694265
1.442804953726153
1.437254570012594
1.372041575491868
1.439918459461944
1.430985344788905
1.372041575499218
1.178476575822493
1.012943537429452
1.101924584272517
1.256966288356798
1.354819153475314
1.073496121148372
1.089755343898843
1.144081920419229
1.219265347417131
1.086515904767192
1.132748863591299
1.180285619427162
1.227652625383883
1.115333548825821
1.164848550572224
1.199686975565799
1.227947621922286
1.23428126447182
1.244757700166206
1.255144972104824
1.254961836641838
1.215261268661535
1.235717172571433
1.247864749709466
1.28351628797661
1.189361481064895
1.218404445278444
1.235468791051634
1.362387275842796
1.144317946352331
1.163879339967933
1.166871396179012
1.476809890524052
1.389308624258511
1.520639846484328
1.516882650038997
1.503672239263392
1.477911385060939
1.629020607769222
1.59183185892068
1.55499628293715
1.65339826782393
1.730455079693223
1.636787398208984
1.578394008870225
1.27764522385704
1.305999998990022
1.31028229709467
1.304313305255474
1.490781322982306
1.486906396971352
1.485355833226488
1.480862027533632
1.522451959683396
1.503881200347297
1.495335393757784
1.487693092284657
1.534512238928852
1.511511426773677
1.499240864355256
1.489901315961116
1.298295100642181
1.308910318512359
1.331486450467758
1.360547216509427
1.47508407082197
1.467476002894406
1.459140266192742
1.166804658838584
1.481012977849741
1.472681600659196
1.460116309780313
0.9826102302067409
1.484076738801069
1.476326517715335
1.450236889015718
0.7952449298844119
1.385415682741754
1.41443115075259
1.347398209336853
0.4930465914359159
0.784277464695525
0.7815119472806525
0.8029056972442179
0.846019321131966
0.7047254760317645
0.7523486337620187
0.7968112174257421
0.8465022306768425
0.5681613465032888
0.6664855158972375
0.7562563673537533
0.8289827073334222
0.2955758630938848
0.4103987598744098
0.5635161386732976
0.7022035337085141
0.8935821831276143
0.9227800487893727
0.9371491658385499
0.9316036909326192
0.8964792601572176
0.9249387001984172
0.9371427919091226
0.9364834066687662
0.8895867132697919
0.9210674449900677
0.9360097712894084
0.9383521221361449
0.8238262744737292
0.8846720139803239
0.9114786621450588
0.9075239951361685
0.9344183118269539
0.9722245951075278
1.069021360948132
1.181671278436074
0.9458477201241126
0.983232189891449
1.062275275021673
1.222581524926348
0.9509769949647041
0.9848944658540787
1.079050240149426
1.558073711230933
0.9284702737518858
0.9586523733312384
1.098750068327003
2.191709658704107
1.445506298242545
1.770544215790082
0.7745354394723976
0.5365091759792903
1.505127328927996
1.590954861448582
0.4577170956673214
0.4738851547806738
1.553883006883743
1.356388203257252
0.2059811406900071
0.4278979545973453
1.19527821788204
0.8612177254296377
0.2710881570517366
0.3258112571077483
0.3427640031682987
0.152385434263725
0.05649126244171356
0.08097537622708378
0.4051581506457888
0.2658873958747278
0.1356098603394283
0.115765719689576
0.3757502206415068
0.2970951647468658
0.2480999263675766
0.1762123819729345
0.3087296368521643
0.2805912200679952
0.269068296384196
0.1817263272394984
0.3763059212912131
0.7751082663426826
1.014541039322715
1.280184286490524
0.1628918295027806
0.5719836462772214
0.8643386224588625
1.1618772854322
0.1312792155553127
0.3093852064279414
0.6299085035575285
1.043694606259128
0.1219448858342766
0.0670383574158625
0.459707267955396
1.104489673885704
1.4798015246014
1.733314215185323
1.665281205301722
1.33829770097345
1.371309226618861
1.438486687184615
1.221679112132948
0.922858625387785
1.320889925132452
1.097175903069033
0.7413887137318605
0.4068261213042792
1.091239101139132
0.5429894648717549
0.2290345249386022
0.12627967683206
0.1224788884466755
0.1583405664566752
0.1670603164443412
0.1393276593090606
0.1880324516475321
0.07156364956056008
0.1388480375893542
0.1729382754180348
0.4410474017548445
0.1196499445732596
0.1715199600145673
0.2006786100421741
0.8026343043888913
0.4803667873371533
0.3283176280555523
0.2836202045249025
0.1393276593086889
0.1729382754191489
0.2006786100441676
0.2836202045127309
0.1670603164438191
0.1388480375913116
0.1715199600109943
0.3283176280498472
0.1583405664572641
0.07156364956124878
0.1196499445678548
0.4803667873363128
0.1224788884476073
0.18803245164424
0.4410474017491433
0.8026343043876452
1.33829770097179
1.665281205302272
1.733314215187563
1.479801524609139
0.9228586253848483
1.221679112130529
1.438486687179458
1.371309226621532
0.4068261213011237
0.7413887137281739
1.097175903064774
1.320889925129435
0.1262796768316535
0.2290345249369767
0.5429894648686442
1.091239101133819
1.104489673882932
0.4597072679528028
0.06703835741313391
0.1219448858322786
1.043694606256594
0.6299085035529347
0.3093852064212751
0.131279215557193
1.161877285432204
0.8643386224546467
0.5719836462674568
0.1628918295022215
1.280184286493221
1.014541039318229
0.7751082663343718
0.3763059212863076
0.08097537622080163
0.056491262442694
0.1523854342562302
0.3427640031720724
0.1157657196861014
0.1356098603320691
0.2658873958712409
0.4051581506557391
0.1762123819699628
0.2480999263590689
0.2970951647435301
0.3757502206518089
0.1817263272366176
0.2690682963775541
0.2805912200657974
0.3087296368611387
0.5365091759881493
0.7745354394593351
1.770544215795987
1.445506298245104
0.4738851547966773
0.4577170956682259
1.590954861456682
1.505127328934867
0.4278979546157629
0.2059811406983349
1.356388203265391
1.553883006889136
0.3258112571230986
0.2710881570702533
0.8612177254380129
1.195278217886226
1.181671278436017
1.069021360948294
0.9722245951084622
0.93441831182763
1.222581524927072
1.062275275020079
0.983232189889837
0.94584772012236
1.558073711235415
1.079050240149805
0.9848944658506417
0.9509769949622645
2.191709658711879
1.098750068331152
0.9586523733370467
0.9284702737585516
0.931603690926238
0.9371491658321083
0.9227800487835237
0.89358218312091
0.9364834066632974
0.9371427919047138
0.9249387001935891
0.8964792601504236
0.9383521221317412
0.9360097712870236
0.9210674449866243
0.8895867132627181
0.9075239951374717
0.9114786621471633
0.8846720139771023
0.8238262744599792
0.8460193211327632
0.8029056972390205
0.7815119472838016
0.7842774646987365
0.8465022306755723
0.7968112174217717
0.7523486337638344
0.7047254760323332
0.828982707330233
0.7562563673485057
0.6664855158953664
0.568161346504775
0.7022035336951736
0.5635161386684946
0.4103987598679164
0.2955758630939419
1.166804658852664
1.45914026619307
1.467476002893967
1.475084070816925
0.9826102302258057
1.460116309782954
1.472681600655204
1.481012977842191
0.7952449299027603
1.450236889024219
1.476326517707324
1.484076738791822
0.4930465914696144
1.34739820936805
1.414431150748952
1.385415682735175
1.480862027528404
1.485355833224213
1.486906396975559
1.490781322989557
1.487693092279968
1.495335393754475
1.503881200351868
1.522451959689532
1.489901315957063
1.49924086435171
1.511511426777487
1.534512238933268
1.360547216508317
1.331486450464987
1.308910318512332
1.298295100642367
1.503672239274783
1.516882650048727
1.520639846495299
1.389308624258202
1.554996282949525
1.591831858932927
1.629020607782945
1.477911385062881
1.578394008881848
1.636787398224504
1.730455079710885
1.653398267823741
1.304313305260068
1.310282297099774
1.305999999003848
1.277645223855006
1.254961836642819
1.255144972102568
1.244757700146647
1.234281264453465
1.283516287979942
1.2478647497063
1.235717172554992
1.215261268658558
1.362387275854859
1.235468791054945
1.218404445273646
1.189361481072089
1.476809890544879
1.16687139617511
1.163879339941138
1.144317946299488
1.227947621916594
1.227652625381503
1.219265347419698
1.354819153360256
1.199686975569077
1.18028561940003
1.144081920251367
1.256966288219079
1.164848550560011
1.132748863516455
1.089755343811368
1.101924584169462
1.115333548739974
1.086515904650984
1.073496121032697
1.012943537219281
1.364430132277576
1.431898496325327
1.44309395667572
1.443351895252493
1.370720995599989
1.43211976537973
1.443061764185429
1.44335099778924
1.349867524187246
1.431851855782069
1.443043564631799
1.443350398678253
1.292692446945892
1.429411694872147
1.442962234435995
1.443348945788868
1.443343778101888
1.442709233249721
1.426894408132394
1.278636549128328
1.443344097862465
1.442742229408879
1.427658192224241
1.286377878404984
1.443344515835997
1.442732395229583
1.426862300283872
1.29094610298356
1.443346475348578
1.442837578858917
1.427748433080959
1.285129239538481
1.44334894580051
1.443350398694235
1.443350997831094
1.443351895289067
1.442962234429854
1.443043564634337
1.4430617641932
1.443093956698587
1.429411694871539
1.431851855797264
1.432119765370393
1.431898496341275
1.292692446958792
1.349867524199169
1.370720995604511
1.36443013227801
)
;

boundaryField
{
    back
    {
        type            empty;
    }
    inlet
    {
        type            calculated;
        value           nonuniform List<scalar> 
16
(
1.443353270571932
1.443353270571932
1.443353270571932
1.443353270571932
1.443353270571932
1.443353270571932
1.443353270573879
1.443353270576341
1.443353270573869
1.44335327057427
1.443353270571932
1.443353270571933
1.443353270571932
1.443353270571932
1.443353270571932
1.443353270571932
)
;
    }
    front
    {
        type            empty;
    }
    top
    {
        type            calculated;
        value           uniform 0;
    }
    outlet
    {
        type            calculated;
        value           nonuniform List<scalar> 
16
(
1.443337729649414
1.443337958990031
1.443338775953994
1.443340070292888
1.443351219047983
1.443350063239911
1.443349129661619
1.443345755397842
1.443337729643392
1.443337958982495
1.443338775960424
1.44334007031075
1.443345755402963
1.443349129667128
1.443350063263256
1.443351219070427
)
;
    }
    bottom
    {
        type            calculated;
        value           uniform 0;
    }
    wall
    {
        type            calculated;
        value           uniform 0;
    }
}


// ************************************************************************* //
