/*--------------------------------*- C++ -*----------------------------------*\
  =========                 |
  \\      /  F ield         | OpenFOAM: The Open Source CFD Toolbox
   \\    /   O peration     | Website:  https://openfoam.org
    \\  /    A nd           | Version:  11
     \\/     M anipulation  |
\*---------------------------------------------------------------------------*/
FoamFile
{
    format      ascii;
    class       volScalarField;
    location    "0.065";
    object      rho;
}
// * * * * * * * * * * * * * * * * * * * * * * * * * * * * * * * * * * * * * //

dimensions      [0 0 0 0 0 0 0];

internalField   nonuniform List<scalar> 
880
(
0.2239950333699092
0.2239950333699093
0.223995033746582
0.2239950563656936
0.2239950333699093
0.2239950333699093
0.2239950366133873
0.223996153253622
0.2239950333699093
0.2239950333699239
0.2239950931435654
0.2240263073179103
0.2239950333699091
0.2239950333697779
0.2239950406721068
0.2242494321304117
0.2239950333699093
0.2239950333699093
0.2239950333699092
0.2239950334603819
0.2239950333711188
0.2239950333632387
0.223995033413387
0.223995034679697
0.2239971579093682
0.2240004393595449
0.2240186062051054
0.2239645802300269
0.2258166710022232
0.2287534336376821
0.230869820097758
0.2320548282171175
0.2239950368078636
0.223995039866552
0.2239950404264776
0.2239950381978062
0.2239951223577368
0.2239952531180077
0.2239952942687848
0.2239951974977709
0.2240628949623805
0.2241037793569626
0.2241144903137207
0.2241031909697539
0.2330690294160382
0.2346430971732882
0.2352084855287907
0.2360460392336876
0.2330088626610977
0.2311266853057798
0.229511376637856
0.2276787376781199
0.2241932290843461
0.2242860793643579
0.2242356636881696
0.2241393174452421
0.2239956307722953
0.2239959933135278
0.2239958826300447
0.2239955380642822
0.2239950523952631
0.2239950561031762
0.2239950511816863
0.2239950413191001
0.2239950349259449
0.2239950334614805
0.2239950333709899
0.2239950333699093
0.2239951911475363
0.2239950520522734
0.2239950339512939
0.2239950333729249
0.2240484551300954
0.2240038692808314
0.2239954659883941
0.2239950376485837
0.2258124339846349
0.2245009546065129
0.2240496105753441
0.2239965249191168
0.2239950413280343
0.2239950334853016
0.2239950333700524
0.2239950333699092
0.2239950252569622
0.2239950324956946
0.2239950333397114
0.2239950333698025
0.2240073665905676
0.2239950712949055
0.223995033641269
0.2239950334224262
0.2273265005432379
0.2240067881507016
0.223994766084165
0.2239950118481008
0.2239950270643091
0.2239951089333734
0.2241340730252173
0.2471155120258675
0.2239950515098588
0.2239956834054481
0.2243085214295814
0.2526858687752501
0.2239950821543502
0.223996565541619
0.2245400469085939
0.2584214227299443
0.2239951046670478
0.2239973676832258
0.2247602664328659
0.2647256020534577
0.2684088660460601
0.2248966769011136
0.2239979419001078
0.223995125973471
0.2725315936573265
0.2251271557580427
0.2239991310792006
0.2239951611849357
0.2751207111755536
0.2252985984892107
0.2239999927450031
0.2239951966558609
0.2792010249087971
0.2256495230992782
0.224002511715105
0.2239952853888554
0.223995305812896
0.224003214229186
0.2259733982198158
0.2845171833731884
0.2239954191029761
0.2240064506220277
0.226399476279214
0.2859435143147858
0.2239955246720539
0.224007817992278
0.2262286781513297
0.2749421504781839
0.2239952413452606
0.2240020438560152
0.2251230598565093
0.2501332867753879
0.2239958337172634
0.2240241136486377
0.2247631824463328
0.2236499134093469
0.2239950401263631
0.2239891185359116
0.2235621293713032
0.1988501513282842
0.2239949999765476
0.2239773665953017
0.2221461381192342
0.1790596704880205
0.2239949613703452
0.2239616613966859
0.2204292938915602
0.1611057861111836
0.1584653075630166
0.2208882915607129
0.2239742172953485
0.2239949814682951
0.1569059594963269
0.2209178639116934
0.2239756582597804
0.2239949897936028
0.1627182298490149
0.2219023706088206
0.2239852321095929
0.2239950134173986
0.1607636292893111
0.2217785972397069
0.2239846607845111
0.223995013038632
0.1811050010878841
0.2230810849752301
0.2239913951756344
0.2239950253640599
0.2009468246608666
0.2237485565233452
0.2239943113712031
0.2239950320538773
0.2124402591551567
0.2239103822085054
0.2239947913442336
0.2239950329298205
0.218469716857599
0.2239521484668633
0.2239948693230043
0.2239950329008362
0.2130458692224423
0.2237328945345801
0.2239930570653206
0.2239950262722727
0.2132296045973349
0.2237383711952959
0.2239930744988403
0.2239950262962596
0.213561806469229
0.2237428087328686
0.2239930930371301
0.2239950263383648
0.2146319475978029
0.2237550617600159
0.2239931631213185
0.2239950265822354
0.2184697168576041
0.2239521484667755
0.2239948693229167
0.223995032900697
0.2124402591551688
0.2239103822083743
0.223994791344067
0.2239950329297649
0.2009468246607997
0.2237485565232441
0.2239943113711841
0.2239950320538378
0.1811050010878966
0.2230810849751277
0.2239913951756849
0.2239950253640657
0.2239949814683651
0.2239742172954503
0.2208882915605148
0.1584653075625631
0.2239949897935779
0.2239756582597865
0.2209178639118765
0.1569059594959429
0.2239950134174221
0.2239852321095638
0.221902370608743
0.1627182298487699
0.2239950130386467
0.223984660784616
0.2217785972397332
0.1607636292892351
0.1611057861109016
0.2204292938915571
0.2239616613965697
0.2239949613703766
0.179059670487822
0.2221461381192007
0.2239773665953678
0.2239949999765234
0.1988501513281057
0.2235621293713101
0.2239891185358734
0.2239950401264385
0.2236499134093103
0.2247631824462552
0.2240241136485176
0.223995833717355
0.2239953058128599
0.2240032142292349
0.2259733982199452
0.2845171833733486
0.2239954191030041
0.2240064506220135
0.2263994762793438
0.2859435143150936
0.2239955246719576
0.2240078179923277
0.2262286781513415
0.2749421504782042
0.2239952413453011
0.2240020438559606
0.2251230598565006
0.2501332867753704
0.2792010249090285
0.2256495230991718
0.2240025117151712
0.2239952853890364
0.2751207111757196
0.225298598489194
0.2239999927450243
0.2239951966558677
0.2725315936573377
0.2251271557582102
0.2239991310791844
0.2239951611849465
0.2684088660460339
0.2248966769009361
0.223997941900148
0.2239951259735056
0.2239950270643343
0.2239951089333842
0.2241340730251244
0.2471155120257867
0.2239950515099793
0.2239956834056241
0.2243085214296666
0.2526858687753714
0.2239950821545059
0.223996565541612
0.2245400469083382
0.2584214227297912
0.2239951046670312
0.2239973676832432
0.2247602664332398
0.2647256020534671
0.2239950118481082
0.2239950334224123
0.2239950333698495
0.2239950333699092
0.2239947660840207
0.2239950336412127
0.2239950333396669
0.2239950333700407
0.2240067881506174
0.2239950712949421
0.2239950324956485
0.223995033485271
0.2273265005431988
0.2240073665905988
0.2239950252570164
0.2239950413280171
0.2239950333699092
0.2239950333729489
0.2239950376486168
0.2239965249191529
0.2239950333709838
0.2239950339513437
0.2239954659884119
0.2240496105753822
0.2239950334614884
0.2239950520523065
0.2240038692807471
0.2245009546064028
0.2239950349258987
0.2239951911475123
0.2240484551301417
0.2258124339846133
0.2239950523950333
0.2239956307721599
0.2241932290843674
0.2330088626611542
0.2239950561029576
0.2239959933135945
0.2242860793644101
0.2311266853057833
0.2239950511817049
0.2239958826299703
0.2242356636881141
0.2295113766377703
0.2239950413190643
0.2239955380642616
0.2241393174452824
0.2276787376780269
0.2360460392336244
0.2241031909697507
0.2239951974976103
0.223995038198764
0.235208485528716
0.2241144903138117
0.2239952942686074
0.2239950404266739
0.234643097173322
0.2241037793569858
0.2239952531181047
0.2239950398644091
0.2330690294159858
0.2240628949622655
0.2239951223575288
0.223995036809399
0.2320548282170855
0.2239645802302176
0.2239950346797037
0.2239950334604249
0.2308698200977382
0.2240186062049822
0.2239950334132885
0.2239950333699093
0.2287534336376476
0.2240004393595197
0.2239950333632265
0.2239950333699092
0.2258166710021766
0.2239971579093154
0.2239950333711136
0.2239950333699093
0.2239950333699092
0.2239950333699093
0.2239950337466308
0.2239950563657185
0.2239950333699093
0.2239950333699093
0.223995036613383
0.2239961532536446
0.2239950333699093
0.2239950333699096
0.2239950931435692
0.2240263073178898
0.2239950333699093
0.2239950333697416
0.2239950406720737
0.2242494321303251
0.2239951205223774
0.2239980228372005
0.2241122380760279
0.225695780192032
0.2239980228369614
0.2240283714097362
0.224660190132584
0.2301661947122325
0.2241122380761158
0.2246601901327984
0.2286565610192886
0.2416932327802279
0.2256957801921665
0.2301661947123123
0.241693232780244
0.2631559704276805
0.2869622939828676
0.2674345601954212
0.2584815812569785
0.2437155336401601
0.2821614197105531
0.2774780656145892
0.2781188669799289
0.269083247225584
0.2835613150095138
0.2815095150765253
0.2812271066551855
0.2770439260236859
0.285081427925653
0.2835177479243893
0.2835864472621836
0.2814753420427356
0.2847871257900196
0.2863475656780787
0.2868630893331617
0.2879372620554292
0.286156006062827
0.2881462320086352
0.2887858489389289
0.2910173340689183
0.2862341005552254
0.288600672988103
0.2893706164227221
0.2906538515973413
0.2864388690606606
0.2886361081270957
0.2896869744004816
0.2883262347300813
0.2488316445872543
0.232137499539048
0.230224497718454
0.2293426248046084
0.2329134613676632
0.2255563800578997
0.228166538619487
0.2285731573931198
0.2192786604379447
0.2246315676802573
0.2291502300778856
0.2293725410517767
0.1999586757772672
0.2193155044503237
0.2266703165264623
0.2276243240299307
0.2273933822522704
0.2253108823217694
0.2242392843546828
0.2240103689188761
0.2272015540759032
0.2253972423361061
0.2242976750265044
0.2240166926213934
0.2278406640700565
0.2257262378295576
0.2243788707951577
0.2240231215093039
0.2266867047353787
0.225028746484494
0.2241731156204576
0.224004641672397
0.2239952604257597
0.2239950242202776
0.2246393415148124
0.2654352727339725
0.2239953733071458
0.2239950264964093
0.2256221903396606
0.2783462552225387
0.2239954794354244
0.2239950271004818
0.2267080868675341
0.2826315431966075
0.2239951486783461
0.2239950340761593
0.2283958402360442
0.2831616402414679
0.3596901703947659
0.3591999480424322
0.3619696857920281
0.3690134742584688
0.3778639953114746
0.370337251391661
0.3698693915618371
0.3766285164638029
0.3730215665697697
0.3660430643394034
0.3718800646271073
0.3792524979509479
0.3837966062945783
0.3711280407976622
0.3728193523542185
0.3807565436894231
0.3734195583490696
0.3766787314082583
0.3769371006607234
0.3777567983522835
0.3815956841885438
0.385076870569497
0.3854694178577901
0.3857935482914086
0.3856106150112008
0.3897320058073804
0.3904320575437877
0.3905792798725876
0.3872288864585083
0.3917572872906733
0.3925688058864715
0.3927247423351052
0.3771394004486063
0.370604961221164
0.3483218489223395
0.2980110754970128
0.3843534313703073
0.3776699581635154
0.3558829022495508
0.3116553654787778
0.3895403519421346
0.3823626325740471
0.3592095955312091
0.3243096693798233
0.3915709437270316
0.3850032361752707
0.3626509228222652
0.3726931558706393
0.2155770619779457
0.09554987133113699
0.06523340742764745
0.06069161026011487
0.1833883782873179
0.06577725129912484
0.05996212092751557
0.06345812091395794
0.1312938766646438
0.05405864660196505
0.06110942980018252
0.06841941395220383
0.09302430354448635
0.04844990161291375
0.0651078860348525
0.07013280252275292
0.0626074439479247
0.06401445114972826
0.06494555567626159
0.0566991384375409
0.06431342878248207
0.06493459052633971
0.06191390596068913
0.05099152195493519
0.06898905566874566
0.06872024932737554
0.06407074725612416
0.05409745168952029
0.07035326853328512
0.06885692271004668
0.06269196597467552
0.0573015988863285
0.1006735349472004
0.1415559198604396
0.1617677744051575
0.1736347622303856
0.0885772779308244
0.1250777275789706
0.14720710908937
0.1650700772369897
0.08505839572340021
0.1209623405896293
0.143625207709398
0.1659801902866268
0.07367760340054436
0.1074071724000264
0.1331612411658286
0.1604281384537413
0.1478834324900025
0.1110637491713829
0.1274586046298689
0.1296770024925967
0.126706305473117
0.0679347289567991
0.06537649006084938
0.08533317625836914
0.1053914884835514
0.05521894971267257
0.05499191626201565
0.05499732988584815
0.079793480263097
0.04258931228142127
0.05345079593717381
0.06259510819164289
0.07619082954623829
0.09930956910043018
0.1213925431173672
0.1372935378714608
0.06448593247917526
0.0891185734446636
0.1230830332503922
0.1447833432922451
0.09381992540592839
0.1029659998128626
0.1326156957193243
0.1550125133669776
0.1204101176090987
0.116850119793778
0.1271923709671819
0.1397830203258067
0.1372935378714633
0.1447833432922464
0.1550125133669767
0.1397830203258115
0.1213925431173713
0.1230830332504001
0.1326156957193234
0.1271923709671795
0.09930956910043523
0.08911857344467282
0.1029659998128677
0.116850119793772
0.07619082954624133
0.06448593247917943
0.09381992540592568
0.1204101176090842
0.1296770024926003
0.1274586046299175
0.1110637491714216
0.1478834324899972
0.08533317625838255
0.06537649006086778
0.06793472895679523
0.126706305473103
0.05499732988585961
0.05499191626202478
0.05521894971267532
0.1053914884835434
0.0625951081916523
0.05345079593718745
0.04258931228143346
0.07979348026309183
0.1604281384537283
0.133161241165818
0.1074071724000287
0.07367760340056059
0.1659801902866123
0.1436252077093808
0.1209623405896235
0.085058395723422
0.1650700772369753
0.1472071090893571
0.1250777275789711
0.08857727793085014
0.1736347622303742
0.1617677744051462
0.1415559198604289
0.1006735349472328
0.05669913843753286
0.06494555567621746
0.06401445114957936
0.06260744394784591
0.05099152195493247
0.06191390596067591
0.06493459052631628
0.06431342878249001
0.05409745168951448
0.06407074725610683
0.06872024932738963
0.0689890556687891
0.05730159888632753
0.06269196597465723
0.06885692271005282
0.07035326853334413
0.06069161026010662
0.06523340742751407
0.09554987133090335
0.2155770619778169
0.06345812091400549
0.05996212092761557
0.06577725129912858
0.1833883782871158
0.06841941395228493
0.06110942980026809
0.05405864660199232
0.1312938766645588
0.07013280252287563
0.06510788603494562
0.04844990161293938
0.09302430354443406
0.2980110754969123
0.3483218489222886
0.3706049612211774
0.3771394004485305
0.311655365478713
0.3558829022495188
0.3776699581634596
0.3843534313702289
0.3243096693797655
0.359209595531167
0.3823626325739857
0.3895403519421235
0.3726931558705756
0.3626509228222191
0.3850032361751989
0.3915709437270016
0.3777567983523289
0.3769371006607269
0.3766787314081312
0.3734195583490639
0.385793548291416
0.3854694178577875
0.3850768705693897
0.3815956841885366
0.3905792798726072
0.3904320575437917
0.3897320058072653
0.3856106150112054
0.3927247423350926
0.3925688058864664
0.3917572872905284
0.3872288864585204
0.3690134742584339
0.3619696857918731
0.3591999480425172
0.3596901703947061
0.3766285164637614
0.3698693915616935
0.3703372513917559
0.3778639953114015
0.3792524979509305
0.371880064627005
0.3660430643395082
0.3730215665697239
0.380756543689388
0.3728193523541524
0.3711280407977446
0.3837966062944844
0.265435272733898
0.2246393415147708
0.2239950242203486
0.2239952604259193
0.2783462552223775
0.2256221903395394
0.2239950264963766
0.2239953733074477
0.2826315431963723
0.2267080868673101
0.2239950271002788
0.2239954794359705
0.2831616402411463
0.2283958402356551
0.2239950340758971
0.2239951486791485
0.2240103689187058
0.2242392843548023
0.2253108823216466
0.227393382252265
0.2240166926210982
0.2242976750266777
0.2253972423359323
0.2272015540758985
0.2240231215088327
0.2243788707954026
0.2257262378293594
0.2278406640700637
0.2240046416716743
0.2241731156208576
0.2250287464842185
0.2266867047353912
0.2293426248045016
0.2302244977183971
0.2321374995390604
0.248831644587349
0.2285731573930208
0.2281665386194297
0.2255563800579238
0.2329134613677371
0.2293725410516889
0.2291502300778377
0.2246315676802998
0.2192786604379859
0.2276243240298366
0.2266703165264027
0.2193155044503927
0.1999586757773208
0.2879372620554
0.2868630893330891
0.2863475656780998
0.284787125789994
0.2910173340688778
0.2887858489389218
0.288146232008693
0.2861560060627963
0.2906538515972677
0.2893706164227363
0.2886006729881784
0.2862341005552006
0.2883262347300136
0.2896869744005116
0.2886361081271848
0.2864388690606541
0.2814753420426949
0.2770439260236932
0.2690832472255766
0.2437155336401828
0.2835864472621579
0.2812271066552589
0.2781188669798771
0.2584815812569429
0.2835177479243704
0.2815095150765829
0.2774780656145465
0.267434560195289
0.2850814279256899
0.2835613150092822
0.2821614197105051
0.2869622939827712
0.2205918831978116
0.2239477158843444
0.22399477870503
0.2239950326471149
0.2183596560231607
0.2239145386619223
0.2239945401234087
0.2239950317374401
0.2172588058414538
0.2238619111862475
0.2239941004105267
0.223995030084842
0.2147120036958609
0.2237769541871896
0.2239933988130992
0.2239950275750646
0.2239950262723963
0.2239930570653298
0.2237328945345632
0.2130458692223877
0.2239950262962102
0.2239930744988859
0.2237383711953145
0.2132296045973177
0.2239950263383736
0.2239930930370481
0.223742808732876
0.2135618064691719
0.2239950265822653
0.2239931631212708
0.2237550617600611
0.2146319475977453
0.2239950275749597
0.2239950300848924
0.2239950317374848
0.2239950326470132
0.2239933988130096
0.2239941004105126
0.2239945401234367
0.2239947787050776
0.2237769541871867
0.2238619111862262
0.2239145386619872
0.2239477158843078
0.2147120036958162
0.2172588058414081
0.2183596560231943
0.2205918831978398
)
;

boundaryField
{
    back
    {
        type            empty;
    }
    inlet
    {
        type            calculated;
        value           nonuniform List<scalar> 
16
(
0.2239950333699092
0.2239950333699093
0.2239950333699093
0.2239950333699091
0.2239950333699093
0.2239950333699093
0.2239950333699092
0.2239950334603819
0.2239950334604249
0.2239950333699093
0.2239950333699092
0.2239950333699093
0.2239950333699092
0.2239950333699093
0.2239950333699093
0.2239950333699093
)
;
    }
    front
    {
        type            empty;
    }
    top
    {
        type            calculated;
        value           nonuniform List<scalar> 
40
(
0.2239950368078636
0.223995039866552
0.2239950404264776
0.2239950381978062
0.2239950523952631
0.2239950561031762
0.2239950511816864
0.2239950413191001
0.2239950349259449
0.2239950334614805
0.2239950333709899
0.2239950333699092
0.2239950333699092
0.2239950333698025
0.2239950334224262
0.2239950118481007
0.2239950270643091
0.2239950515098588
0.2239950821543502
0.2239951046670477
0.223995125973471
0.2239951611849357
0.2239951966558609
0.2239952853888554
0.223995305812896
0.2239954191029761
0.2239955246720539
0.2239952413452606
0.2239958337172634
0.2239950401263631
0.2239949999765476
0.2239949613703452
0.2239949814682951
0.2239949897936028
0.2239950134173986
0.223995013038632
0.2239950253640599
0.2239950320538773
0.2239950329298205
0.2239950329008362
)
;
    }
    outlet
    {
        type            calculated;
        value           uniform 0.2239950333699093;
    }
    bottom
    {
        type            calculated;
        value           nonuniform List<scalar> 
40
(
0.223995032900697
0.2239950329297649
0.2239950320538378
0.2239950253640657
0.2239949814683651
0.2239949897935779
0.2239950134174222
0.2239950130386467
0.2239949613703765
0.2239949999765235
0.2239950401264385
0.223995833717355
0.2239953058128599
0.2239954191030041
0.2239955246719576
0.2239952413453011
0.2239952853890364
0.2239951966558677
0.2239951611849465
0.2239951259735056
0.2239950270643343
0.2239950515099793
0.2239950821545059
0.2239951046670312
0.2239950118481082
0.2239950334224124
0.2239950333698494
0.2239950333699092
0.2239950333699092
0.2239950333709838
0.2239950334614884
0.2239950349258987
0.2239950523950333
0.2239950561029576
0.2239950511817049
0.2239950413190643
0.223995038198764
0.2239950404266739
0.2239950398644091
0.223995036809399
)
;
    }
    wall
    {
        type            calculated;
        value           nonuniform List<scalar> 
104
(
0.2869622939828676
0.2821614197105531
0.2835613150095138
0.285081427925653
0.2864388690606606
0.2886361081270957
0.2896869744004816
0.2883262347300813
0.1999586757772673
0.2193155044503236
0.2266703165264623
0.2276243240299307
0.2266867047353787
0.225028746484494
0.2241731156204576
0.224004641672397
0.2239951486783461
0.2239950340761593
0.2283958402360442
0.2831616402414679
0.3837966062945783
0.3711280407976622
0.3728193523542185
0.3807565436894231
0.3872288864585083
0.3917572872906733
0.3925688058864715
0.3927247423351052
0.3915709437270316
0.3850032361752707
0.3626509228222652
0.3726931558706393
0.09302430354448635
0.04844990161291375
0.0651078860348525
0.07013280252275292
0.07035326853328512
0.06885692271004668
0.06269196597467552
0.0573015988863285
0.07367760340054436
0.1074071724000264
0.1331612411658286
0.1604281384537413
0.079793480263097
0.04258931228142127
0.05345079593717381
0.06259510819164289
0.07619082954623829
0.09930956910043018
0.1213925431173672
0.1372935378714608
0.1372935378714633
0.1213925431173713
0.09930956910043523
0.07619082954624133
0.0625951081916523
0.05345079593718745
0.04258931228143346
0.07979348026309183
0.1604281384537283
0.133161241165818
0.1074071724000287
0.07367760340056059
0.05730159888632753
0.06269196597465723
0.06885692271005282
0.07035326853334413
0.07013280252287563
0.06510788603494562
0.04844990161293938
0.09302430354443406
0.3726931558705756
0.3626509228222191
0.3850032361751989
0.3915709437270016
0.3927247423350926
0.3925688058864664
0.3917572872905284
0.3872288864585204
0.380756543689388
0.3728193523541524
0.3711280407977446
0.3837966062944844
0.2831616402411463
0.2283958402356551
0.2239950340758971
0.2239951486791485
0.2240046416716743
0.2241731156208576
0.2250287464842185
0.2266867047353912
0.2276243240298366
0.2266703165264027
0.2193155044503927
0.1999586757773209
0.2883262347300136
0.2896869744005116
0.2886361081271848
0.2864388690606541
0.2850814279256899
0.2835613150092822
0.2821614197105051
0.2869622939827712
)
;
    }
}


// ************************************************************************* //
