/*--------------------------------*- C++ -*----------------------------------*\
  =========                 |
  \\      /  F ield         | OpenFOAM: The Open Source CFD Toolbox
   \\    /   O peration     | Website:  https://openfoam.org
    \\  /    A nd           | Version:  11
     \\/     M anipulation  |
\*---------------------------------------------------------------------------*/
FoamFile
{
    format      ascii;
    class       surfaceScalarField;
    location    "7.25";
    object      phi;
}
// * * * * * * * * * * * * * * * * * * * * * * * * * * * * * * * * * * * * * //

dimensions      [0 3 -1 0 0 0 0];

internalField   nonuniform List<scalar> 
8667
(
15.885657
1.8537495
0.038371152
13.98345
1.8455842
0.056622726
12.077936
1.841018
0.064496113
10.170354
1.8835171
0.024065425
8.2551189
1.9327773
-0.017542647
6.3306552
2.0672462
-0.14278247
4.406496
2.2146692
-0.29050996
2.474694
2.4955744
-0.56377242
2.7760262
-0.94482238
0.64349023
15.885329
3.7461983
13.985271
3.7456421
12.080465
3.7458241
10.168184
3.7957981
8.2488207
3.8521409
6.3189436
3.9971233
4.4053671
4.1282457
2.4616105
4.439331
4.63267
0.60496668
15.886321
5.6376551
13.987219
5.6447446
12.081612
5.651431
10.162774
5.7146355
8.2480714
5.7668439
6.3129382
5.9322566
4.393489
6.0476949
2.44557
6.38725
6.4977209
0.58051915
15.888487
7.5269458
13.987358
7.5458737
12.082753
7.5560365
10.161297
7.636091
8.2457895
7.6823516
6.3140406
7.8640054
4.381071
7.9806645
2.4131488
8.3551722
8.363569
0.54730067
15.890393
9.4143285
13.987628
9.4486386
12.083608
9.4600566
10.166758
9.5529419
8.2440196
9.6050895
6.3104525
9.7975725
4.3768268
9.9142902
2.3958114
10.336188
10.232545
0.52683549
15.890972
11.301134
13.991425
11.348186
12.084684
11.366797
10.169433
11.468194
8.247858
11.526664
6.3072204
11.73821
4.3632236
11.858287
2.3656357
12.333776
12.102484
0.49569625
15.890509
13.188403
13.993681
13.245015
12.091046
13.269432
10.173083
13.386156
8.2499132
13.449834
6.3120769
13.676046
4.3617942
13.80857
2.3439632
14.351607
13.976108
0.4703399
15.890497
15.075683
13.996286
15.139227
12.094089
15.171628
10.178947
15.301299
8.2520125
15.376768
6.3049438
15.623115
4.3513909
15.762123
2.3149047
16.388093
15.86479
0.42622202
15.89102
16.962442
13.998591
17.031655
12.099145
17.071075
10.184778
17.215666
8.2588234
17.302723
6.3094659
17.572473
4.3499566
17.721632
2.297609
18.44044
17.784918
0.37748085
18.785897
15.954323
20.605801
15.957874
22.424839
15.958746
24.246932
15.955687
26.068485
15.956208
27.888899
15.957366
29.70706
15.959619
31.516934
15.967905
15.971921
33.322793
18.860177
14.125801
20.688216
14.129834
22.514213
14.132749
24.333999
14.135901
26.151674
14.138533
27.964686
14.144355
29.780751
14.143554
31.60269
14.145966
14.138482
33.436129
18.91459
12.282286
20.75336
12.291064
22.591702
12.294407
24.425279
12.302324
26.258132
12.30568
28.086412
12.316075
29.905212
12.324753
31.712272
12.338906
12.345924
33.50483
19.074136
10.423816
20.931985
10.433215
22.785723
10.440668
24.636039
10.452008
26.484187
10.457532
28.336246
10.464016
30.201463
10.459536
32.064001
10.476368
10.471275
33.938651
19.189806
8.5367321
21.07575
8.547271
22.965935
8.5504843
24.851197
8.5667455
26.735363
8.5733662
28.603337
8.5960413
30.458479
8.6043946
32.312454
8.6223937
8.6324296
34.151299
19.49785
6.6113545
21.431942
6.6131796
23.374574
6.6078515
25.326342
6.6149782
27.284347
6.6153607
29.256176
6.6242124
31.229452
6.6311183
33.202064
6.6497823
6.6524578
35.182036
19.673169
4.659817
21.643669
4.6426803
23.623611
4.6279092
25.62389
4.6146996
27.61553
4.62372
29.605187
4.6345559
31.583967
4.652338
33.57207
4.6616793
4.6911025
35.533425
20.566794
2.5334632
22.726164
2.4833105
24.872182
2.4818909
27.001352
2.4855298
29.129197
2.495875
31.267249
2.4965042
33.417488
2.5020986
35.575664
2.5035035
2.5211499
37.745616
19.874245
0.44413702
21.881047
0.47650843
23.909146
0.45379141
26.274405
0.12027144
28.776585
-0.0063056202
31.299804
-0.026714957
33.835782
-0.033879055
36.365002
-0.025716006
38.833573
0.052578983
33.205112
0.11768141
33.092068
0.11304409
32.980737
0.11133127
32.875425
0.1053122
32.771737
0.1036875
32.675578
0.096158912
32.580749
0.09482941
32.495875
0.08487403
0.083909782
32.411965
33.34019
0.21361986
33.250083
0.20315093
33.161705
0.19970932
33.081202
0.18581525
33.00218
0.18271012
32.933072
0.16526684
32.865441
0.16246036
32.809009
0.14130611
0.13959567
32.753323
33.428803
0.28964666
33.360449
0.27150531
33.296953
0.26320503
33.241191
0.24157779
33.190837
0.23306395
33.148779
0.20732446
33.112
0.19923895
33.083505
0.16980155
0.16198356
33.061117
33.893057
0.33524016
33.854671
0.30989199
33.818794
0.29908127
33.788992
0.27138015
33.760602
0.26145378
33.73755
0.23037614
33.71571
0.22107977
33.698328
0.18718283
0.17900306
33.681309
34.132538
0.35400049
34.12132
0.32111076
34.112006
0.30839493
34.108747
0.27463899
34.107288
0.2629126
34.11012
0.22754435
34.115242
0.21595778
34.122031
0.1803942
0.17007129
34.130962
35.184909
0.35112708
35.189751
0.31626841
35.196051
0.30209488
35.201155
0.26953526
35.206086
0.25798213
35.206465
0.22716495
35.204841
0.21758185
35.194533
0.19070194
0.18198495
35.18262
35.587294
0.29725815
35.632643
0.2709196
35.677873
0.25686464
35.710788
0.23662084
35.743084
0.2256857
35.763003
0.20724619
35.78162
0.19896474
35.788642
0.18367969
0.17841653
35.792211
37.796174
0.2467006
37.825486
0.2416072
37.842182
0.24016884
37.838717
0.24008616
37.838766
0.22563638
37.828039
0.21797306
37.811711
0.21529327
37.765891
0.22949938
0.25427486
37.690033
38.958481
0.12179224
39.069208
0.13088019
39.190086
0.11929026
39.306403
0.1237698
39.390257
0.14178189
39.417431
0.1907998
39.370238
0.26248552
39.198149
0.4015892
38.907596
0.54482763
38.664011
0.781118
-0.53753286
38.269849
0.73574498
-0.34158377
37.780345
0.69536669
-0.20586216
37.303539
0.66457389
-0.18776811
36.85875
0.6334565
-0.18866759
36.445527
0.60989224
-0.19666918
36.051961
0.58670664
-0.19314031
35.677408
0.57597152
-0.2014191
0.5649953
35.298988
-0.18657451
37.74144
0.72971033
37.738249
0.73893605
37.688712
0.74490349
37.603353
0.74993293
37.484431
0.75237892
37.339459
0.75486448
37.168686
0.75747922
36.98207
0.76258757
0.76761364
36.779452
35.906121
0.61579982
36.008563
0.63649436
36.093615
0.65985165
36.164963
0.678585
36.215794
0.70154803
36.251088
0.71957022
36.266771
0.741796
36.2692
0.7601591
0.78345561
36.253358
35.303173
0.49524629
35.428009
0.51165864
35.540987
0.54687343
35.656476
0.56309627
35.757965
0.60005889
35.860158
0.617377
35.946757
0.65519759
36.033529
0.67338663
0.71365897
36.103326
34.265415
0.3607935
34.40029
0.37678403
34.536257
0.41090593
34.671883
0.42747069
34.810957
0.46098491
34.94733
0.48100445
35.087078
0.51544918
35.225621
0.53484357
0.57668359
35.362596
33.798943
0.24315894
33.91785
0.25787772
34.0415
0.28725598
34.164811
0.30415986
34.293216
0.33257991
34.422459
0.35176146
34.556065
0.38184274
34.693081
0.39782764
0.43390904
34.835855
33.168636
0.13564057
33.287484
0.13902941
33.408002
0.16673825
33.537846
0.17431522
33.668538
0.20188762
33.809366
0.21093369
33.950321
0.24088836
34.098391
0.24975691
0.28112483
34.251176
32.835175
0.053788904
32.92041
0.053794286
33.017344
0.069804055
33.118461
0.073197973
33.231944
0.088404928
33.350438
0.09243909
33.48451
0.10681653
33.620231
0.11403584
0.12888525
33.772471
32.465754
32.519548
32.589352
32.66255
32.750955
32.843394
32.950211
33.064246
33.193132
33.326734
-0.13360255
33.480123
-0.1533891
33.640942
-0.16081879
33.818801
-0.17785878
34.005359
-0.18655785
34.214213
-0.2088537
34.430232
-0.21601973
34.668341
-0.23810836
-0.25028671
34.918627
33.929353
-0.29048455
34.099399
-0.32343507
34.276097
-0.33751673
34.464875
-0.36663664
34.665576
-0.38725931
34.87402
-0.41729759
35.09895
-0.44094984
35.330712
-0.46987057
-0.50309377
35.583519
34.410524
-0.44983299
34.573619
-0.48653025
34.742575
-0.50647217
34.92166
-0.54572179
35.10389
-0.56948981
35.295859
-0.60926582
35.495179
-0.64027062
35.704662
-0.67935358
-0.71892032
35.920489
34.979328
-0.59330525
35.133126
-0.64032821
35.286591
-0.65993744
35.452214
-0.71134434
35.615267
-0.73254298
35.794845
-0.78884417
35.968894
-0.81431923
36.16258
-0.87303992
-0.90220978
36.345869
35.499999
-0.73070759
35.634168
-0.7744974
35.766771
-0.7925407
35.895392
-0.83996498
36.023804
-0.86095566
36.146867
-0.91190667
36.26911
-0.93656183
36.387841
-0.99177174
-1.0179316
36.503563
36.173855
-0.80123663
36.225338
-0.82598065
36.278987
-0.8461899
36.313972
-0.87494961
36.353585
-0.90056914
36.376253
-0.93457423
36.405887
-0.96619619
36.421197
-1.0070812
-1.0431005
36.446366
36.22918
-0.77705864
36.189103
-0.78590394
36.143991
-0.80107809
36.083449
-0.81440698
36.018111
-0.8352321
35.940265
-0.85672797
35.859643
-0.88557404
35.770526
-0.91796461
-0.95451849
35.681944
36.573722
-0.57132887
36.356352
-0.5685341
36.131746
-0.57647245
35.885577
-0.56823785
35.632251
-0.58190565
35.359855
-0.58433208
35.085114
-0.61083366
34.799419
-0.63226882
-0.66520274
34.510103
34.931082
-0.20342293
34.542742
-0.18019475
34.149711
-0.18344141
33.731088
-0.14961476
33.313706
-0.16452335
32.884174
-0.15479964
32.470282
-0.19694237
32.028024
-0.19001058
31.599571
-0.23674918
0.70285694
31.109996
-0.21328204
0.99780356
34.215156
1.0945732
35.585175
1.0812949
36.459644
0.96636434
36.618494
0.75681219
36.555422
0.52875262
36.148548
0.27358177
35.83869
35.192209
0.73708915
30.638315
-0.2654087
1.0430711
33.909174
1.1359415
35.492304
1.1112885
36.484297
0.99696512
36.732817
0.80262015
36.749767
0.56735702
36.383812
0.28508545
36.120962
35.477295
0.78172387
30.12137
-0.2647787
1.0989234
33.591975
1.1996278
35.3916
1.1850607
36.498864
1.0695354
36.848343
0.84570721
36.973595
0.59898604
36.630533
0.3139968
36.405951
35.791291
0.82562553
29.65438
-0.3586359
1.1525686
33.265032
1.2498128
35.294356
1.2188003
36.529876
1.1030457
36.964097
0.89287673
37.183764
0.6341565
36.889253
0.32435307
36.715754
36.115644
0.89988775
29.1245
-0.37000715
1.2279133
32.937006
1.3323991
35.18987
1.3051813
36.557094
1.1797598
37.089519
0.94093027
37.422593
0.67615334
37.15403
0.35853303
37.033375
36.474177
0.97281067
28.670242
-0.51855256
1.2946902
32.615127
1.3919269
35.092633
1.3469631
36.602058
1.2242044
37.212277
0.99335876
37.653439
0.7108266
37.436562
0.36918678
37.375015
36.843364
1.0870482
28.127052
-0.54385849
1.3997336
32.302441
1.498815
34.993552
1.4448219
36.656051
1.3019764
37.355123
1.0432186
37.912197
0.75570944
37.724071
0.40321648
37.727508
37.246581
1.1864593
27.682119
-0.74152646
1.4786855
32.010215
1.5660068
34.906231
1.4949575
36.7271
1.359141
37.490939
1.1025567
38.168781
0.79399267
38.032635
0.41919441
38.102306
37.665775
1.320859
27.131979
-0.77071919
1.612432
31.718642
1.7006837
34.817979
1.611534
36.81625
1.4441174
37.658356
1.1529563
38.459942
0.83958519
38.346006
0.45163361
38.490257
38.117409
-0.084344873
38.201754
-0.090719665
38.496632
-0.067760072
38.323047
0.046580662
38.345601
0.18857348
37.516363
0.39025484
36.614569
0.60449097
34.603743
0.91226142
31.410871
27.202148
0.84209238
-0.098524707
38.300278
-0.105957
38.504064
-0.083290556
38.30038
-0.0066933638
38.269004
0.089276755
37.420393
0.26642872
36.437417
0.44307235
34.427099
0.68576239
31.168181
27.187704
0.70020719
-0.10925314
38.409531
-0.13924578
38.534057
-0.1305688
38.291703
-0.034369697
38.172805
0.075603099
37.31042
0.24949057
36.263529
0.42260403
34.253986
0.65510324
30.935682
27.214573
0.62823383
-0.11765893
38.52719
-0.1462428
38.562641
-0.14776132
38.293222
-0.099733183
38.124777
-0.027565395
37.238252
0.1266831
36.109281
0.27701355
34.103655
0.46507649
30.747619
27.149277
0.53037303
-0.12873196
38.655922
-0.17854908
38.612458
-0.18594928
38.300622
-0.1095904
38.048418
-0.023281808
37.151944
0.13042219
35.955577
0.28292495
33.951153
0.45112727
30.579417
27.157626
0.44277818
-0.13219993
38.788122
-0.17462251
38.654881
-0.19659465
38.322594
-0.16880967
38.020633
-0.1159193
37.099054
0.011273949
35.828383
0.13918346
33.823243
0.27408675
30.444514
27.080897
0.35081586
-0.14649869
38.934621
-0.21004173
38.718424
-0.22726685
38.339819
-0.16971893
37.963085
-0.10102914
37.030364
0.029897631
35.697457
0.16106258
33.692078
0.28994297
30.315633
27.01668
0.35415963
-0.1409727
39.075594
-0.1899691
38.76742
-0.22654494
38.376395
-0.21517185
37.951712
-0.18388457
36.999076
-0.091775515
35.605348
0.018089497
33.582213
0.14166691
30.192056
26.896901
0.2614454
-0.15382652
39.22942
-0.21846456
38.832058
-0.24353184
38.401462
-0.20381301
37.911993
-0.15340191
36.948665
-0.049518558
35.501464
0.061418313
33.471276
0.18413716
30.069337
26.767036
0.31400209
-0.060877091
26.605567
0.22234701
0.067064494
29.941395
0.16185237
33.376488
0.22619022
35.437126
0.23905366
36.935802
0.23311961
37.917927
0.18823223
38.44635
0.14166327
38.878627
39.371083
-0.12137906
26.431338
0.29560796
0.0062354034
29.813781
0.097669695
33.285054
0.17357698
35.361219
0.20351839
36.905861
0.23363121
37.887815
0.20645199
38.473529
0.14566448
38.939415
39.516748
-0.010918196
26.234255
0.20800134
0.11945736
29.683405
0.19312161
33.21139
0.23274814
35.321593
0.23217908
36.90643
0.21228062
37.907713
0.16110641
38.524703
0.12481114
38.97571
39.641559
-0.081834951
26.022713
0.29337636
0.037402729
29.564168
0.10778497
33.141008
0.15678951
35.272588
0.16134556
36.901874
0.18302818
37.88603
0.16178
38.545951
0.11740072
39.020089
39.75896
0.018503071
25.792266
0.21194447
0.13802056
29.44465
0.18210342
33.096925
0.19535182
35.25934
0.1825619
36.914663
0.15539996
37.913192
0.10886908
38.592482
0.089277762
39.039681
39.848238
-0.070281464
25.563864
0.29868289
0.032919549
29.341449
0.071232591
33.058612
0.096881354
35.233691
0.08203181
36.929513
0.097161526
37.898063
0.092475304
38.597169
0.069248681
39.062907
39.917486
0.017988397
25.334486
0.21139008
0.11614008
29.243297
0.12593453
33.048817
0.11118501
35.24844
0.079036199
36.961662
0.055281549
37.921817
0.025689992
38.62676
0.025301178
39.063296
39.942787
-0.090019516
25.129141
0.29536428
-0.014394591
29.167672
-0.017775429
33.052198
-0.016740275
35.247405
-0.044556764
36.989478
-0.032011289
37.909272
-0.013741704
38.608491
-0.0091620922
39.058716
39.933625
-0.017638539
24.945235
0.2015448
0.048226147
29.101808
0.012387557
33.088037
-0.02709083
35.286884
-0.076101489
37.038489
-0.091756675
37.924927
-0.095267399
38.612001
-0.062597615
39.026047
39.871028
0.24029902
39.630729
0.42205102
38.844295
0.57968851
38.454364
0.68200826
37.822607
0.70618857
37.014309
0.67251471
35.320557
0.58785503
33.172696
0.48598945
29.203673
24.949563
0.48166088
0.31023828
39.32049
0.5330323
38.621501
0.68119021
38.306206
0.77507186
37.728726
0.78159998
37.007781
0.70778103
35.394376
0.57736808
33.303109
0.43415752
29.346884
25.016932
0.36678908
0.36138175
38.959109
0.61827091
38.364611
0.82970949
38.094767
0.97408619
37.584349
1.0227481
36.959119
0.97417645
35.442948
0.85451361
33.422772
0.69490301
29.506494
25.181803
0.53003208
0.43530127
38.523807
0.73574326
38.064169
0.95833669
37.872174
1.1041551
37.43853
1.1398189
36.923455
1.0631531
35.519614
0.90826295
33.577662
0.70563607
29.709121
25.438417
0.44902127
0.49075954
38.033048
0.83636049
37.718568
1.1157764
37.592758
1.3209411
37.233366
1.4134087
36.830987
1.3663154
35.566707
1.2259588
33.718019
1.0309351
29.904145
25.871264
0.5980884
0.55783642
37.475211
0.9551526
37.321252
1.2530155
37.294895
1.4682086
37.018173
1.5640459
36.73515
1.5040102
35.626743
1.3345025
33.887527
1.1587077
30.07994
26.52214
0.50783159
0.61608833
36.859123
1.0619326
36.875408
1.4248262
36.932002
1.6969811
36.746018
1.8628614
36.56927
1.8461277
35.643476
1.6723381
34.061316
1.5798496
30.172428
27.348013
0.75397638
0.67462469
36.184498
1.1724104
36.377622
1.5509845
36.553427
1.8401264
36.456876
2.0338403
36.375556
2.0472893
35.630027
1.7790105
34.329595
1.763822
30.187617
28.205935
0.90590015
0.74708755
35.437411
1.2849291
35.839781
1.7413179
36.097039
2.1123637
36.08583
2.4195294
36.06839
2.5496336
35.499923
2.248171
34.631058
2.3163265
30.119461
28.735971
1.7862911
-0.98136956
36.41878
-2.2571886
37.1156
-3.6370289
37.476879
-5.1819366
37.630738
-6.6931094
37.579563
-8.2099616
37.016775
-9.5857171
36.006813
-9.9876386
30.521383
28.574308
-9.8259756
-0.92773696
37.346517
-2.1990456
38.386908
-3.5657726
38.843606
-5.1338558
39.198821
-6.7087745
39.154482
-8.3170235
38.625024
-9.7632693
37.453059
-9.8165987
30.574712
26.504435
-7.7467258
-0.85385099
38.200368
-2.1122974
39.645355
-3.4908681
40.222177
-5.1371337
40.845086
-6.7781637
40.795512
-8.420054
40.266915
-9.8733435
38.906349
-9.3195009
30.02087
19.867845
-2.6829109
-0.80060762
39.000976
-2.0401678
40.884915
-3.4033598
41.585369
-5.0576511
42.499378
-6.7787293
42.51659
-8.5103541
41.99854
-9.8949295
40.290924
-8.8169608
28.942901
11.797635
-0.74675092
-0.71626694
39.717243
-1.9282009
42.096849
-3.2863723
42.94354
-5.0238445
44.23685
-6.8463401
44.339086
-8.5970829
43.749282
-9.9249476
41.618789
-7.9254418
26.943395
4.1206883
-0.24849496
-0.65968094
40.376924
-1.8357699
43.272938
-3.1906417
44.298412
-4.9296084
45.975817
-6.798952
46.208429
-8.6833719
45.633702
-9.7331603
42.668577
-5.5360428
22.746278
-1.742702
0.32734741
-0.5710888
40.948013
-1.7168913
44.418741
-3.0637101
45.64523
-4.8730685
47.785175
-6.8400519
48.175413
-8.6883156
47.481966
-9.1266614
43.106923
-3.9997452
17.619362
-6.4209974
0.67855016
-0.51708869
41.465101
-1.6071229
45.508775
-2.9421233
46.980231
-4.7548441
49.597896
-6.766467
50.187036
-8.6162165
49.331715
-8.4797642
42.970471
-3.2307604
12.370358
-10.272136
0.62037772
-0.43248752
41.897589
-1.4854962
46.561784
-2.8056292
48.300364
-4.6735022
51.465769
-6.7502542
52.263788
-8.4714518
51.052913
-7.6663777
42.165396
-2.3616725
7.0656526
-13.515768
0.88196025
1.1270362
-15.211099
0.56829463
4.1916721
4.0010167
4.7353861
41.621682
3.5419907
52.246308
2.1749854
53.630793
1.0270589
52.613695
0.30200705
49.025416
-0.10227994
46.966071
41.795309
0.84985655
-16.75021
0.6892548
3.8900613
0.96081202
4.6202304
40.891513
3.4223419
53.444197
2.0269429
55.026192
0.86985771
53.77078
0.17732002
49.717953
-0.17706247
47.320453
41.618247
0.59605455
-18.107404
0.76113897
3.5668175
-2.0099509
4.5356289
39.922702
3.3151774
54.664648
1.9009627
56.440407
0.75655762
54.915185
0.079130923
50.39538
-0.20785352
47.607437
41.410393
0.33507009
-19.253702
0.81122811
3.2326
-4.9074807
4.3824931
38.772809
3.1799132
55.867228
1.7459321
57.874388
0.59886401
56.062253
-0.039551284
51.033795
-0.27517609
47.843062
41.135217
0.12532203
-20.220589
0.84156462
2.94222
-7.7243787
4.2745051
37.440524
3.0660775
57.075656
1.6024822
59.337983
0.47979108
57.184944
-0.11670593
51.630292
-0.29893524
48.025292
40.836282
-0.022815959
-21.022029
0.82425596
2.6948703
-10.442065
4.0972976
36.038096
2.918248
58.254706
1.4652207
60.791011
0.33543982
58.314725
-0.23688509
52.202617
-0.3666114
48.155018
40.46967
-0.047432865
-21.703301
0.72870477
2.5817435
-13.071241
3.9753178
34.644522
2.7946473
59.435376
1.3015935
62.284065
0.21691557
59.399403
-0.29710475
52.716638
-0.38537933
48.243293
40.084291
0.0039246201
-22.577128
0.86990249
2.5736373
-15.640954
3.7792585
33.438901
2.6125466
60.602088
1.1595565
63.737055
0.06948753
60.489472
-0.41965937
53.205785
-0.44513905
48.268772
39.639152
0.06596335
-22.892815
0.24972391
2.488881
-18.063872
3.6633497
32.264432
2.5080931
61.757345
0.99714074
65.248007
-0.034588644
61.521202
-0.46458165
53.635778
-0.466428
48.270619
39.172724
3.4892972
-25.883397
-0.49871532
3.5158117
-18.090386
0.27526752
35.504976
-3.0264245
65.059037
-4.6646545
66.886237
-5.0847237
61.941271
-4.1812556
52.732309
-2.4730979
46.562461
36.699626
3.8975178
-29.909198
0.12828348
3.1173166
-17.310185
-0.78752647
39.409819
-4.2756622
68.547173
-5.8949152
68.50549
-5.5526056
61.598961
-4.1383859
51.31809
-2.373145
44.79722
34.326481
4.0070099
-33.497711
-0.41849726
2.5236532
-15.826828
-2.0619723
43.995445
-5.0674824
71.552683
-6.2103609
69.648369
-5.7888045
61.177405
-4.4153574
49.944643
-2.6421579
43.02402
31.684323
4.0254923
-35.410667
-2.1125362
2.0827929
-13.884129
-2.9016293
48.979867
-6.0928372
74.743891
-7.1592213
70.714753
-6.2065637
60.224747
-4.4429462
48.181025
-2.1866569
40.767731
29.497666
3.9089579
-36.10072
-3.2189047
1.4029307
-11.378102
-4.0250491
54.407847
-6.6831335
77.401975
-7.0935967
71.125216
-5.9472596
59.07841
-4.2166645
46.45043
-1.7628292
38.313896
27.734837
3.9026368
-36.174981
-3.8283757
1.1298253
-8.6052901
-4.7333943
60.271066
-7.3405433
80.009124
-7.7883375
71.57301
-6.1139309
57.404003
-3.8567989
44.193298
-1.0409178
35.498015
26.693919
3.5306259
-35.646964
-4.0586433
0.20255329
-5.2772174
-5.8336755
66.307295
-7.8173973
81.992846
-7.514496
71.270109
-5.5439099
55.433417
-3.6671935
42.316582
-0.73162868
32.56245
25.962291
3.5871001
-35.098363
-4.1357012
0.081255802
-1.7713731
-6.376633
72.765184
-8.2202704
83.836484
-8.0427298
71.092568
-5.90894
53.299628
-3.5384277
39.946069
-0.096025845
29.120048
25.866265
3.0334945
-3.9571583
-34.174699
-1.1517497
2.4138711
-7.7515111
79.364945
-8.7170358
84.802009
-7.6145488
69.990081
-4.8677197
50.552798
-2.0901112
37.168461
0.85424785
26.175689
26.720513
-1.3191378
37.805531
0.54116484
-37.027558
-0.25951187
48.251318
-49.310944
2.7311098
-7.8396276
4.8490059
4.9888544
-44.996828
42.739083
6.1019129
-59.621727
58.508668
6.2174244
-60.061208
59.945696
6.795222
-47.803344
47.225547
8.0743507
-3.7039494
2.4248207
21.524853
-22.60276
-1.1866993
38.474565
0.51766561
-0.0046174632
47.069236
3.0485015
-10.892747
5.3798846
-47.328211
6.4682388
-60.710081
6.5284081
-60.121377
6.7867709
-48.061707
7.6427305
-4.559909
20.540331
-1.039529
39.021009
0.49308528
0.29883452
45.730873
3.4309338
-14.024846
5.7970956
-49.694373
6.8211206
-61.734106
6.8349648
-60.135221
6.843779
-48.070521
7.4121937
-5.1283237
19.548131
-0.92232737
39.471746
0.47158982
0.61599312
44.192552
3.8300012
-17.238854
6.1962367
-52.060608
7.1488581
-62.686727
7.1116391
-60.098002
6.9441003
-47.902983
7.3744599
-5.5586833
18.441535
-0.82470603
39.847945
0.4485073
0.89605936
42.471787
4.2523253
-20.59512
6.6673646
-54.475648
7.5460528
-63.565415
7.4380244
-59.989974
7.1932887
-47.658247
7.5076666
-5.8730612
17.235589
-0.74447646
40.161008
0.43141429
1.1528733
40.574437
4.6624585
-24.104705
7.110096
-56.923285
7.9586539
-64.413973
7.8232882
-59.854608
7.5376063
-47.372565
7.7365064
-6.0719613
15.836958
-0.66781915
40.414669
0.41415827
1.4033483
38.50327
5.0789165
-27.780273
7.5381293
-59.382498
8.3822819
-65.258126
8.1812289
-59.653555
7.8333867
-47.024723
7.9679468
-6.2065214
14.130508
-0.58412761
40.596789
0.40200681
1.6727971
36.246345
5.5058179
-31.613294
7.9894674
-61.866147
8.8936292
-66.162287
8.6064937
-59.36642
7.9921077
-46.410337
8.128056
-6.3424697
12.056795
-0.48211361
0.39131493
40.687588
1.97122
33.793011
5.9278359
-35.56991
8.4259228
-64.364234
9.4812781
-67.217643
9.0964947
-58.981637
8.0962342
-45.410077
8.4057917
-6.6520273
9.5384995
-6.1184614
-22.110212
0.62353986
27.605134
-8.0789739
-63.265719
65.226232
-1.44888
-43.271796
36.641702
5.5943978
1.3551357
-8.3984131
8.0441313
6.6376606
-9.0873943
5.4926653
-25.400071
27.951537
0.22238001
-54.759626
60.029911
-1.5174357
-63.410254
65.15007
-61.553992
60.036556
-5.241272
-16.719061
-0.14987824
-7.9572112
-60.54978
-2.8388378
-48.390169
4.7875237
-6.2712258
8.5447688
2.8804155
6.9742597
-23.829562
2.1615404
-49.946907
-0.77057213
-60.478141
-62.324564
-5.012766
-10.636673
-1.069623
-7.9985522
-57.563994
-3.9333724
-52.455349
3.3295001
-13.534098
8.1429825
-1.933067
7.2738005
-22.96038
2.9845965
-45.657703
-0.055944549
-57.4376
-62.380508
-4.1956458
-5.0515898
-1.3894369
-7.9012314
-53.858408
-5.1643536
-55.192227
2.4701313
-21.168583
7.9822414
-7.4451771
7.9332492
-22.911388
4.260752
-41.985205
0.59166269
-53.768511
-61.788846
-3.8427602
0.11997016
-1.3287995
-7.5717449
-50.129423
-5.4496225
-57.314349
1.9310276
-28.549233
7.7237261
-13.237876
7.6991822
-22.886844
4.7576729
-39.043696
1.4648883
-50.475726
-60.323957
-3.0954436
4.4286196
-1.2132056
-7.1056938
-46.119173
-6.0215677
-58.398475
0.82432674
-35.395128
6.9388326
-19.352381
7.7039978
-23.652009
5.3889601
-36.728658
1.9324823
-47.019248
-58.391475
-2.745002
8.1488712
-0.9752489
-6.885527
-41.978648
-6.724996
-58.559006
-1.0628906
-41.057233
5.0772414
-25.492513
6.5572634
-25.132031
5.3124019
-35.483797
2.5617755
-44.268622
-55.829699
-1.8849803
11.37744
-1.3435878
-6.1858884
-37.67774
-6.6249777
-58.119916
-2.3169177
-45.365293
3.1947075
-31.004138
5.7998604
-27.737184
5.1519053
-34.835842
2.6801861
-41.796903
-53.149513
-0.95867645
13.858883
-1.5227656
-5.3999742
-33.236442
-6.276385
-57.243505
-3.0761637
-48.565514
1.4940471
-35.574349
4.1416328
-30.38477
4.4828132
-35.177022
2.9344611
-40.248551
-50.215052
-0.98192987
38.955281
-37.973351
-1.3386895
35.521896
-35.165137
-1.4318485
34.821727
-34.728568
-1.2289144
34.696862
-34.899796
-1.3575473
39.414398
-39.285765
-2.0373757
46.634974
-45.955146
-2.8943915
52.330417
-51.473401
-1.3559187
41.576797
-43.11527
-5.1263357
3.0533453
0.7170718
-1.1210955
40.076376
-1.4826285
35.883429
-1.5333773
34.872476
-1.2782557
34.44174
-1.2738384
39.409981
-1.8245948
47.185731
-2.6362429
53.142065
-1.2146644
40.155219
-7.0030611
0.66206097
-1.1897676
41.266144
-1.5970846
36.290746
-1.6468956
34.922287
-1.2780668
34.072912
-1.1841278
39.316042
-1.6932297
47.694833
-2.4584478
53.907283
-1.0187537
38.715525
-8.864174
0.84235916
-1.3151864
42.58133
-1.7669648
36.742525
-1.7800892
34.935412
-1.3717419
33.664564
-1.1295494
39.07385
-1.4939674
48.059251
-2.2011751
54.614491
-0.93380741
37.448157
-10.529115
0.73113399
-1.3582454
43.939575
-1.9009055
37.285185
-1.9272097
34.961716
-1.3976558
33.13501
-1.0271825
38.703376
-1.3610739
48.393142
-2.0167482
55.270165
-0.88470974
36.316119
-11.953046
0.53922108
-1.4792682
45.418844
-2.0751602
37.881077
-2.086289
34.972845
-1.5304034
32.579125
-1.0003109
38.173284
-1.17131
48.564141
-1.7431781
55.842034
-0.81178005
35.384721
-12.813373
0.048546812
-1.5259695
46.944813
-2.2194367
38.574544
-2.2672483
35.020656
-1.5823866
31.894263
-0.8940016
37.484899
-1.0353509
48.705491
-1.5787482
56.385432
-0.7320224
34.537995
-13.086714
-0.4586809
-1.6288614
48.573675
-2.3956715
39.341354
-2.447012
35.071997
-1.7539006
31.201152
-0.89581407
36.626812
-0.85319644
48.662873
-1.3117977
56.844033
-0.63494742
33.861145
-13.376328
-0.34533252
-1.6413778
-2.5485745
-2.6535998
-1.8372178
-0.78475466
-0.68739591
-1.0868677
-0.46216511
0.020389298
3.3226498
-1.3355716
1.0662672
6.5158988
-46.308519
5.139424
-50.096926
3.6949531
-44.510675
2.920531
-38.511343
2.5940209
-34.573286
2.0888289
-34.223376
1.3802303
-34.456538
-36.59312
6.2729367
-7.6447607
0.036252418
7.1215711
-47.157154
5.4103012
-48.385656
3.7986373
-42.899011
2.9426888
-37.655395
2.5501781
-34.180775
1.9795472
-33.652745
1.2565562
-33.733547
-35.336564
7.7402134
-15.244766
-0.14020802
7.3674558
-46.784396
5.5534513
-46.571651
3.9208354
-41.266395
3.018637
-36.753196
2.4998503
-33.661989
1.9076278
-33.060523
1.2058831
-33.031802
-34.130681
8.3215632
-23.577634
0.011304894
7.5969
-46.059733
5.7111781
-44.685929
4.0232289
-39.578446
3.0554569
-35.785424
2.4838006
-33.090332
1.8366224
-32.413345
1.0886518
-32.283832
-33.042029
9.0628789
-32.645895
0.0053816967
7.7588945
-44.755748
5.7745689
-42.701604
4.136929
-37.940806
3.1284038
-34.776899
2.4564929
-32.418421
1.7882757
-31.745128
1.0433144
-31.53887
-31.998715
9.6020645
-41.400808
-0.84715127
7.9851895
-43.138873
5.859415
-40.575829
4.2164687
-36.29786
3.1772323
-33.737663
2.4639822
-31.705171
1.7533957
-31.034541
0.97440665
-30.759881
-31.024308
10.116462
-45.008316
-6.5089538
8.0082085
-41.03062
5.8493157
-38.416937
4.2942228
-34.742767
3.2479492
-32.691389
2.4619022
-30.919124
1.7212665
-30.293905
0.9482268
-29.986842
-30.076081
10.345597
-43.475374
-11.87854
7.8679915
-38.553014
5.8621299
-36.411075
4.3536235
-33.23426
3.2986976
-31.636463
2.4805299
-30.100957
1.6988868
-29.512262
0.89171883
-29.179674
-29.184362
10.199723
-40.644643
-13.030454
7.6948743
-36.048165
5.837589
-34.55379
4.4174085
-31.81408
3.352899
-30.571954
2.4809913
-29.229049
1.6784345
-28.709705
0.88244568
-28.383685
-28.301917
0.52631348
33.015357
-33.54167
1.0097257
33.086261
-33.569673
1.4611935
33.503179
-33.954646
1.8765375
34.082261
-34.497605
2.1796916
34.954138
-35.257292
2.333128
35.810999
-35.964436
2.059386
36.267319
-35.993577
1.3877443
34.765519
-34.093878
28.730868
-27.776082
0.43295806
0.55518283
32.460174
1.0653836
32.57606
1.5576074
33.010955
2.0168177
33.623051
2.3560021
34.614953
2.5731424
35.593859
2.3083986
36.532062
1.6101575
35.46376
29.703938
0.63708726
0.58089866
31.879275
1.1170759
32.039883
1.6414936
32.486537
2.1497646
33.11478
2.569421
34.195297
2.8749049
35.288375
2.7536059
36.653361
2.0370928
36.180274
31.16706
0.5739716
0.59881364
31.280462
1.1596835
31.479013
1.7226797
31.923541
2.2650318
32.572428
2.7101783
33.75015
3.0956013
34.902952
3.0700966
36.678866
2.4991411
36.751229
32.932443
0.73375767
0.61011732
30.670344
1.1925346
30.896596
1.785339
31.330736
2.3844402
31.973327
2.915167
33.219424
3.394435
34.423684
3.55244
36.520861
3.0856292
37.21804
34.930245
1.0878276
0.61264975
30.057695
1.217832
30.291413
1.8403518
30.708217
2.4619404
31.351738
3.0227872
32.658577
3.5873273
33.859144
3.8691021
36.239086
3.6578555
37.429287
36.935499
1.6526008
0.60614161
29.451553
1.2253529
29.672202
1.87391
30.059659
2.5520114
30.673637
3.1994574
32.011131
3.8199406
33.238661
4.2445192
35.814508
4.3098346
37.363971
38.473503
2.7718313
0.58541262
28.86614
1.2275263
29.030089
1.8938938
29.393292
2.5856981
29.981832
3.2669025
31.329926
3.9512715
32.554292
4.4640332
35.301746
4.8715032
36.956501
39.706929
3.638077
0.56422373
1.2106274
1.8942139
2.6469974
3.40497
4.1451818
4.8931385
5.8014743
4.8637597
-0.67686446
-27.483574
0.38435679
-1.1034071
-33.667335
-1.4147175
-35.682266
-1.4025771
-35.976576
-1.2722032
-35.387666
-1.0154477
-34.75436
-0.71363005
-34.256464
-0.37709332
-33.90621
-33.918764
-0.61701752
-27.15489
0.28833315
-1.0012464
-33.283106
-1.2716995
-35.411813
-1.277514
-35.970762
-1.1597259
-35.505454
-0.93199475