/*--------------------------------*- C++ -*----------------------------------*\
  =========                 |
  \\      /  F ield         | OpenFOAM: The Open Source CFD Toolbox
   \\    /   O peration     | Website:  https://openfoam.org
    \\  /    A nd           | Version:  11
     \\/     M anipulation  |
\*---------------------------------------------------------------------------*/
FoamFile
{
    format      ascii;
    class       volVectorField;
    location    "8";
    object      U;
}
// * * * * * * * * * * * * * * * * * * * * * * * * * * * * * * * * * * * * * //

dimensions      [0 1 -1 0 0 0 0];

internalField   nonuniform List<vector> 
5472
(
(10.380102 2.6488636 1.7007795e-18)
(10.58693 2.650378 -1.7710028e-18)
(10.782589 2.6273874 -1.7912861e-18)
(10.988266 2.5866643 -1.8252857e-18)
(11.152806 2.5361299 5.6664122e-18)
(11.366637 2.4710458 -3.2924225e-20)
(11.537423 2.3939431 -2.9983604e-18)
(11.73837 2.276669 1.0453997e-18)
(11.896828 2.1980794 0)
(12.047511 2.0418221 0)
(12.236211 1.9415696 0)
(12.320071 1.76703 -3.2915863e-18)
(12.504829 1.6439659 1.6915846e-18)
(12.585036 1.4448737 -2.1347188e-20)
(12.693095 1.3070289 1.1471329e-18)
(12.810764 1.0831942 -5.8998015e-19)
(12.828315 0.93361191 -8.8610788e-19)
(12.961106 0.71452146 3.0370824e-19)
(12.942625 0.55214666 0)
(10.362063 2.443683 -1.5555386e-18)
(10.538224 2.441863 3.2118669e-18)
(10.730338 2.4097263 -1.6584536e-18)
(10.875603 2.4002158 -1.6718142e-18)
(11.082999 2.3413892 2.273824e-20)
(11.267624 2.2905148 0)
(11.45057 2.2121747 1.7992175e-18)
(11.636398 2.1250722 -3.6769891e-18)
(11.764018 2.0427237 4.744357e-18)
(11.984687 1.9024015 9.7171665e-19)
(12.072153 1.8139506 0)
(12.248846 1.6445262 2.0237542e-18)
(12.358277 1.5295429 0)
(12.468217 1.3634844 5.1413366e-19)
(12.588049 1.1961603 -5.3011873e-19)
(12.671556 1.043157 0)
(12.742797 0.86142449 0)
(12.832827 0.70268295 -2.6790959e-19)
(12.837964 0.52439615 0)
(10.337843 2.2544831 0)
(10.530287 2.2650112 1.4622916e-18)
(10.653547 2.2734669 1.499428e-18)
(10.881138 2.2519907 0)
(11.035232 2.224493 -1.8291477e-20)
(11.22952 2.1832784 -2.453152e-20)
(11.379888 2.1239401 -1.6559502e-18)
(11.525162 2.0617834 0)
(11.718893 1.9573743 -1.706756e-18)
(11.846953 1.867753 -4.3701079e-18)
(11.973068 1.7666114 1.1448232e-20)
(12.150773 1.6114389 -8.9150503e-19)
(12.228918 1.516633 -9.1899543e-19)
(12.396373 1.32718 1.8854609e-18)
(12.47057 1.2166849 1.4238044e-18)
(12.579829 1.0189995 4.8116882e-19)
(12.652666 0.88365569 2.4103759e-19)
(12.722637 0.69965347 -3.64394e-19)
(12.776409 0.52934058 1.2157266e-19)
(10.336609 2.0756262 0)
(10.486805 2.1074226 -1.3198371e-18)
(10.649942 2.0936966 -1.3519043e-18)
(10.818897 2.092048 2.7602298e-18)
(10.965135 2.0510701 -1.4495595e-18)
(11.111514 2.0201955 0)
(11.249289 1.974737 -1.4964346e-18)
(11.447664 1.8952167 1.5105988e-18)
(11.580274 1.8367074 -1.5659625e-18)
(11.719023 1.742807 -1.8452662e-20)
(11.891088 1.640129 -1.624782e-18)
(12.010855 1.5191947 0)
(12.152541 1.4022807 0)
(12.27269 1.2519686 -8.3994872e-19)
(12.364805 1.1252626 -8.4851533e-19)
(12.489823 0.95203082 0)
(12.544254 0.81291886 -2.1667074e-19)
(12.636085 0.61981059 1.0962447e-19)
(12.670864 0.48554151 2.1874616e-19)
(10.318792 1.915404 0)
(10.488759 1.9560265 0)
(10.607941 1.967836 0)
(10.769712 1.9473827 -2.5000778e-18)
(10.872858 1.9472109 1.3010177e-18)
(11.054966 1.9207334 -3.9426504e-18)
(11.219658 1.8657406 5.3947096e-18)
(11.368014 1.8378101 -2.7537381e-18)
(11.506889 1.7622195 2.5495673e-21)
(11.67798 1.669708 1.423302e-18)
(11.813508 1.5904471 1.4484698e-18)
(11.938852 1.4737098 -2.9608228e-18)
(12.079967 1.3682212 2.2575688e-18)
(12.177397 1.2259964 -7.6413405e-19)
(12.311489 1.1072799 0)
(12.375119 0.95432647 7.7870696e-19)
(12.467247 0.80523226 -3.9186032e-19)
(12.524266 0.64505603 1.9527226e-19)
(12.573722 0.4903359 -1.9450372e-19)
(10.334088 1.7772908 0)
(10.45535 1.7846951 -4.3141266e-18)
(10.553456 1.7938893 2.2282925e-18)
(10.695225 1.8083567 2.2772725e-18)
(10.822197 1.7854629 1.1595434e-18)
(10.998786 1.7721805 -1.1800631e-18)
(11.092486 1.7540522 2.4486832e-18)
(11.275843 1.6982353 1.2341202e-18)
(11.405006 1.6330875 2.5156234e-18)
(11.565157 1.5804418 -2.5795755e-18)
(11.67116 1.4892927 1.5377949e-20)
(11.822929 1.3845913 2.6626382e-18)
(11.933409 1.2755905 0)
(12.05824 1.1478904 -6.8607302e-19)
(12.154179 1.0345105 6.865368e-19)
(12.242061 0.87508669 -1.7324635e-18)
(12.329932 0.74698882 6.9702831e-19)
(12.380892 0.57443124 -1.7482215e-19)
(12.453236 0.42776625 3.4294784e-22)
(10.302339 1.6264317 3.815785e-18)
(10.418494 1.6452209 3.8952211e-18)
(10.540635 1.6673348 0)
(10.683248 1.6657841 -6.0108452e-21)
(10.786494 1.6815168 -4.1919507e-18)
(10.933685 1.6612725 4.3068916e-18)
(11.051566 1.6325114 0)
(11.236693 1.5978995 -1.121775e-18)
(11.332021 1.5663038 -4.5411452e-18)
(11.510089 1.4927093 2.3318362e-18)
(11.605673 1.4119622 1.1709837e-18)
(11.762311 1.336048 -1.2013717e-18)
(11.850329 1.2203549 0)
(11.986728 1.119206 6.0780476e-19)
(12.066846 0.9898157 0)
(12.175298 0.86992325 -6.1918055e-19)
(12.240208 0.72249693 9.372482e-19)
(12.32158 0.57486384 8.4266504e-22)
(12.373235 0.43156531 -8.3022657e-22)
(10.310008 1.4874937 1.7093627e-18)
(10.412318 1.4948719 -3.5040679e-18)
(10.504524 1.5335449 -3.5769047e-18)
(10.604443 1.5400393 3.6864645e-18)
(10.718721 1.5477849 -1.8935671e-18)
(10.851546 1.5379525 -1.9210915e-18)
(10.971715 1.5211349 0)
(11.116682 1.4913153 2.9950557e-18)
(11.220037 1.4477049 -1.2422998e-20)
(11.375774 1.3901679 -3.1109412e-18)
(11.460359 1.3419974 3.1818623e-18)
(11.621464 1.2463767 0)
(11.701605 1.1572873 0)
(11.857444 1.0428413 1.0885313e-18)
(11.919088 0.93299933 -5.5779693e-19)
(12.055851 0.80494179 -1.1093806e-18)
(12.099219 0.66109897 2.807973e-19)
(12.198512 0.52637571 2.8258726e-19)
(12.22073 0.36575075 6.9185683e-20)
(10.292387 1.3504595 -1.5340101e-18)
(10.380096 1.3809202 4.7062145e-18)
(10.491367 1.4030049 -4.8506728e-18)
(10.603542 1.4079702 3.3024794e-18)
(10.706475 1.42435 0)
(10.824694 1.4132163 1.7193454e-18)
(10.938149 1.4154995 -1.772634e-18)
(11.067743 1.381132 0)
(11.176963 1.3625916 9.0833855e-19)
(11.311149 1.3077579 -1.8771803e-18)
(11.413887 1.251725 -9.3938436e-19)
(11.563634 1.1726872 -8.7415803e-21)
(11.65542 1.0895551 -2.904131e-18)
(11.798913 0.98889046 4.985018e-19)
(11.852256 0.88525512 -4.8591802e-19)
(11.982846 0.76914888 9.918417e-19)
(12.005918 0.64726362 -4.9477685e-19)
(12.119312 0.50668657 2.52527e-19)
(12.126643 0.36262113 2.4805361e-19)
(10.301789 1.2191472 -2.7598788e-18)
(10.385685 1.2638699 0)
(10.46464 1.2868717 1.4427927e-18)
(10.54251 1.3032579 -4.4231228e-18)
(10.630895 1.3135911 1.5225245e-18)
(10.725513 1.3147055 -1.5487117e-18)
(10.829216 1.3165651 1.5697633e-18)
(10.942321 1.2981826 -1.614273e-18)
(11.057576 1.2714177 0)
(11.189572 1.2197467 8.2709936e-19)
(11.297436 1.1779564 0)
(11.430472 1.0942277 8.4862168e-19)
(11.525284 1.0310943 -1.7691094e-22)
(11.652326 0.92388552 -4.3191523e-19)
(11.727259 0.84005681 4.3507363e-19)
(11.848873 0.71199672 4.381292e-19)
(11.892254 0.6000081 -2.3805569e-21)
(11.997122 0.45460375 -6.62215e-19)
(12.004401 0.32500407 0)
(10.277586 1.0998223 0)
(10.350702 1.1527169 1.2610876e-18)
(10.428145 1.1573115 0)
(10.511844 1.1868039 1.3112807e-18)
(10.608798 1.1966245 -4.0556659e-18)
(10.712596 1.1993973 4.148254e-18)
(10.828176 1.1981591 -1.3921295e-18)
(10.934151 1.1772471 4.3157378e-18)
(11.04914 1.1675334 0)
(11.146344 1.1318824 7.4204346e-19)
(11.255139 1.0919412 0)
(11.361761 1.0291536 -1.5100632e-18)
(11.467458 0.96127259 3.0638785e-18)
(11.577537 0.86890939 -7.2688391e-21)
(11.664269 0.78310519 -3.8990517e-19)
(11.771044 0.66941691 0)
(11.826113 0.57298987 0)
(11.922473 0.42892811 0)
(11.938222 0.31810932 -4.8962621e-20)
(10.266235 1.0162999 4.3871853e-18)
(10.336423 1.0429792 -5.6402773e-18)
(10.397082 1.0591111 2.2985225e-18)
(10.472171 1.0895717 -7.1368567e-21)
(10.542286 1.0923334 0)
(10.629398 1.1142353 -2.4506132e-18)
(10.724418 1.1136708 1.2659913e-18)
(10.825219 1.1095154 -1.2725402e-18)
(10.9438 1.0893504 0)
(11.038045 1.056211 -6.5563841e-19)
(11.155768 1.0186802 1.3263819e-18)
(11.255431 0.95640992 -1.1887909e-20)
(11.361914 0.89618915 -1.3651391e-18)
(11.450531 0.8104938 -2.7327102e-18)
(11.550176 0.72574485 2.4113329e-18)
(11.624059 0.62274808 -1.3830404e-18)
(11.706071 0.51813042 8.6900924e-19)
(11.774387 0.39585342 1.7404093e-19)
(11.815754 0.28232518 4.2973794e-20)
(10.247991 0.90915951 -6.8525391e-18)
(10.331313 0.92850003 4.0234668e-18)
(10.389263 0.95907194 0)
(10.468901 0.98223594 -5.2351885e-18)
(10.537116 0.99264895 4.2998722e-18)
(10.624043 1.0019807 1.094791e-18)
(10.702416 0.99757285 3.3358297e-18)
(10.792154 0.99613738 -2.275049e-18)
(10.889936 0.98389273 -2.8698858e-18)
(10.97878 0.97427384 1.75903e-18)
(11.094401 0.93959045 2.3531926e-18)
(11.191212 0.89945982 -3.5864087e-18)
(11.302607 0.83574825 2.4080009e-18)
(11.394864 0.75686285 -6.1322321e-19)
(11.496943 0.67205666 3.0154658e-19)
(11.559546 0.57489333 -3.7532745e-21)
(11.646885 0.47237814 -7.6695687e-19)
(11.69188 0.36400198 -1.5259057e-19)
(11.746445 0.24641315 -3.8285829e-20)
(10.228172 0.82524679 2.6218344e-18)
(10.297759 0.83595207 3.5656475e-18)
(10.333873 0.87347131 -3.6605208e-18)
(10.40366 0.8852692 9.3339311e-19)
(10.471896 0.91466488 -2.8451577e-18)
(10.561576 0.92882678 2.9244199e-18)
(10.645429 0.93495668 9.8301361e-19)
(10.738561 0.92357668 -5.0240969e-18)
(10.827856 0.90644121 3.5657757e-18)
(10.923775 0.8872786 -1.5591479e-18)
(11.02052 0.85173306 0)
(11.113865 0.82525845 -5.2927503e-19)
(11.21123 0.77081897 -1.5940128e-18)
(11.29636 0.70566058 5.4502719e-19)
(11.390695 0.62891626 1.6178918e-18)
(11.451855 0.54274064 5.3831683e-19)
(11.536794 0.43982339 -1.081701e-18)
(11.579794 0.34493005 2.7218173e-19)
(11.638592 0.22707163 3.0326463e-19)
(10.244575 0.72463732 -3.8739773e-18)
(10.302595 0.75867909 3.1789357e-18)
(10.341803 0.78291809 0)
(10.409324 0.78421204 -8.2737715e-19)
(10.456517 0.80557163 3.369784e-18)
(10.528376 0.81417138 -6.8803041e-18)
(10.595718 0.83745256 8.9643875e-19)
(10.682938 0.83525682 3.5726496e-18)
(10.765839 0.83069618 2.7097968e-18)
(10.853413 0.81340573 -4.5761581e-19)
(10.93653 0.78704655 0)
(11.030391 0.75612487 2.3220467e-18)
(11.121304 0.70492382 -9.4628912e-19)
(11.213812 0.6433196 9.4427775e-19)
(11.296298 0.57193277 -1.4262046e-18)
(11.364772 0.48907578 -2.3858295e-19)
(11.435625 0.39420682 0)
(11.479882 0.30491393 0)
(11.530867 0.18712715 -2.9737034e-20)
(10.209216 0.6293366 6.7162003e-19)
(10.248808 0.67444274 -6.3446992e-18)
(10.30405 0.70448147 2.8696357e-18)
(10.369529 0.72820745 -3.6714295e-18)
(10.4217 0.74229179 -7.4678668e-19)
(10.498112 0.74429106 0)
(10.56102 0.75483987 -3.8573668e-18)
(10.639648 0.753166 2.3653245e-18)
(10.707849 0.75449025 -7.9728707e-19)
(10.792512 0.73921199 -1.4806369e-21)
(10.87878 0.71967136 0)
(10.968561 0.69087519 0)
(11.055088 0.65017646 -4.1247745e-19)
(11.143533 0.59371313 -4.1463348e-19)
(11.223469 0.53262743 2.0809629e-19)
(11.29945 0.45429547 1.2532799e-18)
(11.362799 0.36982433 -8.4017667e-19)
(11.417612 0.28366602 1.0503308e-19)
(11.45776 0.17260872 2.5979256e-20)
(10.221259 0.54070158 4.2642168e-18)
(10.246891 0.58342254 -4.3707243e-18)
(10.299904 0.59290322 0)
(10.328833 0.63194803 6.4828636e-19)
(10.39407 0.65010421 0)
(10.447351 0.67441216 6.7212758e-19)
(10.51795 0.67956434 6.8296179e-19)
(10.587259 0.67893797 0)
(10.655967 0.67559721 3.4987342e-18)
(10.736551 0.66008979 -2.4929497e-18)
(10.809938 0.64864552 1.7878095e-18)
(10.889822 0.62122658 -1.4499334e-18)
(10.970063 0.58563774 1.4501632e-18)
(11.0472 0.5324799 -9.146254e-21)
(11.123168 0.47578669 -1.4719782e-18)
(11.190311 0.40380885 -1.8328907e-19)
(11.249107 0.32781491 -1.844466e-19)
(11.305025 0.24561989 -9.1669029e-20)
(11.339436 0.14862479 0)
(10.173896 0.48144274 4.8664613e-18)
(10.211755 0.51274906 0)
(10.263083 0.52953602 0)
(10.295847 0.55871487 5.727142e-19)
(10.360978 0.57199267 0)
(10.402151 0.60198511 -5.9184718e-19)
(10.481401 0.60506908 -6.0068355e-19)
(10.531985 0.62289999 -2.4325407e-18)
(10.614633 0.60844438 2.4752634e-18)
(10.677691 0.61121103 0)
(10.761177 0.58991355 -2.8260483e-18)
(10.83966 0.56922479 2.2285207e-18)
(10.922264 0.5347305 1.273222e-18)
(10.996926 0.4852562 -2.5662288e-18)
(11.072974 0.43289993 2.5746013e-18)
(11.138734 0.36623502 -1.9363076e-18)
(11.196674 0.29690716 6.4595596e-19)
(11.246187 0.21777135 0)
(11.283371 0.12927579 0)
(10.148286 0.38973209 7.6442277e-18)
(10.191071 0.4202292 -3.901179e-18)
(10.220911 0.44557279 3.9643694e-18)
(10.268001 0.47401297 -4.5493721e-18)
(10.321232 0.48871939 -4.0994892e-18)
(10.377477 0.51107579 4.1775993e-18)
(10.440567 0.52139029 2.1109143e-18)
(10.495513 0.53272604 -9.187278e-21)
(10.569477 0.53170665 -2.1737411e-18)
(10.623585 0.53374987 0)
(10.707271 0.51831497 0)
(10.76768 0.50801779 2.7778045e-19)
(10.847191 0.47290387 0)
(10.911594 0.43687512 1.1211751e-18)
(10.980656 0.38181203 -1.1306858e-18)
(11.039026 0.32913621 -5.6337897e-19)
(11.093484 0.26351678 7.0716488e-19)
(11.139591 0.19184936 -3.5250225e-19)
(11.172863 0.11149115 2.8153064e-19)
(10.135216 0.33334946 0)
(10.173925 0.35901029 0)
(10.197772 0.38170255 3.4944934e-18)
(10.243284 0.40512439 -3.5611854e-18)
(10.275864 0.42854511 4.0595842e-18)
(10.334301 0.45446591 -4.1309003e-18)
(10.382008 0.46614162 0)
(10.451338 0.4742842 4.7069985e-19)
(10.514052 0.47333925 1.8979404e-18)
(10.581492 0.47347074 -1.9252014e-18)
(10.657998 0.46119717 1.9312815e-18)
(10.72315 0.45116272 -1.0393589e-20)
(10.802047 0.42190944 -3.9191311e-18)
(10.865907 0.3897659 1.9724559e-18)
(10.935846 0.33962674 0)
(10.990429 0.28935204 -9.8494157e-19)
(11.047861 0.22546496 1.5442894e-18)
(11.086278 0.16343623 -6.7909824e-19)
(11.12328 0.088860546 2.4604507e-19)
(10.107644 0.24712232 1.1531703e-17)
(10.140855 0.27820776 -6.0618586e-18)
(10.176802 0.30289446 0)
(10.215877 0.32906196 -3.9111247e-19)
(10.258569 0.3483947 -3.9673612e-19)
(10.310654 0.37130036 4.0217845e-19)
(10.35419 0.38642483 0)
(10.414233 0.39711768 -4.1200337e-19)
(10.46204 0.40535512 3.3261132e-18)
(10.531304 0.40342728 -3.3706374e-18)
(10.589527 0.40070725 0)
(10.661807 0.38822584 0)
(10.722254 0.36988174 2.1433209e-19)
(10.790613 0.34232128 1.0754751e-19)
(10.845026 0.3022813 -1.0780812e-19)
(10.903684 0.25774571 0)
(10.954272 0.20327688 -4.8404708e-19)
(10.992585 0.14558179 4.3155936e-19)
(11.029761 0.08483628 0)
(10.085154 0.18871122 -1.0481624e-17)
(10.106021 0.21242288 1.0993296e-17)
(10.135088 0.23991801 -9.1918476e-21)
(10.16776 0.26476365 -5.1574927e-18)
(10.212292 0.28905918 0)
(10.258952 0.31175185 2.8182073e-18)
(10.314606 0.32498792 -5.8908171e-18)
(10.371091 0.33651839 2.8922583e-18)
(10.428068 0.33923431 0)
(10.491238 0.34482334 -2.933964e-18)
(10.554513 0.3424254 2.9675246e-18)
(10.623212 0.33339805 1.4846589e-18)
(10.690193 0.31618824 -1.497807e-18)
(10.757416 0.28963971 1.307678e-18)
(10.809501 0.25459641 -1.4114428e-18)
(10.868687 0.20724741 0)
(10.904382 0.16046087 -4.7038661e-20)
(10.947042 0.10242024 -1.4035568e-19)
(10.966578 0.048729177 1.9886322e-19)
(10.065972 0.1262929 2.8810682e-19)
(10.089674 0.14777092 -5.8553084e-19)
(10.111588 0.17071348 4.7503021e-18)
(10.143188 0.19348037 2.9253754e-19)
(10.178689 0.21573967 -3.1646206e-19)
(10.22181 0.23986503 -4.9509367e-18)
(10.268801 0.25536745 1.5615363e-19)
(10.321572 0.26941985 2.679052e-18)
(10.377535 0.27689394 -2.552467e-18)
(10.436338 0.2780836 -1.6059709e-19)
(10.501864 0.28060183 0)
(10.559683 0.27692402 2.7550363e-18)
(10.629177 0.26916382 -2.7773989e-18)
(10.687472 0.2566419 -1.2229163e-18)
(10.750626 0.23032529 8.8218651e-20)
(10.805137 0.1998689 1.9663362e-18)
(10.846932 0.15643741 -6.1512003e-19)
(10.886802 0.11151027 -6.1230626e-20)
(10.906001 0.063037836 -1.0152802e-20)
(10.033159 0.07710826 0)
(10.056323 0.097359106 2.5694263e-19)
(10.079023 0.1157503 4.1665304e-18)
(10.114364 0.13626942 -4.6243281e-18)
(10.148597 0.1556893 4.4062606e-18)
(10.19416 0.17517138 -4.3312384e-18)
(10.239465 0.19134657 1.3670373e-19)
(10.291698 0.20501776 -1.3779106e-19)
(10.345963 0.21315845 2.08084e-18)
(10.406471 0.21523964 -2.1038712e-18)
(10.467917 0.21335204 2.1055498e-18)
(10.532425 0.20538984 -2.3368636e-18)
(10.595311 0.19309955 0)
(10.653284 0.17701771 1.1343145e-18)
(10.71246 0.15442505 -1.2831565e-18)
(10.759228 0.12738275 5.6805601e-19)
(10.804427 0.093728485 -5.3443719e-19)
(10.833285 0.056339114 -2.4809393e-19)
(10.852918 0.016345935 2.8775919e-19)
(10.03033 0.037515175 -5.1781861e-21)
(10.043793 0.047356909 -7.2132927e-18)
(10.057898 0.065261211 1.1418529e-19)
(10.080514 0.079994402 -8.0651067e-23)
(10.108401 0.098858508 1.1687678e-19)
(10.145552 0.11659499 0)
(10.190534 0.13074524 3.813905e-18)
(10.238979 0.14773978 -3.9776543e-18)
(10.291991 0.15626905 1.2117709e-19)
(10.351762 0.16822078 -1.8892449e-18)
(10.408372 0.17245274 3.9893423e-18)
(10.475295 0.17512797 -3.9435937e-18)
(10.537615 0.17271432 1.9816983e-18)
(10.602284 0.16607089 0)
(10.663233 0.15484727 -9.5724935e-19)
(10.714731 0.13585277 9.9228022e-19)
(10.762688 0.11207606 -1.5400147e-20)
(10.795328 0.082911416 2.8417452e-23)
(10.819365 0.049441302 -3.834939e-21)
(10.010721 0.017533883 6.2826257e-18)
(10.020218 0.024424924 -6.3118865e-18)
(10.036618 0.030379842 6.2963057e-18)
(10.056267 0.037479882 1.010337e-19)
(10.082919 0.046788299 0)
(10.118876 0.054576365 0)
(10.162032 0.061781338 -5.1922872e-20)
(10.212468 0.067240212 -3.2988354e-18)
(10.269767 0.070092908 3.4369913e-18)
(10.329903 0.072692778 3.364206e-18)
(10.394428 0.071612324 -1.6362969e-18)
(10.459831 0.068311337 -1.7955653e-18)
(10.522358 0.062867076 0)
(10.586513 0.054883737 2.6878966e-20)
(10.642852 0.046400952 2.6832091e-20)
(10.693567 0.035507342 8.4313792e-19)
(10.735487 0.023497315 -8.7246074e-19)
(10.764048 0.0070333559 1.9355265e-19)
(10.783074 -0.0097303054 -2.1341288e-19)
(10.006481 0.0038958255 -4.2301576e-20)
(10.011939 0.0069076011 5.4629287e-18)
(10.022187 0.011416822 -3.7147635e-21)
(10.037958 0.016957003 -5.215974e-21)
(10.060238 0.023020455 -5.6517978e-18)
(10.089967 0.029536378 0)
(10.127466 0.036099297 2.8271997e-18)
(10.172564 0.042524974 -2.8545966e-18)
(10.224516 0.04836126 -4.5449032e-20)
(10.282438 0.053148229 -2.283542e-20)
(10.345504 0.056876598 -2.2920771e-20)
(10.410588 0.059839369 2.2992932e-20)
(10.474981 0.062708544 0)
(10.538582 0.065159121 1.4567711e-18)
(10.599209 0.065043 -1.4910412e-18)
(10.654251 0.066274057 -7.3073362e-19)
(10.709035 0.058405704 7.4496174e-19)
(10.740956 0.051609083 3.7601281e-19)
(10.777982 0.040724808 -3.6988736e-19)
(13.041043 0.36274495 -1.4573595e-19)
(13.036282 0.19739207 -5.8402343e-19)
(13.071085 0.02460917 5.6827494e-19)
(13.089228 -0.11426339 0)
(13.057795 -0.29157159 -1.0696931e-18)
(13.05729 -0.42629129 -2.0650539e-18)
(13.034911 -0.55336398 0)
(13.010908 -0.70362607 -1.7504147e-20)
(12.98871 -0.81719316 3.5197512e-18)
(12.990961 -0.94246791 1.6729579e-18)
(12.915736 -1.0696743 -1.5646672e-18)
(12.935152 -1.1913183 2.9589624e-18)
(12.85555 -1.309271 -2.7630362e-18)
(12.872914 -1.440234 0)
(12.862169 -1.538194 1.2306163e-18)
(12.859539 -1.6868044 -1.1487798e-18)
(12.901138 -1.7900361 -2.1632814e-18)
(12.914255 -1.9511625 2.0301463e-18)
(12.966883 -2.0898331 -9.5303387e-19)
(12.934092 0.33556186 -1.2603013e-19)
(12.899243 0.16596057 7.539916e-19)
(12.973977 -0.031873495 -4.9391535e-19)
(12.928164 -0.17660358 0)
(12.959743 -0.36903156 -9.3771812e-19)
(12.914463 -0.49206253 2.6955194e-18)
(12.923014 -0.66240343 0)
(12.869727 -0.7786142 0)
(12.864632 -0.93493697 0)
(12.835848 -1.032951 0)
(12.819082 -1.1792379 2.7767773e-18)
(12.798085 -1.278464 -3.942126e-18)
(12.739174 -1.4136466 -3.7308568e-18)
(12.730717 -1.5371905 2.3299965e-18)
(12.692716 -1.646029 -2.2000833e-18)
(12.690825 -1.7910618 2.0785343e-18)
(12.693244 -1.9090895 -7.7740685e-21)
(12.691233 -2.0638345 -1.8317106e-18)
(12.693366 -2.2484625 1.7275192e-18)
(12.821488 0.3480349 0)
(12.843722 0.17192998 -4.378942e-19)
(12.867075 -0.0082044766 -8.598008e-19)
(12.845714 -0.17990005 -4.1694893e-21)
(12.853155 -0.34822464 -6.5946919e-21)
(12.813009 -0.51434975 1.5888403e-18)
(12.798205 -0.6531345 -3.0256576e-18)
(12.740435 -0.81390627 1.4395778e-18)
(12.725146 -0.94568185 1.2839948e-20)
(12.65712 -1.0816916 0)
(12.6654 -1.2104707 3.7304238e-18)
(12.600854 -1.3236672 6.2921253e-21)
(12.569072 -1.495264 2.2224937e-18)
(12.53281 -1.5848217 2.1079597e-18)
(12.503082 -1.7596947 2.9665468e-18)
(12.478093 -1.8652031 -3.7213388e-18)
(12.473161 -2.057196 1.6999658e-21)
(12.452833 -2.1749262 3.309339e-18)
(12.388634 -2.4221952 1.5569357e-18)
(12.732542 0.27160125 3.7968853e-19)
(12.74171 0.12094623 -7.5724578e-19)
(12.760891 -0.095530837 1.1163822e-18)
(12.747014 -0.23070686 0)
(12.729079 -0.43167119 2.1297602e-18)
(12.699887 -0.57119758 -3.4348081e-18)
(12.652363 -0.73547274 2.6529777e-18)
(12.621609 -0.87433217 -2.608514e-21)
(12.555139 -1.0240389 1.3120074e-20)
(12.533912 -1.1466523 -1.1672264e-18)
(12.47027 -1.2848066 0)
(12.449084 -1.4106523 -1.0429309e-18)
(12.369713 -1.5672998 1.0066152e-18)
(12.35209 -1.6747657 -1.8708151e-18)
(12.259782 -1.8507703 0)
(12.247537 -1.972788 0)
(12.173046 -2.1617728 -1.5789172e-18)
(12.146611 -2.3014701 0)
(12.030654 -2.5566379 1.4030801e-18)
(12.619689 0.29466742 3.2836773e-19)
(12.637131 0.14383958 -3.2634654e-19)
(12.659239 -0.08077685 3.4200905e-21)
(12.637738 -0.21576441 -6.3312067e-19)
(12.634991 -0.43357161 6.111597e-19)
(12.596295 -0.55662738 -1.4440353e-21)
(12.554975 -0.74725938 -1.1571414e-18)
(12.513417 -0.86903395 0)
(12.438304 -1.0336031 -2.1463222e-18)
(12.398646 -1.1486645 1.0214135e-18)
(12.312602 -1.3056661 0)
(12.279714 -1.4191742 0)
(12.17346 -1.5879434 -1.762753e-18)
(12.152631 -1.699176 -1.6858392e-18)
(12.031075 -1.8759393 1.5987474e-18)
(11.996989 -2.0032522 3.0211022e-18)
(11.865741 -2.1939912 1.441639e-18)
(11.823657 -2.3452247 -1.3464259e-18)
(11.642808 -2.5510531 -1.7562003e-20)
(12.489827 0.24815219 0)
(12.52574 0.063760421 2.8389433e-19)
(12.522071 -0.12797948 -1.396676e-18)
(12.529961 -0.29391723 5.4968626e-19)
(12.486059 -0.49055395 1.6128911e-18)
(12.469645 -0.62854997 -1.0543423e-18)
(12.38766 -0.80869068 -2.0391249e-18)
(12.372939 -0.92431803 1.9554081e-18)
(12.256381 -1.0854743 -9.5569719e-19)
(12.235666 -1.2163544 1.806156e-18)
(12.12251 -1.3492421 0)
(12.089154 -1.4870481 0)
(11.959464 -1.6289812 -1.5832869e-18)
(11.906432 -1.7572418 4.4987554e-18)
(11.767822 -1.9208696 -5.6924238e-18)
(11.681243 -2.0350084 2.7090278e-18)
(11.519951 -2.2305418 -5.1626097e-18)
(11.426014 -2.3279642 1.2300075e-18)
(11.204571 -2.5444087 2.3318905e-18)
(12.420584 0.24501933 6.1666231e-20)
(12.450711 0.07647409 2.461972e-19)
(12.448621 -0.12419276 -4.8293093e-19)
(12.440181 -0.30301583 0)
(12.397813 -0.47745421 -9.3840526e-19)
(12.37585 -0.64299577 2.7390368e-18)
(12.290928 -0.79539225 -1.7684369e-18)
(12.270477 -0.94083103 8.6350541e-19)
(12.135106 -1.0916842 -1.664898e-18)
(12.118773 -1.2273724 4.7917663e-18)
(11.966732 -1.3585542 -3.0533515e-18)
(11.926898 -1.501772 0)
(11.762517 -1.6294592 1.3950653e-18)
(11.703513 -1.7724338 2.6820837e-18)
(11.5066 -1.8918878 -3.8191909e-18)
(11.423588 -2.0350684 3.6665058e-18)
(11.186465 -2.1495665 -3.4955264e-18)
(11.073084 -2.2735091 -2.2331961e-18)
(10.804592 -2.4137231 -1.0679713e-18)
(12.302675 0.21786681 1.594548e-19)
(12.286871 0.018601643 2.1181674e-19)
(12.324291 -0.16796046 -4.1815791e-19)
(12.28283 -0.35412317 0)
(12.273422 -0.52586895 1.6222451e-18)
(12.198585 -0.69409738 -7.977269e-19)
(12.155697 -0.83397785 0)
(12.060431 -0.99235322 -1.5041473e-18)
(11.978906 -1.1187599 7.3103457e-19)
(11.896627 -1.2694208 0)
(11.763408 -1.3826384 -1.3577086e-18)
(11.689491 -1.5298892 1.3040679e-18)
(11.497061 -1.6388881 1.2506266e-18)
(11.421166 -1.7665942 -2.390024e-18)
(11.196552 -1.8665947 2.2773998e-18)
(11.089073 -1.9775094 -1.0864207e-18)
(10.829261 -2.053819 -1.0530025e-18)
(10.690093 -2.1609985 -1.0095536e-18)
(10.394256 -2.2086751 -9.6790929e-19)
(12.229146 0.20501413 3.668342e-19)
(12.205774 0.0045822607 -1.8202735e-19)
(12.266986 -0.168718 0)
(12.188001 -0.37081693 0)
(12.196083 -0.52422997 -1.408135e-18)
(12.076027 -0.7068419 1.381344e-18)
(12.0515 -0.83629574 0)
(11.91668 -1.0020921 6.545287e-19)
(11.867985 -1.1188255 -6.351225e-19)
(11.717641 -1.2745114 0)
(11.633321 -1.3694808 1.186363e-18)
(11.465897 -1.5201041 1.0314904e-20)
(11.331325 -1.5846604 1.0319707e-20)
(11.142062 -1.7282384 0)
(10.944494 -1.7653248 -4.089744e-18)
(10.788003 -1.8718294 3.9063995e-18)
(10.482237 -1.8916742 4.709667e-18)
(10.320554 -1.9625662 -6.3306402e-18)
(9.9864496 -1.940926 4.3262749e-18)
(12.100189 0.15946505 0)
(12.067878 -0.021184541 1.3747823e-21)
(12.137835 -0.20387401 0)
(12.053811 -0.40056339 0)
(12.070225 -0.55149941 6.0814117e-19)
(11.943565 -0.73175407 5.0410378e-21)
(11.912041 -0.85546268 -5.9022315e-19)
(11.760802 -1.0265482 -1.7271013e-18)
(11.694512 -1.1266643 2.2263672e-18)
(11.52203 -1.2853949 0)
(11.423532 -1.3526636 -1.0532078e-18)
(11.226242 -1.493379 -6.0935165e-18)
(11.099676 -1.5252243 2.9271525e-18)
(10.873948 -1.6523679 0)
(10.713797 -1.6306333 -3.6464846e-18)
(10.466606 -1.7275662 4.3712179e-18)
(10.257473 -1.6600684 -3.3830698e-18)
(10.045773 -1.7091425 4.05573e-18)
(9.7176734 -1.6014749 0)
(12.019618 0.13266441 -2.7372472e-19)
(11.997365 -0.028425507 1.3719889e-19)
(12.047737 -0.24390472 0)
(11.954016 -0.40388176 -1.0755847e-18)
(11.963373 -0.57627012 1.5881383e-18)
(11.816657 -0.7322027 -5.1920428e-19)
(11.781015 -0.86885242 -1.544325e-18)
(11.611463 -1.0174583 3.5065823e-18)
(11.537067 -1.1215979 -1.9464871e-18)
(11.333293 -1.2483917 0)
(11.220796 -1.3061459 9.1817424e-19)
(10.9873 -1.4247725 5.3729935e-18)
(10.849691 -1.4316756 -3.4494588e-18)
(10.594064 -1.5217189 0)
(10.429938 -1.4557882 0)
(10.149927 -1.5249743 -1.5604562e-18)
(9.9624157 -1.3876764 7.561673e-19)
(9.732937 -1.4111806 -2.1826965e-18)
(9.5013176 -1.2042703 0)
(11.878949 0.1147984 -2.3636888e-19)
(11.883489 -0.045158537 7.0776063e-19)
(11.908467 -0.26536675 -7.0291701e-19)
(11.834851 -0.40409072 0)
(11.820482 -0.6006223 1.3840436e-18)
(11.683573 -0.71772651 -1.8044237e-18)
(11.628482 -0.88079972 0)
(11.448055 -0.99434462 8.7557997e-19)
(11.367928 -1.1004401 8.56031e-19)
(11.155051 -1.189051 0)
(11.040083 -1.2529826 0)
(10.788798 -1.3165099 -7.8364011e-19)
(10.655646 -1.3123364 -2.298282e-18)
(10.390725 -1.3381351 -1.8276851e-20)
(10.254363 -1.2594188 2.1389082e-18)
(9.9605992 -1.2499694 1.3863373e-18)
(9.8086084 -1.0872055 -6.683525e-19)
(9.5356972 -1.0532164 1.2920895e-18)
(9.4024951 -0.77723005 0)
(11.778541 0.091795617 0)
(11.809634 -0.087567743 -8.1478993e-19)
(11.787252 -0.27737958 1.6174346e-18)
(11.7377 -0.42328343 -1.2037882e-18)
(11.682973 -0.61092886 0)
(11.568139 -0.71171785 0)
(11.478157 -0.88651395 0)
(11.28938 -0.95787053 -7.5667377e-19)
(11.190262 -1.07493 -7.4154414e-19)
(10.956631 -1.1211185 0)
(10.829965 -1.1709425 -7.1233231e-19)
(10.562276 -1.1885792 -6.9385385e-19)
(10.426123 -1.1691203 -6.703199e-19)
(10.148732 -1.1354422 2.6223999e-18)
(10.039951 -1.0318742 -2.534021e-18)
(9.7801914 -0.95676439 -6.1289964e-19)
(9.6899762 -0.77703746 3.5793374e-18)
(9.450859 -0.67880818 -5.7507931e-18)
(9.4069745 -0.39776666 3.3411961e-18)
(11.669796 0.084693982 -4.4181289e-20)
(11.708576 -0.098828751 8.8124167e-20)
(11.665022 -0.26874174 8.7373066e-19)
(11.639964 -0.4374354 -2.0855134e-18)
(11.543657 -0.59453679 1.0268073e-18)
(11.454485 -0.70515714 0)
(11.318905 -0.85054077 0)
(11.157226 -0.90380458 6.6259984e-19)
(11.014852 -1.0164507 -2.603814e-18)
(10.813295 -1.0084608 -6.5409061e-19)
(10.677471 -1.0639196 6.0333337e-19)
(10.424353 -1.018627 3.0236792e-18)
(10.286288 -0.98240072 5.9303131e-19)
(10.009927 -0.89092914 0)
(9.9125823 -0.78245064 1.6795536e-18)
(9.676091 -0.65588983 0)
(9.6423548 -0.4653366 -3.1673525e-18)
(9.4720053 -0.33272165 9.1691215e-18)
(9.4843447 -0.040622972 -7.8889976e-18)
(11.564346 0.055279048 7.594416e-20)
(11.591213 -0.12671031 -7.550029e-20)
(11.550555 -0.28069455 0)
(11.516527 -0.45260549 -9.0264282e-19)
(11.401175 -0.57984391 2.8982887e-19)
(11.3203 -0.70298798 1.1742035e-18)
(11.148725 -0.80877706 0)
(11.007895 -0.8691689 -2.875503e-18)
(10.817943 -0.94281961 1.6851755e-18)
(10.643102 -0.92044899 -3.2334926e-21)
(10.476663 -0.94764159 0)
(10.27349 -0.83350135 0)
(10.142733 -0.79593227 -5.1747211e-19)
(9.9217571 -0.65118972 0)
(9.8500549 -0.54160436 3.1841962e-21)
(9.6601917 -0.35721262 9.5775049e-19)
(9.6726504 -0.19195739 -2.790885e-18)
(9.534391 0.0020645214 7.2020829e-18)
(9.6507508 0.26583579 -3.4882623e-18)
(11.496327 0.043772981 2.291637e-19)
(11.505982 -0.12900781 -1.9599027e-19)
(11.47196 -0.2755203 0)
(11.419239 -0.44287416 0)
(11.311569 -0.54874048 0)
(11.215028 -0.67424259 0)
(11.043073 -0.73735284 -2.0240243e-18)
(10.913363 -0.80046393 1.9861226e-18)
(10.697204 -0.82492147 2.4595908e-18)
(10.539594 -0.80068862 -9.599871e-19)
(10.335193 -0.76826283 0)
(10.177743 -0.65173032 3.7247255e-18)
(10.024199 -0.59948463 -6.811089e-18)
(9.8853829 -0.40841156 3.5397664e-18)
(9.8327343 -0.30096293 -4.3236431e-18)
(9.7182451 -0.075702845 2.5188688e-18)
(9.7810489 0.063390294 -8.1718087e-19)
(9.7161693 0.29142084 -7.9341511e-19)
(9.9189709 0.50425372 7.701194e-19)
(11.378643 0.02136022 2.2565993e-19)
(11.376203 -0.13815726 -7.3233856e-19)
(11.358306 -0.28291961 4.4833564e-19)
(11.279009 -0.43543833 -8.9477705e-19)
(11.172842 -0.53611611 8.8543269e-19)
(11.047165 -0.64906649 0)
(10.895118 -0.68389527 -4.3763967e-19)
(10.753766 -0.73534992 1.7331936e-18)
(10.555216 -0.70667851 -1.7001239e-18)
(10.422267 -0.67608085 -4.1893217e-19)
(10.234075 -0.59582862 -3.3113077e-18)
(10.12515 -0.49234887 3.2326574e-18)
(9.9729565 -0.38276762 -3.961323e-19)
(9.9135531 -0.19124267 2.3306765e-18)
(9.8537171 -0.076297591 -2.266238e-18)
(9.8486753 0.16037019 0)
(9.9291866 0.26052875 -5.7457398e-18)
(9.9712112 0.49556177 6.2764224e-18)
(10.25195 0.60445621 0)
(11.317044 0.0083076402 -3.8874656e-19)
(11.312979 -0.14214929 3.8844811e-19)
(11.294641 -0.2783664 -7.7431164e-19)
(11.203566 -0.40335337 7.6872071e-19)