/*--------------------------------*- C++ -*----------------------------------*\
  =========                 |
  \\      /  F ield         | OpenFOAM: The Open Source CFD Toolbox
   \\    /   O peration     | Website:  https://openfoam.org
    \\  /    A nd           | Version:  11
     \\/     M anipulation  |
\*---------------------------------------------------------------------------*/
FoamFile
{
    format      ascii;
    class       volScalarField;
    location    "5.6";
    object      p;
}
// * * * * * * * * * * * * * * * * * * * * * * * * * * * * * * * * * * * * * //

dimensions      [0 2 -2 0 0 0 0];

internalField   nonuniform List<scalar> 
5472
(
105.78597
103.8624
101.93917
100.07363
98.21349
96.386119
94.631748
92.945705
91.334172
89.798595
88.386804
87.091905
85.897663
84.864077
83.989909
83.245429
82.645445
82.205994
81.844536
106.2018
104.44156
102.64618
100.89221
99.147469
97.422461
95.723131
94.089305
92.515881
91.002887
89.604629
88.321931
87.138935
86.097508
85.195783
84.408405
83.78474
83.301841
82.954981
106.54316
104.9489
103.35262
101.69239
100.02858
98.400905
96.782075
95.208357
93.669931
92.187544
90.809781
89.532155
88.353584
87.305395
86.380107
85.580821
84.94981
84.435064
84.099065
106.88205
105.40643
103.94289
102.41962
100.87344
99.337764
97.795488
96.278106
94.775151
93.335839
91.973848
90.704749
89.537693
88.480568
87.54532
86.749663
86.099779
85.583832
85.243057
107.15097
105.81529
104.45453
103.04821
101.62713
100.19987
98.75595
97.287421
95.834267
94.434074
93.095721
91.852253
90.686894
89.631507
88.696131
87.886935
87.222294
86.714815
86.348318
107.40161
106.17247
104.88867
103.61253
102.32621
100.99347
99.631051
98.228773
96.834222
95.470185
94.173429
92.94992
91.798854
90.764481
89.828805
89.02766
88.354836
87.83093
87.454613
107.50865
106.43677
105.31624
104.14574
102.93829
101.71393
100.43384
99.104107
97.780558
96.462496
95.200994
93.996581
92.881038
91.852467
90.918577
90.117272
89.439344
88.919886
88.546116
107.63186
106.63824
105.61031
104.57133
103.49072
102.35274
101.15925
99.918296
98.659951
97.398157
96.173736
95.0102
93.928424
92.900994
91.993215
91.191089
90.515908
89.994636
89.620146
107.723
106.83838
105.91436
104.95419
103.94048
102.91148
101.8231
100.66861
99.470008
98.267446
97.099691
95.969661
94.908008
93.906054
93.020895
92.227135
91.554508
91.030044
90.662219
107.7635
106.97946
106.14553
105.27313
104.37627
103.42628
102.39863
101.33432
100.21062
99.080978
97.961604
96.877905
95.848718
94.871624
93.998457
93.224053
92.57088
92.042947
91.684722
107.79358
107.07951
106.33264
105.55616
104.73782
103.87375
102.93888
101.94132
100.88584
99.826863
98.764562
97.746963
96.74317
95.7967
94.930327
94.164522
93.529311
93.016913
92.650502
107.78248
107.14936
106.48583
105.78838
105.05621
104.26785
103.40968
102.48867
101.52058
100.5172
99.508482
98.53489
97.574829
96.684578
95.836367
95.101549
94.464642
93.963657
93.600016
107.761
107.19665
106.61102
105.99162
105.32598
104.60711
103.82406
102.9749
102.08074
101.14238
100.20385
99.270863
98.351977
97.480289
96.660648
95.951905
95.334013
94.855876
94.487009
107.7262
107.24082
106.7223
106.15436
105.54565
104.89339
104.1806
103.40416
102.57957
101.71334
100.84382
99.960851
99.092648
98.254471
97.474221
96.770876
96.178553
95.708555
95.343995
107.6702
107.24611
106.78473
106.29517
105.76214
105.17456
104.51588
103.78939
103.02098
102.21698
101.4018
100.57377
99.75423
98.950579
98.204078
97.532047
96.9655
96.494531
96.14423
107.62651
107.24632
106.83492
106.38872
105.90477
105.38233
104.792
104.13831
103.43562
102.69398
101.93498
101.15711
100.3728
99.605113
98.893252
98.248416
97.701239
97.239328
96.895765
107.57638
107.24581
106.89347
106.50438
106.06136
105.57041
105.02022
104.41952
103.77406
103.09783
102.39699
101.67349
100.9349
100.21302
99.531903
98.912227
98.382708
97.936814
97.598174
107.52435
107.22669
106.91041
106.57112
106.19262
105.75497
105.25126
104.69596
104.09765
103.47186
102.81502
102.13513
101.43845
100.75977
100.11377
99.523519
99.010001
98.580518
98.245534
107.51704
107.24193
106.94748
106.63466
106.28223
105.88061
105.42973
104.92386
104.3825
103.80662
103.1941
102.5542
101.89419
101.25466
100.64314
100.08049
99.586221
99.169672
98.842874
107.4945
107.25971
107.00123
106.71615
106.38986
106.02177
105.59878
105.12617
104.6278
104.09733
103.53385
102.935
102.30925
101.69749
101.1153
100.57668
100.10393
99.698623
99.37799
107.46559
107.25624
107.0287
106.77661
106.48705
106.14908
105.75734
105.32304
104.85642
104.35736
103.82837
103.2713
102.69311
102.11668
101.55487
101.03442
100.57521
100.18172
99.871959
107.4839
107.29241
107.07817
106.84043
106.57236
106.26208
105.90275
105.50448
105.07002
104.59871
104.09288
103.55352
102.99512
102.44848
101.9181
101.42139
100.97288
100.58891
100.28224
107.49645
107.32642
107.13594
106.9196
106.67037
106.38115
106.04435
105.67117
105.2679
104.83284
104.36613
103.86766
103.35174
102.81262
102.2881
101.79853
101.35862
100.98361
100.68186
107.52869
107.38199
107.20728
107.00735
106.77787
106.50862
106.19182
105.83377
105.4388
105.01086
104.54526
104.04661
103.52657
103.01812
102.52309
102.04808
101.61797
101.24964
100.95226
107.56396
107.44558
107.2909
107.1052
106.89457
106.65043
106.3668
106.03876
105.67599
105.28347
104.85774
104.40166
103.91071
103.38423
102.861
102.36804
101.92561
101.54935
101.24579
107.6041
107.51706
107.38873
107.22232
107.01962
106.77667
106.49069
106.15951
105.78564
105.37151
104.92658
104.45282
103.95796
103.46221
102.96195
102.47944
102.0397
101.67364
101.37935
107.63562
107.59501
107.51688
107.40208
107.24887
107.05523
106.81803
106.53149
106.19664
105.81309
105.38533
104.92282
104.41818
103.85774
103.28136
102.72349
102.23517
101.84966
101.53012
81.696119
81.679526
81.825803
82.099169
82.492732
83.011557
83.641751
84.384826
85.208374
86.173346
87.241382
88.441794
89.7736
91.249588
92.864178
94.617353
96.534697
98.587596
100.77969
82.813042
82.783313
82.954823
83.268366
83.723399
84.325771
85.087962
85.959639
86.945971
88.067115
89.296935
90.652965
92.137897
93.74136
95.43645
97.268826
99.228945
101.30858
103.46146
83.931109
83.89757
84.100157
84.447442
84.978792
85.678221
86.547284
87.538787
88.678238
89.935965
91.31511
92.816746
94.429415
96.128515
97.918982
99.804852
101.78599
103.81539
105.90651
85.029725
85.030412
85.243039
85.633218
86.241769
87.023108
87.985839
89.101661
90.349276
91.710523
93.205148
94.796126
96.462967
98.215941
100.01966
101.87839
103.76442
105.64924
107.5448
86.128006
86.146273
86.357636
86.819918
87.493738
88.344844
89.396799
90.599863
91.92275
93.373259
94.92142
96.534518
98.207849
99.91877
101.62609
103.34946
105.0117
106.62528
108.13961
87.241825
87.239023
87.489277
87.998895
88.716487
89.647802
90.777832
92.036084
93.418608
94.906499
96.465219
98.062529
99.673611
101.2555
102.80104
104.28886
105.62878
106.80438
107.74213
88.318832
88.312007
88.613673
89.142864
89.914062
90.909271
92.083954
93.38943
94.811749
96.308441
97.8437
99.36151
100.84983
102.27017
103.58526
104.72628
105.65743
106.28071
106.57336
89.373376
89.393878
89.709612
90.255663
91.090826
92.12332
93.335067
94.669306
96.090974
97.566476
99.027715
100.43244
101.75966
102.95493
103.96563
104.70044
105.19919
105.29808
105.11041
90.399528
90.439156
90.758529
91.342396
92.215949
93.269407
94.511228
95.841513
97.241416
98.652905
100.00653
101.26599
102.39814
103.30535
103.99138
104.38843
104.51787
104.31189
103.90352
91.417815
91.466205
91.771549
92.39592
93.280234
94.355128
95.601399
96.905953
98.254697
99.575281
100.81249
101.86777
102.76693
103.41116
103.82181
103.98217
103.8707
103.6266
103.30362
92.382479
92.432328
92.738388
93.397966
94.284812
95.386443
96.597947
97.855545
99.13111
100.33226
101.41831
102.27663
102.94846
103.39611
103.61199
103.64851
103.52092
103.36541
103.20988
93.340109
93.353472
93.667302
94.348067
95.240104
96.334484
97.499754
98.709349
99.878194
100.94301
101.8564
102.56381
103.05096
103.36211
103.49468
103.52564
103.46923
103.43793
103.42459
94.233254
94.219663
94.574912
95.250138
96.137548
97.198367
98.315178
99.451961
100.49872
101.44749
102.19235
102.76574
103.13546
103.38335
103.49958
103.58259
103.63021
103.69176
103.75726
95.075507
95.045599
95.438855
96.083151
96.958904
97.988753
99.044527
100.0995
101.02999
101.84597
102.46605
102.9365
103.24694
103.48519
103.63245
103.77314
103.89253
104.01704
104.16467
95.863628
95.87171
96.241166
96.847692
97.723564
98.683945
99.677822
100.66457
101.4892
102.17329
102.69946
103.11708
103.40948
103.6484
103.83118
104.02624
104.19479
104.38206
104.53402
96.605346
96.634966
96.958236
97.565954
98.40954
99.3006
100.25439
101.12262
101.88331
102.47514
102.93668
103.31303
103.60033
103.86099
104.07753
104.30649
104.50549
104.68818
104.80069
97.313235
97.330751
97.621628
98.245146
99.0158
99.873726
100.76062
101.52414
102.23376
102.74297
103.17938
103.53249
103.8259
104.1004
104.33812
104.56808
104.76025
104.93738
105.0783
97.964078
97.958334
98.247095
98.842154
99.558094
100.39327
101.17673
101.88867
102.51875
102.98965
103.42149
103.74908
104.05955
104.32887
104.56125
104.77208
104.95623
105.13492
105.27636
98.563784
98.539235
98.833236
99.378186
100.07201
100.84969
101.56596
102.23959
102.79107
103.25886
103.65278
103.9723
104.28425
104.526
104.74579
104.92761
105.10253
105.25189
105.33403
99.09877
99.060328
99.337611
99.842339
100.51347
101.21856
101.89579
102.50653
103.01345
103.47306
103.84414
104.17538
104.44787
104.66294
104.86182
104.99785
105.11152
105.15931
105.12661
99.591208
99.554904
99.810273
100.28557
100.92156
101.58413
102.24426
102.82947
103.321
103.73748
104.06283
104.35345
104.57031
104.74829
104.8712
104.92175
104.90688
104.7725
104.58632
99.99662
99.949009
100.18107
100.64012
101.2315
101.85129
102.46104
102.97996
103.45326
103.85401
104.17091
104.43112
104.61547
104.73124
104.75281
104.699
104.53308
104.2744
104.00651
100.39317
100.33714
100.56081
100.98862
101.56751
102.18728
102.76736
103.28793
103.72376
104.04781
104.30725
104.48171
104.56841
104.56463
104.47466
104.30252
104.04713
103.79712
103.55904
100.66197
100.61189
100.8205
101.23428
101.78489
102.36583
102.91901
103.40922
103.80984
104.1253
104.34882
104.46856
104.49467
104.41382
104.24545
104.00631
103.74801
103.48529
103.20045
100.94357
100.87845
101.08747
101.52404
102.06975
102.66597
103.21659
103.66522
103.99285
104.2052
104.31503
104.31672
104.21699
104.03375
103.80558
103.56538
103.32753
103.07794
102.82227
101.07319
101.0428
101.24269
101.63001
102.18558
102.77188
103.29571
103.73805
104.0522
104.26443
104.33925
104.30728
104.17494
103.98492
103.73933
103.45531
103.14663
102.79638
102.37986
101.20682
101.16052
101.41843
101.89815
102.51123
103.11392
103.65126
104.02707
104.19289
104.22479
104.16371
103.97371
103.71149
103.40162
103.05934
102.68503
102.31526
101.96899
101.65085
103.07629
105.52598
108.21704
110.95634
113.80335
116.84532
119.61463
122.2557
124.38462
123.89833
121.72502
118.0581
112.59067
105.52121
97.725806
89.958136
82.854842
76.963271
72.679958
105.68331
107.93794
110.32729
112.77152
115.33551
118.04159
120.33362
122.41639
122.97946
121.44802
118.18377
113.82479
108.19046
101.55016
94.661379
88.153849
82.733824
78.541563
75.737994
107.98748
110.00822
112.12166
114.29583
116.4963
118.58045
120.14368
120.85817
119.6518
117.02575
112.48485
106.80173
100.34493
93.629019
87.439751
82.078891
77.947156
75.164693
74.155826
109.36879
111.1232
112.87754
114.64302
116.19791
117.30617
118.09091
116.74719
114.15142
109.76308
103.70889
96.223495
88.371711
81.121129
75.120221
70.932797
68.792323
68.474276
69.472309
109.52167
110.782
111.99381
113.09711
113.83782
114.12669
112.78105
110.46731
106.26312
99.597555
91.20438
81.544934
71.796144
63.320986
57.417313
54.53352
54.310953
56.558084
60.551242
108.44605
109.04336
109.60632
109.89492
109.68052
108.66075
105.9583
102.91618
95.402879
86.390191
74.824246
62.178012
49.760264
38.441715
29.656636
25.875218
27.379538
33.256525
42.278415
106.53885
106.57527
106.51492
106.09756
105.02548
103.01873
99.608547
94.620281
87.718909
76.90659
61.900598
45.064212
28.044042
13.114072
2.6441949
0.06305069
5.5301089
16.768909
30.784876
104.61966
104.24691
103.75488
102.83739
101.14453
98.484494
94.442614
88.443272
80.389598
69.957604
57.380876
43.645437
30.489073
19.779391
13.503831
13.122181
18.290545
27.958424
39.651254
103.33731
102.83787
102.26971
101.26925
99.670112
97.376651
94.245476
90.104392
84.706689
78.060915
70.365216
62.134533
54.113303
47.357221
43.011314
41.59692
43.617559
48.748633
55.631094
102.84438
102.46278
102.00005
101.16403
99.983938
98.385521
96.424696
94.02623
90.997471
87.375308
83.163296
78.617803
74.176199
70.43768
67.163985
65.038214
65.033707
66.98139
70.429118
102.95543
102.72208
102.34043
101.72725
100.88529
99.824119
98.597301
97.126664
95.264785
93.071429
90.58019
87.884178
85.09866
82.203929
80.065931
79.280307
79.323653
80.04926
81.3915
103.33523
103.19104
102.91859
102.48865
101.89533
101.213
100.44639
99.510376
98.327288
97.010764
95.463217
93.735727
91.93535
90.149831
88.619852
87.509253
86.758312
86.326802
86.243231
103.80391
103.78122
103.60063
103.29246
102.90201
102.47489
101.99354
101.37446
100.57106
99.64441
98.522037
97.314381
96.038763
94.485253
92.885884
91.422536
89.898154
88.409032
87.277369
104.3148
104.32419
104.1731
103.95705
103.70381
103.39381
103.04491
102.5536
101.92977
101.2078
100.32457
99.30359
98.05449
96.349361
94.662575
92.845557
90.700267
88.38567
86.292081
104.6774
104.70611
104.62056
104.48272
104.27818
104.02839
103.7337
103.29083
102.72592
101.94685
101.08805
100.06596
98.486389
96.437541
94.275413
91.523124
88.035529
83.999339
79.657339
104.99443
105.0814
105.05686
104.96518
104.8413
104.69787
104.44904
104.04383
103.47196
102.75816
101.96344
100.85357
98.696208
96.02799
93.26674
89.263474
83.481353
76.072471
67.362511
105.33425
105.46637
105.49529
105.48545
105.5035
105.44757
105.31111
105.08622
104.83368
104.31026
103.16904
101.71521
100.55212
98.934546
96.187153
92.329027
86.951891
80.3627
72.782633
105.53356
105.66803
105.7208
105.80447
105.87332
105.88687
105.804
105.42106
104.56502
104.04007
104.3627
103.77305
102.15574
99.822339
97.081788
93.726801
89.683497
85.173418
80.604854
105.48888
105.58426
105.70159
105.84523
105.92277
105.94322
105.69798
105.47876
105.00465
103.47983
102.07916
100.76264
99.198091
97.246432
95.055331
92.792045
90.447175
88.250524
86.458859
105.0904
105.16409
105.32563
105.46741
105.53606
105.5102
105.2948
104.79656
104.09451
101.40659
98.625505
96.635318
95.313638
93.960598
92.446292
91.125442
90.009816
89.349854
89.364925
104.34039
104.40911
104.52871
104.61287
104.62666
104.58864
104.50437
104.28659
103.78046
102.31488
99.663301
95.388155
90.418906
85.497476
81.870714
80.441547
80.713104
82.277884
84.770066
103.72538
103.70904
103.7092
103.64574
103.47615
103.22044
102.82102
102.20952
101.05209
98.932927
95.567258
91.435364
87.511737
84.514348
81.925085
79.858831
79.072865
79.419796
81.638767
103.35954
103.32322
103.33457
103.31429
103.21875
103.10566
102.88463
102.57941
102.05486
101.1895
99.771779
97.75528
95.301729
92.543157
89.744508
87.514342
86.218736
85.931935
86.959638
103.07583
103.10374
103.16141
103.20825
103.24467
103.31468
103.35486
103.45976
103.50476
103.47072
103.3831
103.0579
102.55782
101.6985
100.27685
98.375743
96.256591
94.662793
93.960984
102.72507
102.74739
102.81709
102.88612
102.94113
102.99614
103.08909
103.14455
103.17115
103.15645
102.78123
102.08406
101.32926
100.45122
99.542816
98.625455
97.827142
96.916456
95.565232
102.02928
102.13931
102.32675
102.43023
102.5253
102.63027
102.75801
102.88563
103.00798
103.12755
103.29238
102.98337
102.77693
102.77394
102.25048
101.22065
99.892398
98.161364
96.288254
101.21162
101.29406
101.39354
101.43297
101.49801
101.62181
101.75032
101.97102
102.19164
102.45707
102.76022
102.87065
102.88068
102.52268
102.01726
101.2732
100.52236
99.746215
98.990864
70.146865
68.768062
68.363282
69.336798
71.164917
73.209527
75.469372
77.475446
79.237737
80.915445
82.252722
83.159808
83.911082
84.442473
84.687578
84.731476
84.605734
84.271755
83.786092
74.174783
73.732563
74.408417
75.756232
77.556938
79.400501
81.090059
82.708276
84.232196
85.562189
86.429197
87.09603
87.621762
87.904353
88.008858
87.970248
87.77777
87.399018
86.869481
74.522181
75.714675
77.350325
79.275215
81.526785
83.786986
85.796626
87.455351
88.622959
89.755837
90.576261
90.990747
91.276778
91.442152
91.45231
91.299235
91.052715
90.646741
90.00059
71.53382
74.272668
77.35651
80.649693
83.988711
86.924109
89.151413
91.121973
92.687383
93.687231
94.461023
94.79684
94.886338
94.888013
94.775638
94.548165
94.206367
93.739519
93.020668
65.353847
70.424723
75.459833
80.278025
84.761436
88.842129
91.942561
94.062379
95.755489
96.984028
97.799311
98.083924
98.134772
98.048075
97.790407
97.512806
97.154638
96.612509
95.836929
52.173615
61.720968
70.435709
78.006082
84.373869
89.651415
93.807061
96.669603
98.545995
99.811787
100.56772
100.95219
100.96684
100.7662
100.44833
100.09893
99.702194
99.192733
98.387253
44.854001
57.269634
67.688197
76.208966
83.259529
89.389491
94.620275
98.530519
100.90718
102.35093
103.11024
103.39371
103.37286
103.12564
102.69159
102.26753
101.81684
101.3268
100.55511
51.278704
61.684843
70.73735
78.482042
85.040379
90.683579
95.754034
100.02157
102.69868
104.19864
105.0451
105.34
105.23574
104.92832
104.46804
103.96989
103.482
102.98363
102.29864
63.121495
70.535026
77.394916
83.497423
88.905179
93.670779
97.807187
101.40006
103.68956
105.08866
105.90816
106.26488
106.22854
105.94857
105.53607
105.04372
104.58355
104.10209
103.5042
74.768027
79.498202
84.170999
88.739354
93.059598
96.872992
100.09095
102.61995
104.25101
105.27838
105.86317
106.19241
106.23543
106.07334
105.81163
105.43679
105.08249
104.68937
104.21283
83.348559
85.829583
88.836642
92.180267
95.434984
98.37987
101.0216
103.09164
104.52102
105.33605
105.70184
105.77044
105.86583
105.83341
105.69586
105.44939
105.18389
104.88744
104.50125
86.846778
88.263585
90.211668
92.463092
94.872692
97.475153
100.06934
102.29458
104.01203
105.00497
105.43377
105.64603
105.79846
105.7646
105.64466
105.44766
105.2177
104.97889
104.64822
86.85791
87.098241
87.862573
89.067862
90.910307
93.425793
96.316986
99.17581
101.65195
103.49297
104.48005
104.75788
105.05718
105.38295
105.46263
105.39056
105.20355
105.01878
104.75574
84.42561
82.88688
82.21363
82.426424
83.515924
85.651217
88.802743
92.29757
95.737036
98.68316
101.2099
103.29686
104.33587
104.99677
105.2207
105.25842
105.12273
104.93864
104.7538
75.151221
70.845133
67.71818
66.909394
69.10358
73.051116
77.559874
82.693085
88.299523
93.699223
98.653073
102.22362
103.75959
104.57695
104.85441
104.90499
104.792
104.58205
104.44554
58.187305
50.380077
46.156954
46.794105
52.114199
60.011208
68.948929
78.320139
87.146278
94.212166
98.930877
101.57185
102.75652
103.47384
103.82543
103.99448
103.98585
103.8486
103.77579
64.614964
57.101687
52.521728
51.96884
55.389483
61.561472
69.396703
77.720077
85.386339
91.716525
96.257937
99.024163
100.66933
101.73654
102.40273
102.81939
103.03121
103.05714
103.09087
76.404886
73.230451
71.902538
72.677137
75.242533
79.156433
83.728188
88.267512
92.361042
95.682142
98.094429
99.71523
100.83852
101.61298
102.14663
102.53363
102.7434
102.81127
102.84568
85.225969
84.673016
85.159103
86.82462
89.06099
91.53971
94.076046
96.363129
98.287707
99.771215
100.81
101.57987
102.11802
102.45137
102.70043
102.87577
102.97953
103.02198
103.01239
90.15393
91.397274
92.734448
94.295058
95.987086
97.642442
99.279284
100.68289
101.65818
102.36016
102.84198
103.1345
103.32311
103.36761
103.38109
103.35929
103.36782
103.32964
103.24131
87.682821
90.761672
93.688275
96.244739
98.402774
99.879684
101.06229
102.56523
103.63498
103.97103
104.0955
104.11233
104.08887
103.97721
103.82551
103.67534
103.57475
103.5043
103.37448
84.721473
88.388751
92.230227
95.617826
98.421781
100.57891
101.75918
102.08731
102.5346
103.49305
104.03263
104.12479
104.10632
103.99634
103.84179
103.69682
103.53167
103.43557
103.31167
89.012913
91.547549
94.122423
96.484227
98.460827
100.0094
101.17705
101.85434
102.70265
103.69972
103.70401
103.7589
103.76281
103.61045
103.49876
103.35367
103.20418
103.04546
102.94118
93.987296
94.497055
95.240243
96.164694
96.934068
97.52347
98.192643
98.936696
100.39127
102.26574
102.51102
102.77163
102.86063
102.79035
102.72467
102.61182
102.51339
102.36268
102.2871
94.005824
92.882579
92.574552
93.339498
95.145161
97.359884
99.340107
100.85157
101.54693
101.78617
101.70045
101.73841
101.72971
101.69726
101.70204
101.67315
101.61398
101.54266
101.51827
94.778629
93.600458
92.777737
92.239482
92.240176
93.117128
94.55535
96.283845
97.857382
99.030883
99.714686
100.01915
100.26965
100.43063
100.56334
100.67504
100.7273
100.76283
100.86863
98.288771
97.666531
97.137672
96.701316
96.374324
96.315622
96.425368
96.735492
97.611358
98.408067
98.963818
99.3473
99.621511
99.831932
99.990761
100.11232
100.2086
100.25901
100.28819
83.214692
82.477302
81.632158
80.739602
79.721015
78.743834
77.751073
76.778004
75.834511
74.926356
74.047067
73.265341
72.488848
71.849058
71.319695
70.834479
70.647794
70.527361
70.648106
86.234923
85.440792
84.521515
83.532463
82.489091
81.395671
80.313719
79.205802
78.142701
77.08544
76.10286
75.175974
74.332982
73.537834
72.966665
72.435681
72.142232
71.988228
72.101701
89.264557
88.342117
87.347502
86.257965
85.138391
83.963995
82.780849
81.572614
80.400757
79.234883
78.13017
77.080552
76.153845
75.275197
74.573531
74.04758
73.661457
73.488232
73.591355
92.114744
91.091337
89.97465
88.816668
87.601586
86.376273
85.110308
83.837662
82.564136
81.321317
80.113838
78.970975
77.924036
76.998483
76.18012
75.583058
75.184593
74.97426
75.051355
94.791529
93.668254
92.463624
91.208517
89.928815
88.636397
87.309723
85.979474
84.638781
83.332998
82.047652
80.825715
79.677823
78.666657
77.800368
77.099684
76.661548
76.451124
76.512159
97.291159
96.077959
94.820357
93.496552
92.150381
90.801519
89.420158
88.036759
86.639017
85.26902
83.922339
82.628647
81.420359
80.323567
79.387156
78.638635
78.123888
77.920607
77.950319
99.462313
98.247657
96.958755
95.619894
94.22915
92.843268
91.420771
89.992536
88.557463
87.128917
85.727617
84.372916
83.091255
81.943603
80.917904
80.142194
79.562691
79.311769
79.351009
101.26689
100.11182
98.849663
97.541212
96.152248
94.749664
93.311089
91.848617
90.381893
88.919044
87.46683
86.075028
84.725101
83.522514
82.440686
81.600728
80.999648
80.733332
80.786373
102.61293
101.60267
100.42779
99.180774
97.85307
96.47402
95.04464
93.582325
92.091431
90.605435
89.120057
87.687991
86.302775
85.03853
83.902954
83.014919
82.379015
82.04863
82.094448
103.52156
102.67155
101.67651
100.55376
99.313393
98.006214
96.620212
95.183367
93.702397
92.203826
90.695193
89.236099
87.824181
86.505577
85.368354
84.400867
83.766461
83.408427
83.458161
103.99481
103.36336
102.55438
101.60791
100.50901
99.301428
97.992888
96.611733
95.163217
93.681303
92.179204
90.676125
89.259891
87.889886
86.721381
85.726465
85.04269
84.685733
84.694491
104.23553
103.777
103.1492
102.37391
101.43588
100.36803
99.168217
97.870857
96.485889
95.025908
93.564385
92.055086
90.618916
89.231443
88.018494
87.019723
86.290778
85.912811
85.912576
104.39763
104.0209
103.52314
102.90657
102.1311
101.19909
100.1324
98.93488
97.642416
96.237085
94.80576
93.333633
91.890507
90.504957
89.2502
88.243648
87.492885
87.090556
87.074081
104.46255
104.16317
103.75318
103.2442
102.6227
101.83312
100.91061
99.820942
98.632152
97.317522
95.933612
94.501632
93.067225
91.697873
90.415379
89.389611
88.631488
88.213853
88.176176
104.33613
104.13982
103.85415
103.44911
102.96222
102.30201
101.51278
100.55394
99.463414
98.244924
96.932865
95.562407
94.149291
92.801885
91.522068
90.470927
89.695823
89.269614
89.238887
103.88821
103.87739
103.76791
103.49049
103.12878
102.60807
101.94149
101.12263
100.14915
99.03383
97.797887
96.501212
95.131162
93.807753
92.554261
91.488952
90.700755
90.261848
90.226353
103.36581
103.46928
103.48632
103.37517
103.15068
102.78116
102.24073
101.55434
100.70326
99.701962
98.552667
97.336013
96.028138
94.724695
93.497006
92.437103
91.645319
91.183632
91.149466
103.01958
103.1049
103.16981
103.15719
103.03983
102.80801
102.40213
101.84038
101.10947
100.23104
99.181134
98.027898
96.807439
95.545693
94.348764
93.3003
92.520415
92.052445
92.010155
102.99687
102.96916
102.98277
102.98161
102.9108
102.76595
102.48032
102.03991
101.43053
100.66961
99.7325
98.65647
97.504522
96.300737
95.134946
94.087255
93.311162
92.855843
92.797973
103.07379
103.00351
102.94756
102.89613
102.82186
102.70723
102.49589
102.14562
101.6451
100.98056
100.15895
99.176017
98.089149
96.934855
95.810643
94.799315
94.021878
93.575941
93.513273
103.14727
103.08502
103.00308
102.9216
102.81704
102.70006
102.52321
102.23837
101.83355
101.25128
100.52489
99.641424
98.642315
97.552278
96.453719
95.455174
94.681141
94.228527
94.170724
103.17105
103.16102
103.08665
102.99411
102.87231
102.73345
102.56199
102.31523
101.97491
101.46728
100.80314
99.994431
99.041326
98.011049
96.954424
95.989953
95.244693
94.795496
94.720052
102.96798
103.06434
103.06443
103.01904
102.93255
102.79292
102.63364
102.41944
102.1245
101.69628
101.10401
100.36335
99.491104
98.520741
97.519687
96.540063
95.765843
95.314042
95.232961
102.54538
102.78603
102.93781
102.99542
102.99248
102.90834
102.74801
102.53809
102.25632
101.86723
101.32803
100.62695
99.77331
98.803251
97.810155
96.89391
96.157052
95.719034
95.62524
101.84979
102.18693
102.48947
102.68232
102.78297
102.82321
102.77828
102.64969
102.42651
102.10478
101.64832
101.01999
100.25343
99.386444
98.38299
97.394509
96.575853
96.083852
95.983698
101.25447
101.68822
102.10927
102.47277
102.71431
102.8394
102.85481
102.76886
102.5722
102.2467
101.79757
101.18495
100.37798
99.449508
98.488802
97.553177
96.78118
96.297781
96.191699
100.55907
100.90328
101.29479
101.69766
102.07814
102.38462
102.59915
102.70863
102.68382
102.53089
102.22716
101.73004
101.04847
100.16639
99.136486
98.072952
97.136605
96.506351
96.330681
70.9135
71.310833
71.830969
72.610952
73.537042
74.635864
75.925797
77.297538
78.845531
80.495895
82.270258
84.143695
86.120445
88.181488
90.293557
92.451833
94.661167
96.870124
99.079382
72.320814
72.799196
73.370799
74.16684
75.113843
76.196984
77.492106
78.875138
80.408387
82.047439
83.786171
85.627196
87.549268
89.529716
91.571213
93.617254
95.683722
97.748105
99.795044
73.844646
74.288175
74.903305
75.683749
76.653699
77.767691
79.041957
80.449269
81.964462
83.577692
85.285995
87.080357
88.936882
90.847406
92.795212
94.732974
96.659372
98.548983
100.43958
75.339422
75.783061
76.410106
77.212841
78.172692
79.301222
80.576446
81.96162
83.460216
85.068837
86.731784
88.46584
90.271427
92.10195
93.939291
95.771857
97.568003
99.310186
101.01908
76.814871
77.264668
77.89317
78.693452
79.669491
80.785018
82.046697
83.432234
84.909183
86.484035
88.112587
89.793653
91.520696
93.264065
95.012409
96.725568
98.391042
99.992459
101.52785
78.27178
78.721771
79.36185
80.158038
81.122645
82.241044
83.485469
84.864789
86.331016
87.861396
89.43036
91.044371
92.700197
94.353872
95.979334
97.576637
99.112169
100.59112
101.99742
79.678625
80.153119
80.79271
81.587689
82.53384
83.643929
84.878909
86.229831
87.661176
89.144147
90.664696
92.216321
93.77726
95.340037
96.863756
98.340953
99.751422
101.11339
102.40018
81.115845
81.557071
82.175803
82.967856
83.911811
85.013575
86.223685
87.531014
88.920446
90.36281
91.831727
93.316907
94.782414
96.236653
97.658638
99.040809
100.34009
101.56989
102.74112
82.411514
82.891815
83.524803
84.314088
85.236887
86.309238
87.495452
88.770418
90.125356
91.522696
92.924974
94.326432
95.70342
97.068009
98.390107
99.65347
100.83303
101.93408
103.00712
83.77605
84.21322
84.826052
85.595141
86.50859
87.556921
88.719593
89.963022
91.262609
92.603686
93.932012
95.242934
96.534004
97.800664
99.022779
100.18194
101.27941
102.28684
103.25596
85.024153
85.468032
86.075269
86.833976
87.730062
88.750262
89.866656
91.064531
92.309392
93.585788
94.860527
96.094097
97.301774
98.471683
99.616285
100.68997
101.689
102.59877
103.45282
86.244538
86.679141
87.27197
88.013089
88.880926
89.872721
90.961446
92.103138
93.306389
94.525397
95.727132
96.882003
98.004212
99.089006
100.13207
101.0978
101.99859
102.84082
103.61539
87.400532
87.820743
88.404683
89.132812
89.984711
90.939645
91.98878
93.080183
94.222682
95.368966
96.496963
97.583356
98.620617
99.616724
100.57247
101.48942
102.32416
103.08542
103.78653
88.501073
88.915743
89.487641
90.191482
91.013368
91.930001
92.926424
93.97205
95.055702
96.149938
97.211746
98.222654
99.18777
100.12613
101.01288
101.83687
102.57579
103.24805
103.87598
89.56017
89.954489
90.500882
91.184209
91.97521
92.863314
93.816468
94.817839
95.846221
96.874354
97.864247
98.805982
99.695419
100.55843
101.36644
102.10803
102.79206
103.42669
104.0184
90.529009
90.911912
91.443698
92.109015
92.871418
93.726514
94.630937
95.579363
96.548767
97.51059
98.441801
99.325851
100.15704
100.94596
101.69443
102.39169
103.02353
103.57005
104.07039
91.448092
91.827265
92.336372
92.976781
93.711492
94.527094
95.388762
96.28321
97.199424
98.103228
98.981042
99.806074
100.57967
101.29462
101.97803
102.60807
103.17901
103.68651
104.14354
92.303479
92.666056
93.15344
93.765332
94.476534
95.251987
96.075396
96.920248
97.785337
98.635189
99.457088
100.22785
100.94321
101.60495
102.2362
102.82755
103.35953
103.82541
104.23402
93.082374
93.42697
93.903559
94.495701
95.178986
95.920043
96.703657
97.509795
98.325879
99.128729
99.899747
100.6165
101.28064
101.89809
102.48275
103.02647
103.50878
103.92604
104.28771
93.783363
94.129014
94.6024
95.170935
95.819771
96.529375
97.275499
98.040007
98.812403
99.562581
100.2847
100.9533
101.57303
102.15827
102.7012
103.20232
103.65349
104.04739
104.3869
94.460907
94.793481
95.236614
95.768568
96.388048
97.066677
97.779961
98.511725
99.250473
99.961529
100.64383
101.28127
101.86648
102.42165
102.92795
103.39008
103.80019
104.15253
104.44679
94.988851