/*--------------------------------*- C++ -*----------------------------------*\
  =========                 |
  \\      /  F ield         | OpenFOAM: The Open Source CFD Toolbox
   \\    /   O peration     | Website:  https://openfoam.org
    \\  /    A nd           | Version:  11
     \\/     M anipulation  |
\*---------------------------------------------------------------------------*/
FoamFile
{
    format      ascii;
    class       surfaceScalarField;
    location    "5.6";
    object      phi;
}
// * * * * * * * * * * * * * * * * * * * * * * * * * * * * * * * * * * * * * //

dimensions      [0 3 -1 0 0 0 0];

internalField   nonuniform List<scalar> 
10792
(
0.067387245
-0.041787259
-0.067761625
0.04216164
0.066825167
-0.039766523
0.040328601
0.066233604
-0.037355533
0.037947097
0.065635912
-0.035245409
0.035843101
0.064872267
-0.032629678
0.033393322
0.064140703
-0.030306343
0.031037906
0.063387418
-0.027921994
0.028675279
0.062569001
-0.025281155
0.026099572
0.061771378
-0.022803529
0.023601152
0.061001314
-0.020187608
0.020957672
0.060264882
-0.017554869
0.018291301
0.059615239
-0.014937006
0.015586649
0.058971246
-0.012190761
0.012834754
0.058369405
-0.009456295
0.010058136
0.057799931
-0.0066551523
0.0072246265
0.057318516
-0.0038131342
0.0042945501
0.05702595
-0.0011149349
0.0014075006
0.056813983
0.0017735449
-0.0015615774
0.0046673308
0.056562942
-0.0044162887
0.071408431
-0.04137441
-0.07182128
0.070861646
-0.039219739
0.070309214
-0.036803101
0.069590964
-0.034527159
0.068864626
-0.03190334
0.068213418
-0.029655135
0.067376638
-0.027085214
0.066612834
-0.024517351
0.065856225
-0.022046919
0.06509548
-0.019426863
0.064424088
-0.016883476
0.063738494
-0.014251412
0.063059763
-0.011512029
0.062470943
-0.0088674755
0.061964154
-0.0061483626
0.061559737
-0.0034087166
0.061178885
-0.00073408263
0.060883419
0.0020690116
0.0048616573
0.060689092
0.076132869
-0.041015976
-0.076491303
0.075547301
-0.03863417
0.074913595
-0.036169395
0.074245231
-0.033858796
0.073624222
-0.03128233
0.072834591
-0.028865504
0.071993226
-0.026243848
0.071302255
-0.02382638
0.07048487
-0.021229535
0.069747845
-0.018689837
0.06898727
-0.016122901
0.068227745
-0.013491887
0.067564187
-0.010848471
0.066969311
-0.0082725992
0.066438639
-0.0056176903
0.065997727
-0.0029678039
0.065615756
-0.00035211159
0.065297628
0.0023871401
0.0050194091
0.065139876
0.080659941
-0.040457981
-0.081217935
0.080054157
-0.038028386
0.079495002
-0.03561024
0.078801576
-0.03316537
0.078089221
-0.030569975
0.07732739
-0.028103673
0.07666419
-0.025580648
0.075928634
-0.023090825
0.07510977
-0.020410671
0.074364983
-0.01794505
0.073556252
-0.01531417
0.072899501
-0.012835136
0.072260066
-0.010209036
0.071704942
-0.0077174745
0.071195388
-0.0051081366
0.070770379
-0.0025427945
0.070384758
3.3510326e-05
0.070082616
0.0026892819
0.0052391798
0.069862846
0.085848098
-0.03982298
-0.086483099
0.085303097
-0.037483386
0.084709586
-0.035016729
0.08394077
-0.032396554
0.083285868
-0.029915074
0.082566762
-0.027384567
0.081831314
-0.0248452
0.080975466
-0.022234977
0.080212092
-0.019647297
0.07943222
-0.017165178
0.078697055
-0.014579005
0.07804504
-0.012183121
0.0773769
-0.0095408947
0.076805699
-0.0071462733
0.076233083
-0.0045355202
0.075780583
-0.0020902943
0.075324
0.0004900931
0.075084109
0.0029291741
0.0054835094
0.074839779
0.091255591
-0.039253427
-0.091825143
0.090799962
-0.037027757
0.090049502
-0.034266269
0.089406253
-0.031753305
0.088725602
-0.029234422
0.087955109
-0.026614074
0.087232247
-0.024122338
0.086425534
-0.021428264
0.085785137
-0.0190069
0.085008848
-0.016388888
0.084342948
-0.013913105
0.083572989
-0.011413161
0.082917813
-0.0088857186
0.082300513
-0.0065289735
0.081714561
-0.0039495676
0.081289348
-0.0016650805
0.080911276
0.00086816507
0.080669391
0.0031710597
0.0057066226
0.080446278
0.097316974
-0.038604441
-0.09796596
0.096551866
-0.036262649
0.095841697
-0.0335561
0.095311886
-0.031223493
0.094548384
-0.02847092
0.093821404
-0.025887093
0.093040846
-0.02334178
0.092313046
-0.020700465
0.091561001
-0.018254855
0.090696336
-0.015524223
0.089994444
-0.013211213
0.089186885
-0.010605601
0.08861774
-0.0083165736
0.087974115
-0.0058853488
0.087552059
-0.003527511
0.087057925
-0.0011709461
0.086705876
0.0012202145
0.086414267
0.0034626686
0.0058853599
0.08623553
0.10366423
-0.037999371
-0.1042693
0.10309055
-0.035688968
0.10236509
-0.032830642
0.10158329
-0.030441687
0.10078542
-0.027673057
0.10015049
-0.025252158
0.099346146
-0.022537436
0.098644058
-0.019998377
0.097844668
-0.017455464
0.097119896
-0.014799451
0.096408749
-0.012500066
0.095704362
-0.009901214
0.095113978
-0.007726189
0.094456862
-0.0052282328
0.093998692
-0.0030693404
0.093435305
-0.00060755847
0.093132286
0.0015232336
0.092732176
0.0038627788
0.0060221821
0.092595354
0.11032175
-0.03727785
-0.11104328
0.10954196
-0.034909176
0.10881947
-0.032108145
0.10811985
-0.029742068
0.10732959
-0.026882801
0.10658224
-0.024504803
0.10579324
-0.021748438
0.10509284
-0.019297978
0.10432047
-0.016683099
0.10366917
-0.014148151
0.10290045
-0.011731345
0.10223149
-0.009232248
0.10155294
-0.0070476444
0.1009293
-0.0046045834
0.10046327
-0.0026033185
0.099967648
-0.00011193239
0.099746937
0.0017439443
0.099452621
0.0041570956
0.0060635692
0.099411234
0.11801636
-0.036655481
-0.11863873
0.11719896
-0.034091777
0.11649051
-0.031399697
0.11571153
-0.028963081
0.1150116
-0.026182879
0.11431133
-0.023804532
0.11346509
-0.020902192
0.11269783
-0.018530721
0.11184035
-0.015825615
0.111136
-0.013443808
0.11032382
-0.010919159
0.10968686
-0.0085952874
0.10897146
-0.0063322477
0.10840627
-0.0040393922
0.1078077
-0.0020047458
0.10737561
0.00032015203
0.10696376
0.0021557987
0.10661589
0.0045049677
0.0062409308
0.10643852
0.12569471
-0.035909427
-0.12644076
0.12481692
-0.033213987
0.12398815
-0.030570925
0.12304285
-0.028017779
0.12226348
-0.025403513
0.12142393
-0.022964984
0.1206993
-0.020177562
0.11995786
-0.017789282
0.11914248
-0.015010228
0.11843629
-0.012737621
0.11763421
-0.010117075
0.11704693
-0.0080080142
0.11632145
-0.0056067689
0.11587618
-0.0035941188
0.11527044
-0.0013990072
0.11493572
0.00065487834
0.11453402
0.0025574935
0.11441709
0.0046218994
0.0063491827
0.11430884
0.1343017
-0.035077013
-0.13513412
0.13348038
-0.032392667
0.13277451
-0.029865056
0.1319007
-0.027143965
0.13110665
-0.024609465
0.13015509
-0.022013419
0.12947417
-0.019496642
0.12866753
-0.01698264
0.12794008
-0.014282779
0.12713839
-0.011935936
0.12640652
-0.0093852016
0.12572317
-0.0073246663
0.12501133
-0.0048949282
0.12446881
-0.0030515997
0.12383198
-0.00076217267
0.12346548
0.0010213787
0.1229278
0.0030951758
0.12274638
0.0048033184
0.0066285971
0.12246696
0.14298076
-0.034078017
-0.14397975
0.14206002
-0.031471935
0.14116935
-0.028974386
0.14033889
-0.026313501
0.13951794
-0.023788511
0.13858812
-0.021083603
0.13781767
-0.018726193
0.13695427
-0.016119235
0.13631216
-0.013640671
0.13551685
-0.011140625
0.13488481
-0.0087531628
0.13412947
-0.0065693244
0.13360625
-0.0043717068
0.13310135
-0.0025467084
0.13269262
-0.00035343763
0.13238241
0.0013315839
0.13206867
0.0034089178
0.13194466
0.0049273268
0.0068291451
0.13174412
0.15334677
-0.032972646
-0.15445214
0.1523823
-0.030507466
0.15142849
-0.028020574
0.1505449
-0.025429915
0.14961497
-0.02285858
0.14871563
-0.020184262
0.14781408
-0.017824643
0.1469406
-0.015245752
0.14623084
-0.012930915
0.14547059
-0.010380377
0.14478991
-0.008072483
0.14392529
-0.0057046959
0.14330293
-0.0037493488
0.14252786
-0.0017716371
0.14211778
5.6640277e-05
0.14168197
0.0017673919
0.14151836
0.0035725295
0.14136738
0.0050783086
0.0068035881
0.14139294
0.16316048
-0.031809769
-0.16432336
0.16209401
-0.029440993
0.16100912
-0.026935687
0.16010105
-0.024521838
0.15921189
-0.021969423
0.15844529
-0.019417663
0.15756573
-0.016945082
0.15672999
-0.014410011
0.15599005
-0.012190972
0.15536633
-0.0097566638
0.15484017
-0.0075463177
0.15433622
-0.0052007463
0.15381875
-0.0032318835
0.1531584
-0.0011112865
0.15273759
0.00047745427
0.15222327
0.0022817144
0.15206509
0.0037307089
0.15186427
0.0052791228
0.0066669961
0.15200087
0.1753644
-0.030564032
-0.17661014
0.17413338
-0.028209969
0.17300877
-0.025811083
0.17194684
-0.023459908
0.17097927
-0.021001852
0.17009484
-0.018533229
0.16910938
-0.015959626
0.16816115
-0.013461772
0.16715634
-0.011186164
0.16632689
-0.0089272183
0.16559425
-0.006813674
0.16506862
-0.0046751159
0.16456538
-0.002728638
0.16412143
-0.00066733871
0.16373881
0.00086007325
0.16337073
0.002649797
0.16317999
0.0039214505
0.16305042
0.0054086915
0.0065498361
0.16316758
0.18688555
-0.02924633
-0.18820325
0.18553947
-0.026863893
0.1843521
-0.024623704
0.18319327
-0.022301086
0.18220671
-0.020015291
0.18132821
-0.017654725
0.18058753
-0.015218951
0.17989746
-0.012771699
0.17912064
-0.010409343
0.17837009
-0.0081766708
0.17760526
-0.006048838
0.17698944
-0.0040593017
0.17639697
-0.0021361631
0.17599293
-0.00026330067
0.17558745
0.0012655533
0.1753515
0.0028857449
0.17518133
0.0040916212
0.17515526
0.0054347679
0.0064801404
0.17522495
0.20083125
-0.027693529
-0.20238405
0.19937957
-0.025412215
0.1981044
-0.023348533
0.19678178
-0.020978468
0.19552505
-0.018758555
0.19428636
-0.016416042
0.19326959
-0.014202183
0.19234003
-0.011842133
0.19156541
-0.0096347223
0.19084726
-0.0074585228
0.19016955
-0.0053711306
0.18956514
-0.0034548913
0.18903281
-0.0016038264
0.18864574
0.00012377086
0.18829817
0.0016131186
0.18815364
0.0030302776
0.18804992
0.0041953436
0.18812802
0.005356661
0.0063724851
0.18823568
0.2143532
-0.025937979
-0.21610875
0.21281331
-0.023872318
0.21139942
-0.021934642
0.21015437
-0.019733424
0.20907409
-0.017678271
0.20799444
-0.015336398
0.20695123
-0.013158963
0.20596837
-0.010859275
0.20514075
-0.0088071007
0.20440067
-0.0067184469
0.20378477
-0.0047552308
0.20321761
-0.002887728
0.20275075
-0.0011369685
0.20240576
0.00046875968
0.20214799
0.0018708893
0.20200842
0.0031698528
0.20197116
0.0042326062
0.20208406
0.0052437585
0.0061965298
0.20226001
0.23028065
-0.023794419
-0.23242421
0.22843789
-0.022029567
0.22669571
-0.020192457
0.22524665
-0.01828436
0.2239016
-0.016333228
0.2228092
-0.014244
0.22178869
-0.012138453
0.22088674
-0.0099573223
0.22003197
-0.0079523265
0.21923511
-0.0059215876
0.21857426
-0.0040943864
0.21799944
-0.0023129056
0.21751198
-0.00064951048
0.21715379
0.00082695267
0.21694208
0.0020826034
0.21687043
0.0032414967
0.21692281
0.0041802322
0.21713057
0.005035996
0.0058329886
0.21749411
0.24693688
-0.021577787
-0.24915351
0.24488556
-0.019978256
0.24298879
-0.018295677
0.24125671
-0.016552284
0.23967999
-0.014756506
0.23837534
-0.012939355
0.23723412
-0.010997227
0.23637118
-0.0090943826
0.23556918
-0.0071503342
0.23494391
-0.0052963138
0.2343111
-0.0034615782
0.23380265
-0.0018044478
0.23344912
-0.00029598012
0.23318218
0.0010938895
0.23300227
0.0022625157
0.23297794
0.0032658194
0.2330585
0.0040996773
0.23327323
0.0048212655
0.0054637679
0.23364245
0.26518904
-0.018885681
-0.26788114
0.2627693
-0.017558522
0.26069999
-0.016226361
0.25888518
-0.014737476
0.25724282
-0.013114145
0.25573249
-0.011429024
0.25440719
-0.0096719258
0.25325779
-0.0079449861
0.25235765
-0.0062501898
0.25167837
-0.0046170362
0.25114526
-0.0029284667
0.25074896
-0.0014081473
0.25039928
5.369976e-05
0.25025761
0.0012355591
0.25020845
0.0023116764
0.25035188
0.0031223863
0.25058452
0.0038670398
0.25100981
0.0043959727
0.0049226544
0.25155093
0.28544796
-0.015791934
-0.28854171
0.28261128
-0.014721844
0.28002995
-0.01364503
0.27780787
-0.012515393
0.27591269
-0.011218961
0.27426983
-0.0097861697
0.27290624
-0.0083083291
0.27167905
-0.0067177954
0.27066831
-0.0052394554
0.26980953
-0.0037582516
0.26921009
-0.0023290331
0.26881786
-0.001015912
0.26865722
0.00021433667
0.26859933
0.0012934536
0.26866532
0.0022456853
0.26886825
0.0029194521
0.26918501
0.003550287
0.26966811
0.0039128735
0.0042686837
0.27032208
0.30690453
-0.012448585
-0.31024788
0.30378423
-0.011601541
0.30089396
-0.010754763
0.29819542
-0.0098168547
0.29589299
-0.0089165227
0.29396988
-0.0078630596
0.29240669
-0.0067451452
0.29121184
-0.0055229446
0.2902698
-0.0042974141
0.28958325
-0.0030717033
0.28909462
-0.0018404052
0.28877596
-0.0006972484
0.2886318
0.00035849607
0.28871505
0.0012102086
0.28896694
0.0019937919
0.28932766
0.0025587365
0.28982548
0.0030524599
0.29041827
0.0033200855
0.0034983654
0.29118859
0.33064888
-0.00872603
-0.33437143
0.32717917
-0.0081318324
0.32399053
-0.0075661253
0.3210409
-0.0068672227
0.31836784
-0.0062434649
0.31601641
-0.0055116288
0.31399898
-0.004727716
0.31236595
-0.0038899143
0.31108891
-0.0030203665
0.31017425
-0.002157043
0.30963297
-0.0012991251
0.30944258
-0.00050685588
0.30957375
0.00022731734
0.30989505
0.0008889149
0.31038355
0.0015052884
0.31101526
0.0019270245
0.31169682
0.0023709059
0.31249442
0.0025224816
0.0025990291
0.31339376
0.35592088
-0.0045538253
-0.36009308
0.35208164
-0.0042925953
0.34850057
-0.0039850516
0.34527321
-0.0036398624
0.34231846
-0.0032887133
0.33970979
-0.0029029563
0.33746527
-0.0024832031
0.33563449
-0.0020591305
0.33421512
-0.0016009955
0.33321752
-0.0011594452
0.33264112
-0.00072272496
0.33242854
-0.00029426896
0.33258327
7.2582532e-05
0.33309317
0.0003790143
0.33387005
0.00072841062
0.33483705
0.00096002007
0.33577931
0.0014286516
0.33693472
0.0013670706
0.0014722344
0.33806151
0.38395962
-0.38851344
0.37966702
0.37568197
0.37204211
0.3687534
0.36585044
0.36336724
0.36130811
0.35970711
0.35854767
0.35782494
0.35753067
0.35760326
0.35798227
0.35871068
0.3596707
0.36109935
0.36246642
0.36393866
0.056302105
0.0077589176
-0.0074980808
0.056105257
0.010596124
-0.010399275
0.056126889
0.013561192
-0.013582824
0.056233765
0.016321655
-0.016428531
0.056608338
0.019275532
-0.019650105
0.057078883
0.022108193
-0.022578738
0.05772693
0.025211274
-0.02585932
0.058408665
0.027987848
-0.028669583
0.059175153
0.031017923
-0.03178441
0.059982117
0.033691022
-0.034497986
0.060831888
0.036655176
-0.037504946
0.061707856
0.039266646
-0.040142613
0.062621848
0.04214352
-0.043057511
0.063587694
0.044796292
-0.045762138
0.064476456
0.047508809
-0.04839757
0.065185201
0.050178249
-0.050886994
0.065511364
0.052660388
-0.052986551
0.065571779
0.054999837
-0.055060252
0.05758351
0.064998941
-0.057010672
0.060391181
0.0080568289
0.060256083
0.010731222
0.060404382
0.013412894
0.060608717
0.01611732
0.061037181
0.018847069
0.06154399
0.021601384
0.062220722
0.024534542
0.062930413
0.027278157
0.063719734
0.030228602
0.064454705
0.032956051
0.065163875
0.035946007
0.065793968
0.038636553
0.066361317
0.041576172
0.066799489
0.04435812
0.067152422
0.047155876
0.067205787
0.050124885
0.06691837
0.052947805
0.066052937
0.055865269
0.059096792
0.064539656
0.064775085
0.0084216206
0.064671217
0.01083509
0.064748214
0.013335897
0.064977914
0.015887621
0.065378075
0.018446908
0.065878934
0.021100525
0.066537211
0.023876266
0.067271629
0.026543739
0.068086987
0.029413244
0.06884501
0.03219803
0.069548697
0.03524232
0.070092701
0.03809255
0.070452219
0.041216654
0.07063306
0.044177279
0.070484603
0.047304333
0.069997856
0.050611633
0.069091227
0.053854433
0.067407823
0.057548674
0.061228837
0.065275778
0.069500713
0.0087837541
0.069389352
0.010946452
0.069435816
0.013289433
0.069720626
0.01560281
0.070120387
0.018047148
0.07064303
0.020577882
0.071246701
0.023272595
0.071917831
0.02587261
0.072653629
0.028677447
0.073351311
0.031500348
0.073979331
0.0346143
0.074462266
0.037609615
0.074766582
0.040912338
0.074765748
0.044178114
0.074234395
0.047835686
0.073420589
0.051425439
0.071878594
0.055396429
0.069899475
0.059527793
0.064083224
0.067045087
0.074543908
0.0090796257
0.074375729
0.011114631
0.074448235
0.013216927
0.074698305
0.015352741
0.075113648
0.017631805
0.075631946
0.020059584
0.076275146
0.022629395
0.076892747
0.025255009
0.077509082
0.028061113
0.07804652
0.030962911
0.078572592
0.03408823
0.078899142
0.037283066
0.07903123
0.04078025
0.078798054
0.04441129
0.078272101
0.04836164
0.077401179
0.05229636
0.075942262
0.056855346
0.074259286
0.06121077
0.066710315
0.071632195
0.080142203
0.0093837006
0.079917344
0.011339491
0.080060334
0.013073938
0.08025817
0.015154905
0.080689185
0.017200791
0.081107506
0.019641263
0.081740248
0.021996653
0.082282704
0.024712553
0.082878801
0.027465017
0.08334387
0.030497843
0.083763835
0.033668266
0.083942158
0.037104743
0.084030843
0.040691565
0.083797974
0.044644159
0.083646471
0.048513143
0.082914997
0.053027835
0.082476467
0.057293875
0.08176452
0.061922718
0.066932565
0.08154227
0.085894682
0.0097245497
0.085743769
0.011490404
0.085926863
0.012890843
0.08615948
0.014922288
0.086633447
0.016726825
0.08711045
0.01916426
0.087760779
0.021346325
0.088305876
0.024167457
0.088861497
0.026909396
0.08932133
0.030038012
0.089695009
0.033294589
0.089980309
0.036819444
0.090276438
0.040395436
0.090408221
0.044512377
0.090841354
0.04808001
0.091110305
0.052758884
0.092552394
0.055851786
0.094032697
0.060442416
0.062915797
0.098049465
0.092129879
0.010190025
0.092128766
0.011491518
0.092195674
0.012823936
0.092468614
0.014649348
0.092881878
0.016313561
0.093412124
0.018634014
0.094021294
0.020737155
0.094599958
0.023588794
0.095204493
0.026304862
0.095797129
0.029445378
0.096418862
0.032672857
0.097041068
0.036197239
0.097832934
0.03960357
0.098729932
0.04361538
0.10033409
0.04647585
0.102635
0.050457972
0.10620452
0.052282273
0.11098177
0.055665167
0.055497772
0.11839979
0.098985035
0.010616225
0.099113852
0.0113627
0.099061626
0.012876162
0.099481151
0.014229824
0.099859621
0.015935091
0.10044782
0.018045817
0.10106584
0.020119131
0.10167642
0.022978224
0.10244686
0.025534422
0.10328739
0.028604844
0.10430159
0.031658664
0.10539871
0.035100121
0.10697329
0.03802899
0.1090886
0.041500066
0.11219303
0.043371417
0.11653852
0.046112485
0.12212212
0.046698668
0.12972749
0.048059807
0.046170577
0.13905468
0.10604995
0.011004798
0.10609964
0.011313013
0.10608009
0.012895714
0.1066147
0.013695215
0.10700557
0.015544216
0.10779031
0.017261083
0.10844335
0.019466085
0.10928964
0.022131937
0.11037299
0.024451075
0.11152191
0.027455931
0.11296875
0.030211823
0.11478009
0.033288783
0.11739069
0.035418393
0.12108288
0.037807872
0.12562416
0.038830136
0.1317744
0.039962248
0.13890802
0.039565045
0.1478302
0.039137628
0.03652957
0.15747121
0.11425121
0.011062426
0.11424753
0.011316696
0.11439183
0.01275141
0.11484815
0.013238901
0.11528664
0.015105726
0.11617107
0.016376656
0.1169197
0.018717448
0.11816608
0.020885557
0.11941197
0.023205194
0.1209977
0.025870201
0.12304179
0.028167731
0.12595802
0.030372557
0.12956392
0.031812494
0.13460073
0.032771069
0.1402
0.033230864
0.14742129
0.032740955
0.15502263
0.0319637
0.16375345
0.030406818
0.028229508
0.1720535
0.12245707
0.011072317
0.12236177
0.011411996
0.12276673
0.012346452
0.12316277
0.012842866
0.12382449
0.014444006
0.12472675
0.015474401
0.12576506
0.017679138
0.12729328
0.01935734
0.1288412
0.021657277
0.13123561
0.023475792
0.13401073
0.02539261
0.13802719
0.026356096
0.14239141
0.027448275
0.14829906
0.026863426
0.15440685
0.02712307
0.16184353
0.025304277
0.16894513
0.024862098
0.17649288
0.022859068
0.021992523
0.18272987
0.13177487
0.011041561
0.13157558
0.01161129
0.13219702
0.011725008
0.13256654
0.01247335
0.13353865
0.013471899
0.13456017
0.014452884
0.13596943
0.016269873
0.13770534
0.017621437
0.1398156
0.019547017
0.14279595
0.020495447
0.14622327
0.021965289
0.15082115
0.021758216
0.15584461
0.022424819
0.16198621
0.020721832
0.16795712
0.021152151
0.17467393
0.018587469
0.18023771
0.019298319
0.18572055
0.017376226
0.018093114
0.18961996
0.14136036
0.01107414
0.14140293
0.011568714
0.1420797
0.011048245
0.14255568
0.011997365
0.14376627
0.012261318
0.14488679
0.013332359
0.14668534
0.014471324
0.14874153
0.015565252
0.15146812
0.016820424
0.15477591
0.01718767
0.15891081
0.017830384
0.16371252
0.016956508
0.16890334
0.017233996
0.17446037
0.015164807
0.17973493
0.015877587
0.18499198
0.013330428
0.1887651
0.015525192
0.19199896
0.014142365
0.017261376
0.1928307
0.15173667
0.011338335
0.15217195
0.01113344
0.1526514
0.01056879
0.15340803
0.011240736
0.15476844
0.010900917
0.15610364
0.011997153
0.15826717
0.0123078
0.16054307
0.013289354
0.16386695
0.013496546
0.16746689
0.013587726
0.1719318
0.013365483
0.17642301
0.012465292
0.18135673
0.012300282
0.18585403
0.010667501
0.1899257
0.01180592
0.19290575
0.010350378
0.19453178
0.01389916
0.19526435
0.0134098
0.019090335
0.19343539
0.16303868
0.011467236
0.1637338
0.010438317
0.16412176
0.010180835
0.16544385
0.0099186468
0.16676318
0.0095815899
0.16851637
0.01024396
0.17092404
0.0099001356
0.17348055
0.010732838
0.17715562
0.0098214831
0.18058948
0.01015387
0.18509183
0.0088631288
0.18909085
0.0084662785
0.19330636
0.0080847687
0.19625907
0.00771479
0.19856229
0.0095027028
0.19896786
0.0099448023
0.19845147
0.014415559
0.19653533
0.015325933
0.022882127
0.19274354
0.17530453
0.011387659
0.1758572
0.0098856516
0.17642795
0.0096100784
0.17787979
0.0084668126
0.17904915
0.0084122278
0.1813978
0.0078953168
0.1837138
0.0075841283
0.18679419
0.0076524527
0.19022911
0.0063865628
0.19361407
0.0067689156
0.19769772
0.0047794827
0.20054677
0.0056172244
0.20353585
0.005095692
0.2046155
0.0066351374
0.20512285
0.0089953541
0.20354276
0.01152489
0.20124728
0.016711045
0.19682902
0.019744183
0.029071897
0.19063926
0.18863766
0.010985674
0.18923547
0.0092878479
0.19023617
0.0086093794
0.19164195
0.0070610301
0.19321533
0.0068388535
0.19581838
0.0052922621
0.198106
0.0052965104
0.20154343
0.0042150297
0.20427492
0.0036550635
0.20775403
0.0032898143
0.21030525
0.0022282595
0.2119645
0.0039579763
0.21318611
0.0038740803
0.21226905
0.0075522001
0.2112075
0.01005691
0.20757907
0.015153316
0.20362014
0.020669976
0.19689296
0.026471357
0.036654362
0.1893105
0.20276062
0.010485071
0.20326085
0.0087876183
0.20441761
0.0074526181
0.20573636
0.0057422789
0.20766147
0.004913743
0.20983797
0.003115765
0.21211852
0.0030159568
0.21519829
0.0011352622
0.21754772
0.0013056325
0.22039776
0.00043977529
0.22134957
0.0012764542
0.22250661
0.0028009309
0.22182863
0.0045520625
0.21980577
0.0095750576
0.21684555
0.013017131
0.21145021
0.02054866
0.20626008
0.025860105
0.19872821
0.034003219
0.042238559
0.19314402
0.21813887
0.0098403202
0.21902722
0.007899264
0.22042934
0.0060504947
0.22183381
0.0043378109
0.22396447
0.0027830864
0.22580702
0.0012732139
0.22832292
0.000500056
0.23065639
-0.0011982074
0.23251358
-0.00055156296
0.23400561
-0.001052249
0.23407531
0.0012067501
0.23398211
0.002894134
0.23133945
0.0071947278
0.22865119
0.012263317
0.2239387
0.017729614
0.21903766
0.025449708
0.21464683
0.030250933
0.21036861
0.038281436
0.041486328
0.21112084
0.23429496
0.0091878093
0.2352107
0.0069835314
0.23646109
0.0048000984
0.23806217
0.0027367298
0.23996125
0.00088400446
0.24165527
-0.00042080408
0.2439424
-0.0017870733
0.24500505
-0.0022608614
0.24628984
-0.0018363554
0.24648201
-0.0012444138
0.24589691
0.0017918466
0.24415318
0.0046378643
0.2407487
0.010599206
0.23762628
0.015385741
0.23345078
0.021905118
0.23169046
0.027210022
0.23068792
0.031253473
0.23358503
0.035384329
0.033446565
0.24162479
0.25254262
0.0081961171
0.25363934
0.0058868072
0.25499725
0.0034421917
0.25656114
0.0011728339
0.25804091
-0.00059576388
0.2597171
-0.0020969948
0.26101923
-0.0030892071
0.26164663
-0.0028882602
0.26236309
-0.0025528142
0.26150111
-0.00038243315
0.26031973
0.0029732186
0.25759834
0.0073592611
0.25486958
0.013327964
0.25257812
0.017677203
0.25160028
0.022882954
0.25342561
0.025384698
0.25709079
0.027588291
0.26615734
0.026317778
0.023484897
0.27611901
0.27145951
0.0070586893
0.27267482
0.0046714933
0.27404373
0.0020732841
0.27518129
3.5272917e-05
0.27622995
-0.001644426
0.2771755
-0.003042555
0.27743258
-0.0033462818
0.27757893
-0.0030346127
0.27682353
-0.0017974133
0.27542704
0.0010140473
0.27372158
0.0046786794
0.27164124
0.0094396007
0.27116508
0.013804128
0.27181967
0.017022608
0.27487495
0.019827682
0.2800122
0.020247444
0.28775087
0.01984962
0.2971252
0.016943444
0.01693131
0.30367879
0.29255598
0.0056913038
0.29387214
0.0033553291
0.29505397
0.00089144966
0.29595429
-0.00086505027
0.29667478
-0.0023649121
0.29705322
-0.003420995
0.29729387
-0.0035869393
0.29717198
-0.0029127169
0.29616978
-0.00079521938
0.29491859
0.0022652357
0.29345217
0.0061451011
0.29294546
0.0099463019
0.29414113
0.012608461
0.29668813
0.014475608
0.30146352
0.015052297
0.30776558
0.013945385
0.31513306
0.01248214
0.32065614
0.01142036
0.014146131
0.32344132
0.3149095
0.004175565
0.3163201
0.0019447313
0.31714574
6.5804465e-05
0.31734996
-0.0010692717
0.31708384
-0.0020987954
0.31640269
-0.0027398513
0.31540227
-0.0025865208
0.31419261
-0.0017030545
0.31314216
0.00025522169
0.31260408
0.0028033203
0.31322261
0.0055265724
0.31565427
0.0075146402
0.3196303
0.0086324255
0.32497346
0.0091324477
0.33127156
0.0087542038
0.33711279
0.008104149
0.34134718
0.008247754
0.34296894
0.0097985988
0.013876953
0.34323811
0.33992595
0.0023111299
0.34130308
0.0005676015
0.341772
-0.00040311778
0.3415396
-0.00083687474
0.34074728
-0.0013064777
0.33984964
-0.00184221
0.33914561
-0.0018825004
0.3386696
-0.0012270412
0.33852152
0.00040329874
0.33935941
0.0019654201
0.34116001
0.003725979
0.34422199
0.0044526549
0.34760015
0.0052542653
0.35163774
0.0050948589
0.35485849
0.0055334548
0.35754402
0.0054186192
0.35942816
0.0063636089
0.36172261
0.0075041519
0.0083960735
0.36720349
0.36624979
0.36681739
0.36641427
0.3655774
0.36427092
0.36242871
0.36054621
0.35931916
0.35972246
0.36168788
0.36541386
0.36986651
0.37512078
0.38021564
0.38574909
0.39116771
0.39753132
0.40503547
0.41343155
0.059919547
0.063298357
-0.058218962
0.054283577
0.065616161
-0.05998019
0.048694193
0.066020524
-0.06043114
0.042217315
0.06731895
-0.060842072
0.035662545
0.067622076
-0.061067307
0.028256388
0.066221336
-0.058815178
0.019305267
0.066000508
-0.057049388
0.011974302
0.058803618
-0.051472653
0.0044356747
0.040917498
-0.033378871
-0.010143225
0.037607987
-0.023029087
-0.028842433
0.045531646
-0.026832439
-0.046531392
0.050371063
-0.032682104
-0.064029821
0.049377559
-0.03187913
-0.081281627
0.050271564
-0.033019758
-0.095172535
0.049836611
-0.035945703
-0.10629888
0.048450413
-0.037324067
-0.11561851
0.047932073
-0.03861245
-0.12231529
0.047506999
-0.040810213
0.047007042
-0.127002
-0.042320336
0.058434716
0.069403296
0.051864706
0.072186171
0.044944007
0.072941223
0.037442442
0.074820515
0.029621757
0.075442762
0.020649412
0.075193681
0.012357364
0.074292556
0.00675453
0.064406452
-0.0062459726
0.053918001
-0.026251268
0.057613282
-0.044802142
0.06408252
-0.061799058
0.067367979
-0.079534485
0.067112987
-0.096087616
0.066824694
-0.10874927
0.062498261
-0.11840131
0.058102459
-0.12554677
0.05507753
-0.13038466
0.052344894
0.050056293
-0.13343392
0.058037424
0.076641651
0.050583075
0.07964052
0.041959717
0.081564581
0.032663039
0.084117193
0.022617166
0.085488635
0.011445136
0.08636571
0.0029148626
0.08282283
-0.0062816552
0.07360297
-0.026823236
0.074459582
-0.050928646
0.081718692
-0.070671771
0.083825645
-0.08871753
0.085413739
-0.10505369
0.08344915
-0.1177187
0.079489699
-0.12664118
0.071420739
-0.13359693
0.065058215
-0.13758644
0.059067041
-0.13883252
0.053590972
0.049665288
-0.13844151
0.058965111
0.084721628
0.05027127
0.088334361
0.040105391
0.09173046
0.028784143
0.095438441
0.015625843
0.098646936
-4.4341363e-06
0.10199599
-0.015036434
0.09785483
-0.031746544
0.090313079
-0.053990658
0.096703696
-0.077691205
0.10541924
-0.098713527
0.10484797
-0.11773205
0.10443226
-0.13377533
0.099492433
-0.14614091
0.09185528
-0.15441705
0.079696883
-0.15859119
0.069232351
-0.1593374
0.05981325
-0.15724627
0.051499847
0.045453016
-0.153034
0.063251976
0.093101847
0.053890367
0.097695971
0.043134049
0.10248678
0.030748973
0.10782352
0.016097004
0.11329891
-0.0017697019
0.11986269
-0.025557585
0.12164271
-0.05057155
0.11532704
-0.071924221
0.11805637
-0.092678328
0.12617335
-0.11357728
0.12574692
-0.13173309
0.12258808
-0.14739085
0.11515019
-0.16057343
0.10503786
-0.17066798
0.089791432
-0.17640351
0.074967881
-0.17757402
0.060983756
-0.17459987
0.048525703
0.039403319
-0.16855018
0.073936201
0.10070792
0.065632017
0.10600015
0.056612175
0.11150662
0.046425872
0.11800982
0.0346949
0.12502988
0.020951002
0.13360659
-0.0002920766
0.14288579
-0.029540656
0.14457562
-0.056408708
0.14492442
-0.077957818
0.14772245
-0.098774155
0.14656325
-0.11710014
0.14091406
-0.13337557
0.13142562
-0.1464781
0.11814039
-0.15639005
0.099703384
-0.16074822
0.079326055
-0.15963663
0.059872159
-0.15518091
0.044069987
0.033448269
-0.14922586
0.092100172
0.10665721
0.086470735
0.11162959
0.080665781
0.11731158
0.075121691
0.12355391
0.069721302
0.13043027
0.065101466
0.13822643
0.06064107
0.14734619
0.050208575
0.15500812
0.035904698
0.1592283
0.022044854
0.1615823
0.0079998932
0.16060821
-0.0056666111
0.15458057
-0.017160287
0.14291929
-0.025977052
0.12695715
-0.032861159
0.10658749
-0.037950538
0.084415433
-0.042145627
0.064067248
-0.046491636
0.048415996
0.038193598
-0.051236964
0.11461876
0.11043825
0.11154356
0.11470478
0.10897316
0.11988198
0.107807
0.12472007
0.1076974
0.13053986
0.10966345
0.13626038
0.11463353
0.14237611
0.12029738
0.14934426
0.12544021
0.15408547
0.13005527
0.15696723
0.13402317
0.15664032
0.13605461
0.15254912
0.13497581
0.1439981
0.13067855
0.13125441
0.12334894
0.11391711
0.11211515
0.095649218
0.097584171
0.07859823
0.080743116
0.065257051
0.056317044
0.06261967
0.13676598
0.11272695
0.13491213
0.11655863
0.13416907
0.12062504
0.13470821
0.12418093
0.13715736
0.12809071
0.14125631
0.13216144
0.14750612
0.13612629
0.15624207
0.14060832
0.16681823
0.14350931
0.17847049
0.14531497
0.1891918
0.14591901
0.19826697
0.14347395
0.20415092
0.13811415
0.20607494
0.12933038
0.20246532
0.11752673
0.19301106
0.10510348
0.17801342
0.093595863
0.15939993
0.083870542
0.075869044
0.13984793
0.15530519
0.11489297
0.15406379
0.11780002
0.15360206
0.12108677
0.15432447
0.12345853
0.15670284
0.12571234
0.16017347
0.12869081
0.16515078
0.13114898
0.17255448
0.13320462