/*--------------------------------*- C++ -*----------------------------------*\
  =========                 |
  \\      /  F ield         | OpenFOAM: The Open Source CFD Toolbox
   \\    /   O peration     | Website:  https://openfoam.org
    \\  /    A nd           | Version:  11
     \\/     M anipulation  |
\*---------------------------------------------------------------------------*/
FoamFile
{
    format      ascii;
    class       surfaceScalarField;
    location    "12.5";
    object      phi;
}
// * * * * * * * * * * * * * * * * * * * * * * * * * * * * * * * * * * * * * //

dimensions      [0 3 -1 0 0 0 0];

internalField   nonuniform List<scalar> 
8667
(
1.5884009
0.18934773
2.91089e-05
1.398434
0.18989671
7.0219923e-05
1.2070498
0.19128541
9.8798401e-05
1.0165832
0.19031411
0.00015246782
0.82463155
0.19177055
0.00018113749
0.63533764
0.18905281
0.00024109403
0.44433212
0.1907311
0.00027442129
0.26018191
0.1838019
0.0003483137
0.18078149
0.0004371063
0.078963314
1.5885528
0.37857276
1.3981581
0.38029142
1.2069796
0.38246386
1.0158257
0.38146806
0.82443777
0.38315845
0.63388003
0.37961055
0.44393812
0.38067301
0.26025146
0.36748856
0.36348843
0.07754452
1.588506
0.56784453
1.398128
0.57066948
1.2068517
0.57374016
1.0154758
0.57284397
0.82351742
0.57511678
0.6332337
0.56989428
0.44287304
0.57103367
0.25888865
0.55147295
0.54691723
0.075459849
1.5884169
0.75720545
1.3983743
0.76071201
1.2067432
0.76537131
1.0154554
0.76413178
0.82297061
0.76760156
0.63212393
0.76074096
0.44137965
0.76177795
0.25703969
0.73581291
0.73036546
0.073591456
1.5884472
0.94653587
1.3984886
0.95067064
1.2070389
0.956821
1.0154446
0.95572604
0.82285369
0.96019247
0.63135718
0.95223748
0.44034618
0.95278895
0.255355
0.92080409
0.91355946
0.072161005
1.5885123
1.1358014
1.3987239
1.140459
1.2074058
1.1481391
1.0156343
1.1474976
0.82283881
1.1529879
0.6304206
1.1446557
0.43865694
1.1445526
0.25312497
1.1063361
1.0965634
0.07012099
1.5885789
1.3250003
1.3989984
1.3300395
1.2078977
1.3392398
1.0158965
1.3394989
0.82289078
1.3459936
0.63020274
1.3373437
0.4377571
1.3369982
0.25089776
1.2931954
1.2797443
0.067716896
1.588782
1.5139961
1.39921
1.5196114
1.2084758
1.5299741
1.0164967
1.5314779
0.82294229
1.539548
0.62943412
1.5308519
0.43614589
1.5302865
0.2484686
1.4808727
1.462638
0.065574878
1.5890123
1.7027615
1.3996291
1.7089947
1.2089161
1.720687
1.0171129
1.7232812
0.82348654
1.7331744
0.62966744
1.724671
0.43527333
1.7246806
0.24574478
1.6704012
1.6467565
0.06162627
1.8851723
1.595367
2.0673474
1.5956028
2.2492011
1.5959247
2.4308802
1.5960988
2.6122443
1.5964119
2.7933224
1.5967
2.9742332
1.5968672
3.1545194
1.5974918
1.5973255
3.3349719
1.8920941
1.4122676
2.0749328
1.4127641
2.2576185
1.413239
2.4399124
1.4138049
2.6220864
1.414238
2.8036788
1.4151076
2.9850777
1.4154683
3.1660031
1.4165663
1.4164726
3.346856
1.9057032
1.2272513
2.0904327
1.2280347
2.2748581
1.2288136
2.4586835
1.2299794
2.6422468
1.2306747
2.8252553
1.232099
3.008049
1.2326746
3.190481
1.2341343
1.234513
3.3724406
1.9099515
1.040581
2.0963538
1.0416324
2.2829805
1.0421869
2.4693305
1.0436294
2.6556858
1.0443194
2.8417778
1.0460071
3.0277088
1.0467436
3.2133628
1.0484803
1.0492236
3.3986522
1.9222635
0.85149186
2.111558
0.85233791
2.3011328
0.85261204
2.4909633
0.85379897
2.6807864
0.8544963
2.8708584
0.85593509
3.0605368
0.85706511
3.2503364
0.85868072
0.86017295
3.4393871
1.9147483
0.66141457
2.1060683
0.66101793
2.298012
0.66066828
2.4911791
0.66063191
2.6845508
0.66112461
2.8790306
0.66145524
3.0734022
0.66269358
3.2688026
0.66328027
0.66479514
3.4641804
1.9155852
0.47050995
2.1091243
0.46747879
2.3035427
0.46624994
2.5011129
0.46306173
2.6993895
0.462848
2.8999486
0.46089617
3.1007086
0.46193356
3.3031511
0.46083771
0.46271911
3.5052272
1.8586639
0.28224729
2.0535188
0.27262391
2.2521515
0.26761724
2.4555556
0.25965762
2.6606802
0.25772337
2.8689638
0.2526126
3.0780214
0.25287596
3.2893286
0.24953048
0.25144066
3.5006071
1.8374972
0.091506578
2.0479188
0.062202337
2.2719866
0.043549406
2.5026294
0.02901484
2.7353423
0.025010481
2.9687193
0.019235647
3.2034728
0.018122454
3.4374436
0.015559679
3.6726846
0.016199611
3.3240811
0.010890793
3.3137712
0.010309856
3.3035973
0.010173888
3.2942105
0.0093868636
3.2849127
0.0092977914
3.2765453
0.00836737
3.2681929
0.0083524123
3.2609013
0.0072915939
0.0073259027
3.2535754
3.3385659
0.019180917
3.3310067
0.017869039
3.3235881
0.017592556
3.316897
0.016077882
3.3103158
0.015879037
3.3045661
0.014117092
3.2989074
0.014011105
3.2942191
0.011979914
0.012021397
3.2895236
3.3653598
0.026261678
3.3587673
0.024461584
3.3524695
0.023890387
3.3465614
0.021985963
3.3410037
0.021436688
3.3358666
0.019254256
3.3311404
0.018737259
3.3269104
0.016209926
0.01579823
3.3231336
3.393455
0.031458953
3.3887251
0.02919145
3.3843301
0.02828538
3.3802396
0.02607649
3.3764688
0.025207457
3.3730167
0.022706403
3.3698787
0.021875194
3.3670597
0.019028995
0.01832778
3.3645301
3.4343937
0.036452396
3.4297679
0.033817259
3.4254099
0.032643324
3.4213631
0.030123306
3.417556
0.029014567
3.4140633
0.026199101
3.4107836
0.025154885
3.4077842
0.022028402
0.021154136
3.4049578
3.4615417
0.039091128
3.4592396
0.036119333
3.4572862
0.034596761
3.4554266
0.031982926
3.4538339
0.030607196
3.4520834
0.027949594
3.4505362
0.026702118
3.4485194
0.024045222
0.023030418
3.4466431
3.5036302
0.040688071
3.5018232
0.037926384
3.5004351
0.035984869
3.498647
0.033771019
3.4970778
0.032176369
3.49474
0.030287419
3.492334
0.029108051
3.4887415
0.027637785
0.026799023
3.4849729
3.5099905
0.031304653
3.5185081
0.029408761
3.5278155
0.026677518
3.5357499
0.025836567
3.543782
0.024144335
3.5495653
0.024504049
3.5543472
0.024326141
3.5551703
0.026814766
0.028667486
3.5533018
3.6905714
0.013417899
3.7052678
0.014712303
3.7158471
0.01609825
3.7227033
0.018980338
3.723896
0.022951704
3.7190158
0.029384174
3.7075091
0.035832897
3.6888173
0.0455065
3.6659282
0.051556672
3.6494376
0.068169233
-0.051678652
3.618846
0.066063731
-0.035472189
3.5821976
0.062764179
-0.026115731
3.5431601
0.061438799
-0.022401356
3.5023994
0.058393409
-0.017632619
3.460647
0.057706185
-0.015953862
3.418796
0.054888592
-0.013037512
3.3774051
0.055060133
-0.013669234
0.052677827
3.3366228
-0.011895526
3.5596949
0.061776127
3.5626154
0.063143275
3.5615609
0.063818655
3.558361
0.064638634
3.5516853
0.065069141
3.5435383
0.065853162
3.5319933
0.066433581
3.5197395
0.067313948
0.067870019
3.5045473
3.4919148
0.054834201
3.498479
0.056579117
3.5034416
0.05885601
3.5075658
0.060514482
3.5099183
0.06271661
3.5114898
0.064281677
3.5114582
0.066465127
3.5106801
0.068092084
0.070376199
3.5081739
3.4565982
0.044879096
3.4668146
0.0463627
3.4760646
0.049605984
3.4855241
0.051054983
3.4938825
0.054358256
3.5023305
0.055833698
3.5095518
0.059243774
3.5168121
0.06083181
0.064403271
3.522785
3.4145921
0.035244872
3.4246466
0.036308202
3.4345355
0.039717028
3.4448256
0.040764853
3.4548064
0.044377529
3.4651953
0.045444811
3.4751446
0.049294391
3.4855488
0.050427673
0.054556466
3.4953956
3.375041
0.024733989
3.3859954
0.025353794
3.3971821
0.02853029
3.4088388
0.029108149
3.4206299
0.03258651
3.4329406
0.033134104
3.4452945
0.036940478
3.4582453
0.037476876
0.041653976
3.4711478
3.3324332
0.0154344
3.3423237
0.015463269
3.3526357
0.018218322
3.3635907
0.018153141
3.3749369
0.021240309
3.3870145
0.021056432
3.3994626
0.024492375
3.4127463
0.024193182
0.028040728
3.4263596
3.2984483
0.0065096497
3.3076102
0.0063013366
3.3176521
0.0081764391
3.3279312
0.0078740408
3.3393071
0.0098644307
3.350919
0.0094445625
3.3637863
0.011625015
3.3768325
0.011147007
0.013553193
3.39132
3.260085
3.2663864
3.2745628
3.2824369
3.2923013
3.3017458
3.3133709
3.3245179
3.3380711
3.3511123
-0.01304119
3.3668386
-0.015726344
3.3819902
-0.015151652
3.4001418
-0.018151538
3.4176845
-0.017542757
3.4385394
-0.020854872
3.4587661
-0.02022669
3.4827286
-0.023962527
-0.023311142
3.5060398
3.4059157
-0.027636832
3.4221494
-0.031960067
3.4384603
-0.031462497
3.4566302
-0.036321476
3.4748305
-0.035743045
3.4951935
-0.04121789
3.5155368
-0.040569975
3.5383426
-0.046768338
-0.046052571
3.561084
3.4409309
-0.04220817
3.4557817
-0.046810889
3.4717396
-0.04742034
3.4879373
-0.052519215
3.5054189
-0.05322459
3.5231152
-0.058914231
3.5422979
-0.059752639
3.5616845
-0.066154937
-0.067149232
3.5827811
3.484755
-0.055815433
3.4982232
-0.060279083
3.5125376
-0.06173471
3.5266362
-0.066617781
3.5417551
-0.068343524
3.556609
-0.07376816
3.5726848
-0.075828398
3.5884791
-0.081949224
-0.084389014
3.6057188
3.505787
-0.066206863
3.5155127
-0.070004756
3.5259249
-0.072146886
3.5355821
-0.076275044
3.5460988
-0.078860171
3.5558108
-0.08348023
3.5665643
-0.086581887
3.5765049
-0.091889813
-0.09556527
3.5876812
3.528852
-0.072273801
3.5335876
-0.074740393
3.5385364
-0.077095632
3.5421327
-0.079871401
3.5461162
-0.082843652
3.5487746
-0.086138645
3.5520341
-0.089841411
3.5540201
-0.093875751
-0.098377468
3.5568323
3.505227
-0.069326852
3.5007615
-0.070274979
3.4959787
-0.072312744
3.4899428
-0.073835559
3.4836052
-0.076506048
3.4762601
-0.078793514
3.468637
-0.082218325
3.4602324
-0.08547111
-0.089745553
3.4516004
3.4889906
-0.053770133
3.4707033
-0.051987613
3.4523235
-0.053933033
3.4313155
-0.052827476
3.4104355
-0.0556261
3.3869332
-0.055291218
3.3637446
-0.059029747
3.3379024
-0.05962892
-0.06438478
3.3125417
3.2964086
-0.013555957
3.2563567
-0.011935699
3.2167126
-0.014288951
3.1765507
-0.012665604
3.1367624
-0.015837823
3.0956333
-0.01416211
3.0548856
-0.018282061
3.0119343
-0.016677594
2.9696376
-0.022088098
0.066206723
2.9239563
-0.020525376
0.094214373
3.284534
0.10341941
3.4423954
0.10176585
3.5584858
0.091379101
3.5980679
0.07440371
3.6226942
0.053090867
3.604094
0.027517838
3.5866571
3.5335576
0.072238227
2.8793979
-0.027679867
0.099336663
3.2574356
0.10865757
3.4330745
0.10604408
3.5610993
0.094216364
3.6098956
0.075552399
3.6413582
0.052294011
3.6273524
0.026866669
3.6120844
3.5604243
0.075582175
2.8300861
-0.026270307
0.1054376
3.2275802
0.11513504
3.4233771
0.11334571
3.5628886
0.10225556
3.6209858
0.08380763
3.6598061
0.060305449
3.6508545
0.031618184
3.6407717
3.5920425
0.083273925
2.7828796
-0.036067489
0.11142763
3.1994265
0.1210583
3.4137464
0.11821348
3.5657335
0.10547319
3.6337261
0.085078994
3.6802003
0.059392499
3.676541
0.030967681
3.6691965
3.6230101
0.088526306
2.730014
-0.035660732
0.11941375
3.168539
0.12920257
3.4039576
0.12682685
3.5681092
0.11473846
3.6458145
0.09447688
3.7004619
0.068504671
3.7025133
0.036337498
3.7013637
3.6593476
0.09830533
2.6820904
-0.050381712
0.1263407
3.1405036
0.13572095
3.3945773
0.13212385
3.5717063
0.11826898
3.6596693
0.095801116
3.7229298
0.067413907
3.7309005
0.035677351
3.7331002
3.695025
0.10551387
2.6290882
-0.052511623
0.13653523
3.1094823
0.145879
3.3852335
0.1423958
3.5751895
0.12892574
3.6731394
0.10646634
3.7453892
0.077632344
3.7597345
0.041603936
3.7691286
3.7366289
0.11834068
2.5871234
-0.076375916
0.14437877
3.0834442
0.15282264
3.3767897
0.14793018
3.5800819
0.13259014
3.6884794
0.10774286
3.7702365
0.076557466
3.7909199
0.041183664
3.8045024
3.7778126
0.12908584
2.535594
-0.077556451
0.15768146
3.0548486
0.16584379
3.3686274
0.16081397
3.5851118
0.14561257
3.7036808
0.12024462
3.7956044
0.087778411
3.8233861
0.047348716
3.8449321
3.8251613
-0.0084019191
3.8335632
-0.0079452108
3.8444754
-0.0053413307
3.8207822
0.0040203124
3.7862428
0.016826226
3.6908749
0.036093354
3.5658446
0.056711514
3.3480092
0.073544396
3.0380157
2.5518417
0.057296759
-0.013076608
3.8466398
-0.017316681
3.8487155
-0.01621026
3.8196758
-0.0079382565
3.7779708
0.0042067842
3.6787299
0.022420606
3.5476308
0.040536969
3.3298928
0.058730919
3.0198217
2.5555811
0.054991528
-0.012007521
3.8586474
-0.014879954
3.8515879
-0.014406498
3.8192023
-0.0068807169
3.770445
0.0038167782
3.6680324
0.021011914
3.5304357
0.038829985
3.3120748
0.053398071
3.0052536
2.5586396
0.05033952
-0.016459862
3.8751072
-0.023936935
3.859065
-0.025776823
3.8210422
-0.019829829
3.764498
-0.0093058512
3.6575084
0.0072327565
3.5138971
0.0239096
3.2953979
0.040198024
2.9889652
2.5640392
0.034798426
-0.015484916
3.8905921
-0.021438316
3.8650184
-0.023212413
3.8228163
-0.017338651
3.7586242
-0.0081868902
3.6483566
0.0074125716
3.4982976
0.02380588
3.2790046
0.036432362
2.9763387
2.5633502
0.037121381
-0.020080005
3.9106721
-0.030194048
3.8751324
-0.034758527
3.8273808
-0.030791633
3.7546573
-0.021639166
3.6392042
-0.0064995465
3.483158
0.0093390401
3.263166
0.025407011
2.9602708
2.5610722
0.027685017
-0.019381472
3.9300536
-0.027478813
3.8832298
-0.031397757
3.8312997
-0.026939497
3.7501991
-0.019190978
3.6314557
-0.0049482276
3.4689152
0.010707187
3.2475106
0.023860892
2.9471171
2.552945
0.031988082
-0.023886757
3.9539404
-0.035646826
3.8949898
-0.042919159
3.838572
-0.04063449
3.7479144
-0.032811747
3.6236329
-0.018736588
3.4548401
-0.0029199363
3.231694
0.014485367
2.9297118
2.5437869
0.023643482
-0.022818589
3.976759
-0.032869718
3.905041
-0.038935828
3.8446382
-0.03519411
3.7441727
-0.02879649
3.6172353
-0.015545167
3.4415888
0.00021569119
3.2159331
0.014418911
2.9155085
2.529488
0.028717838
-0.0063716827
2.5144122
0.021447432
0.012764884
2.896372
0.028903438
3.1997945
0.042357593
3.4281346
0.048729348
3.6108635
0.050048318
3.7428537
0.040378332
3.8543081
0.026954929
3.9184644
4.0037139
-0.0074926961
2.4948925
0.027012448
0.0080724189
2.8808069
0.023959214
3.1839077
0.036590873
3.4155029
0.041952637
3.6055018
0.045001728
3.7398046
0.037254828
3.862055
0.025589706
3.9301295
4.0293036
-0.00053228577
2.4751945
0.02023024
0.020176128
2.8600984
0.036666836
3.167417
0.050044196
3.4021256
0.054984588
3.6005614
0.055084586
3.7397046
0.043841494
3.8732981
0.029264577
3.9447064
4.0585682
-0.0026864344
2.4518787
0.026002222
0.013966491
2.8434455
0.030004229
3.1513793
0.042415284
3.3897145
0.046895584
3.5960811
0.049342276
3.7372579
0.040222479
3.8824179
0.027542149
3.9573867
4.0861103
0.0035258226
2.4288052
0.019547669
0.025301844
2.8216695
0.041784956
3.1348962
0.054849985
3.3766495
0.05895176
3.5919793
0.057960733
3.738249
0.045668524
3.8947101
0.03059565
3.9724596
4.116706
-1.5508361e-05
2.4033296
0.02549111
0.017510201
2.8041438
0.03383744
3.1185689
0.045803287
3.3646837
0.049493358
3.5882892
0.051390241
3.7363521
0.041407745
3.9046926
0.028407105
3.9854603
4.1451131
0.0054137404
2.3786156
0.019300251
0.027874317
2.7816832
0.044251783
3.1021915
0.056849114
3.3520863
0.060278664
3.5848597
0.058287317
3.7383434
0.04556124
3.9174187
0.030714229
4.0003073
4.1758273
0.00060694061
2.352745
0.025263712
0.01833078
2.7639594
0.0348458
3.0856765
0.046265455
3.3406667
0.049330811
3.5817943
0.050703185
3.736971
0.04051491
3.927607
0.027940259
4.0128819
4.2037676
0.0047891462
2.3287264
0.019229389
0.027627776
2.7411207
0.043808134
3.0694961
0.055755716
3.3287191
0.058678861
3.5788712
0.055665857
3.7399841
0.043269618
3.9400032
0.029475323
4.0266762
4.2332429
-0.011494675
4.2447376
-0.011988638
4.0271702
-0.011305952
3.9393205
-0.00513507
3.7338132
0.0013902928
3.5723458
0.01075113
3.3193583
0.02318525
3.057062
0.029984173
2.7343218
2.3167671
0.041943501
-0.010931574
4.2556691
-0.011866166
4.0281048
-0.012479704
3.9399341
-0.011065341
3.7323988
-0.0048489037
3.5661294
0.0048781516
3.3096312
0.015623917
3.0463162
0.028902169
2.7210436
2.3111755
0.034493798
-0.0050961724
4.2607653
-0.003565131
4.0265737
7.5151746e-06
3.9363614
0.0059661368
3.7264402
0.012403131
3.5596924
0.021742468
3.3002919
0.034852049
3.0332066
0.041532197
2.7143634
2.3079721
0.044735539
-0.0025350185
4.2633003
-0.0015647334
4.0256034
0.0012726214
3.9335241
0.0026852445
3.7250276
0.0093405006
3.5530371
0.019065886
3.2905665
0.030902042
3.0213705
0.044604554
2.7006609
2.3140173
0.038559367
0.0042393929
4.2590609
0.0088774244
4.0209654
0.014767231
3.9276343
0.02228061
3.7175142
0.028582721
3.546735
0.037939923
3.2812093
0.052169274
3.0071411
0.060769576
2.6920606
2.3293423
0.045444643
0.0075340381
4.2515269
0.012836397
4.015663
0.018593089
3.9218776
0.021948398
3.7141589
0.028748054
3.5399354
0.037853842
3.2721035
0.051234513
2.9937605
0.071110826
2.6721843
2.3660939
0.034359182
0.014940947
4.2365859
0.02451167
4.0060923
0.03408994
3.9122993
0.04332635
3.7049225
0.050079973
3.5331817
0.058264965
3.2639185
0.073385841
2.9786396
0.092367023
2.6532031
2.4135206
0.044940344
0.019682821
4.2169031
0.029969344
3.9958058
0.040040555
3.9022281
0.045770595
3.6991924
0.053108096
3.5258442
0.060010014
3.2570166
0.072411636
2.966238
0.10832558
2.6172892
2.4828937
0.038952427
0.028168021
4.1887351
0.042684687
3.9812891
0.057027264
3.8878855
0.068947806
3.6872719
0.076418467
3.5183736
0.082970894
3.2504642
0.095374076
2.9538348
0.13514936
2.5775139
2.4987808
0.11926233
-0.17803978
4.3667749
-0.34981178
4.1530611
-0.51748497
4.0555587
-0.66736899
3.8371559
-0.79286156
3.6438662
-0.88662734
3.3442299
-0.92727423
2.9944817
-0.931599
2.5818386
2.4665309
-0.89934917
-0.17595178
4.5427267
-0.35429776
4.3314071
-0.52593171
4.2271927
-0.67850896
3.9897331
-0.80801949
3.7733767
-0.89896163
3.4351721
-0.93416125
3.0296813
-0.90700346
2.5546808
2.2240761
-0.6645486
-0.17662176
4.7193484
-0.35255213
4.5073375
-0.52606526
4.4007058
-0.68709249
4.1507604
-0.81929055
3.9055747
-0.91253203
3.5284136
-0.93054642
3.0476957
-0.84330344
2.4674379
1.557407
-0.17663433
-0.1730524
4.8924008
-0.35487178
4.6891569
-0.53196301
4.577797
-0.69929294
4.3180903
-0.83455965
4.0408415
-0.9273284
3.6211823
-0.92132558
3.0416929
-0.78445542
2.3305677
0.81859862
-0.045647068
-0.17158416
5.063985
-0.35241436
4.8699871
-0.52949944
4.7548821
-0.7078013
4.4963922
-0.84516605
4.1782062
-0.93842438
3.7144406
-0.90496052
3.008229
-0.65642901
2.0820362
0.16333281
-0.0011631987
-0.16593259
5.2299176
-0.35405299
5.0581075
-0.53415968
4.9349888
-0.71741747
4.67965
-0.85949823
4.320287
-0.94591072
3.8008531
-0.85232272
2.914641
-0.40077966
1.6304931
-0.31381737
0.076370528
-0.16120571
5.3911233
-0.35082253
5.2477243
-0.53006356
5.1142298
-0.72426958
4.873856
-0.86886093
4.4648783
-0.93770009
3.8696923
-0.75782716
2.7347681
-0.28281155
1.1554775
-0.65721949
0.060590562
-0.15350989
5.5446332
-0.34805754
5.442272
-0.53272081
5.2988931
-0.73166662
5.0728018
-0.87945071
4.6126624
-0.92851531
3.9187569
-0.65876574
2.4650185
-0.20744907
0.70416087
-0.92055536
0.0558868
-0.14780487
5.692438
-0.34248105
5.6369481
-0.52655722
5.4829693
-0.73614842
5.282393
-0.88407262
4.7605866
-0.88981542
3.9244997
-0.52114007
2.0963431
-0.098025779
0.28104658
-1.0884137
0.069832519
0.034748485
-1.1635375
0.040375311
0.268353
0.047442061
0.54707598
1.8176201
0.56509124
3.9064844
0.46907576
4.8566021
0.32454138
5.4269274
0.20106219
5.6064485
0.073104333
5.764906
5.7655424
0.034320187
-1.2409673
0.04310964
0.25099938
-0.16923713
0.52265375
1.5459658
0.56312372
3.8660145
0.46186112
4.9578647
0.31129224
5.5774962
0.19101524
5.7267255
0.066501864
5.8894194
5.8320442
0.050759765
-1.3365789
0.044851817
0.26643202
-0.38490938
0.50694014
1.3054576
0.55967679
3.8132778
0.46081068
5.0567308
0.30789347
5.7304134
0.18225723
5.8523617
0.057627022
6.0140496
5.8896713
0.06164533
-1.4444872
0.046262959
0.26946326
-0.59272731
0.49127401
1.0836469
0.55587237
3.7486795
0.4509305
5.1616727
0.29343459
5.8879094
0.17146243
5.9743338
0.051151211
6.1343608
5.9408225
0.061258273
-1.5520478
0.046302349
0.26048641
-0.79195545
0.47239562
0.87173768
0.54994995
3.6711251
0.44778943
5.2638332
0.28806524
6.0476336
0.16127006
6.101129
0.042300276
6.2533306
5.9831227
0.05855726
-1.6577009
0.047095911
0.24377789
-0.97717608
0.45334057
0.662175
0.54389368
3.580572
0.43536402
5.3723628
0.27246892
6.2105287
0.1497782
6.2238198
0.035996522
6.3671122
6.0191193
0.053422542
-1.7497133
0.038589857
0.22286941
-1.1466229
0.42809807
0.45694634
0.535442
3.4732281
0.4301788
5.4776261
0.26541314
6.3752943
0.13840616
6.3508267
0.027364139
6.4781543
6.0464834
0.047553521
-1.8428724
0.045605562
0.20658451
-1.3056539
0.41417465
0.2493562
0.52478184
3.3626209
0.41247769
5.5899302
0.24805125
6.5397207
0.12632003
6.472558
0.022043865
6.5824304
6.0685273
0.044950549
-1.8901562
0.0023331903
0.19395248
-1.4546559
0.39694588
0.046362801
0.51268259
3.2468842
0.40801185
5.6946009
0.24225237
6.7054802
0.11496868
6.5998416
0.01520224
6.6821969
6.0837295
0.34539662
-2.1870734
-0.048479349
0.52614145
-1.6354007
0.63173269
-0.059228438
0.49197936
3.3866375
0.1847716
6.0018087
-0.038729161
6.928981
-0.13132608
6.6924386
-0.15718314
6.7080539
5.9265464
0.36915165
-2.5580777
0.0018526407
0.5505428
-1.8167919
0.61287595
-0.12156159
0.39337397
3.6061395
0.093781362
6.3014013
-0.13359677
7.1563591
-0.21991211
6.7787539
-0.20476758
6.6929094
5.7217788
0.3861779
-2.836066
-0.10818966
0.59086217
-2.0214761
0.62172504
-0.15242446
0.28189179
3.9459728
-0.055363525
6.6386566
-0.23390444
7.3349
-0.26211733
6.8069668
-0.21119726
6.6419893
5.5105815
0.39919927
-2.9829937
-0.25227156
0.59218563
-2.2144625
0.5499471
-0.11018593
0.17553621
4.3203837
-0.14022733
6.9544202
-0.30485691
7.4995296
-0.32572168
6.8278316
-0.23748438
6.553752
5.2730971
0.39849924
-3.0262765
-0.35521643
0.60136542
-2.4173287
0.51241816
-0.021238668
0.040742792
4.792059
-0.28713732
7.2823003
-0.37903134
7.5914236
-0.34420572
6.7930059
-0.21874892
6.4282952
5.0543482
0.39437403
-3.0290734
-0.39157705
0.56734154
-2.5902962
0.40101938
0.14508349
-0.05890271
5.2519811
-0.34649159
7.5698891
-0.41573651
7.6606685
-0.38537078
6.7626402
-0.22997215
6.2728966
4.8243761
0.36994449
-3.0006027
-0.39841524
0.52641182
-2.7467635
0.3124238
0.35907151
-0.21659609
5.781001
-0.4736751
7.8269682
-0.46561508
7.6526085
-0.38219208
6.6792172
-0.19196587
6.0826704
4.6324102
0.35360855
-3.0032361
-0.3509752
0.47637497
-2.8695299
0.20124505
0.63420143
-0.28725632
6.2695024
-0.49490965
8.0346215
-0.47615942
7.6338583
-0.40728658
6.6103444
-0.19192201
5.8673058
4.4404882
0.33925495
-0.23313449
-3.1093565
0.44309358
-2.9733685
0.086455422
0.99083958
-0.48255915
6.838517
-0.62013951
8.1722018
-0.51324477
7.5269636
-0.38673613
6.4838357
-0.13487557
5.6154453
4.3056126
-0.37693121
0.28073152
0.059874639
0.03632505
-0.81656515
0.39924193
0.040392016
-1.2822008
0.45401859
0.011617102
-1.5529379
0.35416895
-0.083431887
-1.4095804
-0.043873658
-0.099483869
-1.1470845
-0.32637188
0.063875975
-0.93273088
-0.26778331
0.053429703
-0.22426186
-0.68919521
-0.019273808
-0.6560432
-0.017344069
-0.37394604
0.59119303
0.063484533
-0.79526468
0.82056056
-1.2331696
0.89192352
-1.4308399
0.55183928
-1.20049
-0.27422357
-0.86175857
-0.66510333
-0.62371407
-0.50582781
0.012101784
-1.3250111
-1.3242022
-0.36725531
0.88967819
0.068770143
-0.76088069
1.2141859
-1.1655047
1.2965476
-1.3047071
0.69104161
-1.0299117
-0.5490189
-0.59022514
-1.1047899
-0.14813929
-0.94791365
0.35847078
-1.8316211
-1.7604608
-0.35604636
1.1740305
0.071694006
-0.72173542
1.579875
-1.09352
1.6683322
-1.1563646
0.75388619
-0.83618058
-0.86920295
-0.38555115
-1.5554194
0.13145311
-1.4649179
0.63754229
-2.3377103
-2.1936907
-0.3437839
1.4420556
0.075758853
-0.68115506
1.9172462
-1.0227887
2.0099658
-1.0062307
0.73732816
-0.58828355
-1.2871501
-0.11334212
-2.0303608
0.46479435
-2.0430544
0.94682023
-2.8197362
-2.531058
-0.32768703
1.6930106
0.076731993
-0.63896257
2.2285217
-0.93549878
2.306502
-0.83916565
0.64099503
-0.34157753
-1.7847382
0.16172105
-2.5336594
0.72978225
-2.6111156
1.1773345
-3.2672885
-2.8508722
-0.3156336
1.929488
0.079156188
-0.5942233
2.5071114
-0.84105394
2.5533327
-0.65832743
0.45826852
-0.072161255
-2.3709043
0.43890268
-3.0447233
1.0134829
-3.1856958
1.4307042
-3.6845098
-3.1158006
-0.2967281
2.1448299
0.08138624
-0.5494925
2.7598758
-0.7568158
2.760656
-0.48409544
0.18554815
0.18027487
-3.0352747
0.71122881
-3.5756772
1.2516546
-3.7261216
1.6083403
-4.0411954
-3.3522625
-0.28446223
0.087811173
2.341481
-0.50704975
2.9824633
-0.59511844
2.8487247
-0.20642881
-0.20314147
0.43305472
-3.6747582
0.95874334
-4.1013658
1.4651842
-4.2325625
1.7965248
-4.372536
-3.5662488
0.34607073
3.0540083
-0.2387922
-3.1612869
0.4449171
2.8933588
-2.9922052
0.075448869
-0.70016451
1.0696327
-0.49259861
-6.3405508
6.9085983
-0.6157481
-8.0230389
8.1461884
-0.50982179
-7.6122761
7.5063498
-0.3854234
-6.6022741
6.4778757
-0.13391314
-5.8611093
5.609599
-4.4396469
4.3057337
0.36111791
3.0492001
-0.35630968
0.47984944
2.7746273
0.19286699
-0.41318206
-0.29718919
-5.8504947
-0.49415341
-7.8260747
-0.47320459
-7.6332249
-0.40550215
-6.6699765
-0.19097033
-6.0756411
-4.6306172
0.3772437
3.0738952
-0.40193877
0.53212831
2.6197427
0.30669974
-0.18775349
-0.22761503
-5.3161799
-0.47546378
-7.5782259
-0.46360343
-7.6450853
-0.38075984
-6.7528201
-0.19092708
-6.2654738
-4.8215443
0.40135955
3.0669888
-0.39445323
0.57217205
2.4489302
0.39551897
-0.011100412
-0.068918724
-4.8517422
-0.35003166
-7.297113
-0.41472802
-7.5803889
-0.38384598
-6.7837021
-0.22894456
-6.4203752
-5.0504889
0.40524942
3.0184825
-0.35674313
0.6076815
2.2464981
0.50900697
0.087574124
0.031304032
-4.3740393
-0.29216217
-6.9736468
-0.3790018
-7.4935493
-0.34335966
-6.8193443
-0.21772173
-6.5460132
-5.2682106
0.40555804
2.8640775
-0.25115299
0.59871105
2.0533451
0.54790661
0.13837856
0.16700778
-3.9931404
-0.14628284
-6.6603562
-0.30620978
-7.3336223
-0.32522122
-6.8003328
-0.23670455
-6.6345298
-5.5049151
0.39210133
2.5797278
-0.10775168
0.59778877
1.8476577
0.62152338
0.11464395
0.27449705
-3.6461141
-0.061963782
-6.3238953
-0.23651613
-7.15907
-0.2626228
-6.7742262
-0.21065539
-6.6864972
-5.7155705
0.37452552
2.2031362
0.0020661459
0.55787493
1.6643083
0.61404457
0.058474303
0.38713551
-3.419205
0.087222787
-6.0239826
-0.13720699
-6.9346402
-0.22093958
-6.6904936
-0.2046434
-6.7027934
-5.9202139
0.35056367
1.9009945
-0.048421981
0.5337019
1.48117
0.63459578
-0.042419585
0.48755277
-3.272162
0.17880359
-5.7152334
-0.042670982
-6.7131656
-0.13317391
-6.5999907
-0.15738686
-6.6785805
-6.0776008
-0.072575222
5.7626148
-5.6900395
-0.20016729
5.7659547
-5.6383626
-0.32356803
5.6095022
-5.4861015
-0.46845307
5.4345624
-5.2896774
-0.56544891
4.8675613
-4.7705654
-0.54780505
3.9157525
-3.9333964
-0.26861549
1.8065808
-2.0857704
-0.03473451
0.033014995
-0.26689598
-1.1657551
1.0904759
0.040544761
-0.065989058
5.8286038
-0.19009523
5.8900609
-0.3102314
5.7296384
-0.46103898
5.58537
-0.56333796
4.9698602
-0.52386196
3.8762765
-0.25349666
1.5362155
-0.035685532
-0.18479613
-1.2444323
0.042991573
-0.057132932
5.8857368
-0.18127272
6.0142007
-0.30671565
5.8550813
-0.45987638
5.7385308
-0.5598462
5.0698301
-0.50831396
3.8247443
-0.27000632
1.2979079
-0.05295261
-0.40184984
-1.3421782
0.044793313
-0.050696575
5.9364333
-0.17047985
6.1339839
-0.29219284
5.9767943
-0.44981199
5.8961499
-0.55586565
5.1758837
-0.49294044
3.7618191
-0.27220277
1.0771702
-0.062830253
-0.61122236
-1.4510067
0.04599825
-0.04186411
5.9782974
-0.16024334
6.2523632
-0.28671694
6.1032679
-0.44654477
6.0559777
-0.54988619
5.2792251
-0.47416567
3.6860986
-0.26293801
0.86594254
-0.062261316
-0.81189905
-1.5593727
0.046104737
-0.03560489
6.0139023
-0.14877483
6.3655331
-0.27107693
6.22557
-0.43393714
6.218838
-0.5436379
5.3889259
-0.45554668
3.5980073
-0.24644211
0.65683797
-0.059505013
-0.99883615
-1.6655675
0.046689739
-0.027007294
6.0409096
-0.13738643
6.4759122
-0.26393082
6.3521144
-0.42861462
6.3835217
-0.53517131
5.4954826
-0.430354
3.49319
-0.22563968
0.45212365
-0.054490342
-1.1699855
-1.7580231
0.037965308
-0.021744087
6.0626537
-0.12530826
6.5794764
-0.24652319
6.4733293
-0.41071264
6.5477112
-0.52431811
5.6090881
-0.41635113
3.385223
-0.20921258
0.2449851
-0.048579423
-1.3306186
-1.8521018
0.045499193
-0.014947081
-0.11405115
-0.24071247
-0.4061669
-0.51231227
-0.39925125
-0.19668574
-0.046134341
0.0027583938
0.09651831
0.92360929
0.070348275
0.52046946
-0.69084713
0.89147716
-2.4567781
0.88500278
-3.926922
0.73587859
-4.6214412
0.52578228
-5.0795811
0.34170256
-5.3020218
0.14738668
-5.4440467
-5.5426529
0.20569228
0.66119127
0.056725745
0.6579554
-1.1431103
0.93031952
-2.7291422
0.88040941
-3.8770119
0.73153277
-4.4725646
0.53203752
-4.8800858
0.34734888
-5.1173331
0.15262454
-5.2493224
-5.3900283
0.2819257
0.31789869
0.061366883
0.75815181
-1.6193364
0.939485
-2.9104754
0.86971539
-3.8072423
0.72422271
-4.3270719
0.52951613
-4.6853793
0.35021807
-4.9380351
0.16104488
-5.0601492
-5.2289834
0.39882255
-0.15890395
0.077980096
0.85241118
-2.072925
0.94764281
-3.005707
0.86044492
-3.7200444
0.71750306
-4.1841301
0.53370119
-4.5015774
0.35358038
-4.7579143
0.16519593
-4.8717648
-5.0637875
0.65503394
-0.81314578
-0.00079211417
0.90567862
-2.3235697
0.94001269
-3.0400411
0.84597629
-3.626008
0.70791645
-4.0460702
0.52915045
-4.3228114
0.35198161
-4.5807454
0.17144082
-4.691224
-4.8923467
0.78382221
-1.5518477
-0.045120269
0.92211493
-2.4618624
0.92879126
-3.0467174
0.83543579
-3.5326525
0.69954271
-3.9101771
0.53166075
-4.1549294
0.35448959
-4.4035743
0.17255257
-4.509287
-4.7197941
0.84291535
-2.2189018
-0.17586124
0.9313352
-2.5502823
0.91387694
-3.0292592
0.82004725
-3.4388228
0.6873307
-3.7774606
0.52589996
-3.9934987
0.35226731
-4.2299416
0.17645207
-4.3334717
-4.5433421
0.90680159
-2.4620136
-0.66368985
0.93495503
-2.5784357
0.90016338
-2.9944675
0.80882268
-3.3474821
0.67885511
-3.647493
0.52586978
-3.8405134
0.35406051
-4.0581324
0.17564801
-4.1550592
-4.367694
0.93148067
-2.4948794
-0.89861483
0.92806168
-2.5750167
0.8877553
-2.9541611
0.79358645
-3.2533133
0.66766344
-3.52157
0.51746293
-3.6903128
0.3496615
-3.8903309
0.17789324
-3.983291
-4.1898008
-0.011501227
4.2467566
-4.2352553
-0.012054312
4.0291806
-4.0286275
-0.011470632
3.941281
-3.9418647
-0.0054318292
3.7356182
-3.741657
0.0010132455
3.5735504
-3.5799954
0.01029663
3.3197305
-3.3290139
0.022792355
3.056252
-3.0687477
0.029780338
2.7331928
-2.7401808
2.3161423
-2.328268
0.041905984
-0.010928808
4.2576854
-0.011929504
4.0301813
-0.012629412
3.9419809
-0.011364583
3.7343534
-0.0053781663
3.5675639
0.0042543986
3.310098
0.01509035
3.045416
0.02863608
2.7196471
2.3103036
0.034474773
-0.0050501167
4.2627355
-0.0035669259
4.0286981
-0.00011627294
3.9385303
0.0056945761
3.7285425
0.011994552
3.561264
0.021191608