/*--------------------------------*- C++ -*----------------------------------*\
  =========                 |
  \\      /  F ield         | OpenFOAM: The Open Source CFD Toolbox
   \\    /   O peration     | Website:  https://openfoam.org
    \\  /    A nd           | Version:  11
     \\/     M anipulation  |
\*---------------------------------------------------------------------------*/
FoamFile
{
    format      ascii;
    class       volScalarField;
    location    "0.359175";
    object      T;
}
// * * * * * * * * * * * * * * * * * * * * * * * * * * * * * * * * * * * * * //

dimensions      [0 0 0 1 0 0 0];

internalField   nonuniform List<scalar> 
880
(
500.0000000000027
500.0000002916839
500.0240383612761
503.3396605328592
500.0000000004407
500.0000008556866
500.0298434576675
504.8856797096099
500.0000000016356
500.0000033329485
500.0553085534277
506.7139214112725
500.0000000211684
500.0000146005408
500.1147041133165
509.4263502645381
499.9999999006574
500.0000000749654
500.0000101525876
500.0001636667251
500.000067085261
500.0002567145301
500.0016138433054
500.0023554623493
500.2632470156876
500.4345347455332
500.7184132965114
500.9603173912064
514.9155135292435
521.1099914362195
526.3713820854115
529.0262612803919
500.0004090061632
500.0033830886238
500.0128151552331
500.0397553460023
500.0227816611215
500.09851319885
500.200402714045
500.4217959576846
502.414938017952
503.697489903196
505.2848785653833
507.2290414919052
531.2545278964907
533.8958439781484
534.3904331102159
533.1627455017209
522.839422467752
517.6386334558345
515.4442661063113
513.9700026278061
511.0456398792959
512.6621264082091
513.5760177870195
513.7058240724363
501.176737305597
502.0594509987219
503.0071420954722
503.7652023840216
500.1410669839055
500.3404311612383
500.6409745466059
501.0634793154824
501.5567752734889
502.0489863373874
502.5344063213599
502.8857346554331
504.391260164518
504.7473233109783
504.9488435302919
504.8989646633079
513.0664073452507
512.1681797484397
510.9862000827715
509.7488381035754
512.2217587380547
511.0330090771364
510.2808936821675
509.5138268605651
508.9392057426605
508.87830436988
504.7583124814153
503.0933803942387
519.1844909238976
508.0396097854984
504.3851242100685
503.0539540439864
571.2779588420286
510.4300597702879
503.9279798580592
502.6013153800607
620.3202304456574
523.8845658643054
504.778579617993
502.4432630359653
502.3933081251655
506.064140407466
539.6629926928713
637.4001386705202
501.51345969311
508.5847454173091
556.2834448152048
635.1823710993183
501.8892189876061
514.4315302433623
576.5877729862283
636.1923897663902
503.3205764626815
524.8489458897405
594.7292411944446
633.4421174043973
628.3249172395185
604.7962333948215
539.7907186244498
506.4792849051154
621.8223203951859
607.4538246361348
554.9720795266234
512.1519003801338
614.5080554869007
605.2868637034242
566.9747770268106
521.140554078505
606.6482965856811
594.2635763387466
569.0734332035224
532.0653092733208
541.2697934641471
563.5959857198828
579.7641456348704
597.1556659960436
539.813008592904
552.0507093827101
562.8327022790805
582.2102251000297
535.8183681158173
540.3170893006233
544.5155633147983
560.5794166776108
530.6233613766934
529.8321623363466
525.3164763808522
530.4093531892705
526.7411256516448
520.4479009350939
508.5014897729623
495.5360484225909
520.5825525514689
511.2756009999648
491.9762023512764
459.8403228846665
515.7555944084644
506.0159933201692
477.952737637176
425.10871516462
511.5823723532126
504.582520750141
477.710179711454
399.8123518280105
410.6316199682535
486.8545960558661
503.2601774449133
507.7642179841456
477.9930169452276
493.0522845672865
502.4041878654028
505.1659664661503
517.2847576481414
495.7472406993526
500.874673239588
503.3562768861806
530.199275323561
500.4203139308419
500.2282506295853
502.2874372093931
539.004548689893
504.3340077168145
498.9658254822493
500.3912610408955
533.7852202328276
504.2985412938999
497.66312815337
499.2217460521179
525.7696670595496
503.4802211770991
497.2760497881009
499.1948306720832
517.6803706115463
499.1083556849671
497.0804337185478
499.4046625287783
479.7509682512543
469.405429467843
488.9436437790187
498.6823390032681
474.2307350195649
471.2963852232235
489.432246617842
498.6821063574368
465.2033330802503
473.4217079272481
490.332807240922
498.6960984995703
459.479895935879
476.2539782427956
491.3836357151755
498.785177978179
517.6803706116146
499.1083556846491
497.080433718951
499.4046625285218
525.7696670596782
503.4802211764699
497.2760497881216
499.1948306713818
533.7852202328726
504.2985412931707
497.6631281522164
499.22174605117
539.0045486899759
504.3340077160938
498.9658254820578
500.3912610403032
507.7642179843712
503.2601774451723
486.8545960562342
410.6316199673479
505.165966466062
502.4041878654649
493.0522845679487
477.9930169443635
503.3562768861245
500.8746732396639
495.7472406985028
517.2847576479244
502.2874372091841
500.2282506299475
500.4203139301886
530.19927532391
399.8123518293288
477.7101797112477
504.5825207501423
511.5823723533563
425.1087151647155
477.9527376371703
506.0159933206077
515.7555944084426
459.8403228848927
491.9762023516915
511.2756009999961
520.582552551613
495.5360484229149
508.5014897727443
520.4479009346583
526.741125651759
541.2697934641508
563.5959857204763
579.7641456355335
597.1556659964948
539.8130085924552
552.0507093824046
562.8327022792741
582.2102251005783
535.8183681150369
540.3170893003462
544.5155633147396
560.5794166779511
530.6233613764667
529.8321623359666
525.3164763806628
530.4093531896337
606.6482965860129
594.2635763391279
569.0734332038147
532.0653092742643
614.508055487324
605.2868637037875
566.9747770269298
521.1405540784203
621.8223203956826
607.4538246364095
554.9720795263113
512.1519003801134
628.3249172399209
604.7962333952081
539.7907186248931
506.4792849050413
502.393308125074
506.0641404073884
539.6629926927386
637.4001386704773
501.5134596938655
508.5847454177621
556.2834448153126
635.1823710993759
501.8892189886593
514.4315302443674
576.587772986568
636.1923897662624
503.3205764627299
524.8489458895349
594.7292411949787
633.4421174045682
502.4432630357708
502.6013153799175
503.0539540445052
503.0933803943868
504.7785796172242
503.9279798577984
504.3851242099436
504.7583124812392
523.8845658635661
510.4300597702454
508.0396097849663
508.8783043697032
620.3202304453844
571.2779588416284
519.1844909239509
508.9392057425312
502.8857346559009
504.8989646636447
509.7488381040069
509.5138268610586
502.534406321215
504.9488435307146
510.9862000832064
510.2808936824245
502.0489863374064
504.7473233111715
512.1681797483949
511.0330090765165
501.5567752730478
504.3912601643775
513.0664073456162
512.2217587382436
500.1410669834451
501.1767373052331
511.0456398799124
522.8394224681649
500.3404311605909
502.0594509983146
512.6621264088604
517.6386334559895
500.640974546885
503.0071420952706
513.5760177874382
515.4442661055697
501.0634793150638
503.7652023839182
513.7058240729993
513.9700026273359
533.1627455017638
507.2290414920574
500.4217959575574
500.0397553464082
534.3904331103244
505.2848785655719
500.200402713757
500.012815155079
533.895843978555
503.6974899031622
500.0985131976474
500.0033830880238
531.254527896612
502.4149380177278
500.0227816607332
500.0004090068285
529.0262612801572
500.9603173914817
500.0023554625987
500.0001636674998
526.3713820849179
500.7184132965269
500.0016138429592
500.0000101530901
521.1099914355807
500.434534745454
500.0002567141338
500.000000074648
514.915513528695
500.2632470156145
500.0000670849582
499.999999901189
500.0000000001753
500.0000002918139
500.0240383612264
503.3396605326479
500.0000000005271
500.0000008553968
500.0298434576532
504.8856797096785
500.0000000018922
500.0000033327757
500.0553085535114
506.7139214117809
500.0000000219066
500.000014600341
500.1147041133541
509.4263502647614
506.2234478663016
508.9253730823507
513.2460484517283
521.8917016208742
508.9253730828504
512.383774789471
518.7519179309246
531.3278276047835
513.2460484520009
518.7519179310173
528.876467796415
544.0726773056468
521.8917016209477
531.3278276046317
544.0726773061655
560.2560016654047
577.2390158715162
564.2326888359216
557.350701278937
544.9457380206662
575.4532166033365
571.5425606827321
570.3281944887267
564.6252026434233
575.3901859970982
574.31955451153
573.7588480749533
572.0543145395498
571.9781808420814
571.543113391565
571.6819097758339
570.9773868820263
567.8968183973717
565.5525406159483
560.4606336568521
553.2870164811106
567.5563446164999
565.1522604250164
560.2390248927429
553.9649202112298
567.5727859729859
564.9917076435646
559.9821550053604
554.5588712731844
567.6351989302614
564.7349931121385
560.1855775897001
550.9726317005028
512.3824453095921
492.8112876345476
489.9520511435685
490.4522950871547
501.8277554807314
488.709702942924
489.9728776569295
491.0990941802258
491.5811377957883
488.8790450184718
491.5618824815734
492.8398412803537
469.9274294079408
484.1249123631532
489.9039815274982
491.6012131426798
490.7955865916178
491.8132860146965
493.3351965692949
494.8490551461245
491.0068334467413
491.4840580639627
492.8654669471914
494.8639097680926
492.3197012172187
492.3420835036111
493.2703074949079
494.7387377142914
491.2515955917497
491.4229922400642
492.7286556042213
494.843339392837
505.0085129656388
567.6358491293878
639.3260197381167
664.5306461502693
510.9208053779284
581.1249420786428
641.9802767241998
660.2365943163863
516.3957854977764
589.4584199584194
641.9504425926682
660.9368334454302
520.2011554668294
597.7292489265772
642.1604024809758
661.3475400864349
694.2986338259174
681.4511387570091
670.1546999776975
656.8911448226007
702.7485875868933
690.0129860302662
676.9092935561831
662.5650691506306
708.727276982932
697.4785686294531
683.023171952346
668.052882832691
706.6506713177295
701.3003372428091
687.1997769953766
671.8443548473022
643.6381445989662
633.0447899380222
623.2267129352542
618.9690596179545
648.7401794008063
637.1383714274639
625.9609755285442
621.0679891511944
653.9012891593343
640.6499970479234
629.5216940078178
623.1795003909508
658.3175539407023
643.7130598092217
633.0098678453105
625.6019703295386
615.0670606663008
607.6480645320772
590.9829388215343
565.0099229187316
616.8428600458195
609.2345816050768
593.7811753578185
592.6529049073379
617.83600700161
610.1515806058003
602.76969090359
620.4170095582297
619.7305212203506
614.0007699397327
616.3470573523788
603.9817341445108
522.5314594836325
460.2034037813503
422.5564560531718
425.9621809247903
512.0712015868215
421.9791730021387
305.4767293630947
252.8972023995387
468.7343443670819
368.0973074729027
252.1688840737106
231.8574374002364
368.0099322454736
282.5892090237087
227.8297425793979
239.5990932541685
375.7123515847885
404.0068334571528
471.1146130841316
522.9430639226847
306.4769816742198
380.3993366097773
441.8317392087565
491.704357253679
291.6837294117922
350.9185327102421
404.3913635387397
445.1084739802382
298.944752003724
351.4285578292086
402.0985132377305
431.1200162107563
487.0514076189607
510.3376847065595
509.258877172499
509.6612358462617
435.7667803127611
473.9296553543076
492.6587434196996
510.5431911025267
407.3404540006663
432.9132514882861
470.5458477602474
514.1566172106877
392.481826599288
408.2767461481043
445.0626487023383
512.951978832345
491.8060142884057
470.5990135708436
459.3809130405522
459.6800677232151
495.1584245889628
486.0044583887168
482.0082004224269
475.8888976556876
504.2212591544555
507.4025374424907
501.6101923068614
488.6215469052889
503.5809392237035
508.6068223186173
498.7236982802909
484.0959971425828
465.9395779700189
450.6381777579395
442.2487370830734
439.908115349315
471.5374877998958
455.6980231264988
444.4279790007018
441.0653331284728
469.7976314554394
461.3082278172851
452.6308585333488
449.0148830866503
462.7876931990517
460.2298743384203
455.5042483727655
452.3684657251194
439.9081153492795
441.0653331284395
449.0148830866742
452.3684657252124
442.2487370829081
444.4279790005394
452.6308585333441
455.5042483730197
450.6381777576435
455.6980231262407
461.3082278172239
460.2298743386116
465.9395779696499
471.5374877996617
469.7976314553715
462.7876931991897
459.6800677233762
459.3809130405873
470.5990135711624
491.8060142886711
475.8888976557072
482.008200422521
486.0044583889617
495.1584245891985
488.6215469051788
501.610192306831
507.4025374425027
504.2212591545186
484.0959971423616
498.7236982802003
508.606822318572
503.5809392236712
512.9519788324475
445.0626487027712
408.276746148716
392.481826599896
514.1566172107948
470.545847760648
432.913251488877
407.3404540013255
510.5431911027
492.6587434200146
473.9296553548505
435.7667803136488
509.6612358464003
509.2588771726918
510.337684706934
487.0514076197362
522.9430639225345
471.1146130840482
404.0068334556906
375.7123515934796
491.704357253675
441.831739208976
380.3993366090827
306.4769816744014
445.1084739805336
404.3913635392681
350.9185327100596
291.6837294115375
431.1200162111447
402.0985132383304
351.4285578295477
298.9447520035374
425.9621809460423
422.5564560550497
460.2034037814526
522.5314594842205
252.8972024025512
305.4767293632004
421.9791730021862
512.0712015869054
231.8574374002947
252.1688840733619
368.0973074733429
468.7343443674615
239.5990932543052
227.8297425788964
282.5892090243059
368.0099322458444
565.0099229190855
590.9829388219306
607.6480645325587
615.0670606667122
592.6529049077134
593.7811753579467
609.2345816053407
616.8428600461457
620.4170095584558
602.769690903604
610.1515806057895
617.8360070018398
603.9817341448911
616.3470573523196
614.0007699396234
619.730521220567
618.9690596184763
623.2267129356296
633.0447899380206
643.6381445988242
621.0679891516654
625.9609755287023
637.1383714270812
648.7401794004193
623.1795003912413
629.5216940079335
640.6499970475459
653.9012891590878
625.6019703298675
633.0098678455141
643.7130598091079
658.3175539403379
656.8911448223663
670.1546999774465
681.4511387566963
694.2986338257634
662.5650691503222
676.9092935560703
690.0129860299888
702.7485875867045
668.0528828324755
683.0231719519999
697.4785686289997
708.7272769827786
671.8443548471392
687.1997769951431
701.3003372424471
706.6506713175253
664.5306461502574
639.3260197378644
567.6358491293475
505.008512966105
660.2365943162473
641.9802767239141
581.1249420785419
510.9208053784865
660.936833445195
641.9504425923332
589.4584199582144
516.395785498353
661.347540086174
642.160402480638
597.7292489263588
520.2011554673961
494.8490551467759
493.3351965692988
491.8132860139677
490.7955865913139
494.8639097687412
492.8654669469755
491.484058062998
491.006833446331
494.7387377149394
493.2703074944835
492.3420835026207
492.3197012166819
494.8433393934678
492.7286556038501
491.4229922390062
491.251595591155
490.4522950863712
489.9520511429416
492.8112876349177
512.3824453099608
491.0990941794794
489.9728776560948
488.7097029434472
501.827755481023
492.8398412795832
491.561882480604
488.8790450189195
491.5811377960029
491.6012131418798
489.9039815263291
484.1249123635276
469.9274294081529
553.2870164813534
560.4606336571284
565.5525406165109
567.8968183972667
553.9649202112821
560.2390248929358
565.1522604255167
567.556344616357
554.5588712731458
559.9821550055254
564.9917076439212
567.5727859727095
550.9726317004045
560.1855775897471
564.7349931123682
567.6351989300282
570.9773868811129
572.0543145384297
564.6252026425622
544.9457380207911
571.6819097748308
573.7588480735262
570.3281944870843
557.3507012783951
571.5431133904735
574.319554509808
571.5425606799988
564.2326888339969
571.9781808411461
575.3901859952505
575.4532165998955
577.2390158678714
505.1167318386392
497.248302082626
496.8144839561323
499.4849774039914
485.4190974898327
492.0322551538313
495.3940831074372
499.3461645205742
470.3773524005046
486.3974254505036
493.9812332572349
499.1488896753846
460.1340544277802
480.4304917791934
492.4988471538483
498.9421329514028
498.6823390028634
488.9436437789948
469.4054294678137
479.750968251344
498.6821063570772
489.4322466180032
471.296385223172
474.2307350199175
498.696098499594
490.3328072412997
473.4217079270346
465.2033330805444
498.7851779783134
491.3836357153558
476.2539782426103
459.479895936001
498.942132951307
499.1488896752018
499.3461645209311
499.4849774041315
492.4988471536204
493.9812332570386
495.3940831071507
496.8144839563182
480.430491779282
486.3974254508134
492.0322551543724
497.2483020830047
460.1340544276032
470.3773524002547
485.4190974898428
505.1167318387691
)
;

boundaryField
{
    back
    {
        type            empty;
    }
    inlet
    {
        type            zeroGradient;
    }
    front
    {
        type            empty;
    }
    top
    {
        type            zeroGradient;
    }
    outlet
    {
        type            fixedValue;
        value           uniform 500;
    }
    bottom
    {
        type            zeroGradient;
    }
    wall
    {
        type            zeroGradient;
    }
}


// ************************************************************************* //
