/*--------------------------------*- C++ -*----------------------------------*\
  =========                 |
  \\      /  F ield         | OpenFOAM: The Open Source CFD Toolbox
   \\    /   O peration     | Website:  https://openfoam.org
    \\  /    A nd           | Version:  11
     \\/     M anipulation  |
\*---------------------------------------------------------------------------*/
FoamFile
{
    format      ascii;
    class       surfaceScalarField;
    location    "2.8";
    object      phi;
}
// * * * * * * * * * * * * * * * * * * * * * * * * * * * * * * * * * * * * * //

dimensions      [0 3 -1 0 0 0 0];

internalField   nonuniform List<scalar> 
10792
(
0.067297968
-0.041971854
-0.067664386
0.042338272
0.066776674
-0.039987376
0.04050867
0.066165594
-0.037588924
0.038200004
0.065552982
-0.03545592
0.036068532
0.064802222
-0.032965722
0.033716482
0.064058356
-0.030552736
0.031296601
0.063320672
-0.028211871
0.028949556
0.062549016
-0.025629676
0.026401332
0.061761729
-0.023069055
0.023856343
0.060978555
-0.020491255
0.021274429
0.060244283
-0.017849075
0.018583347
0.059573285
-0.015269634
0.015940633
0.058949991
-0.012590541
0.013213835
0.058382203
-0.0098866603
0.010454449
0.057798782
-0.0071576363
0.0077410569
0.057343786
-0.0043317623
0.004786759
0.05703056
-0.0016306888
0.0019439147
0.056850357
0.0012081702
-0.0010279672
0.0040530261
0.056616231
-0.0038189003
0.07131487
-0.041569226
-0.071717498
0.070746218
-0.039418724
0.070213735
-0.037056441
0.06950728
-0.034749465
0.068726386
-0.032184827
0.068092038
-0.029918388
0.067326988
-0.02744682
0.066550021
-0.024852709
0.06580806
-0.022327095
0.065055351
-0.019738546
0.06436294
-0.017156664
0.063713352
-0.014620046
0.063050921
-0.011928109
0.062461997
-0.0092977369
0.061962723
-0.0066583615
0.061559047
-0.0039280859
0.061206687
-0.0012783289
0.060919102
0.0014957557
0.0042552513
0.060716877
0.075987892
-0.041203468
-0.07635365
0.075439013
-0.038869845
0.074789528
-0.036406956
0.074072131
-0.034032067
0.073466117
-0.031578814
0.072777119
-0.029229389
0.071938373
-0.026608074
0.07122235
-0.024136687
0.070447498
-0.021552242
0.069696042
-0.018987089
0.068977758
-0.01643838
0.068232269
-0.013874557
0.067546676
-0.011242516
0.066973368
-0.0087244289
0.066442813
-0.0061278068
0.06602163
-0.0035069022
0.065657068
-0.00091376716
0.065338815
0.0018140092
0.004411283
0.065182783
0.080585796
-0.040640825
-0.081148439
0.079947786
-0.038231835
0.079369162
-0.035828332
0.07874075
-0.033403656
0.078085799
-0.030923862
0.07727929
-0.02842288
0.076547849
-0.025876633
0.07583734
-0.023426178
0.075044602
-0.020759504
0.074300179
-0.018242667
0.073503946
-0.015642146
0.072781547
-0.013152159
0.072171762
-0.010632731
0.0716112
-0.0081638668
0.0710905
-0.0056071062
0.070681177
-0.0030975788
0.070303267
-0.00053585724
0.070021938
0.0020953384
0.0046050778
0.069828143
0.085688066
-0.040103386
-0.086225505
0.085168261
-0.037712029
0.084608716
-0.035268787
0.083932269
-0.032727209
0.083191826
-0.030183419
0.082420575
-0.027651629
0.081732756
-0.025188814
0.080901445
-0.022594866
0.080101012
-0.01995907
0.079324463
-0.017466118
0.078568191
-0.014885874
0.077946749
-0.012530717
0.077309775
-0.009995757
0.076728399
-0.0075824903
0.076199223
-0.0050779297
0.075777387
-0.0026757427
0.075331895
-9.0365421e-05
0.075099471
0.002327762
0.0048407582
0.074863791
0.091071599
-0.039487555
-0.091687429
0.090632988
-0.037273419
0.089938593
-0.034574392
0.089211986
-0.032000601
0.08848164
-0.029453073
0.087775167
-0.026945157
0.087038171
-0.024451818
0.086216911
-0.021773606
0.085575242
-0.019317402
0.084824668
-0.016715544
0.084179215
-0.014240421
0.083484893
-0.011836395
0.08280103
-0.0093118945
0.082217574
-0.0069990342
0.081640585
-0.0045009404
0.081165852
-0.0022010092
0.080806326
0.00026916107
0.080541559
0.0025925286
0.0050409757
0.080341342
0.097114862
-0.038921071
-0.097681346
0.096368234
-0.036526791
0.095564211
-0.033770369
0.094962462
-0.031398852
0.094267832
-0.028758443
0.093581738
-0.026259063
0.092813842
-0.023683922
0.092135305
-0.021095069
0.091435902
-0.018617998
0.090627561
-0.015907203
0.089937488
-0.013550347
0.089147728
-0.011046634
0.088581168
-0.0087453346
0.087961697
-0.0063795636
0.087501373
-0.0040406156
0.087029217
-0.0017288529
0.086644024
0.00065435351
0.086302782
0.0029337706
0.0052298597
0.086113898
0.10329791
-0.038270597
-0.10394839
0.10278135
-0.036010224
0.10218187
-0.033170889
0.10147928
-0.030696261
0.100643
-0.027922171
0.099953363
-0.025569422
0.09918999
-0.022920549
0.098480923
-0.020386003
0.097701894
-0.017838968
0.096950618
-0.015155927
0.096224178
-0.012823908
0.095487344
-0.0103098
0.094880612
-0.0081386019
0.094203013
-0.0057019642
0.093732882
-0.0035704852
0.09321384
-0.0012098109
0.092908489
0.00095970495
0.092589814
0.0032524463
0.0053409947
0.092478679
0.11007927
-0.037605672
-0.1107442
0.10928526
-0.03521621
0.10855792
-0.032443548
0.10790044
-0.030038779
0.10717783
-0.027199562
0.10640954
-0.02480113
0.10558678
-0.022097796
0.10489241
-0.019691629
0.10411632
-0.017062877
0.10348619
-0.014525797
0.10273919
-0.012076912
0.10207742
-0.0096480275
0.1014352
-0.0074963787
0.1008201
-0.0050868646
0.1003787
-0.003129082
0.099892201
-0.00072331571
0.099627136
0.0012247703
0.099304441
0.0035751404
0.0053967559
0.09924868
0.11768542
-0.037012756
-0.11827834
0.11686071
-0.034391492
0.11614921
-0.031732052
0.11537675
-0.029266317
0.11467415
-0.026496966
0.11398938
-0.02411636
0.11318446
-0.021292874
0.11245814
-0.018965309
0.11162911
-0.016233845
0.11095463
-0.013851317
0.11016052
-0.011282808
0.1095342
-0.0090217056
0.10878577
-0.0067479466
0.10821187
-0.0045129665
0.10762294
-0.002540147
0.10715828
-0.00025865874
0.10678063
0.0016024256
0.10647454
0.0038812248
0.0055154575
0.10635584
0.12525285
-0.036177817
-0.12608779
0.12440555
-0.033544195
0.12362488
-0.030951379
0.12269374
-0.028335177
0.12196637
-0.025769597
0.1211375
-0.023287492
0.12040789
-0.020563262
0.11965484
-0.018212263
0.11886986
-0.015448861
0.11821156
-0.013193018
0.11743114
-0.010502385
0.11682582
-0.0084163832
0.11611403
-0.0060361615
0.11564227
-0.0040412026
0.11504461
-0.0019424848
0.11468116
0.00010479029
0.11427752
0.0020060637
0.11413396
0.0040247791
0.0057008661
0.11394856
0.13395981
-0.035350447
-0.13478718
0.1331016
-0.032685977
0.13236026
-0.030210048
0.13150393
-0.027478846
0.13072299
-0.024988652
0.12979543
-0.022359938
0.12911129
-0.019879118
0.12825488
-0.017355849
0.12754205
-0.014736033
0.12678039
-0.01243136
0.12610593
-0.0098279215
0.12545793
-0.0077683876
0.12478479
-0.0053630233
0.12427183
-0.0035282418
0.12367489
-0.0013455464
0.12338604
0.00039364311
0.12291659
0.0024755119
0.12280259
0.0041387789
0.0059791699
0.12252429
0.14282527
-0.03438309
-0.14379262
0.1418912
-0.031751908
0.14092402
-0.029242871
0.14005369
-0.026608518
0.13925542
-0.02419038
0.13836457
-0.021469089
0.13758173
-0.019096277
0.13666017
-0.016434288
0.13595934
-0.014035198
0.13511046
-0.011582486
0.13451142
-0.0092288803
0.13379349
-0.0070504612
0.13326092
-0.0048304482
0.13269114
-0.0029584596
0.13220357
-0.00085798184
0.13184691
0.00075030401
0.13154239
0.0027800296
0.13146894
0.0042122371
0.0061244533
0.13132365
0.15285043
-0.03332954
-0.15390398
0.15191614
-0.030817616
0.151027
-0.028353729
0.15010693
-0.02568845
0.14913285
-0.023216307
0.14824907
-0.0205853
0.14741999
-0.018267202
0.14662752
-0.015641816
0.14586999
-0.013277665
0.14505545
-0.010767954
0.14443431
-0.0086077391
0.1436713
-0.0062874496
0.14319785
-0.0043569996
0.14254215
-0.0023027569
0.14217965
-0.00049548476
0.14167216
0.0012577971
0.14142797
0.0030242247
0.14118173
0.0044584739
0.0061741014
0.14113208
0.16284777
-0.03208592
-0.16409139
0.16181085
-0.029780698
0.16076375
-0.027306629
0.15988884
-0.024813542
0.15892641
-0.022253878
0.15803145
-0.01969034
0.15710816
-0.017343909
0.15630167
-0.014835331
0.15558435
-0.012560343
0.15490485
-0.010088451
0.15424043
-0.0079433227
0.1535695
-0.0056165187
0.15300651
-0.0037940031
0.15242843
-0.0017246776
0.15208809
-0.00015515197
0.15166982
0.0016760684
0.15156183
0.0031322152
0.15131562
0.0047046888
0.0060507184
0.151439
0.1748696
-0.030792139
-0.17616338
0.17361262
-0.028523718
0.17245846
-0.026152469
0.17145585
-0.023810928
0.17054333
-0.02134136
0.16969669
-0.018843698
0.16871755
-0.016364772
0.16782787
-0.013945649
0.1669324
-0.011664876
0.16614816
-0.0093042062
0.16542148
-0.0072166462
0.16481608
-0.0050111234
0.16422931
-0.0032072338
0.16375298
-0.0012483456
0.16335283
0.00024499946
0.16304884
0.0019800642
0.16290869
0.0032723566
0.16275305
0.0048603369
0.0059504552
0.16285331
0.18658418
-0.02953329
-0.18784303
0.18523829
-0.027177826
0.18395574
-0.024869922
0.18277084
-0.022626023
0.18176422
-0.020334737
0.18087302
-0.017952504
0.1800289
-0.015520651
0.17926458
-0.013181324
0.17846581
-0.010866111
0.17779341
-0.008631802
0.17712141
-0.00654465
0.17655141
-0.0044411255
0.17596135
-0.0026171713
0.17551727
-0.00080425991
0.17507126
0.00069100893
0.17476503
0.0022862915
0.17454743
0.0034899557
0.17445291
0.0049548527
0.0058943698
0.174509
0.20035274
-0.028065388
-0.20182064
0.19890096
-0.025726041
0.19771067
-0.023679633
0.19642727
-0.021342624
0.19525136
-0.01915883
0.19409701
-0.016798157
0.1931173
-0.01454094
0.19219883
-0.012262854
0.19135058
-0.010017862
0.19061802
-0.0078992399
0.18990086
-0.0058274889
0.18930133
-0.0038415955
0.1887736
-0.0020894444
0.18837501
-0.00040566097
0.1879893
0.001076712
0.18779579
0.0024798073
0.1876328
0.0036529468
0.18767704
0.0049106079
0.0057592344
0.18781218
0.21410244
-0.02621783
-0.21595
0.21239167
-0.024015273
0.21094932
-0.022237283
0.20961688
-0.020010182
0.20848242
-0.018024362
0.20735887
-0.015674613
0.20638626
-0.013568325
0.20541213
-0.011288724
0.20459124
-0.0091969738
0.20378734
-0.0070953417
0.20311425
-0.0051544014
0.20252774
-0.0032550813
0.20205575
-0.0016174564
0.20169786
-4.776753e-05
0.20136329
0.0014112782
0.20119965
0.0026434468
0.2010634
0.0037891963
0.20118247
0.0047915366
0.0055344805
0.20140723
0.2303037
-0.024051874
-0.23246965
0.22844282
-0.022154396
0.22668327
-0.020477739
0.22513452
-0.018461426
0.22375205
-0.016641899
0.22251553
-0.014438084
0.22148227
-0.01253507
0.22052054
-0.010326988
0.21969429
-0.0083707258
0.21891007
-0.0063111246
0.21825528
-0.0044996101
0.21769259
-0.0026923925
0.21726479
-0.001189653
0.21691416
0.0003028593
0.21666286
0.0016625786
0.21652872
0.0027775851
0.21647749
0.0038404321
0.21662556
0.0046434579
0.005231854
0.21692819
0.24659041
-0.021629377
-0.24901291
0.24445806
-0.020022048
0.24253636
-0.018556041
0.24083794
-0.016763001
0.23924902
-0.015052984
0.23787344
-0.013062501
0.2366675
-0.011329126
0.23566281
-0.0093223
0.2348296
-0.0075375142
0.23408368
-0.0055652014
0.23347137
-0.0038873015
0.23293358
-0.0021546097
0.23256835
-0.00082442363
0.23228932
0.00058189395
0.23215525
0.0017966453
0.23211589
0.0028169502
0.23221561
0.0037407089
0.23246924
0.0043898258
0.0048417843
0.23285931
0.26539756
-0.0189443
-0.26808264
0.26296795
-0.01759243
0.2607115
-0.016299591
0.25882982
-0.014881322
0.25714886
-0.013372026
0.25569762
-0.011611263
0.25435659
-0.0099880999
0.25323202
-0.0081977301
0.25229208
-0.0065975735
0.25155278
-0.0048258937
0.25099565
-0.003330179
0.25053484
-0.0016937985
0.25014374
-0.00043331866
0.24987702
0.00084861352
0.24978373
0.0018899364
0.24980321
0.0027974675
0.25000996
0.0035339588
0.25038852
0.00401127
0.0043988058
0.25083149
0.28525287
-0.015827759
-0.28836941
0.28242738
-0.014766945
0.27982813
-0.013700334
0.27751098
-0.012564172
0.27551963
-0.011380683
0.27376946
-0.0098610859
0.27224928
-0.00846792
0.27103565
-0.0069841066
0.26996318
-0.0055250978
0.26915607
-0.0040187893
0.26850426
-0.0026783665
0.26811599
-0.0013055264
0.26788907
-0.00020639946
0.2677677
0.00096998814
0.2678444
0.0018132291
0.26803477
0.0026071051
0.26838375
0.0031849706
0.2687816
0.0036134283
0.0038698804
0.26931052
0.30716209
-0.012449172
-0.31054068
0.30400181
-0.01160666
0.30111008
-0.010808605
0.29845409
-0.0099081771
0.29612839
-0.0090549895
0.29421924
-0.0079519378
0.29258722
-0.0068358965
0.29125305
-0.0056499308
0.29017641
-0.0044484602
0.28938471
-0.0032270892
0.28875882
-0.002052474
0.28838483
-0.00093154489
0.28812099
5.7440139e-05
0.28812725
0.00096372888
0.28827997
0.0016605164
0.28867372
0.0022133501
0.28915772
0.002700971
0.28971756
0.0030535872
0.0031641638
0.29042328
0.33049419
-0.0087508649
-0.3341925
0.32702792
-0.0081403916
0.32381624
-0.007596925
0.32081175
-0.0069036833
0.31802744
-0.0062706847
0.31565848
-0.0055829718
0.31361648
-0.0047938943
0.31195688
-0.003990337
0.31066015
-0.0031517228
0.30974354
-0.002310486
0.30912312
-0.0014320565
0.30885058
-0.0006590045
0.30891054
-2.5138691e-06
0.30916258
0.00071168682
0.30951493
0.001308167
0.31004087
0.0016874072
0.3106075
0.002134346
0.31134822
0.0023128626
0.0023416416
0.31217074
0.35605042
-0.0045203304
-0.36028095
0.35216723
-0.0042571981
0.3485575
-0.0039872019
0.34529725
-0.003643432
0.34231558
-0.0032890133
0.33966711
-0.0029344969
0.33739707
-0.0025238589
0.33552303
-0.0021162967
0.33403132
-0.001660013
0.33294591
-0.0012250745
0.332319
-0.00080515014
0.33204995
-0.00038994859
0.33204972
-2.2908984e-06
0.33248871
0.00027270069
0.33319819
0.0005986851
0.33406474
0.00082086157
0.3349106
0.0012884832
0.33599378
0.0012296789
0.0013453408
0.33699009
0.38391184
-0.38843217
0.37965465
0.37566744
0.37202401
0.368735
0.3658005
0.36327664
0.36116035
0.35950033
0.35827526
0.35747011
0.35708016
0.35707787
0.35735057
0.35794926
0.35877012
0.3600586
0.36128828
0.36263362
0.056386572
0.0071369662
-0.0069073063
0.056233854
0.0098646833
-0.0097119655
0.056311363
0.012797883
-0.012875392
0.056490647
0.015476602
-0.015655886
0.056947329
0.018381524
-0.018838206
0.057522769
0.021091207
-0.021666648
0.058260795
0.0241144
-0.024852426
0.059053967
0.026820425
-0.027613597
0.059893137
0.029789738
-0.030628907
0.060789463
0.032375943
-0.033272268
0.061746842
0.035198543
-0.036155923
0.062737823
0.037754962
-0.038745943
0.063748755
0.040449987
-0.041460919
0.064856587
0.043068073
-0.044175906
0.065938403
0.045620475
-0.046702291
0.066896229
0.048105635
-0.04906346
0.067488789
0.050627709
-0.051220268
0.06790694
0.052499304
-0.052917455
0.055074985
0.067673855
-0.0548419
0.060458908
0.0073949355
0.060349598
0.0099739928
0.06055444
0.012593041
0.060835009
0.015196033
0.061346258
0.017870275
0.061950721
0.020486744
0.062723534
0.023341587
0.063549988
0.025993971
0.064445118
0.028894608
0.065312447
0.031508614
0.066139026
0.034371963
0.066877861
0.037016127
0.067550614
0.039777234
0.06813222
0.042486467
0.068610839
0.045141856
0.068877867
0.047838606
0.068804953
0.050700624
0.068286746
0.053017511
0.056316897
0.067044833
0.064866871
0.0077108471
0.064779892
0.010060972
0.064927066
0.012445866
0.065193012
0.014930087
0.065675698
0.01738759
0.066261401
0.019901041
0.066996042
0.022606945
0.067786726
0.025203288
0.068673177
0.028008156
0.069517261
0.03066453
0.070275439
0.033613785
0.070913813
0.036377754
0.071357574
0.039333472
0.071615963
0.042228078
0.071642536
0.045115283
0.071238228
0.048242914
0.070594975
0.051343877
0.069076795
0.054535691
0.058292279
0.067101413
0.06951626
0.0080227307
0.069461507
0.010115725
0.069576154
0.012331219
0.069906947
0.014599294
0.070389374
0.016905163
0.070989541
0.019300873
0.071709783
0.021886704
0.072471792
0.024441279
0.073306624
0.027173324
0.074090224
0.02988093
0.074766963
0.032937046
0.075287091
0.035857626
0.075576429
0.039044134
0.075650543
0.042153964
0.075157967
0.045607859
0.07429538
0.049105501
0.07287959
0.052759667
0.070662154
0.056753127
0.061061287
0.067893147
0.074626398
0.0082601242
0.074544607
0.010197515
0.074640345
0.012235481
0.074926625
0.014313014
0.075392815
0.016438972
0.075929255
0.018764433
0.076591256
0.021224702
0.077247058
0.023785477
0.077921548
0.026498834
0.078503183
0.029299295
0.079044299
0.03239593
0.079390338
0.035511587
0.079536635
0.038897837
0.079319802
0.042370797
0.078620506
0.046307155
0.077608572
0.050117435
0.075803026
0.054565213
0.07364829
0.058907862
0.064202251
0.070507326
0.080134486
0.0084669795
0.079983257
0.010348744
0.080173994
0.012044744
0.080420948
0.01406606
0.080929066
0.015930854
0.081423553
0.018269946
0.082091523
0.020556733
0.082685854
0.023191147
0.08326665
0.025918037
0.083698938
0.028867008
0.084093201
0.032001667
0.084205937
0.035398851
0.084166939
0.038936835
0.083678274
0.042859462
0.083144854
0.046840575
0.082019039
0.051243249
0.080734039
0.055850214
0.079170776
0.060471125
0.066048437
0.07732459
0.085824646
0.0087562323
0.085711435
0.010461954
0.085898073
0.011858106
0.086177638
0.013786494
0.086684707
0.015423785
0.087166191
0.017788462
0.087800981
0.019921943
0.088380487
0.022611641
0.088945326
0.025353198
0.08937387
0.028438464
0.089665049
0.031710487
0.089736044
0.035327856
0.0897209
0.038951978
0.089407679
0.043172683
0.089304249
0.046944005
0.088728601
0.051818897
0.089048702
0.055530113
0.089108614
0.060411213
0.064293265
0.090863787
0.092148821
0.00908609
0.092188833
0.010421942
0.092325385
0.011721554
0.09267742
0.013434459
0.093152009
0.014949197
0.093670084
0.017270388
0.094238855
0.019353172
0.094752296
0.0220982
0.095266171
0.024839323
0.095695109
0.028009526
0.096037762
0.031367834
0.096321522
0.035044095
0.096663512
0.038609988
0.096965835
0.04287036
0.097734175
0.046175665
0.098798743
0.050754328
0.10122392
0.053104936
0.10431129
0.057323844
0.0582629
0.11034165
0.098826224
0.0095085465
0.098950925
0.010297241
0.098954992
0.011717487
0.099371657
0.013017793
0.099789136
0.014531718
0.1003617
0.016697827
0.10099893
0.018715936
0.10155323
0.021543901
0.10210333
0.024289229
0.10263285
0.027480004
0.10327625
0.030724434
0.10398914
0.034331199
0.10502273
0.037576398
0.10640135
0.041491746
0.10861566
0.043961351
0.11198815
0.047381839
0.11662896
0.048464126
0.12310843
0.050844368
0.049467803
0.13190353
0.10597825
0.0098861418
0.10609468
0.010180811
0.10609716
0.011715005
0.10657361
0.012541344
0.10690653
0.014198792
0.1075809
0.016023459
0.10819588
0.018100953
0.10884406
0.020895729
0.1096659
0.023467387
0.11058072
0.026565177
0.11170794
0.029597221
0.11306557
0.032973571
0.11507365
0.035568314
0.11791428
0.038651111
0.12182492
0.040050715
0.12727009
0.041936671
0.13385223
0.041881983
0.14253745
0.042159147
0.039573521
0.15243173
0.11377802
0.01005668
0.11385547
0.010103355
0.11408647
0.011484005
0.11463662
0.011991197
0.11504127
0.013794143
0.11589262
0.015172111
0.11653444
0.017459133
0.11749081
0.019939358
0.11855047
0.022407721
0.11979142
0.025324232
0.121385
0.028003641
0.12367492
0.030683649
0.12672702
0.032516209
0.13116575
0.03421238
0.13648478
0.034731692
0.14347812
0.034943324
0.15131449
0.034045617
0.16064063
0.032833007
0.030094757
0.17011939
0.12238988
0.010191092
0.12220895
0.01028428
0.12254834
0.01114462
0.12298716
0.011552375
0.12358732
0.013193986
0.12441599
0.01434344
0.12519662
0.016678497
0.12650976
0.018626224
0.12781216
0.021105318
0.1297411
0.023395297
0.1321327
0.025612034
0.13564985
0.027166498
0.13969556
0.028470505
0.14539931
0.028508629
0.15151594
0.028615059
0.15921953
0.027239731
0.16703196
0.026233189
0.17557896
0.024286005
0.022336484
0.18333723
0.13137951
0.010135231
0.13117572
0.010488073
0.13175478
0.010565565
0.13210305
0.0112041
0.13294941
0.012347625
0.13379308
0.013499771
0.13494014
0.015531439
0.13650265
0.017063707
0.13835385
0.019254125
0.1410666
0.02068254
0.14421806
0.022460574
0.14860045
0.022784113
0.15348737
0.023583582
0.15984718
0.022148816
0.16622317
0.022239076
0.17373019
0.019732712
0.18044232
0.019521051
0.18725867
0.017469662
0.016902376
0.19269277
0.14105402
0.010213288
0.14105516
0.010486937
0.1417233
0.0098974267
0.14214517
0.010782229
0.14324139
0.011251404
0.14421352
0.012527641
0.14581336
0.013931594
0.14768916
0.015187907
0.15014909
0.016794196
0.15325762
0.017574008
0.15712649
0.018591701
0.16198733
0.01792328
0.1673835
0.018187413
0.1736334
0.015898912
0.17959127
0.016281201
0.1859153
0.013408688
0.19078719
0.014649163
0.19550355
0.012753298
0.014445189
0.19796074
0.15122231
0.01042998
0.15167222
0.010037028
0.15209241
0.0094772328
0.15275622
0.01011842
0.15398917
0.010018456
0.15524002
0.011276786
0.15724517
0.011926448
0.15939759
0.013035482
0.16248328
0.013708507
0.16592514
0.014132147
0.17035363
0.014163212
0.17522824
0.013048672
0.18064041
0.012775243
0.18597585
0.010563464
0.19085904
0.011398012
0.19515141
0.0091163198
0.19790725
0.011893325
0.20015207
0.010508477
0.014604096
0.19999316
0.16277137
0.010511918
0.16343519
0.0093732059
0.16368541
0.0092270159
0.16480337
0.0090004625
0.16586367
0.0089581498
0.16749915
0.0096413069
0.16978179
0.0096438072
0.17222168
0.010595595
0.17578301
0.010147178
0.1793462
0.01056895
0.18419427
0.0093151419
0.18867695
0.0085659944
0.19355297
0.0078992232
0.19739325
0.0067231842
0.20081932
0.007971935
0.20270761
0.0072280297
0.20343074
0.011170196
0.20287884
0.011060378
0.017761145
0.19972179
0.17468603
0.010334886
0.17520771
0.0088515303
0.17571476
0.0087199573
0.17709066
0.0076245647
0.17822187
0.0078269406
0.18043777
0.0074254064
0.18252819
0.0075533869
0.18550296
0.0076208195
0.18904697
0.006603177
0.19276833
0.0068475895
0.19729075
0.0047927156
0.20058432
0.0052724252
0.20440565
0.004077888
0.20631137
0.0048174719
0.20799058
0.0062927231
0.20741865
0.0077999537
0.20629106
0.012297788
0.20286662
0.014484823
0.023562872
0.19706489
0.18815855
0.0099885174
0.18859229
0.008417783
0.18944327
0.0078689786
0.19077275
0.0062950867
0.19226331
0.0063363825
0.19455968
0.0051290349
0.19676631
0.005346753
0.2003338
0.0040533322
0.20335144
0.0035855352
0.20729126
0.0029077664
0.21047396
0.0016100155
0.21296001
0.0027863737
0.21526731
0.0017705855
0.21528292
0.0048018649
0.21509024
0.0064854038
0.21196796
0.010922234
0.20825997
0.016005778
0.2013814
0.021363392
0.031685928
0.19325834
0.20190827
0.0094874771
0.20243112
0.0078949359
0.2035846
0.0067154979
0.20488518
0.0049945044
0.20667099
0.0045505655
0.20882863
0.0029713998
0.21132103
0.0028543554
0.21438108
0.00099327496
0.21695187
0.0010147506
0.22018874
-0.00032910603
0.22172202
7.6729463e-05
0.22368651
0.00082188378
0.22365677
0.0018003275
0.22249004
0.0059685951
0.22022515
0.0087502905
0.21536418
0.015783208
0.21022325
0.021146704
0.20192226
0.029664381
0.038593273
0.19501492
0.21748058
0.0089350864
0.2181508
0.0072247142
0.21948593
0.0053803681
0.22080403
0.0036764019
0.22281896
0.0025356434
0.2248178
0.00097255594
0.22738346
0.00028869011
0.22985202
-0.0014752822
0.23226219
-0.0013954153
0.23425352
-0.0023204446
0.23502863
-0.00069837332
0.23554165
0.000308858
0.23315875
0.0041832323
0.23061519
0.0085121534
0.2255429
0.013822575
0.22001075
0.021315362
0.21445522
0.026702235
0.2085971
0.035522494
0.039010464
0.20817991
0.23349555
0.0082988511
0.2343563
0.0063639652
0.23555713
0.0041795374
0.23699444
0.0022390849
0.23887478
0.00065530454
0.2405835
-0.00073615772
0.24279804
-0.0019258547
0.24438419
-0.0030614367
0.2459009
-0.002912119
0.24650674
-0.0029262858
0.24658283
-0.00077446144
0.24522269
0.0016689972
0.24258815
0.0068177707
0.2395189
0.011581399
0.23498883
0.018352648
0.23241478
0.02388941
0.23004948
0.029067537
0.23198624
0.033585731
0.031746339
0.23925037
0.25168848
0.0074418668
0.25278889
0.005263555
0.25403365
0.0029347737
0.25546201
0.00081073093
0.2570843
-0.00096699185
0.25881609
-0.002467944
0.26053793
-0.0036476934
0.26149734
-0.0040208488
0.26225505
-0.0036698333
0.26180612
-0.002477356
0.26039752
0.00063413938
0.25743537
0.0046311437
0.25426094
0.0099922064
0.25078975
0.015052587
0.24874118
0.020401219
0.24918408
0.023446503
0.25246828
0.025783346
0.2614836
0.024570406
0.022440807
0.27078913
0.27023625
0.0065161355
0.27132991
0.0041698923
0.27261281
0.0016518733
0.27377404
-0.00035049287
0.27491852
-0.0021114784
0.2758944
-0.0034438191
0.27647474
-0.0042280394
0.27655096
-0.0040970617
0.27624714
-0.0033660137
0.27503912
-0.0012693362
0.27339392
0.0022793393
0.27163392
0.0063911399
0.27074823
0.0108779
0.27102678
0.014774037
0.27390328
0.017524716
0.27874832
0.018601465
0.28604771
0.018483954
0.2932642
0.017353916
0.019456757
0.29624825
0.29167561
0.0052638034
0.29299737
0.0028481323
0.29408984
0.00055939975
0.2948531
-0.0011137541
0.29544877
-0.002707142
0.29584777
-0.0038428198
0.2961369
-0.0045171691
0.29610458
-0.0040647424
0.29544474
-0.0027061778
0.2939672
0.00020820736
0.29224716
0.0039993777
0.29069058
0.0079477197
0.29019975
0.011368733
0.29137959
0.013594191
0.29523957
0.013664734
0.30024497
0.013596071
0.30528664
0.013442277
0.30812061
0.014519949
0.020005192
0.30757218
0.31358471
0.00384984
0.31492664
0.0015061961
0.31568449
-0.00019845032
0.31582488
-0.0012541391
0.31552244
-0.0024047037
0.31486464
-0.0031850185
0.31372413
-0.0033766634
0.31236047
-0.0027010849
0.31074375
-0.0010894578
0.3095306
0.0014213625
0.30937582
0.004154153
0.3112486
0.0060749397
0.31548741
0.0071299274
0.32194335
0.0071382514
0.3294301
0.0061779782
0.3341089
0.0089172762
0.33707999
0.010471183
0.33455889
0.017041055
0.027806623
0.32675746
0.33872194
0.0021179819
0.3399098
0.00031833992
0.34022683
-0.00051548439
0.33996449
-0.00099179701
0.33918386
-0.0016240732
0.33826711
-0.0022682714
0.33745642
-0.0025659739
0.3367948
-0.0020394648
0.33628363
-0.0005782891
0.33690316
0.00080183574
0.33856179
0.00249552
0.34116773
0.0034689995
0.34385028
0.0044473812
0.34580086
0.0051876644
0.34603297
0.0059458708
0.34232171
0.012628537
0.34238735
0.010405543
0.33847554
0.020952869
0.023414762
0.3428674
0.3647516
0.36506994
0.36455446
0.36356266
0.36193859
0.35967032
0.35710434
0.35506488
0.35448659
0.35528842
0.35778394
0.36125294
0.36570032
0.37088799
0.37683386
0.3894624
0.39986794
0.42082081
0.44423557
0.063067053
0.060588973
-0.05598217
0.057647548
0.062316257
-0.056896752
0.052474049
0.063190352
-0.058016852
0.046704386
0.063348387
-0.057578724
0.040260421
0.06413181
-0.057687845
0.033777887
0.062499909
-0.056017375
0.024811284
0.061907337
-0.052940734
0.015922007
0.058946347
-0.05005707
0.01051299
0.04242811
-0.037019093
-0.00025871179
0.032107705
-0.021336003
-0.018322579
0.037610234
-0.019546366
-0.036697026
0.041964024
-0.023589576
-0.054233467
0.04102838
-0.023491939
-0.070976571
0.043301855
-0.026558751
-0.085041109
0.044768084
-0.030703546
-0.097838027
0.044992935
-0.032196016
-0.10908328
0.045927978
-0.034682723
-0.11780612
0.046847138
-0.038124301
0.048538728
-0.12453031
-0.041814537
0.06136284
0.066270966
0.05497536
0.068703737
0.048650056
0.069515656
0.041613318
0.070385126
0.034234417
0.071510711
0.026210959
0.070523367
0.017221681
0.070896615
0.010925564
0.065242464
0.0036980047
0.049655669
-0.012520925
0.048326635
-0.031334566
0.056423875
-0.049800729
0.060430187
-0.069441969
0.060669621
-0.087192136
0.061052022
-0.10055648
0.058132432
-0.11174972
0.05618617
-0.12103473
0.055212989
-0.12783056
0.053642973
0.052714762
-0.1320066
0.060243724
0.073128655
0.053038661
0.0759088
0.045278203
0.077276114
0.036715975
0.078947354
0.0281049
0.080121786
0.018733562
0.079894706
0.010911065
0.078719113
0.0051449001
0.071008629
-0.01013722
0.06493779
-0.032277623
0.070467038
-0.051608569
0.075754821
-0.069941137
0.078762755
-0.087394425
0.078122909
-0.10181799
0.075475585
-0.11380537
0.070119819
-0.12359288
0.065973675
-0.13004067
0.061660783
-0.13413482
0.057737122
0.05480135
-0.13622141
0.060004215
0.081017587
0.051737744
0.084175271
0.042341585
0.086672273
0.0320436
0.089245339
0.020887876
0.09127751
0.0081687009
0.092613881
-0.0020751564
0.08896297
-0.013444233
0.082377706
-0.035563147
0.087056703
-0.060315238
0.095219129
-0.081075757
0.09651534
-0.10054755
0.098234552
-0.11682694
0.094402298
-0.12912223
0.087770877
-0.13819815
0.079195736
-0.14396652
0.071742047
-0.14672311
0.064417366
-0.14689959
0.057913604
0.053393952
-0.14549219
0.061809537
0.089715376
0.052432878
0.09355193
0.041632087
0.097473064
0.029300329
0.1015771
0.014877605
0.10570023
-0.0025257855
0.11001727
-0.021578918
0.1080161
-0.040982448
0.10178124
-0.062903022
0.10897728
-0.085796142
0.11811225
-0.1068871
0.1176063
-0.12571665
0.11706411
-0.14205764
0.11074328
-0.15550303
0.10121627
-0.16484179
0.088534499
-0.17020083
0.077101093
-0.17148863
0.065705167
-0.16949705
0.055922019
0.048913582
-0.16501668
0.0688714
0.098168566
0.059369982
0.10305335
0.04874063
0.10810242
0.036295524
0.1140222
0.021785735
0.12021002
0.0041057041
0.1276973
-0.021014697
0.1331365
-0.048916509
0.12968305
-0.071556939
0.13161771
-0.091579599
0.13813491
-0.11204041
0.13806711
-0.13020229
0.13522598
-0.14757094
0.12811193
-0.16249587
0.1161412
-0.17343937
0.099478005
-0.17968256
0.083344281
-0.18092913
0.066951741
-0.17798838
0.05298127
0.042575109
-0.17164991
0.083609958
0.10542239
0.075919718
0.11074359
0.067649657
0.11637248
0.058676148
0.12299571
0.048753198
0.13013297
0.03787543
0.13857507
0.022094489
0.14891745
-0.0028950876
0.15467262
-0.028671197
0.15739382
-0.050960226
0.16042394
-0.072341501
0.15944839
-0.09132709
0.15421157
-0.10704862
0.14383346
-0.1189487
0.12804128
-0.12741224
0.10794155
-0.1304153
0.086347341
-0.12897663
0.065513071
-0.12486869
0.04887333
0.037785493
-0.12007908
0.10482205
0.110942
0.10006297
0.11550266
0.095357272
0.12107818
0.091691929
0.12666106
0.088434436
0.13339047
0.086505705
0.1405038
0.086789017
0.14863413
0.084988073
0.15647357
0.080946678
0.16143521
0.076271241
0.16509938
0.070686104
0.16503352
0.064472001
0.16042567
0.058108001
0.15019746
0.050362866
0.13578642
0.041583721
0.11672069
0.032670161
0.095260901
0.023208403
0.074974829
0.013172416
0.058909317
0.04877092
0.0021869886
0.12859523
0.1142503
0.12609013
0.11800777
0.1242563
0.12291201
0.12374041
0.12717695
0.12482153
0.13230934
0.12777959
0.13754574
0.13384498
0.14256874
0.14176661
0.14855194
0.14998138
0.15322045
0.15901529
0.15606546
0.16744836
0.15660045
0.17398997
0.15388406
0.17707534
0.14711209
0.17624448
0.13661727
0.17159061
0.12137456
0.16146946
0.10538206
0.14622799
0.090216299
0.12695567
0.078181633
0.069455994
0.1062706
0.15007213
0.1166099
0.14849066
0.11958923
0.14790682
0.12349585
0.14815525
0.12692853
0.15050465
0.12995994
0.1545774