/*--------------------------------*- C++ -*----------------------------------*\
  =========                 |
  \\      /  F ield         | OpenFOAM: The Open Source CFD Toolbox
   \\    /   O peration     | Website:  https://openfoam.org
    \\  /    A nd           | Version:  11
     \\/     M anipulation  |
\*---------------------------------------------------------------------------*/
FoamFile
{
    format      ascii;
    class       volVectorField;
    location    "2.8";
    object      U;
}
// * * * * * * * * * * * * * * * * * * * * * * * * * * * * * * * * * * * * * //

dimensions      [0 1 -1 0 0 0 0];

internalField   nonuniform List<vector> 
5472
(
(10.036502 2.4390479 1.6801339e-18)
(10.228096 2.4264132 -1.7494724e-18)
(10.406051 2.4492936 -1.7646187e-18)
(10.598308 2.4209129 -1.7934604e-18)
(10.758875 2.3939255 5.5626428e-18)
(10.938128 2.3562502 -3.6202879e-20)
(11.10556 2.2796358 -2.9329253e-18)
(11.283267 2.2152103 1.0217412e-18)
(11.427992 2.1237696 0)
(11.575746 2.0200353 0)
(11.708554 1.9108262 0)
(11.831278 1.7806734 -3.1751722e-18)
(11.952196 1.648296 1.6296611e-18)
(12.060191 1.5054424 -2.3341585e-20)
(12.147056 1.3413344 1.0976332e-18)
(12.208932 1.1954831 -5.6442929e-19)
(12.290297 1.0279834 -8.4300008e-19)
(12.307609 0.86843949 2.8933241e-19)
(12.368936 0.70526059 0)
(10.025504 2.2400802 -1.5360751e-18)
(10.17478 2.2249695 3.169012e-18)
(10.362145 2.2689971 -1.6349249e-18)
(10.528107 2.2303382 -1.6425396e-18)
(10.675824 2.213955 2.3840776e-20)
(10.850799 2.1755809 0)
(11.03434 2.1169047 1.7589826e-18)
(11.177754 2.0640788 -3.5864558e-18)
(11.325626 1.9815357 4.6270489e-18)
(11.478806 1.8957354 9.4292645e-19)
(11.610338 1.7936477 0)
(11.747849 1.6725466 1.9560778e-18)
(11.864005 1.5493566 0)
(11.96405 1.4133931 4.9410328e-19)
(12.05252 1.2726682 -5.0880298e-19)
(12.123893 1.1323486 0)
(12.195149 0.98751695 0)
(12.233514 0.84273899 -2.5462722e-19)
(12.27858 0.69864621 0)
(10.061332 2.060388 0)
(10.196423 2.0870383 1.4427029e-18)
(10.36488 2.1094059 1.477299e-18)
(10.478725 2.0848744 0)
(10.649971 2.1039025 -1.9563467e-20)
(10.834157 2.057057 -2.6893317e-20)
(10.966446 2.0276553 -1.6221314e-18)
(11.115285 1.9807294 0)
(11.258078 1.9157965 -1.6625413e-18)
(11.40379 1.8477211 -4.252067e-18)
(11.536833 1.7511566 1.3181281e-20)
(11.66993 1.6417161 -8.6071547e-19)
(11.761141 1.5366578 -8.8662271e-19)
(11.870173 1.4103625 1.8173963e-18)
(11.959862 1.2747202 1.3690108e-18)
(12.030798 1.1503744 4.6144073e-19)
(12.111374 0.99995639 2.2999038e-19)
(12.146952 0.86453674 -3.4739804e-19)
(12.201813 0.715279 1.1572341e-19)
(10.03091 1.9064947 0)
(10.160517 1.9105496 -1.302161e-18)
(10.301548 1.950533 -1.3319569e-18)
(10.426573 1.938803 2.713005e-18)
(10.625742 1.9489542 -1.4261714e-18)
(10.731905 1.9137712 0)
(10.888815 1.9011701 -1.4659221e-18)
(11.035775 1.8387078 1.4762268e-18)
(11.180356 1.7906825 -1.5285836e-18)
(11.3187 1.7202271 -1.9265535e-20)
(11.444195 1.6353878 -1.5774496e-18)
(11.553225 1.5455271 0)
(11.664195 1.4374717 0)
(11.781742 1.3133228 -8.0879256e-19)
(11.86008 1.2006492 -8.1598257e-19)
(11.948183 1.0681611 0)
(12.01185 0.93504252 -2.0713964e-19)
(12.058227 0.81114105 1.0501215e-19)
(12.102448 0.65773309 2.0872003e-19)
(10.049376 1.7253902 0)
(10.143408 1.7743235 0)
(10.305674 1.7908478 0)
(10.430737 1.8044819 -2.4573842e-18)
(10.56771 1.8298083 1.2794417e-18)
(10.666377 1.8035295 -3.8657775e-18)
(10.840378 1.7963068 5.2845495e-18)
(10.947265 1.7502039 -2.6927086e-18)
(11.084058 1.7284513 3.5556611e-21)
(11.204439 1.6612843 1.3851941e-18)
(11.329214 1.6031653 1.4062762e-18)
(11.454458 1.5084247 -2.8696131e-18)
(11.577854 1.4146652 2.1842983e-18)
(11.678429 1.3113436 -7.3830071e-19)
(11.771697 1.191498 0)
(11.857617 1.0681424 7.4913181e-19)
(11.913754 0.94647662 -3.7600811e-19)
(11.971268 0.81647315 1.8669629e-19)
(12.006913 0.68119528 -1.8578716e-19)
(10.008988 1.5885082 0)
(10.162792 1.6049619 -4.2510934e-18)
(10.273945 1.6600455 2.1986964e-18)
(10.373141 1.6875711 2.2415069e-18)
(10.504147 1.6845049 1.1391695e-18)
(10.617216 1.6763336 -1.156848e-18)
(10.778485 1.6643828 2.4014684e-18)
(10.861456 1.6338 1.2062832e-18)
(11.030121 1.6101368 2.4542147e-18)
(11.143297 1.5543973 -2.513608e-18)
(11.286849 1.5037424 1.7703056e-20)
(11.407312 1.4092057 2.5845541e-18)
(11.51358 1.3365265 0)
(11.609536 1.2261096 -6.635567e-19)
(11.701094 1.1321729 6.6149058e-19)
(11.76785 1.0066398 -1.6678945e-18)
(11.836313 0.89761155 6.6952654e-19)
(11.893608 0.76060077 -1.6746866e-19)
(11.924786 0.64613861 4.4596535e-22)
(10.045051 1.4393939 3.7752933e-18)
(10.154436 1.4888619 3.8477233e-18)
(10.214005 1.5181544 0)
(10.356404 1.5419251 -6.5069722e-21)
(10.445172 1.5618131 -4.122174e-18)
(10.576013 1.5691458 4.2317057e-18)
(10.690334 1.5558843 0)
(10.802899 1.5518761 -1.0988629e-18)
(10.965271 1.523812 -4.4363128e-18)
(11.048443 1.4896752 2.2768069e-18)
(11.209379 1.4356309 1.1389173e-18)
(11.279727 1.3644735 -1.1683515e-18)
(11.419693 1.2935197 0)
(11.501075 1.1916712 5.878922e-19)
(11.6146 1.1020466 0)
(11.677752 0.98780789 -5.9635451e-19)
(11.759914 0.88361936 9.0215806e-19)
(11.797729 0.76444839 9.0335537e-22)
(11.8395 0.64558746 -9.7277543e-22)
(10.027072 1.3082232 1.6912979e-18)
(10.152762 1.3381399 -3.4619404e-18)
(10.235203 1.3995462 -3.5251878e-18)
(10.360303 1.4310245 3.6314151e-18)
(10.42671 1.4374938 -1.8635677e-18)
(10.56034 1.4433789 -1.8869606e-18)
(10.649707 1.4462012 0)
(10.787631 1.4399874 2.9330047e-18)
(10.894828 1.4150967 -1.3852406e-20)
(11.004101 1.4003804 -3.0356152e-18)
(11.135218 1.3468813 3.1035978e-18)
(11.219929 1.2945677 0)
(11.359552 1.2127332 0)
(11.417732 1.1317876 1.0541325e-18)
(11.54427 1.0440156 -5.410567e-19)
(11.58096 0.94365514 -1.0713744e-18)
(11.685764 0.84482627 2.7134701e-19)
(11.707377 0.73108908 2.728063e-19)
(11.778173 0.6124416 6.6470063e-20)
(10.033841 1.1757382 -1.5178009e-18)
(10.134312 1.2150187 4.6490443e-18)
(10.186721 1.2685078 -4.7903177e-18)
(10.304 1.2902824 3.2548603e-18)
(10.367845 1.3339005 0)
(10.497723 1.3368947 1.6895718e-18)
(10.566233 1.3367609 -1.7415109e-18)
(10.706814 1.3423967 0)
(10.785591 1.3222285 8.8836288e-19)
(10.927277 1.3189103 -1.8373927e-18)
(11.028907 1.2706964 -9.1583399e-19)
(11.140166 1.2278922 -9.782606e-21)
(11.255856 1.1523435 -2.8238265e-18)
(11.328442 1.0943488 4.8568355e-19)
(11.448947 0.99188721 -4.6963673e-19)
(11.495468 0.91380329 9.6022107e-19)
(11.607767 0.80731806 -4.7760122e-19)
(11.620301 0.71235615 2.4446529e-19)
(11.709764 0.59325369 2.3923935e-19)
(10.073566 1.0574328 -2.728914e-18)
(10.14542 1.0982488 0)
(10.213625 1.143396 1.4244061e-18)
(10.314601 1.1774615 -4.3596748e-18)
(10.373792 1.2110221 1.5008821e-18)
(10.494682 1.2261108 -1.5244735e-18)
(10.563649 1.2484658 1.5414501e-18)
(10.696488 1.2366039 -1.5856982e-18)
(10.767963 1.2373999 0)
(10.910414 1.2241729 8.0848376e-19)
(10.976516 1.1936721 0)
(11.115061 1.161132 8.266229e-19)
(11.186887 1.0899212 -1.0719847e-22)
(11.295269 1.0328981 -4.194159e-19)
(11.368597 0.93685882 4.218784e-19)
(11.445976 0.87518337 4.2425287e-19)
(11.509232 0.76244068 -2.7943579e-21)
(11.552474 0.69242756 -6.4016291e-19)
(11.609045 0.55750994 0)
(10.062077 0.92439314 0)
(10.108425 0.97991467 1.2477744e-18)
(10.183951 1.0378187 0)
(10.248315 1.0588053 1.2920467e-18)
(10.317338 1.0990693 -3.9978768e-18)
(10.415734 1.1102781 4.0855243e-18)
(10.475459 1.1410961 -1.3671916e-18)
(10.598042 1.1379392 4.2415318e-18)
(10.671109 1.1479857 0)
(10.803588 1.1306774 7.2693401e-19)
(10.872199 1.1231144 0)
(11.003674 1.079793 -1.4725119e-18)
(11.066696 1.0392063 2.9858117e-18)
(11.191704 0.98209384 -8.1403563e-21)
(11.249397 0.90252356 -3.7922848e-19)
(11.35366 0.83543919 0)
(11.398432 0.73584943 0)
(11.474275 0.65678785 0)
(11.506855 0.53874128 -4.7465848e-20)
(10.074967 0.8245886 4.3392027e-18)
(10.120201 0.87479571 -5.5837801e-18)
(10.209153 0.91786944 2.2703349e-18)
(10.250834 0.9714723 -8.1673846e-21)
(10.336088 0.99491844 0)
(10.40466 1.0157814 -2.4132518e-18)
(10.48808 1.0355921 1.2475449e-18)
(10.588045 1.0417426 -1.2508384e-18)
(10.65545 1.0674461 0)
(10.775305 1.0462702 -6.4229978e-19)
(10.848083 1.0481261 1.2970046e-18)
(10.975596 1.0019569 -1.3407977e-20)
(11.038468 0.9725318 -1.3330185e-18)
(11.162243 0.90864176 -2.662831e-18)
(11.209241 0.85530271 2.3475995e-18)
(11.32257 0.78207884 -1.344794e-18)
(11.350456 0.708537 8.4450526e-19)
(11.440363 0.62437285 1.6908779e-19)
(11.455311 0.52607596 4.1659372e-20)
(10.068408 0.70496054 -6.8022171e-18)
(10.111471 0.7670471 3.9849944e-18)
(10.1683 0.81546447 0)
(10.208542 0.84888823 -5.1702366e-18)
(10.292305 0.88514221 4.246506e-18)
(10.337428 0.92239821 1.0800046e-18)
(10.43011 0.93761334 3.285129e-18)
(10.495562 0.96096818 -2.2396536e-18)
(10.587566 0.96127758 -2.8182574e-18)
(10.675888 0.96311297 1.7271097e-18)
(10.755914 0.96473823 2.3038426e-18)
(10.861942 0.93643681 -3.5102133e-18)
(10.930636 0.91772609 2.3533394e-18)
(11.050612 0.85458233 -5.9981687e-19)
(11.102831 0.81129458 2.9340539e-19)
(11.211243 0.72699525 -4.2775646e-21)
(11.248892 0.67182094 -7.4635066e-19)
(11.339567 0.57458519 -1.4824951e-19)
(11.358765 0.50515068 -3.7267935e-20)
(10.075827 0.62245652 2.6019192e-18)
(10.117221 0.67523597 3.5291719e-18)
(10.17686 0.71257367 -3.6230748e-18)
(10.225079 0.76551025 9.2279864e-19)
(10.287853 0.78998001 -2.8080612e-18)
(10.336565 0.82650852 2.8875195e-18)
(10.421088 0.8462714 9.685052e-19)
(10.478943 0.87350799 -4.9477999e-18)
(10.577226 0.88838887 3.5065115e-18)
(10.641258 0.89570919 -1.5331235e-18)
(10.750616 0.88212794 0)
(10.821426 0.86841969 -5.1886484e-19)
(10.917523 0.83740518 -1.5597702e-18)
(11.002402 0.80202588 5.3426543e-19)
(11.074672 0.75864063 1.5804441e-18)
(11.161663 0.69159362 5.2490042e-19)
(11.206129 0.63917622 -1.0544866e-18)
(11.280619 0.5443861 2.6532242e-19)
(11.299744 0.48702764 2.9549312e-19)
(10.05376 0.5192992 -3.8401274e-18)
(10.095832 0.56285779 3.1515817e-18)
(10.131661 0.60911213 0)
(10.181908 0.6557332 -8.1798167e-19)
(10.228244 0.69774218 3.3288347e-18)
(10.278366 0.73728073 -6.7927437e-18)
(10.350487 0.75186294 8.8786207e-19)
(10.411904 0.78016892 3.523169e-18)
(10.501214 0.79056141 2.6679889e-18)
(10.571866 0.80822605 -4.5006295e-19)
(10.670584 0.80295513 0)
(10.734209 0.80192826 2.2765505e-18)
(10.837358 0.76764028 -9.2827152e-19)
(10.899311 0.74321946 9.2438113e-19)
(10.999048 0.69112238 -1.3950501e-18)
(11.055238 0.6465013 -2.3323867e-19)
(11.136578 0.58282758 0)
(11.182969 0.51547513 0)
(11.23519 0.44295724 -2.905436e-20)
(10.079417 0.4510066 6.6345456e-19)
(10.114546 0.48297159 -6.2901181e-18)
(10.153713 0.52815835 2.8406647e-18)
(10.193983 0.56841979 -3.6335998e-18)
(10.23787 0.60877524 -7.3812803e-19)
(10.298337 0.64563794 0)
(10.352166 0.67498288 -3.806479e-18)
(10.417357 0.70299627 2.3348413e-18)
(10.484632 0.71652589 -7.8563831e-19)
(10.551132 0.73539302 -1.7878495e-21)
(10.626733 0.73465841 0)
(10.699783 0.73758204 0)
(10.78884 0.71185049 -4.0443277e-19)
(10.858253 0.69445383 -4.0609936e-19)
(10.95337 0.64502811 2.0362295e-19)
(11.007306 0.60668917 1.2261043e-18)
(11.094289 0.54112237 -8.2194583e-19)
(11.130932 0.48985348 1.0277881e-19)
(11.196589 0.41300344 2.5382766e-20)
(10.047088 0.36227279 4.2282338e-18)
(10.078677 0.40762748 -4.3359309e-18)
(10.111839 0.44744593 0)
(10.1476 0.47683686 6.4149851e-19)
(10.19019 0.51294642 0)
(10.236579 0.5527753 6.6468836e-19)
(10.287266 0.59022174 6.7491539e-19)
(10.360783 0.61814235 0)
(10.427043 0.63614456 3.4473402e-18)
(10.503595 0.65243267 -2.4566165e-18)
(10.575227 0.65225945 1.7587239e-18)
(10.654655 0.65571099 -1.4260848e-18)
(10.729516 0.63909558 1.4236932e-18)
(10.806186 0.62414685 -1.026848e-20)
(10.882737 0.58423351 -1.4437999e-18)
(10.941783 0.55157827 -1.7945012e-19)
(11.010874 0.49354449 -1.8079413e-19)
(11.053045 0.44968715 -8.9701815e-20)
(11.109134 0.37556033 0)
(10.083115 0.28098158 4.8313438e-18)
(10.106399 0.32901847 0)
(10.135682 0.36881846 0)
(10.171628 0.40805737 5.6733745e-19)
(10.20359 0.4427241 0)
(10.244864 0.47352696 -5.8529722e-19)
(10.28969 0.50665078 -5.9360722e-19)
(10.347465 0.53675527 -2.4009911e-18)
(10.40274 0.56535486 2.4431524e-18)
(10.467822 0.58241588 0)
(10.531899 0.59301185 -2.7824215e-18)
(10.604999 0.59824626 2.1941341e-18)
(10.674855 0.58908348 1.2514165e-18)
(10.759047 0.57358677 -2.5212612e-18)
(10.82473 0.54355233 2.5277286e-18)
(10.896842 0.51069028 -1.9002579e-18)
(10.958206 0.46018206 6.3355324e-19)
(11.013819 0.41897297 0)
(11.064176 0.35205044 0)
(10.052525 0.2215676 7.5835712e-18)
(10.063023 0.26695738 -3.8710786e-18)
(10.09981 0.2867022 3.9286611e-18)
(10.121657 0.3306301 -4.508717e-18)
(10.159726 0.35642742 -4.0587221e-18)
(10.196693 0.39990613 4.1360518e-18)
(10.243522 0.42790124 2.0867468e-18)
(10.298286 0.4582238 -1.1096193e-20)
(10.353954 0.48278958 -2.1467988e-18)
(10.412511 0.49946333 0)
(10.471921 0.51370235 0)
(10.542229 0.52067132 2.7350948e-19)
(10.609935 0.51415966 0)
(10.690941 0.50365279 1.1023047e-18)
(10.751418 0.48086029 -1.1116519e-18)
(10.825131 0.45025309 -5.5336264e-19)
(10.877528 0.41155838 6.9449574e-19)
(10.936749 0.36914576 -3.4630825e-19)
(10.982331 0.31119112 2.7656472e-19)
(10.075504 0.17096777 0)
(10.084307 0.20955221 0)
(10.113188 0.23407766 3.4643101e-18)
(10.126537 0.2660321 -3.5307494e-18)
(10.164336 0.29279746 4.0209836e-18)
(10.188892 0.33147578 -4.0914213e-18)
(10.234753 0.35797867 0)
(10.284765 0.39503363 4.6547478e-19)
(10.337655 0.41562161 1.8742676e-18)
(10.392966 0.44179211 -1.9011852e-18)
(10.453754 0.45240655 1.9047403e-18)
(10.518886 0.46356776 -1.1623336e-20)
(10.58821 0.46002823 -3.8611801e-18)
(10.66147 0.45219227 1.9426229e-18)
(10.724283 0.43837003 0)
(10.793254 0.40986248 -9.689118e-19)
(10.849238 0.37864752 1.5190974e-18)
(10.905759 0.3348268 -6.6802321e-19)
(10.953084 0.28204415 2.4204737e-19)
(10.042 0.1281454 1.1458388e-17)
(10.057668 0.15210686 -6.0188023e-18)
(10.08135 0.16825611 0)
(10.098884 0.20262856 -3.8784264e-19)
(10.126795 0.22603095 -3.9311071e-19)
(10.145285 0.26255833 3.9833173e-19)
(10.191859 0.283964 0)
(10.231523 0.31716454 -4.0742995e-19)
(10.283129 0.3403989 3.286394e-18)
(10.335288 0.36406611 -3.33038e-18)
(10.394113 0.37922683 0)
(10.456039 0.39077532 0)
(10.525395 0.38851026 2.1144301e-19)
(10.592334 0.38634284 1.0603508e-19)
(10.65805 0.37475301 -1.0623392e-19)
(10.722278 0.35463638 0)
(10.782002 0.32977805 -4.7653807e-19)
(10.838201 0.29336953 4.248896e-19)
(10.888364 0.24543913 0)
(10.04344 0.096661129 -1.0410546e-17)
(10.060717 0.11745477 1.0915812e-17)
(10.074126 0.13261368 -1.2255324e-20)
(10.098351 0.15242698 -5.1166263e-18)
(10.125413 0.17345959 0)
(10.153991 0.20099149 2.7919766e-18)
(10.194475 0.22441736 -5.8341783e-18)
(10.228182 0.25482455 2.8635476e-18)
(10.277506 0.27454756 0)
(10.323219 0.30523442 -2.8990755e-18)
(10.378347 0.31695323 2.9322337e-18)
(10.441114 0.33510017 1.4657707e-18)
(10.50629 0.33224722 -1.4786522e-18)
(10.569141 0.33203881 1.2900791e-18)
(10.63462 0.32222645 -1.3925052e-18)
(10.694627 0.30358888 0)
(10.755014 0.27990586 -4.6381643e-20)
(10.812523 0.24386976 -1.3839729e-19)
(10.861783 0.20270745 1.9610963e-19)
(10.040184 0.06407342 2.8649132e-19)
(10.048733 0.078303498 -5.8157751e-19)
(10.063161 0.090595039 4.7142182e-18)
(10.076296 0.10538134 2.878657e-19)
(10.095393 0.12283698 -3.161071e-19)
(10.116151 0.15054506 -4.9085825e-18)
(10.144733 0.1698373 1.5467727e-19)
(10.182707 0.19203702 2.6516723e-18)
(10.227796 0.21097612 -2.5262999e-18)
(10.270128 0.23206105 -1.5885637e-19)
(10.325326 0.2478385 0)
(10.379661 0.26500536 2.7200129e-18)
(10.44429 0.27187285 -2.7419133e-18)
(10.502321 0.27699904 -1.2063645e-18)
(10.571566 0.27167687 8.7207996e-20)
(10.630833 0.26252049 1.9395077e-18)
(10.695963 0.24370478 -6.0673352e-19)
(10.749829 0.21609184 -6.0405475e-20)
(10.796024 0.18529306 -1.0018012e-20)
(10.027797 0.047403626 0)
(10.042505 0.05519221 2.5517749e-19)
(10.054801 0.063470267 4.1361743e-18)
(10.07242 0.072592461 -4.5905133e-18)
(10.091054 0.081242265 4.3698852e-18)
(10.113713 0.10126826 -4.2955111e-18)
(10.141625 0.11856265 1.3549183e-19)
(10.1756 0.13835682 -1.3645089e-19)
(10.213763 0.15800729 2.0593929e-18)
(10.258131 0.17657384 -2.0822934e-18)
(10.312074 0.18803969 2.0824219e-18)
(10.36691 0.19952279 -2.3110893e-18)
(10.430624 0.20205428 0)
(10.492582 0.20575971 1.1202286e-18)
(10.55589 0.19621563 -1.2671747e-18)
(10.617217 0.18595716 5.6081406e-19)
(10.683096 0.16928853 -5.2761946e-19)
(10.732395 0.14986056 -2.4505343e-19)
(10.781567 0.12059662 2.8421581e-19)
(10.016875 0.02597445 -7.3913797e-21)
(10.026436 0.03501683 -7.1701787e-18)
(10.035025 0.038909599 1.1344698e-19)
(10.051029 0.04868119 -1.2885901e-22)
(10.063728 0.054655049 1.1594945e-19)
(10.084695 0.06438147 0)
(10.107067 0.077413782 3.7792742e-18)
(10.133089 0.091448417 -3.9415118e-18)
(10.17093 0.10527844 1.1995543e-19)
(10.210217 0.12017605 -1.8684903e-18)
(10.257147 0.13801341 3.944822e-18)
(10.307944 0.14970415 -3.8984732e-18)
(10.36737 0.15905634 1.9588751e-18)
(10.432577 0.16679392 0)
(10.498424 0.17036652 -9.4549893e-19)
(10.563631 0.16305747 9.8008196e-19)
(10.625375 0.15716468 -1.5200507e-20)
(10.677581 0.14365364 3.4756468e-23)
(10.730463 0.12304524 -3.7896858e-21)
(10.010913 0.012655433 6.230473e-18)
(10.016677 0.016414264 -6.273924e-18)
(10.02864 0.017674067 6.2583526e-18)
(10.039754 0.022069699 1.0032687e-19)
(10.056475 0.026295271 0)
(10.075282 0.029687275 0)
(10.096494 0.035431587 -5.1456715e-20)
(10.125357 0.040522308 -3.2690946e-18)
(10.159146 0.047977669 3.4060196e-18)
(10.19928 0.054064895 3.3303928e-18)
(10.248092 0.059423874 -1.6207575e-18)
(10.302848 0.064625619 -1.7765742e-18)
(10.362211 0.06659309 0)
(10.424598 0.065250521 2.6576534e-20)
(10.493115 0.063373633 2.6510902e-20)
(10.560482 0.05944332 8.3310211e-19)
(10.621561 0.057518926 -8.6204878e-19)
(10.67782 0.046153251 1.913542e-19)
(10.725512 0.032631509 -2.1097961e-19)
(10.003474 0.005565988 -4.2152338e-20)
(10.007991 0.0075796221 5.430445e-18)
(10.015489 0.010809522 -5.1514251e-21)
(10.025832 0.014378483 -7.288206e-21)
(10.039556 0.018191937 -5.6147119e-18)
(10.057117 0.022250292 0)
(10.07914 0.026470691 2.8041572e-18)
(10.106485 0.030717966 -2.8314136e-18)
(10.139965 0.034694942 -4.5036895e-20)
(10.180036 0.038272492 -2.2615786e-20)
(10.226366 0.041074063 -2.2688115e-20)
(10.279088 0.042891395 2.2736598e-20)
(10.335013 0.044538905 0)
(10.391072 0.047845798 1.4370304e-18)
(10.448654 0.053072582 -1.4716473e-18)
(10.506612 0.053004345 -7.2140241e-19)
(10.571175 0.065708278 7.3598094e-19)
(10.632517 0.055591185 3.7186586e-19)
(10.676888 0.058444422 -3.6581337e-19)
(12.369942 0.56529702 -1.3749216e-19)
(12.395541 0.40008961 -5.5119435e-19)
(12.371141 0.27771811 5.3815694e-19)
(12.362332 0.12134829 0)
(12.324746 0.017147993 -1.0027274e-18)
(12.292367 -0.12181 -1.9393151e-18)
(12.241553 -0.20960473 0)
(12.180807 -0.33854501 -2.4494778e-20)
(12.092764 -0.41781277 3.3112267e-18)
(12.007458 -0.53703215 1.5893979e-18)
(11.881085 -0.59926912 -1.4931342e-18)
(11.792103 -0.70447224 2.8456401e-18)
(11.639726 -0.7446714 -2.6606582e-18)
(11.557341 -0.81629618 0)
(11.404224 -0.85761337 1.2276388e-18)
(11.298742 -0.91977782 -1.1390068e-18)
(11.116908 -0.93620642 -2.2299893e-18)
(10.90847 -0.966769 2.0936299e-18)
(10.715909 -0.92976781 -1.003287e-18)
(12.288094 0.5426505 -1.1918739e-19)
(12.301079 0.38502001 7.1182539e-19)
(12.281969 0.24113285 -4.6638207e-19)
(12.271073 0.08790347 0)
(12.219702 -0.036258632 -8.8442558e-19)
(12.191316 -0.17297671 2.5431174e-18)
(12.121519 -0.26752776 0)
(12.062137 -0.38662379 0)
(11.9824 -0.4575307 0)
(11.892366 -0.55736159 0)
(11.772725 -0.60881292 2.6775748e-18)
(11.657161 -0.6759499 -3.8362942e-18)
(11.510365 -0.70235413 -3.6955951e-18)
(11.378225 -0.73236029 2.3048681e-18)
(11.227592 -0.72954143 -2.2191523e-18)
(11.11302 -0.73687067 2.1546284e-18)
(10.984708 -0.67892109 -6.5866033e-21)
(10.79459 -0.67453765 -1.937851e-18)
(10.670905 -0.54354277 1.9107416e-18)
(12.208681 0.56328764 0)
(12.231182 0.4116819 -4.1560396e-19)
(12.20684 0.25406408 -8.1384647e-19)
(12.191464 0.11286365 -4.1052959e-21)
(12.136418 -0.01817743 -8.2742553e-21)
(12.096938 -0.15128695 1.5132558e-18)
(12.017902 -0.2541317 -2.8789231e-18)
(11.949748 -0.36134755 1.3707465e-18)
(11.860576 -0.43532345 2.1857625e-20)
(11.766893 -0.51969766 0)
(11.665166 -0.56302286 3.6446602e-18)
(11.545899 -0.60678017 1.7410997e-20)
(11.418419 -0.62111194 2.2170561e-18)
(11.281259 -0.61454223 2.1495843e-18)
(11.133515 -0.59836463 3.0598867e-18)
(11.006817 -0.55343881 -3.8597544e-18)
(10.874474 -0.47680685 -4.6218897e-20)
(10.726826 -0.39226561 3.5790294e-18)
(10.666415 -0.22874063 1.8013306e-18)
(12.110214 0.52579705 3.6107484e-19)
(12.132111 0.36740716 -7.2042924e-19)
(12.099019 0.21545091 1.0611648e-18)
(12.08836 0.081601193 0)
(12.030774 -0.05271649 2.0265211e-18)
(11.976795 -0.17498919 -3.2752215e-18)
(11.904209 -0.27363018 2.5408012e-18)
(11.825471 -0.36873394 -4.1111532e-21)
(11.727812 -0.43577062 2.3186885e-20)
(11.645137 -0.50092159 -1.1460234e-18)
(11.549761 -0.52370621 0)
(11.446056 -0.55157204 -1.0347181e-18)
(11.333458 -0.53595393 1.0372968e-18)
(11.228816 -0.51631395 -1.9076606e-18)
(11.101074 -0.46588853 0)
(10.995822 -0.37640609 0)
(10.88319 -0.28058009 -1.6982366e-18)
(10.786808 -0.11590834 0)
(10.741244 0.053058086 1.6171822e-18)
(12.040346 0.54699057 3.1310507e-19)
(12.050977 0.37760445 -3.1115456e-19)
(12.043991 0.24073785 4.2675235e-21)
(12.0048 0.099060345 -6.0404613e-19)
(11.955716 -0.030752101 5.8160974e-19)
(11.891824 -0.14770249 -1.7141196e-21)
(11.818345 -0.23690005 -1.1123377e-18)
(11.727557 -0.32205845 0)
(11.628614 -0.38041524 -2.0973524e-18)
(11.531213 -0.42855202 1.0028303e-18)
(11.435737 -0.43573156 0)
(11.351299 -0.44074759 0)
(11.262928 -0.40621719 -1.7940897e-18)
(11.173475 -0.37209595 -1.759077e-18)
(11.114537 -0.2803503 1.6919596e-18)
(11.0308 -0.1840302 3.2642244e-18)
(11.015554 -0.054634101 1.6185535e-18)
(10.950081 0.1336297 -1.4710225e-18)
(11.031589 0.31184616 -8.2656614e-21)
(11.973571 0.49304658 0)
(11.960759 0.35154557 2.7170051e-19)
(11.972362 0.20798473 -1.3358159e-18)
(11.915165 0.073472687 5.2668547e-19)
(11.873282 -0.056479249 1.5498011e-18)
(11.806605 -0.15526234 -1.0198815e-18)
(11.724097 -0.24534316 -1.9844781e-18)
(11.643974 -0.3076393 1.903018e-18)
(11.556408 -0.35070511 -9.5459292e-19)
(11.45456 -0.37445375 1.7882438e-18)
(11.374345 -0.37297892 0)
(11.292295 -0.34814151 0)
(11.225745 -0.30476997 -1.6384239e-18)
(11.164478 -0.22988851 4.7214602e-18)
(11.15463 -0.13894505 -6.0299128e-18)
(11.124917 -0.028482758 2.8902257e-18)
(11.18498 0.12504384 -5.6232426e-18)
(11.205027 0.26781918 1.333112e-18)
(11.388169 0.47800954 2.5844602e-18)
(11.866171 0.49644325 5.9203012e-20)
(11.884507 0.37021219 2.3664124e-19)
(11.868261 0.20675872 -4.6314716e-19)
(11.837866 0.091675429 0)
(11.791144 -0.042745697 -9.0722639e-19)
(11.728323 -0.12594854 2.6580989e-18)
(11.644166 -0.21511231 -1.7195818e-18)
(11.573814 -0.2637351 8.5124696e-19)
(11.488483 -0.30243738 -1.6601841e-18)
(11.411448 -0.30907847 4.8149735e-18)
(11.344177 -0.29930897 -3.0789877e-18)
(11.276383 -0.25621077 0)
(11.244907 -0.21086138 1.4435967e-18)
(11.219734 -0.11877894 2.8280647e-18)
(11.245125 -0.054038881 -4.033413e-18)
(11.291261 0.080641465 3.9259522e-18)
(11.39158 0.16610499 -3.7589074e-18)
(11.539133 0.28259851 -2.4307542e-18)
(11.793925 0.3968694 -1.1776891e-18)
(11.785776 0.47197913 1.5335237e-19)
(11.828603 0.33344328 2.0395584e-19)
(11.794308 0.18604238 -4.022574e-19)
(11.789937 0.074384347 0)
(11.72218 -0.052974337 1.5717542e-18)
(11.674296 -0.12519761 -7.7872967e-19)
(11.590473 -0.20624969 0)
(11.51156 -0.24204953 -1.4867845e-18)
(11.437365 -0.26944568 7.3131335e-19)
(11.37025 -0.26496943 0)
(11.320495 -0.24235777 -1.3850543e-18)
(11.291118 -0.19441179 1.3426621e-18)
(11.294662 -0.15351703 1.2975269e-18)
(11.311624 -0.065843807 -2.5123407e-18)
(11.375858 -0.035881049 2.3914441e-18)
(11.487481 0.083494086 -1.1555498e-18)
(11.621676 0.053926435 -1.1096959e-18)
(11.842669 0.14201999 -1.060103e-18)
(12.073799 0.028895887 -1.0107332e-18)
(11.696867 0.46902894 3.535914e-19)
(11.760143 0.32618618 -1.7513894e-19)
(11.708626 0.19152617 0)
(11.709742 0.071336626 0)
(11.629802 -0.046229181 -1.3700008e-18)
(11.594173 -0.11299416 1.3513815e-18)
(11.515437 -0.18309299 0)
(11.462315 -0.2079336 6.486975e-19)
(11.397378 -0.2288494 -6.353574e-19)
(11.338462 -0.21740015 0)
(11.319909 -0.19531537 1.2102403e-18)
(11.321831 -0.15757459 1.0509603e-20)
(11.349061 -0.13507395 7.8092819e-21)
(11.412408 -0.070739708 0)
(11.49292 -0.088310521 -4.2740475e-18)
(11.668584 -0.04492312 4.082674e-18)
(11.777112 -0.15286048 4.9127581e-18)
(12.03586 -0.17572247 -6.5549924e-18)
(12.16998 -0.43695269 4.4838207e-18)
(11.622189 0.46126104 0)
(11.661648 0.29379027 1.7887328e-21)
(11.627263 0.19189138 0)
(11.628571 0.06225563 0)
(11.543878 -0.034604 5.9285074e-19)
(11.520028 -0.10085092 7.2654415e-21)
(11.435626 -0.16792048 -5.8531679e-19)
(11.39581 -0.18327089 -1.7324402e-18)
(11.34532 -0.19978959 2.2310503e-18)
(11.328319 -0.19010152 0)
(11.333034 -0.1832591 -1.0569271e-18)
(11.359157 -0.15705511 -6.2388485e-18)
(11.401765 -0.16512074 3.0048961e-18)
(11.511234 -0.14431919 0)
(11.578618 -0.21224306 -3.7643833e-18)
(11.772801 -0.2698301 4.5058033e-18)
(11.819497 -0.41404378 -3.4570674e-18)
(12.044851 -0.57420897 4.1306082e-18)
(12.010415 -0.87554187 0)
(11.554777 0.44360504 -2.652585e-19)
(11.570254 0.2726756 1.3302881e-19)
(11.575909 0.18606653 0)
(11.568071 0.04517286 -1.0515283e-18)
(11.509341 -0.02233241 1.5546182e-18)
(11.479069 -0.1079015 -5.1103961e-19)
(11.413688 -0.15411283 -1.542412e-18)
(11.388142 -0.16979681 3.5057289e-18)
(11.346116 -0.19728393 -1.9316849e-18)
(11.344456 -0.19351544 0)
(11.353035 -0.19854245 9.2163501e-19)
(11.402169 -0.1939506 5.4730001e-18)
(11.438249 -0.24039155 -3.5283919e-18)
(11.564959 -0.28120159 0)
(11.594704 -0.39310316 0)
(11.765649 -0.52130113 -1.5899719e-18)
(11.748271 -0.704795 7.6239946e-19)
(11.873236 -0.92791939 -2.1909943e-18)
(11.717117 -1.2080291 0)
(11.515478 0.4214793 -2.2960373e-19)
(11.495995 0.26946141 6.8823882e-19)
(11.523961 0.17747532 -6.8443117e-19)
(11.479554 0.044574486 0)
(11.454229 -0.01970522 1.3671547e-18)
(11.406544 -0.11064438 -1.7795456e-18)
(11.360497 -0.13543703 0)
(11.340657 -0.17228123 8.7756595e-19)
(11.32421 -0.19175834 8.5430166e-19)
(11.338949 -0.20149552 0)
(11.356284 -0.22835654 0)
(11.427187 -0.27254519 -7.9984798e-19)
(11.450791 -0.33873309 -2.3407765e-18)
(11.562435 -0.45383149 -9.3369494e-21)
(11.54252 -0.57364711 2.1774361e-18)
(11.640887 -0.76835397 1.4002358e-18)
(11.543934 -0.94225514 -6.738927e-19)
(11.56479 -1.1794189 1.2924862e-18)
(11.307923 -1.3859945 0)
(11.444238 0.38708788 0)
(11.419035 0.26150374 -7.9465655e-19)
(11.464095 0.15252294 1.5797366e-18)
(11.405882 0.037989059 -1.1795427e-18)
(11.405838 -0.027388358 0)
(11.344768 -0.11025128 0)
(11.32987 -0.1389562 0)
(11.29554 -0.19248871 -7.5919241e-19)
(11.30207 -0.21004969 -7.4635366e-19)
(11.319096 -0.25831418 0)
(11.346663 -0.29413529 -7.2143841e-19)
(11.39986 -0.38567412 -7.0272507e-19)
(11.415054 -0.45943354 -6.8117184e-19)
(11.475564 -0.63120126 2.6431261e-18)
(11.410323 -0.74139986 -2.552726e-18)
(11.430734 -0.96558718 -6.1642193e-19)
(11.269354 -1.0959782 3.5683532e-18)
(11.203587 -1.3036155 -5.7257223e-18)
(10.890371 -1.4203826 3.30979e-18)
(11.380122 0.36340762 -4.3113778e-20)
(11.363658 0.27198923 8.6106984e-20)
(11.412162 0.12939937 8.5678295e-19)
(11.353293 0.043185205 -2.0533361e-18)
(11.374542 -0.042010798 1.0102047e-18)
(11.309812 -0.1008285 0)
(11.32221 -0.14742561 0)
(11.283998 -0.20303349 6.6490916e-19)
(11.311095 -0.24015562 -2.6254839e-18)
(11.300638 -0.30930821 -6.6532367e-19)
(11.333993 -0.3620006 6.1112574e-19)
(11.342919 -0.4872236 3.0586842e-18)
(11.340139 -0.57336456 5.9688097e-19)
(11.316984 -0.77018153 0)
(11.23261 -0.85600436 1.6837326e-18)
(11.153904 -1.0783917 0)
(10.969492 -1.1296398 -3.1567809e-18)
(10.845588 -1.2981672 9.1340909e-18)
(10.530952 -1.3194925 -7.8548032e-18)
(11.284334 0.34287763 7.4175121e-20)
(11.303683 0.23988103 -7.3772389e-20)
(11.32966 0.098497239 0)
(11.29287 0.039810916 -8.9264332e-19)
(11.301642 -0.065572983 2.8065917e-19)
(11.24283 -0.1224005 1.1645978e-18)
(11.268725 -0.17893332 0)
(11.224939 -0.23469018 -2.8801082e-18)
(11.260106 -0.29073008 1.6896742e-18)
(11.230262 -0.36985093 -2.0990993e-21)
(11.260963 -0.44959629 0)
(11.21085 -0.58117283 0)
(11.188331 -0.67631891 -5.2103036e-19)
(11.086699 -0.85775346 0)
(10.983483 -0.91338412 2.2502974e-21)
(10.818801 -1.0951383 9.5759285e-19)
(10.631696 -1.0741215 -2.7858512e-18)
(10.4519 -1.2040716 7.1936352e-18)
(10.176738 -1.1158514 -3.4865151e-18)
(11.223398 0.33598714 2.2454701e-19)
(11.285416 0.20688523 -1.9183651e-19)
(11.279205 0.10832374 0)
(11.279679 0.026884047 0)
(11.257863 -0.076875308 0)
(11.231829 -0.11711662 0)
(11.236454 -0.20722232 -2.0267273e-18)
(11.194697 -0.25732264 1.9871311e-18)
(11.225339 -0.34026347 2.4710826e-18)
(11.167629 -0.41181983 -9.6589289e-19)
(11.187732 -0.52276412 0)
(11.091797 -0.64175573 3.7404383e-18)
(11.043182 -0.73822123 -6.8332269e-18)
(10.879489 -0.87173701 3.5484963e-18)
(10.767469 -0.89957071 -4.3269148e-18)
(10.549168 -1.0129838 2.5214914e-18)
(10.39319 -0.93495664 -8.1711075e-19)
(10.176228 -1.0127064 -7.9631797e-19)
(9.9296295 -0.84415547 7.7053644e-19)
(11.141769 0.30256281 2.2141238e-19)
(11.207697 0.17425743 -7.1955477e-19)
(11.186732 0.098719252 4.4095975e-19)
(11.216556 -0.01202541 -8.866454e-19)
(11.171584 -0.08176801 8.7752494e-19)
(11.184543 -0.15683362 0)
(11.141065 -0.2387241 -4.3816249e-19)
(11.135463 -0.2856921 1.7387852e-18)
(11.112981 -0.39796855 -1.70561e-18)
(11.059145 -0.45198928 -4.2137569e-19)
(11.037303 -0.58695826 -3.3247411e-18)
(10.895642 -0.6579425 3.2478515e-18)
(10.818922 -0.7542903 -3.9732256e-19)
(10.613024 -0.81696419 2.3354632e-18)
(10.495518 -0.82453681 -2.2706848e-18)
(10.243155 -0.85543419 0)
(10.12771 -0.7596451 -5.7737829e-18)
(9.8888668 -0.76254231 6.3051064e-18)
(9.7483888 -0.52067297 0)
(11.117297 0.27993462 -3.8205785e-19)
(11.160067 0.16447829 3.8176753e-19)