/*--------------------------------*- C++ -*----------------------------------*\
  =========                 |
  \\      /  F ield         | OpenFOAM: The Open Source CFD Toolbox
   \\    /   O peration     | Website:  https://openfoam.org
    \\  /    A nd           | Version:  11
     \\/     M anipulation  |
\*---------------------------------------------------------------------------*/
FoamFile
{
    format      ascii;
    class       surfaceScalarField;
    location    "4.6";
    object      phi;
}
// * * * * * * * * * * * * * * * * * * * * * * * * * * * * * * * * * * * * * //

dimensions      [0 3 -1 0 0 0 0];

internalField   nonuniform List<scalar> 
8667
(
15.889624
1.7791051
0.10904837
13.997967
1.584018
0.30763941
12.099488
1.383861
0.51461765
10.217922
1.1543468
0.72721952
8.332942
0.95944671
0.92553333
6.4723506
0.70522047
1.1553709
4.6220836
0.4881814
1.3620856
2.8248395
0.20179371
1.5954504
-0.25478562
1.9918357
1.0877895
15.889836
3.6670468
13.988448
3.4854062
12.092993
3.279316
10.199486
3.0478538
8.317911
2.8410219
6.453442
2.5696895
4.6040301
2.3375933
2.8280196
1.9778042
1.4845438
1.0886901
15.889019
5.5558062
13.985416
5.3890089
12.084993
5.1797394
10.188369
4.944477
8.2975268
4.7318645
6.4352541
4.4319622
4.5871916
4.1856558
2.8136435
3.7513522
3.2332744
1.0649129
15.888553
7.4450308
13.983959
7.2936031
12.078296
7.0854026
10.176767
6.8460064
8.2847787
6.6238523
6.4177215
6.2990194
4.5651911
6.0381863
2.8000245
5.5165188
4.9514426
1.0818564
15.888927
9.3338794
13.981822
9.2007082
12.073699
8.9935258
10.169103
8.7506028
8.2710387
8.5219163
6.396758
8.1733001
4.5475294
7.8874149
2.7901037
7.2739445
6.6623076
1.0792387
15.887032
11.224625
13.98171
11.10603
12.070385
10.904851
10.160592
10.660395
8.2624908
10.420018
6.3783832
10.057408
4.5209049
9.7448932
2.7682244
9.026625
8.3585354
1.0719966
15.886632
13.115771
13.980771
13.011891
12.070572
12.815051
10.155858
12.575109
8.2512865
12.32459
6.3654009
11.943293
4.5019944
11.6083
2.7539131
10.774706
10.031928
1.0805208
15.886174
15.007375
13.982684
14.915381
12.069121
14.728614
10.152471
14.491759
8.2419881
14.235073
6.3480483
13.837233
4.4762529
13.480095
2.7233374
12.527622
11.686474
1.0687916
15.88607
16.899084
13.984361
16.817089
12.07009
16.642885
10.151199
16.410649
8.2346365
16.151635
6.3387638
15.733106
4.4570132
15.361846
2.6992666
14.285368
13.328885
1.0568552
18.728318
15.948544
20.556869
15.949227
22.384703
15.94995
24.211648
15.950834
26.037776
15.951633
27.8627
15.952856
29.685923
15.954556
31.507809
15.955894
15.95857
33.327019
18.653545
14.112088
20.489312
14.11346
22.324005
14.115258
24.157678
14.117161
25.989495
14.119815
27.820056
14.122295
29.650144
14.124469
31.484292
14.121746
14.121801
33.321061
18.4905
12.264473
20.337194
12.266766
22.183263
12.269188
24.029384
12.271041
25.874823
12.274375
27.720154
12.276965
29.56045
12.284172
31.396792
12.285405
12.297358
33.221236
18.263683
10.41144
20.120588
10.40986
21.979097
10.41068
23.839426
10.410712
25.699338
10.414463
27.562148
10.414155
29.428726
10.417595
31.29949
10.41464
10.420916
33.175932
18.002834
8.5602414
19.860253
8.5524404
21.722629
8.5483039
23.588062
8.5452791
25.454833
8.5476916
27.321106
8.5478824
29.182926
8.5557747
31.040367
8.5571993
8.561735
32.899547
17.569149
6.7241983
19.417348
6.7042413
21.28304
6.6826121
23.161285
6.6670338
25.055386
6.6535904
26.962877
6.6403911
28.88716
6.6314921
30.81688
6.6274796
6.6292592
32.749356
17.17825
4.9077938
19.017898
4.8645932
20.870969
4.8295415
22.755639
4.7823638
24.654049
4.75518
26.572094
4.7223466
28.494785
4.7088008
30.434887
4.6873779
4.6875941
32.376552
15.97285
3.2203119
17.759062
3.0783809
19.614081
2.9745233
21.549693
2.846751
23.525006
2.7798676
25.556621
2.6907313
27.603281
2.662141
29.682819
2.6078393
2.5988794
31.771534
14.879184
1.6700124
16.67375
1.2838154
18.815522
0.83275101
21.100845
0.56142843
23.460228
0.42048403
25.835323
0.3156365
28.23139
0.26607387
30.605072
0.23415798
32.994561
0.20938986
33.20071
0.1263092
33.073257
0.1274531
32.945584
0.12767329
32.8177
0.1278839
32.689748
0.12795141
32.563102
0.12664634
32.43677
0.12633158
32.312647
0.12412381
0.12309949
32.189547
33.193364
0.2540059
33.067453
0.25336405
32.942823
0.25230267
32.820152
0.25055489
32.700378
0.24772604
32.583501
0.24352276
32.470401
0.23943225
32.360522
0.23400267
0.22785592
32.255765
33.092614
0.38262788
32.968103
0.37787462
32.845665
0.37474049
32.727467
0.36875269
32.611831
0.36336212
32.500709
0.35464515
32.392887
0.34725391
32.289703
0.33718734
0.32681174
32.190747
33.058723
0.49983703
32.94655
0.4900476
32.840003
0.48128728
32.737931
0.47082419
32.64037
0.46092344
32.548061
0.44695465
32.460288
0.43502702
32.379706
0.41776859
0.40429477
32.302223
32.790014
0.60937066
32.688264
0.59179701
32.591373
0.57817886
32.502234
0.55996273
32.418021
0.545137
32.342304
0.52267126
32.27108
0.50625147
32.208759
0.48008942
0.46409526
32.148958
32.688922
0.66980374
32.640216
0.64050354
32.594562
0.62383293
32.557016
0.59750822
32.521717
0.58043598
32.493823
0.55056612
32.467308
0.53276617
32.445913
0.50148467
0.48391414
32.426094
32.346811
0.69954424
32.328511
0.6588039
32.313318
0.6390262
32.306405
0.60442148
32.303355
0.58348573
32.302498
0.55142266
32.301907
0.53335779
32.301579
0.50181217
0.48740596
32.298087
31.93833
0.5327484
32.107805
0.48932936
32.289951
0.45688005
32.469267
0.42510541
32.651513
0.40123968
32.819377
0.3835588
32.97459
0.37814429
33.098156
0.37824648
0.39493152
33.19063
33.359197
0.16811248
33.67691
0.17161638
33.953831
0.17995856
34.17603
0.20290642
34.343769
0.23350099
34.432124
0.29520336
34.448495
0.36177338
34.375443
0.45129896
34.2634
0.50697429
34.207845
0.54171404
-0.48615887
34.015971
0.52796412
-0.33609067
33.75298
0.51029491
-0.2473036
33.461512
0.50286509
-0.21139747
33.163102
0.48496794
-0.18655736
32.846159
0.47666768
-0.15972497
32.514827
0.46736276
-0.1360311
32.181326
0.47279492
-0.13929373
0.47882712
31.876265
-0.17376573
33.356996
0.37534858
33.482715
0.40224472
33.571979
0.42103055
33.634562
0.44028289
33.664946
0.45458382
33.671441
0.47017232
33.652936
0.48586773
33.620964
0.50476746
0.52382595
33.575965
32.404585
0.26885049
32.512624
0.29420623
32.610656
0.3229981
32.70343
0.34750937
32.779498
0.37851549
32.847589
0.40208151
32.90151
0.43194697
32.951275
0.45500202
0.48710569
32.987995
32.52099
0.17395398
32.620572
0.19462476
32.718848
0.22472209
32.820303
0.24605355
32.919365
0.27945447
33.019781
0.30166506
33.113642
0.33808593
33.206942
0.36170241
0.40074995
33.293297
32.218013
0.10489974
32.290939
0.12169812
32.370397
0.1452647
32.451422
0.16502814
32.540304
0.19057261
32.627449
0.21451997
32.724283
0.24125237
32.8191
0.26688496
0.30058319
32.919267
32.351465
0.055658014
32.40481
0.068352948
32.468481
0.081594114
32.533325
0.10018402
32.610264
0.11363355
32.685848
0.13893591
32.774397
0.15270298
32.859267
0.18201502
0.20157208
32.958278
32.222236
0.024168774
32.258807
0.031782456
32.300261
0.040139859
32.349853
0.050592171
32.402409
0.061076871
32.467537
0.073808717
32.533289
0.086950569
32.612861
0.10244307
0.11799094
32.696442
32.275115
0.004819197
32.300801
0.0060966662
32.329341
0.011599691
32.367082
0.012851648
32.406929
0.021229659
32.457921
0.0228163
32.509929
0.034942937
32.576742
0.035629954
0.049573103
32.64516
32.194366
32.200463
32.212063
32.224914
32.246144
32.26896
32.303903
32.339533
32.389106
32.442567
-0.053461187
32.507943
-0.065375224
32.583316
-0.075373835
32.668797
-0.085480703
32.77025
-0.1014525
32.879815
-0.10956567
33.01031
-0.13049474
33.147637
-0.13732675
-0.16442153
33.312058
32.729285
-0.13758666
32.815198
-0.15128802
32.918747
-0.17892247
33.0238
-0.19053362
33.147868
-0.22552081
33.273828
-0.23552536
33.422139
-0.27880649
33.572006
-0.28719365
-0.33834758
33.745932
32.786774
-0.22791837
32.889039
-0.25355329
32.992143
-0.28202611
33.113096
-0.31148655
33.230272
-0.34269677
33.371149
-0.37640311
33.504237
-0.41189408
33.666668
-0.44962437
-0.48789697
33.816217
33.052535
-0.32217497
33.16247
-0.36348799
33.267247
-0.3868035
33.390008
-0.43424696
33.505579
-0.45826857
33.642263
-0.51308649
33.769437
-0.53906872
33.921228
-0.60141542
-0.62966368
34.062995
33.02305
-0.4259585
33.127869
-0.46830668
33.237385
-0.49631947
33.346045
-0.5429066
33.461023
-0.57324695
33.573309
-0.62537255
33.692609
-0.65836875
33.807874
-0.71668002
-0.75307958
33.93129
33.380756
-0.51341726
33.461721
-0.54927145
33.545007
-0.5796054
33.621402
-0.61930152
33.701138
-0.65298354
33.772468
-0.69670252
33.849095
-0.73499537
33.91591
-0.78349479
-0.82669093
33.989521
33.026429
-0.55185118
33.056867
-0.57970855
33.089823
-0.61256181
33.113344
-0.64282259
33.14182
-0.68145909
33.161313
-0.71619644
33.180253
-0.75393446
33.18182
-0.78506221
-0.82292644
33.178055
33.526794
-0.50268023
33.470605
-0.52351989
33.420582
-0.56253862
33.370438
-0.59267888
33.310205
-0.62122612
33.227881
-0.63387221
33.12243
-0.64848319
32.983196
-0.64582842
-0.65403831
32.814308
31.600917
-0.22733195
31.364957
-0.28755999
31.123069
-0.32065104
30.831564
-0.30117363
30.533149
-0.32281161
30.307608
-0.40833072
30.181026
-0.52190156
30.052394
-0.5171961
29.866325
-0.46796922
0.65948146
29.610909
-0.40406551
0.85580935
32.61798
0.88051156
33.153353
0.81704013
34.052992
0.6989231
34.049407
0.53235465
34.229564
0.34827863
34.000293
0.17073937
33.923471
33.482798
0.687595
29.332454
-0.40914023
0.89571418
32.409861
0.92800819
33.121059
0.85701337
34.123987
0.72993668
34.176483
0.57023735
34.389263
0.39842168
34.172109
0.19890068
34.122992
33.681698
0.72096103
29.013745
-0.40225231
0.94444362
32.186378
0.98942366
33.076079
0.93008767
34.183323
0.80924481
34.297326
0.62892408
34.569584
0.42208181
34.378951
0.21038005
34.334694
33.892078
0.80496377
28.684103
-0.47532143
0.99947603
31.991866
1.0407636
33.034792
0.97178531
34.252301
0.83838623
34.430725
0.66179722
34.746173
0.46765443
34.573094
0.23852242
34.563826
34.130601
0.87291497
28.318016
-0.50682783
1.0764671
31.788314
1.1172481
32.994011
1.055019
34.314531
0.92781292
34.557931
0.7307536
34.943232
0.50243182
34.801415
0.25554153
34.810716
34.386142
0.95065164
27.939431
-0.57206736
1.1376412
31.601324
1.1744875
32.957164
1.0997886
34.38923
0.95817283
34.699547
0.75843605
35.142969
0.54281888
35.017033
0.28368496
35.06985
34.669827
0.99978897
27.448766
-0.50912346
1.229295
31.371818
1.2691961
32.917263
1.1948751
34.463551
1.05696
34.837462
0.84016235
35.359766
0.58714117
35.270054
0.30320183
35.35379
34.973029
1.0765218
26.957769
-0.58552494
1.2939572
31.154383
1.3295459
32.881674
1.2410555
34.552041
1.0879818
34.990536
0.86690416
35.580844
0.62858196
35.508376
0.33394139
35.64843
35.30697
1.1248892
26.29084
-0.45796028
1.4060422
30.87323
1.4498285
32.837888
1.357697
34.644173
1.2008454
35.147388
0.95312819
35.828561
0.67628777
35.785216
0.3553654
35.969353
35.662336
-0.025616326
35.687952
0.020942969
35.922793
0.097914192
35.708245
0.21676933
35.709706
0.35155992
35.012597
0.52519258
34.47054
0.72838852
32.634692
1.0579075
30.543711
26.052162
1.2965854
-0.034346289
35.722298
-0.005543685
35.893991
0.031611306
35.67109
0.12320259
35.618115
0.23976836
34.896031
0.40202568
34.308283
0.56877677
32.467941
0.84745823
30.265029
25.923218
0.9764027
-0.051695653
35.773994
-0.030121914
35.872417
0.025148124
35.61582
0.12995267
35.51331
0.23981944
34.786164
0.3917775
34.156324
0.53891489
32.320804
0.77018348
30.033761
25.804343
0.8890576
-0.064179008
35.838173
-0.069184179
35.877422
-0.052281418
35.598917
0.028156712
35.432872
0.12320842
34.691113
0.26589533
34.013638
0.38794874
32.19875
0.55756863
29.864141
25.754627
0.60728509
-0.075706983
35.91388
-0.073560097
35.875275
-0.037279053
35.562636
0.051058129
35.344535
0.1400203
34.602151
0.27756447
33.876093
0.39083511
32.08548
0.53635252
29.718623
25.680596
0.61038302
-0.094220609
36.008101
-0.12320891
35.904264
-0.12414123
35.563569
-0.058361862
35.278755
0.022847828
34.520941
0.1563581
33.742583
0.25497103
31.986867
0.37888134
29.594713
25.647904
0.41157384
-0.10111202
36.109213
-0.11525039
35.918402
-0.092204532
35.540523
-0.01383126
35.200382
0.058688417
34.448421
0.18561128
33.61566
0.27990962
31.892568
0.40082711
29.473795
25.582623
0.46610805
-0.12087434
36.230087
-0.16540702
35.962935
-0.17974277
35.554858
-0.1255326
35.146172
-0.050854812
34.373743
0.073506422
33.491299
0.15676758
31.809307
0.27250903
29.358054
25.516493
0.33863903
-0.12491404
36.355001
-0.14932795
35.987348
-0.1363581
35.541889
-0.067160494
35.076974
-0.0025147978
34.309098
0.12018184
33.368602
0.20223115
31.727258
0.31115161
29.249133
25.446001
0.38164324
-0.20146529
25.337227
0.31023968
-0.092956452
29.140625
-0.02031763
31.654619
0.098446478
33.249838
0.1696615
34.237883
0.22090185
35.025734
0.19763851
35.565152
0.14181182
36.043175
36.496813
-0.236968
25.286252
0.2879425
-0.15804292
29.061699
-0.086243977
31.58282
0.03184602
33.131748
0.097045454
34.172683
0.15933225
34.963447
0.16374687
35.560737
0.14049924
36.066423
36.637312
-0.16236341
25.135589
0.31302646
-0.065534142
28.96487
-0.0028514876
31.520137
0.11648676
33.01241
0.19073945
34.098431
0.24321163
34.910975
0.21291543
35.591033
0.15477247
36.124566
36.792085
-0.18942714
25.09132
0.23369636
-0.14843481
28.923878
-0.088576161
31.460279
0.032312528
32.891522
0.10177652
34.028967
0.16745775
34.845294
0.17406008
35.584431
0.15110346
36.147522
36.943188
-0.15802022
24.934319
0.31502112
-0.083284984
28.849143
-0.028256049
31.40525
0.10140796
32.761858
0.18487185
33.945503
0.24314165
34.787024
0.21293525
35.614637
0.15874843
36.201709
37.101936
-0.19851374
24.909635
0.22319819
-0.18130512
28.831934
-0.12811861
31.352063
0.0026426402
32.631096
0.08162844
33.866517
0.15813107
34.710521
0.1711738
35.601595
0.15250329
36.22038
37.25444
-0.18842666
24.788956
0.30910516
-0.15338766
28.796895
-0.095910452
31.294586
0.054722464
32.480463
0.15356802
33.767671
0.22407589
34.640014
0.20050449
35.625166
0.15593117
36.264953
37.410371
-0.26055697
24.83062
0.21889282
-0.27516305
28.811501
-0.21305578
31.232479
-0.060747963
32.328156
0.038507373
33.668416
0.13087742
34.547643
0.15396077
35.602083
0.14468386
36.27423
37.555055
-0.28185819
24.811644
0.30083416
-0.28385649
28.813499
-0.20294798
31.15157
-0.017461302
32.142669
0.10314533
33.547809
0.18934184
34.461447
0.1779631
35.613462
0.14691234
36.305281
37.701967
0.0047776423
37.697189
0.11009142
36.199967
0.24469737
35.478856
0.42401485
34.282129
0.60925415
33.36257
0.82381001
31.928113
0.92430641
31.051074
0.75194867
28.985857
25.223774
0.33981905
0.017340001
37.679849
0.10143902
36.115868
0.2003523
35.379942
0.37617937
34.106302
0.58617246
33.152577
0.85008484
31.664201
1.0102835
30.890875
0.87624509
29.119896
25.625409
0.4746101
0.04797357
37.631876
0.18218592
35.981655
0.33500862
35.22712
0.52439922
33.916912
0.73718293
32.939793
1.0181407
31.383243
1.239535
30.669481
1.1353916
29.224039
26.423141
0.33765925
0.069216485
37.562659
0.16444066
35.886431
0.28397499
35.107585
0.48517633
33.71571
0.72076981
32.7042
1.0537893
31.050223
1.3611798
30.36209
1.3807937
29.204425
27.252037
0.55189804
0.10915959
37.4535
0.27189651
35.723694
0.44136666
34.938115
0.63459764
33.522479
0.86045474
32.478343
1.1944796
30.716199
1.5866001
29.96997
1.7025833
29.088442
28.414787
0.53983368
0.13445282
37.319047
0.25219088
35.605956
0.39472074
34.795585
0.608612
33.308588
0.84714951
32.239805
1.2122632
30.351085
1.6865778
29.495655
2.0452577
28.729762
29.461719
0.99832569
0.17968077
37.139366
0.36752882
35.418108
0.55778615
34.605328
0.75555093
33.110823
0.97622083
32.019135
1.3079758
30.01933
1.8303267
28.973304
2.3898413
28.170247
30.275654
1.5759059
0.21836397
36.921002
0.35868561
35.277786
0.52707208
34.436941
0.75037179
32.887524
0.96702324
31.802484
1.3056359
29.680717
1.8651989
28.413741
2.7121712
27.323275
30.486923
2.500902
0.26576852
36.655234
0.49081109
35.052744
0.70122994
34.226522
0.91651148
32.672242
1.1127971
31.606198
1.367639
29.425875
1.9653626
27.816018
3.0821872
26.20645
30.176259
3.3928515
-1.5397339
38.194967
-3.033327
36.546337
-4.452474
35.645669
-5.6709077
33.890676
-6.6999097
32.6352
-7.4699748
30.19594
-7.9398218
28.285865
-8.8245424
27.091171
32.119111
-10.767395
-1.5389204
39.733888
-3.0338958
38.041312
-4.4747979
37.086572
-5.7730471
35.188925
-6.82253
33.684683
-7.5477023
30.921113
-8.0141646
28.752327
-8.7998912
27.876897
32.676288
-9.3570679
-1.5316417
41.265529
-3.0685621
39.578233
-4.5526591
38.570669
-5.8395926
36.475858
-6.890153
34.735243
-7.6104465
31.641406
-7.994042
29.135923
-8.3261684
28.209024
28.631992
-4.2818725
-1.5482539
42.813783
-3.0654472
41.095426
-4.5713032
40.076525
-5.9352857
37.839841
-7.0248677
35.824825
-7.6673132
32.283852
-7.8807221
29.349331
-7.73271
28.061011
21.185372
-0.28609004
-1.5152259
44.329009
-3.0845998
42.6648
-4.6305073
41.622432
-5.9958222
39.205156
-7.076052
36.905055
-7.6933876
32.901187
-7.6211041
29.277048
-6.8633555
27.303263
14.505385
-0.1833689
-1.4834912
45.8125
-3.0614075
44.242716
-4.6406687
43.201693
-6.0940218
40.658509
-7.2063702
38.017404
-7.7759864
33.470803
-7.3696204
28.870682
-5.9276361
25.861278
8.570565
0.0071844159
-1.457613
47.270114
-3.0659576
45.851061
-4.6848035
44.820539
-6.1470498
42.120755
-7.2446405
39.114994
-7.7179782
33.944141
-6.9030979
28.055802
-4.2163135
23.174494
3.7058801
0.64837153
-1.4192327
48.689346
-3.0156966
47.447525
-4.6635054
46.468348
-6.2404824
43.697732
-7.3724985
40.24701
-7.6823681
34.254011
-6.1287773
26.502211
-1.6171886
18.662905
0.52724605
1.5614455
-1.349525
50.038871
-3.0181991
49.116199
-4.6917359
48.141885
-6.2918593
45.297856
-7.3905334
41.345684
-7.4285469
34.292024
-5.015419
24.089083
-0.68304061
14.330527
-1.6856577
1.5298634
-0.15398614
-2.2471328
0.71546132
2.2658904
11.91065
4.5787395
21.776234
4.7225975
34.148166
4.0219559
42.046326
2.8783146
46.441497
1.7687813
49.251418
0.70403464
50.180945
50.742906
-0.58730942
-2.3091297
0.64930647
1.6077353
9.7156051
4.4623566
18.921612
4.7520776
33.858445
4.0029187
42.795485
2.8435199
47.600896
1.7134977
50.38144
0.62001883
51.274424
51.362925
-0.99730585
-1.9335461
0.6217223
0.95696707
7.7613321
4.3020374
15.576542
4.7894369
33.371046
4.0253464
43.559575
2.774108
48.852134
1.6220316
51.533517
0.55571188
52.340744
51.918637
-1.0511074
-1.418007
0.5355685
0.66462862
6.0455959
4.0883377
12.152833
4.7668297
32.692554
3.9826075
44.343797
2.7203829
50.114359
1.5467861
52.707114
0.4756513
53.411879
52.394288
-0.89834694
-0.89645683
0.37679669
0.56612547
4.5811234
3.8286916
8.8902664
4.7777749
31.74347
3.9773474
45.144225
2.6344471
51.457259
1.438354
53.903207
0.40917434
54.441058
52.803462
-0.66086491
-0.53060912
0.29501748
0.648565
3.2716934
3.5946418
5.9441896
4.7351771
30.602935
3.9178536
45.961548
2.5610337
52.814079
1.3543949
55.109846
0.34023512
55.455218
53.143697
-0.46734256
0.065379936
-0.12864665
0.69237718
2.1119736
3.4201252
3.2164415
4.7310687
29.291992
3.884137
46.80848
2.4568931
54.241323
1.2253486
56.34139
0.26301542
56.417551
53.406713
-0.29932829
0.62359966
-0.25889121
0.76400871
1.0486366
3.3286048
0.65184542
4.6728082
27.947788
3.7969415
47.684346
2.3671309
55.671133
1.1410134
57.567507
0.21186707
57.346698
53.61858
-0.20781694
1.271104
-0.43968767
0.75739455
0.083424965
3.2246969
-1.815457
4.5971258
26.575359
3.7464429
48.535029
2.2550602
57.162516
0.99517524
58.827392
0.13790779
58.203965
53.756487
-0.61805412
1.6422618
0.24689648
1.7022358
-2.2368649
5.1426361
-5.2558572
4.8976467
26.820349
2.3828829
51.049793
0.20157022
59.343829
-1.1441622
60.173125
-1.3731039
58.432907
52.383384
-0.41108136
1.3956867
0.65765621
2.3436594
-4.9916058
5.2495813
-8.161779
4.3032769
27.766653
1.408417
53.944653
-1.0926767
61.844922
-2.2604074
61.340855
-1.8427006
58.0152
50.540683
-0.41571832
1.1226641
0.68874092
2.5042914
-7.9116154
5.3495841
-11.007072
3.453389
29.662848
0.378902
57.01914
-1.6927955
63.91662
-2.5034657
62.151526
-1.7668329
57.278567
48.77385
-0.42688449
0.60918208
0.94036627
2.751404
-11.089904
5.2117426
-13.46741
2.6714007
32.20319
-0.7047463
60.395287
-3.0186531
66.230527
-3.4361017
62.568974
-2.2199641
56.062429
46.553886
-0.52606681
-0.031195373
1.1664443
2.7442861
-14.360257
5.0603791
-15.783503
1.6630269
35.600542
-1.8323822
63.890696
-3.4236198
67.821764
-3.5377404
62.683095
-1.9777335
54.502423
44.576152
-0.57115226
0.44875154
0.091205141
2.8789312
-17.81034
4.8855265
-17.790098
0.91467054
39.571398
-2.8580512
67.663417
-4.5588381
69.522551
-4.2557207
62.379977
-2.0520359
52.298738
42.524116
-0.70132523
1.3685016
-0.21842479
3.16836
-21.680026
4.5350932
-19.156832
-0.37915347
44.485644
-3.9492403
71.233504
-4.778953
70.352264
-3.7575957
61.35862
-1.4690714
50.010213
41.055045
-0.35783887
0.36541445
1.3609259
3.887647
-25.925512
4.5003236
-19.769508
-1.1474751
50.133443
-4.6813161
74.767345
-5.4992611
71.170209
-4.2002699
60.059629
-2.252487
48.06243
38.802558
0.11671458
1.7544728
-1.5057729
4.3721113
-30.180908
3.6577752
-19.055172
-2.9499633
56.741181
-5.9209972
77.738379
-5.7050705
70.954283
-3.8485303
58.203089
-2.0476362
46.261536
36.754922
-0.42397436
-8.8272498
0.22681659
9.0244079
0.36411028
35.466249
-36.254334
0.10505483
72.03078
-71.771725
2.0705873
51.620063
-53.585595
6.0774491
-6.8414923
2.8346305
8.8788245
-34.946284
32.144909
10.511125
-47.078709
45.446408
10.87618
-48.930673
48.565619
-24.946651
24.870315
-0.46274101
-8.5874792
0.22297036
0.18977008
34.813738
0.045909437
72.174641
2.4984754
49.167497
6.7055694
-11.048586
9.4920014
-37.732716
11.06306
-48.649767
11.489107
-49.35672
-25.083398
-0.49541925
-8.3075292
0.21546939
0.036319168
34.282
0.06379097
72.147169
3.051512
46.179776
7.417379
-15.414453
10.182347
-40.497684
11.623177
-50.090598
12.027303
-49.760846
-25.310949
-0.52024527
-7.9921637
0.20487972
-0.11271359
33.874468
0.16650368
71.867952
3.6996089
42.646671
8.1377718
-19.852616
10.946382
-43.306295
12.239519
-51.383734
12.543808
-50.065136
-25.609284
-0.54909316
-7.6376175
0.19454717
-0.28116082
33.606536
0.30535218
71.281439
4.4344639
38.517559
8.8915052
-24.309658
11.757865
-46.172654
12.95093
-52.576799
13.115773
-50.229978
-25.928384
-0.59149352
-7.2301528
0.18402869
-0.48167683
33.496719
0.45174742
70.348015
5.2120884
33.757218
9.6523055
-28.749875
12.484169
-49.004517
13.67762
-53.770251
13.737383
-50.289741
-26.235993
-0.64431678
-6.7615606
0.17572484
-0.76409199
33.616494
0.54804219
69.03588
6.0592944
28.245966
10.507354
-33.197934
13.245236
-51.7424
14.389581
-54.914595
14.357123
-50.257284
-26.559376
-0.69509956
-6.229614
0.16315295
-1.0332642
33.954659
0.65926715
67.343349
6.8831745
22.022058
11.352074
-37.666834
14.009886
-54.400212
15.117433
-56.022142
14.950617
-50.090468
-26.924347
-0.74938584
0.14925463
-5.6294828
-1.2796646
34.484938
0.81631732
65.247367
7.6732333
15.165142
12.1743
-42.1679
14.779227
-57.005139
15.837762
-57.080677
15.530603
-49.783309
-27.461579
-3.2764892
2.1663107
-3.4743365
4.5845147
-9.3024313
-74.736595
80.762537
-8.9890114
-82.157508
81.844087
-5.2324576
-60.896184
57.13963
0.32622223
-30.212094
24.653414
5.086223
-13.674527
8.9145262
7.7330898
-15.756871
13.110004
4.1452446
-26.363537
29.951382
-53.499835
57.645079
-2.0331495
9.1773664
-4.9779065
-8.441543
-68.328201
-9.1709222
-81.428128
-6.5481411
-63.518965
-0.47377535
-36.28646
4.6381881
-18.78649
7.2571386
-18.375821
5.3614292
-24.467828
-48.138406
-1.8297011
16.109083
-5.1020151
-8.1799719
-61.97793
-9.1726109
-80.43549
-7.1076401
-65.583935
-2.0374564
-41.356643
3.0937636
-23.91771
5.4404156
-20.722473
4.092969
-23.120381
-44.045437
-0.89900748
21.902825
-4.894735
-7.3788997
-55.498038
-9.3223164
-78.492073
-7.7300662
-67.176186
-3.5328398
-45.55387
0.88714404
-28.337694
4.5309041
-24.366233
4.9108452
-23.500322
-39.134592
-0.6005474
27.185172
-4.6818001
-7.0058908
-49.092695
-9.0668431
-76.431121
-7.9088081
-68.334221
-4.6535817
-48.809096
-0.82008004
-32.171196
2.4156774
-27.601991
3.1934937
-24.278139
-35.941098
0.27200979
31.146319
-4.2331574
-6.0805359
-42.740149
-8.8468971
-73.66476
-8.5235442
-68.657574
-5.5863554
-51.746285
-1.7770669
-35.980484
1.467795
-30.846853
3.2772922
-26.087636
-32.663806
0.38669853
33.028797
-2.2691768
-5.5533974
-36.800054
-8.2345211
-70.983635
-8.2243592
-68.667736
-5.9949536
-53.975691
-2.8263898
-39.149048
-0.29122068
-33.382022
1.6333058
-28.012162
-31.0305
0.92789321
31.892654
0.20824893
-4.5011474
-31.371013
-7.7104266
-67.774356
-8.3340463
-68.044116
-6.4834858
-55.826251
-3.6088409
-42.023693
-1.1382212
-35.852642
1.1651028
-30.315486
-29.865397
0.69509209
30.193098
1.0044634
-3.7023208
-26.973601
-6.8716647
-64.605011
-7.8910281
-67.024752
-6.7567773
-56.960502
-4.1707515
-44.609719
-2.286643
-37.73675
0.075288268
-32.677418
-29.790109
0.23360153
30.0753
-30.308901
0.34636952
35.453776
-35.566544
0.22971577
38.180928
-38.064274
-0.16049912
43.766343
-43.376129
-1.165034
49.985593
-48.981059
-2.5555014
56.512661
-55.122193
-3.5825151
58.024651
-56.997637
-1.7743765
41.772846
-43.580984
-12.852539
10.213709
0.86445304
0.22144442
29.853855
0.38255089
35.29267
0.28401765
38.279461
-0.045280822
44.095642
-1.0300108
50.970323
-2.3763572
57.859007
-3.3535153
59.001809
-1.4905203
39.909851
-15.416538
1.0734792
0.1812967
29.672558
0.4039013
35.070065
0.36011766
38.323245
0.088097037
44.367663
-0.8782425
51.936663
-2.2463488
59.227113
-3.1748612
59.930321
-1.2848565
38.019846
-17.904809
1.2034142
0.1473146
29.525244
0.42411144
34.793268
0.39330268
38.354054
0.19033338
44.570632
-0.74386363
52.87086
-2.0727241
60.555974
-2.9373648
60.794962
-1.108887
36.191368
-20.229609
1.2159131
0.079526114
29.445718
0.40947482
34.46332
0.45123397
38.312294
0.29224389
44.729622
-0.61255233
53.775656
-1.9450326
61.888454
-2.7747312
61.624661
-0.85739641
34.274033
-22.519415
1.4324087
0.033055103
29.412663
0.41653045
34.079844
0.46692973
38.261895
0.40436173
44.79219
-0.45184731
54.631865
-1.7609685
63.197575
-2.5506891
62.414382
-0.69300015
32.416343
-24.702524
1.4901086
-0.050679562
29.463342
0.37554967
33.653615
0.51007235
38.127372
0.48247024
44.819792
-0.3438283
55.458163
-1.6421859
64.495933
-2.4070657
63.179263
-0.52121149
30.530488
-26.738285
1.5145487
-0.10387837
29.56722
0.36065277
33.189084
0.50762706
37.980398
0.59841718
44.729002
-0.16666207
56.223243
-1.4435742
65.772846
-2.1936112
63.9293
-0.38701094
28.723887
-28.789106
1.6638089
-0.22288863
0.28877755
0.53242527
0.65170846
-0.085551
-1.3374578
-2.013169
-0.26288306
1.1411091
4.0211171
5.009916
1.182676
7.6801707
-47.240038
6.1466091
-55.464075
3.9041314
-52.879716
2.1732133
-47.25014
1.1316943
-42.33461
0.48816408
-37.420744
0.12402073
-35.202401
-30.18488
5.5104454
-1.5305204
1.0299909
8.2814917
-50.011084
6.3014444
-53.484028
3.9836611
-50.561932
2.2833958
-45.549875
1.2145904
-41.265804
0.55770939
-36.763863
0.13471847
-34.77941
-30.050162
8.5578342
-10.161829
0.073474696
8.5949464
-50.048197
6.4305305
-51.319612
4.1858435
-48.317245
2.4901911
-43.854223
1.3526785
-40.128292
0.64157135
-36.052756
0.15149963
-34.289338
-29.898662
9.3393447
-19.467446
-0.033727475
8.7676114
-49.476463
6.529474
-49.081474
4.2655603
-46.053331
2.6086915
-42.197354
1.4596115
-38.979212
0.71916768
-35.312312
0.17311163
-33.743282
-29.725551
10.171507
-29.132041
-0.50691209
8.826914
-48.131871
6.5890055
-46.843566
4.4256607
-43.889987
2.7872558
-40.558949
1.5951085
-37.787064
0.81069257
-34.527896
0.21184146
-33.144431
-29.513709
10.654645
-37.809158
-1.9775271
8.9128794
-46.390106
6.596075
-44.526762
4.5110422
-41.804954
2.9104966
-38.958404
1.7100183
-36.586586
0.89968769
-33.717566
0.24602704
-32.490771
-29.267682
11.022679
-42.644949
-6.1868885
9.0012943
-44.368721
6.6438351
-42.169302
4.6158883
-39.777007
3.0514292
-37.393944
1.8397588
-35.374916
0.9937446
-32.871551
0.2951099
-31.792136
-28.972572
11.328905
-42.514451
-11.459403
8.897143
-41.936959
6.5554279
-39.827587
4.6786278
-37.900207
3.1806605
-35.895977
1.9524257
-34.146681
1.0776509
-31.996777
0.33162982
-31.046115
-28.640942
11.194833
-40.813696
-12.895588
8.6571955
-39.399321
6.5663938
-37.736786
4.7501363
-36.083949
3.2771707
-34.423012
2.0644456
-32.933956
1.1607448
-31.093076
0.3923577
-30.277728
-28.248585
0.66019307
35.418748
-36.078941
1.1919964
35.862484
-36.394287
1.6487881
36.479678
-36.93647
2.005138
37.265194
-37.621544
2.2159735
37.932992
-38.143827
2.195951
38.490743
-38.47072
1.8532598
37.989188
-37.646496
1.1910524
35.218063
-34.555855
28.411886
-27.81435
0.59351583
0.72459532
34.694153
1.3012417
35.285837
1.8049209
35.975999
2.1854141
36.884701
2.4336462
37.68476
2.4601763
38.464213
2.0746754
38.374689
1.2635121
36.029226
29.171779
0.50361957
0.7835973
33.910555
1.3875385
34.681896
1.9373282
35.426209
2.3841952
36.437834
2.6942356
37.374719
2.8103764
38.348072
2.5336472
38.651418
1.7334951
36.829378
30.244377
0.66089734
0.82954861
33.081007
1.4923341
34.019111
2.098093
34.82045
2.5555092
35.980418
2.9076968
37.022532
3.0905952
38.165173
2.8468764
38.895137
1.9499139
37.726341
31.517637
0.67665364
0.88373738
32.197269
1.5685092
33.334339
2.2200828
34.168876
2.7547834
35.445717
3.1731305
36.604185
3.4362324
37.902071
3.382803
38.948566
2.616895
38.492249
33.364285
0.77024714
0.92839632
31.268873
1.659196
32.603539
2.3638693
33.464203
2.904891
34.904696
3.3643958
36.14468
3.717096
37.549371
3.7477864
38.917876
3.0850433
39.154992
35.534921
0.91440716
0.97168527
30.297188
1.7185987
31.856626
2.4650337
32.717768
3.0922268
34.277502
3.6097421
35.627164
4.0438325
37.115281
4.2923654
38.669343
3.8749543
39.572403
37.825594
1.5842816
1.0069328
29.290255
1.7933884
31.07017
2.5841305
31.927026
3.2094791
33.652154
3.7674192
35.069224
4.2590819
36.623618
4.597848
38.330576
4.4727561
39.697495
39.809555
2.4887944
1.0416701
1.8341124
2.6680625
3.3862606
4.0324734
4.5721424
5.1659331
5.464107
4.4599659
-0.46223256
-27.62626
0.27414236
-0.90505836
-34.11303
-1.246557
-37.304998
-1.3658499
-38.351427
-1.3089823
-38.200695
-1.1326214
-37.797905
-0.84716824
-37.221923
-0.47092031
-36.770535
-36.549861
-0.49290558
-27.506531
0.37317706
-0.83898504
-33.76695
-1.1106112
-37.033372
-1.2241315
-38.237907
-1.1736366
-38.25119
-1.0051125