/*--------------------------------*- C++ -*----------------------------------*\
  =========                 |
  \\      /  F ield         | OpenFOAM: The Open Source CFD Toolbox
   \\    /   O peration     | Website:  https://openfoam.org
    \\  /    A nd           | Version:  11
     \\/     M anipulation  |
\*---------------------------------------------------------------------------*/
FoamFile
{
    format      ascii;
    class       volScalarField;
    location    "5.65";
    object      p;
}
// * * * * * * * * * * * * * * * * * * * * * * * * * * * * * * * * * * * * * //

dimensions      [0 2 -2 0 0 0 0];

internalField   nonuniform List<scalar> 
4455
(
5889.4418
5897.9038
5917.0471
5948.0244
5991.4687
6046.2192
6123.6751
6226.4045
6371.9396
5867.2475
5878.6988
5900.2503
5933.3174
5978.5668
6034.3356
6116.2641
6226.4659
6420.4229
5841.5916
5855.5979
5880.1996
5915.8938
5962.2971
6018.2774
6102.6108
6215.9394
6449.1064
5812.5956
5829.622
5857.9135
5896.0713
5942.2122
5999.1283
6084.3751
6201.8372
6475.1859
5781.0004
5802.2923
5833.794
5873.28
5919.5798
5977.0609
6062.0758
6183.4751
6505.7092
5748.4645
5773.7686
5807.6224
5848.6692
5894.9214
5952.9966
6037.2682
6158.0854
6536.1577
5715.5429
5744.3371
5780.576
5822.4983
5868.2957
5927.0514
6010.525
6126.9051
6563.4071
5683.2241
5714.688
5753.0088
5795.0585
5840.216
5900.1492
5982.3053
6087.8722
6585.9466
5652.1458
5685.6257
5724.8301
5767.0502
5811.7837
5872.5524
5953.8167
6042.971
6596.8494
5622.6529
5595.3167
5570.8828
5549.6185
5530.9824
5515.3364
5502.7603
5493.7794
5489.6912
5657.3608
5629.9678
5603.9808
5579.6789
5557.5312
5537.6924
5520.1823
5504.7299
5490.221
5696.1567
5667.4014
5639.4914
5612.718
5587.6546
5563.8153
5542.1635
5523.8869
5509.6508
5738.0738
5708.0779
5678.3966
5649.7078
5621.8184
5594.5961
5567.4794
5539.2294
5508.0082
5781.9957
5750.0285
5717.9783
5686.1889
5655.4569
5626.3578
5600.4269
5578.8554
5560.1336
5842.516
5808.7336
5773.8302
5737.9209
5700.8295
5662.2074
5621.8721
5580.3045
5532.6648
5923.8926
5889.7362
5855.0132
5821.815
5790.2636
5762.5044
5738.2232
5716.9735
5694.3661
5988.0492
5918.4795
5845.0922
5769.3127
5695.3259
5621.4786
5549.5229
5485.557
5426.5617
6589.7509
6493.0633
6314.3788
6159.0504
6028.0833
5920.6444
5828.2317
5710.9747
5594.4118
5491.1243
5489.2875
5484.7831
5479.3473
5472.614
5465.1651
5455.8301
5445.6335
5433.1752
5479.8723
5472.1317
5464.1617
5455.1339
5444.0788
5430.8337
5415.551
5398.7883
5380.5266
5502.2125
5493.5633
5481.8538
5468.0709
5453.2465
5437.8519
5421.7008
5404.2557
5384.9783
5485.6588
5470.9339
5458.1714
5445.0396
5430.1404
5413.4173
5394.9465
5375.087
5353.7457
5547.609
5533.348
5515.1596
5494.5424
5472.5061
5450.7838
5429.9169
5407.6315
5384.5499
5497.9031
5475.9688
5458.2537
5441.3493
5422.871
5401.7011
5378.9322
5355.1908
5330.2541
5667.4451
5634.539
5596.6768
5557.8224
5520.7179
5485.9038
5453.2408
5421.6889
5392.1252
5382.0857
5346.97
5312.1493
5273.9299
5234.033
5195.6183
5158.6395
5124.816
5095.4669
5482.7239
5380.3076
5291.6744
5222.1504
5164.0525
5108.3768
5052.0109
5003.1307
4966.5211
4957.0593
4961.9711
4983.9977
5031.782
5107.8647
5210.7253
5330.5987
5454.0679
5579.1464
5073.4311
5055.1478
5040.7982
5034.0449
5034.4577
5044.1259
5065.7942
5098.6169
5140.5079
5367.6149
5346.271
5326.7586
5310.4127
5298.2608
5290.5474
5286.9788
5287.1202
5291.5224
5305.0905
5280.0881
5254.3908
5228.2888
5202.478
5177.5162
5154.1707
5133.6552
5115.8932
5360.4826
5335.678
5310.6421
5284.9076
5259.6461
5233.959
5207.6107
5181.5154
5155.3519
5331.9895
5309.4649
5284.1244
5257.9172
5230.4408
5200.9893
5171.2834
5140.5158
5109.3684
5364.2079
5342.2184
5318.8759
5294.0904
5268.0898
5240.2536
5209.973
5179.931
5147.4559
5360.8305
5339.4893
5316.3636
5291.3722
5264.5359
5235.2895
5204.0442
5171.7521
5136.4882
5416.8906
5396.3132
5375.2096
5353.9637
5332.2779
5309.1783
5283.8768
5255.7826
5224.5428
5190.4353
5152.7979
5112.6864
5069.2149
5022.4256
4972.4317
4917.9792
4858.9054
4794.875
5099.4662
5059.7612
5016.7244
4971.629
4923.2339
4871.7206
4816.7658
4757.5104
4694.4261
5112.2898
5076.9306
5037.6429
4995.9953
4953.282
4905.9893
4856.9146
4804.9671
4747.9684
5075.5467
5041.1274
5004.8585
4966.6444
4926.9915
4884.8963
4840.2542
4793.3999
4743.9579
5128.7872
5102.6404
5076.2871
5049.2652
5021.8781
4993.2062
4963.4677
4933.7732
4900.3652
5100.2493
5086.6187
5075.4614
5065.7549
5056.7519
5047.7747
5038.8008
5029.6304
5018.6568
5300.123
5311.9769
5327.4884
5345.1188
5365.5502
5387.2681
5409.1928
5432.1119
5457.9597
5190.5547
5248.9126
5314.1721
5383.8204
5457.9335
5535.4934
5616.5052
5699.7594
5781.5042
5709.7731
5841.9474
5973.9947
6107.8861
6245.014
6384.7662
6525.2524
6665.7695
6808.7148
6958.0131
5860.947
5484.3159
5006.7474
4865.2348
4689.4648
4688.4027
4626.5596
4725.5718
7112.0904
5940.2444
5508.2639
4991.4245
4828.4161
4631.3463
4623.7253
4553.607
4650.39
7263.94
6017.154
5527.7716
4969.6733
4785.8767
4568.8803
4553.4779
4475.2861
4569.0048
7411.9774
6089.5625
5543.1924
4944.0428
4739.9645
4499.5986
4478.0298
4390.986
4480.6375
7554.0224
6154.3024
5552.887
4910.8715
4687.6886
4424.6808
4397.5622
4299.9305
4385.0186
7693.7932
6208.7667
5554.577
4867.969
4629.1646
4341.6648
4308.7149
4202.1512
4281.4354
7818.9972
6250.2488
5546.2585
4816.3463
4562.9929
4251.1204
4214.4304
4096.9556
4169.8933
7918.2814
6275.4875
5525.2797
4753.11
4488.5193
4150.7048
4110.6556
3984.4202
4050.1985
7974.5051
6276.475
5488.1374
4676.0534
4403.7286
4041.579
3997.9542
3863.5144
3922.0855
3787.9487
3734.864
3874.2654
3922.2159
4300.9289
4581.5812
5424.8354
6245.3435
7950.3938
3653.7441
3597.0773
3735.2425
3791.7672
4175.7037
4461.8823
5312.5314
6140.0286
7692.0706
3504.3741
3448.4299
3583.0502
3647.0122
4025.7327
4313.5553
5154.6803
5965.1502
7398.2237
3331.5426
3289.6843
3418.7822
3488.8906
3859.3837
4141.6891
4966.8649
5759.7895
7130.2535
3137.1278
3118.2109
3242.3223
3316.2972
3672.0878
3950.2861
4757.9326
5540.4202
6872.4649
2932.1728
2935.7561
3052.5822
3129.3429
3470.8375
3745.228
4533.9244
5310.2172
6603.4411
2719.4379
2742.4287
2854.0459
2929.7268
3255.9691
3524.6288
4293.6141
5064.6662
6330.4457
2500.5988
2538.9846
2643.7441
2716.472
3025.9463
3290.6828
4036.3231
4802.7337
6046.8185
2273.4552
2327.2412
2422.6861
2492.1793
2782.6976
3038.146
3760.6304
4522.9995
5760.668
5468.1636
4225.637
3465.79
2770.1392
2526.0212
2258.1023
2192.514
2108.4119
2037.906
5172.7925
3910.2655
3151.6684
2483.7468
2257.2239
2012.1162
1955.8578
1882.7933
1796.5141
4865.3488
3575.7524
2818.2636
2182.3794
1974.5162
1760.3509
1711.466
1652.0127
1553.965
4550.3098
3220.9589
2464.6016
1867.1923
1681.6877
1499.9367
1461.6835
1416.7554
1312.7876
4217.6782
2844.733
2094.8491
1539.2121
1379.4563
1235.3137
1212.2308
1179.0862
1069.9311
3874.5369
2445.8873
1705.6802
1197.4848
1069.9802
964.45964
960.34277
942.35075
825.74891
3506.7622
2021.3223
1301.5751
846.91714
761.48945
694.50352
710.79067
708.2135
586.50922
3122.0062
1571.5977
881.29271
487.32508
446.95492
426.08805
465.78361
481.55792
361.66759
2709.9657
1093.2006
450.7442
125.38508
138.11276
161.97437
229.90097
262.44301
150.4282
-39.673052
55.316163
2.0700627
-96.967325
-174.58511
-248.95476
-15.582813
553.13731
2229.2943
-212.03478
-137.02776
-212.96817
-347.12024
-481.93942
-627.51625
-510.30263
-68.585688
1626.8598
-356.57114
-309.73692
-408.8399
-578.9014
-771.52615
-993.61775
-1000.3008
-723.05332
954.48762
-471.89743
-459.46593
-579.98327
-787.52015
-1042.3733
-1337.3084
-1470.3338
-1385.5643
209.82635
-565.5075
-580.29321
-725.54449
-967.51694
-1280.3958
-1657.067
-1913.6673
-2045.0208
-617.06086
-626.3013
-672.13019
-842.19624
-1117.7858
-1485.926
-1939.8248
-2313.8699
-2668.2074
-1536.5561
-650.17794
-738.29916
-931.81404
-1232.9935
-1649.9712
-2184.8266
-2664.3721
-3232.6923
-2587.7053
-643.20539
-785.91823
-988.54688
-1324.7549
-1771.356
-2380.6828
-2949.8705
-3676.8599
-3783.9305
-613.54953
-817.4294
-1018.2368
-1391.4792
-1852.5912
-2526.3975
-3166.4079
-3957.2168
-4931.6634
-578.76241
-830.16487
-1022.4836
-1448.2094
-1920.9479
-2692.8199
-3474.5534
-4255.0281
-6084.2119
-529.88143
-831.07418
-1014.9216
-1527.4739
-2031.2634
-2938.087
-3946.3752
-4755.4483
-6871.3029
-458.63649
-825.00068
-1009.4075
-1615.0161
-2183.9791
-3247.0815
-4553.1913
-5403.673
-6928.0883
-362.67716
-810.88288
-1006.6746
-1718.1473
-2365.1763
-3578.1771
-5236.3358
-6180.411
-5583.7578
-258.7386
-781.45688
-991.5677
-1807.8351
-2540.0334
-3910.2652
-5943.7115
-7072.7067
-4986.1843
-141.75627
-734.34091
-961.80736
-1881.646
-2696.9302
-4228.0405
-6662.4731
-7998.3494
-6370.7235
-21.530505
-668.29565
-912.85478
-1933.7382
-2846.9022
-4541.2999
-7400.9281
-8504.6886
-6790.7552
104.46211
-588.5875
-852.29762
-1964.2508
-2997.2763
-4846.4445
-8136.6897
-8703.5305
-6981.6481
251.93467
-496.03644
-779.57146
-1969.3784
-3134.7325
-5140.6254
-8838.1803
-9303.8754
-7249.1465
-7490.7376
-9845.5662
-9327.6743
-5371.1014
-3238.7593
-1948.5591
-699.83593
-389.12711
416.20181
-7646.6927
-10204.262
-9671.1773
-5525.3888
-3311.9239
-1905.5585
-618.21568
-271.45219
573.90011
-7801.2343
-10503.898
-9972.3193
-5641.103
-3348.6195
-1836.283
-525.33719
-142.53057
715.73829
-7967.8175
-10768.141
-10227.279
-5733.5096
-3361.4238
-1744.6421
-423.74284
-8.5892713
836.28397
-8143.3154
-11024.91
-10444.816
-5815.0171
-3359.8019
-1636.8429
-317.0642
124.08346
945.31687
-8338.8372
-11216.799
-10614.798
-5890.9679
-3341.401
-1521.8484
-207.79685
253.04484
1045.392
-8580.6993
-11426.619
-10738.725
-5959.1191
-3304.7663
-1405.5402
-98.795813
377.39582
1140.7392
-9012.6889
-11504.488
-10799.841
-6011.2809
-3251.4605
-1285.2167
8.1843254
497.49598
1226.384
-9259.2621
-11719.392
-10806.378
-6031.4714
-3174.3545
-1158.0011
114.20035
615.93478
1302.5065
-9224.796
-11670.876
-10525.616
-5912.6548
-2959.3689
-903.48179
299.76556
814.91066
1413.8878
-9304.1032
-12324.895
-10329.043
-5662.4333
-2579.5023
-533.40936
547.6861
1036.9122
1527.4205
-9249.0645
-12331.495
-10034.309
-5284.611
-2096.8448
-141.86617
769.90764
1248.9487
1592.5809
-8914.0657
-12647.529
-9680.5693
-4783.1168
-1576.8696
217.76081
959.38932
1438.133
1633.798
-8567.5844
-12791.972
-9291.7838
-4210.0597
-1078.213
532.24159
1114.8742
1591.47
1638.249
-8464.4392
-12801.599
-8910.2404
-3586.5895
-610.01395
773.3542
1185.2673
1718.4641
1625.6821
-8525.3126
-12590.8
-8563.2266
-2910.2327
-242.38355
917.57735
1236.5276
1836.2762
1589.4788
-8588.8741
-12213.711
-8265.3445
-2179.756
38.738759
1016.6804
1341.0858
1895.2613
1567.0321
-8654.0816
-11683.843
-7987.8287
-1479.1467
206.43263
1086.1081
1489.6235
1881.5541
1442.1728
-9656.3912
-8524.0456
-8457.643
-4659.9761
-3510.0769
-3415.3707
-3135.9553
-2349.8105
-344.65227
-9628.9444
-8708.475
-8678.6563
-4753.8117
-3318.5341
-3072.2947
-2627.7937
-2049.4042
-179.37923
-9594.0638
-8888.594
-8855.8702
-4810.9359
-3093.1936
-2731.9167
-2128.7534
-1731.3711
-0.97981333
-9555.6188
-9065.8139
-8996.4952
-4830.1871
-2839.7466
-2402.4801
-1650.3423
-1412.3655
184.29191
-9515.2697
-9240.5689
-9104.3285
-4811.4411
-2556.383
-2082.0999
-1207.1087
-1104.8908
373.3693
-9478.475
-9409.819
-9175.1401
-4756.7193
-2244.9044
-1765.6753
-794.48501
-810.02289
568.3859
-9438.9311
-9578.2047
-9213.9825
-4659.4144
-1911.013
-1452.3805
-403.25233
-515.00548
771.07344
-9398.3298
-9743.934
-9224.6828
-4513.3045
-1567.435
-1153.1797
-42.809196
-217.1725
978.14912
-9367.8603
-9887.3664
-9214.9588
-4329.6216
-1232.1855
-878.75859
266.7519
64.977838
1189.9328
-9498.7966
-3555.4154
1683.7933
1718.4954
136.22075
-3622.3675
-1860.4345
-801.5768
-435.69488
-9818.0196
-4090.7587
1849.9892
1877.9022
752.62449
-2850.9436
-1959.6332
-980.95585
-507.44491
-10206.101
-4651.8908
2121.1437
2268.5
1432.623
-1929.7484
-1845.2132
-1124.6725
-608.40163
-10698.72
-5245.2375
2141.8998
2842.2979
1918.5487
-1008.87
-1548.5053
-1154.9613
-721.83981
-11300.401
-5875.3599
1851.4313
3327.0629
2341.8567
-120.94664
-1097.9525
-1062.3981
-807.96133
-11874.517
-6514.5181
1244.0482
3723.8451
2686.424
689.45687
-536.61561
-816.21211
-796.90142
-12107.951
-7179.9102
333.44284
3840.331
2968.2377
1401.8715
70.431341
-449.04807
-678.53776
-12519.878
-7954.0123
-811.83847
3638.7867
3110.5316
1950.4662
674.57956
1.6571884
-470.70645
-12955.657
-8813.4448
-1883.9574
3204.6483
3056.5111
2311.4832
1155.0998
469.64239
-165.77586
1262.4401
1789.1059
1904.8056
2179.5342
1839.6321
1122.3868
-2652.1047
-9649.8961
-14251.419
1143.1589
1727.816
1908.361
2257.1249
1976.5308
1335.0021
-2716.3978
-9517.1815
-14195.188
1009.5981
1646.7623
1900.2224
2321.3682
2127.9167
1573.0098
-2707.4688
-9486.3868
-14073.101
867.24923
1544.1164
1875.6384
2377.9864
2284.9226
1806.434
-2683.2014
-9536.2939
-13980.71
714.35925
1421.8776
1829.9339
2420.3536
2427.6505
2046.3039
-2655.3457
-9587.9737
-13861.182
556.46173
1282.2551
1761.5069
2450.6328
2561.7255
2275.6716
-2613.8512
-9586.1851
-13734.773
396.57834
1128.5149
1671.9963
2461.8385
2688.9035
2500.2056
-2549.991
-9533.4601
-13659.588
237.82623
962.09634
1559.6088
2453.0063
2804.3773
2699.8636
-2458.8423
-9432.1199
-13473.319
83.627293
785.24174
1426.0638
2418.0742
2909.4418
2870.3596
-2346.7797
-9339.7949
-13199.294
-14404.718
-9754.424
-2424.1605
911.16109
1701.607
2086.655
1890.6394
1831.5629
1371.487
-13916.84
-9233.6372
-2058.1323
704.64635
1570.7621
1988.4194
1868.4974
1853.9137
1465.94
-12970.724
-8270.2394
-1764.6343
555.93291
1458.4591
1891.932
1836.4346
1857.8333
1546.3211
-11948.682
-7068.7423
-1582.8427
475.3157
1362.5434
1799.5525
1802.0958
1849.8462
1607.2063
-12795.698
-5764.8799
-1423.7568
430.62797
1283.0859
1714.4895
1767.1357
1832.9916
1649.4208
-16042.701
-4508.5672
-1180.0742
415.67543
1224.3465
1636.1678
1738.8159
1814.7041
1672.6499
-16107.857
-3401.2546
-870.29775
439.93084
1190.3141
1569.6185
1715.4021
1791.5376
1686.5258
-13433.675
-2339.2596
-602.86179
463.17128
1162.2768
1509.4889
1686.8392
1761.3079
1695.4073
-11414.491
-1639.4185
-492.02306
434.49341
1109.8887
1446.6117
1643.0925
1728.6649
1710.3331
1676.7269
1629.0112
1461.2948
1162.7828
730.36611
104.88239
-562.40711
-1115.8873
610.61871
1648.0941
1590.6311
1416.088
1105.7751
644.05418
-48.131123
-889.47631
-1799.1801
-266.06858
1630.7293
1569.2214
1391.6351
1077.2586
599.51631
-148.7874
-1148.1045
-2459.4026
-1288.9577
1632.218
1563.0238
1387.5331
1075.4166
594.35672
-190.7552
-1312.2325
-3048.4559
-2500.9226
1640.9955
1573.3826
1403.2089
1098.089
624.19287
-176.38716
-1362.0401
-3484.6255
-3977.4762
1662.6173
1596.378
1434.8599
1143.6989
683.54619
-110.88801
-1283.266
-3710.647
-5729.0702
1686.0942
1625.5241
1478.8111
1210.4676
770.13996
-0.62923133
-1101.3826
-3657.4651
-7701.4201
1718.0789
1657.6242
1530.711
1290.0456
884.63586
141.71852
-857.05085
-3278.5725
-9337.7476
1724.7494
1695.7255
1590.2652
1374.3518
1007.0817
296.62247
-634.1447
-2490.4292
-10374.924
1292.5941
-490.81593
-195.16092
299.39392
853.3802
1245.7865
1526.615
1684.7072
1724.8349
1864.0017
76.351047
176.8657
516.2515
997.58008
1348.9652
1608.0138
1753.6837
1784.4456
2386.6767
619.29663
560.94824
760.12589
1164.9058
1470.6655
1707.2957
1839.5388
1865.314
2875.1729
1134.322
947.81748
1020.8838
1353.155
1608.4692
1822.0942
1939.646
1955.8887
3328.0323
1622.327
1331.547
1293.153
1552.4984
1760.5178
1948.2295
2052.5559
2066.006
3756.3629
2077.9727
1704.8694
1574.3632
1760.2083
1922.9301
2086.4942
2175.1139
2182.8938
4154.7113
2505.3376
2067.9683
1854.8461
1978.7297
2094.7032
2231.4052
2305.3213
2314.8889
4532.7511
2912.0881
2412.5112
2133.7011
2197.4903
2270.5939
2384.6005
2443.5755
2451.6866
4888.9401
3288.1066
2742.353
2405.0099
2415.1816
2449.8189
2541.3498
2586.858
2597.8514
3904.3024
3846.4196
3895.5945
3922.3694
4089.1817
4323.5994
4827.9291
5494.861
6516.0413
3788.2041
3721.3802
3764.3165
3786.428
3946.1904
4174.2544
4681.9248
5349.6988
6465.6281
3651.2231
3591.4642
3626.4125
3641.2348
3789.2294
4003.3253
4509.7373
5186.3516
6404.3956
3505.5
3456.7563
3482.7977
3488.0606
3620.3604
3813.5885
4314.0821
4993.1381
6294.8658
3353.986
3316.0048
3333.6283
3327.0892
3440.4168
3610.8663
4098.9496
4772.6723
6135.2776
3203.6237
3172.4914
3179.9975
3160.057
3249.4443
3393.3731
3865.8132
4526.8949
5935.7924
3050.4826
3027.3571
3022.111
2987.5314
3051.1568
3163.0869
3614.6151
4257.4017
5711.8193
2898.8671
2879.4832
2862.2241
2809.7638
2845.5063
2922.7862
3343.8114
3960.4406
5465.18
2745.5858
2732.2092
2701.6497
2631.6104
2632.7085
2668.7377
3050.634
3636.3585
5201.1241
4021.4519
4140.8247
4256.6306
4367.7201
4473.6425
4574.2358
4669.2476
4758.4806
4842.3739
3966.1747
4080.7319
4190.4284
4295.3528
4395.9137
4490.8936
4580.7201
4666.5274
4748.4578
4018.4291
4132.8639
4242.4101
4345.8536
4443.0378
4535.2993
4623.065
4704.806
4781.8999
4048.4357
4165.3579
4275.3669
4378.3689
4474.654
4564.9535
4649.5365
4728.9859
4803.5654
4216.911
4330.8618
4435.8868
4532.7237
4621.9645
4704.5855
4781.0481
4852.368
4918.8121
4452.5218
4564.2968
4664.2236
4754.1384
4834.0985
4905.8185
4970.661
5030.0449
5084.3267
4944.3908
5037.4124
5115.8246
5180.6701
5236.4638
5282.6872
5321.7819
5355.6193
5384.6948
5620.3898
5721.8506
5790.9621
5828.2596
5850.6338
5860.6767
5853.4255
5842.3414
5828.4515
6571.0344
6691.0524
6806.2455
6831.558
6797.9934
6761.2793
6701.5348
6623.4324
6553.0235
4920.6303
4824.8145
4856.3691
4873.8347
4981.1851
5134.7667
5410.193
5809.9063
6478.6942
4994.5028
4896.8163
4926.06
4940.0625
5039.7477
5181.7158
5433.8987
5790.7159
6399.4736
5063.3462
4965.9038
4990.1301
5002.7607
5095.0727
5226.0767
5457.2323
5774.5073
6326.9244
5127.9433
5030.9239
5051.9096
5062.1414
5147.3525
5268.4494
5477.9006
5756.796
6256.7645
5188.0777
5091.748
5110.46
5118.4828
5197.0499
5309.5389
5497.9994
5741.034
6183.0227
5244.0282
5149.3074
5164.3631
5171.8616
5244.5137
5349.5232
5519.169
5729.5095
6117.66
5295.1444
5203.1323
5215.9323
5222.6484
5290.1101
5388.7506
5540.7974
5720.1556
6055.4476
5342.6395
5253.6265
5264.6869
5270.6421
5333.7624
5427.1158
5563.9031
5714.744
5989.7422
5386.5902
5300.7562
5309.6832
5315.8383
5375.6843
5464.8419
5589.3739
5715.2672
5932.0289
5645.6346
5598.3173
5596.9438
5613.2654
5661.969
5757.5172
5867.6008
5959.0745
5800.4357
5626.317
5574.8562
5574.4415
5588.8503
5637.534
5729.415
5833.9787
5909.5858
5741.1609
5605.12
5549.2721
5549.9138
5562.6833
5611.6519
5700.4239
5800.6725
5864.6602
5697.9954
5582.0574
5521.6419
5523.1926
5534.1844
5584.101
5670.4093
5768.3268
5825.8131
5684.6202
5556.8141
5491.583
5494.2654
5503.588
5554.6566
5639.1189
5736.9547
5793.1322
5695.6171
5528.8908
5459.0495
5462.2319
5470.9856
5523.2395
5606.5745
5705.7727
5766.7266
5727.6414
5498.0867
5423.9103
5428.241
5436.1679
5489.7495
5572.8688
5674.6538
5745.5358
5771.7833
5464.0131
5385.8446
5391.5787
5398.7645
5453.8901
5537.9143
5644.7816
5729.9563
5819.9494
5426.8558
5345.1986
5351.5858
5358.3874
5415.7014
5501.7516
5616.2862
5720.3554
5875.6889
5862.962
6014.9503
5902.214
5785.6802
5685.4035
5636.0967
5617.713
5619.6227
5662.6288
5948.0823
6078.3877
5936.5313
5812.3747
5706.8979
5656.3975
5636.8968
5639.0364
5675.7167
6041.2918
6142.4834
5968.4958
5836.1528
5725.8902
5674.1638
5654.3879
5656.3327
5687.2959
6139.7423
6203.4195
5996.456
5856.4159
5742.0916
5690.828
5670.2586
5671.3446
5696.9718
6241.1201
6259.8398
6019.0735
5872.6717
5754.9348
5704.8222
5684.1968
5684.6035
5705.1892
6341.9835
6311.0712
6035.827
5884.9703
5764.4969
5716.2571
5696.4763
5696.311
5711.9968
6440.6433
6356.9036
6047.092
5893.9141
5771.7427
5726.7011
5707.2853
5706.5534
5717.4281
6537.0221
6399.2779
6056.1244
5902.0838
5779.1707
5737.1158
5717.3541
5715.0317
5721.5232
6633.4007
6442.8613
6070.4637
5914.0249
5790.6765
5749.0811
5727.5058
5722.1093
5723.7042
6743.7502
6494.2021
6104.3066
5939.3453
5815.0383
5767.1846
5741.2664
5729.86
5724.8707
6869.4279
6547.2792
6146.6459
5970.786
5845.7637
5789.881
5759.9426
5742.1945
5730.378
6987.8503
6595.3444
6186.3188
6002.4479
5876.38
5813.8748
5779.6144
5756.1551
5739.0764
7093.4058
6636.2184
6220.5676
6033.0468
5906.0514
5838.8054
5800.1272
5771.8978
5750.6257
7181.6346
6666.5719
6247.1434
6060.8701
5933.9755
5863.7952
5821.0771
5789.246
5764.7536
7249.5409
6682.0177
6265.8053
6084.9949
5960.0336
5888.3297
5842.2903
5807.8361
5781.1112
7258.195
6677.9368
6276.1821
6104.2709
5983.0815
5911.1379
5863.3472
5827.1294
5799.2632
7145.5743
6654.6047
6281.9198
6118.6077
6002.9341
5932.0079
5883.5302
5846.4536
5818.638
6967.0812
6610.4418
6285.4224
6128.9277
6019.3724
5950.5325
5902.0952
5865.2888
5838.5582
5906.2533
5913.5318
5931.4993
5960.1587
6003.6551
6060.0464
6136.4493
6241.2101
6389.0593
5917.1489
5924.4588
5943.9079
5974.4137
6019.9035
6082.9323
6170.1393
6291.4036
6461.2276
5922.7029
5931.3252
5951.9005
5984.1518
6032.6669
6100.4625
6193.8986
6323.8413
6491.2986
5922.9189
5933.7914
5955.1267
5990.0078
6041.3741
6115.1282
6215.6824
6360.7928
6543.6124
5917.305
5930.9959
5954.8704
5992.4809
6046.4681
6127.1985
6236.3113
6400.3535
6595.4021
5906.8431
5923.9988
5950.934
5991.2102
6047.8122
6135.382
6255.6596
6440.1831
6653.0349
5892.8266
5912.9817
5943.4625
5986.1777
6045.5545
6139.1821
6270.5828
6480.0371
6710.7732
5876.3817
5899.0475
5932.3811
5977.9102
6039.94
6138.8427
6280.1914
6520.3307
6772.6534
5858.1165
5882.9236
5918.4305
5965.9889
6031.3265
6135.0699
6284.2459
6561.3721
6848.233
6629.0828
6690.1054
6747.0154
6824.8261
6911.5923
7013.8782
7158.4326
7368.2029
7656.8652
6669.6535
6725.9589
6788.7818
6870.229
6961.0393
7067.3416
7218.9558
7433.2926
7722.1958
6709.3136
6762.9548
6827.4409
6909.9442
7007.9875
7123.2717
7284.4002
7509.1059
7807.9154
6749.3828
6802.3194
6867.4188
6950.4347
7052.0893
7176.3788
7346.8245
7586.4729
7902.7206
6790.4118
6841.9038
6905.4454
6988.2705
7091.567
7223.1743
7399.6706
7656.7527
7990.8031
6820.7103
6870.0043
6932.53
7011.8571
7112.2791
7245.853
7423.3243
7710.2972
8062.4096
6826.4766
6870.6772
6930.1904
7008.2544
7106.6433
7232.9404
7386.3135
7731.5965
8088.7917
6794.3511
6831.2382
6878.3217
6939.2215
7021.2418
7154.436
7246.5073
7681.0495
8012.6084
6690.052
6719.0732
6751.4162
6794.4324
6842.2878
6984.1597
6960.6026
7552.9577
7688.2978
2865.6894
5364.6232
5287.1243
5971.3386
6138.1637
6294.7678
6383.6525
6422.0759
6414.5832
4682.2236
4814.8385
4768.7834
5143.5079
5178.0716
5429.6814
5532.1928
5660.7669
5750.0016
5161.9486
5174.1929
5055.3923
5177.21
5097.869
5231.5466
5214.9858
5323.0673
5350.5098
5164.1708
5227.3103
5163.8661
5257.8198
5170.9682
5267.2266
5205.8766
5280.8837
5251.9807
5114.6036
5156.1879
5116.0173
5226.5361
5164.7676
5263.7024
5220.3149
5291.7001
5271.1202
5050.2543
5076.8007
5044.0963
5112.7691
5082.3122
5141.3776
5121.2374
5176.8241
5150.7393
4959.9824
4971.3589
4944.9904
4984.5476
4928.003
4987.8658
4909.0553
4980.4584
4885.392
4893.1219
4895.4215
4885.2786
4905.1428
4876.8538
4910.4526
4869.1343
4911.6721
4863.1978
4858.0403
4860.4607
4851.4124
4870.3655
4848.6974
4884.0585
4852.6892
4891.3105
4856.4978
4851.5612
4852.9792
4821.5625
4739.9518
4576.0486
4342.2409
4108.8317
3896.2662
3753.8783
4865.367
4846.1607
4811.2388
4729.9471
4574.5791
4339.3257
4090.8932
3854.4457
3675.9749
4842.0035
4826.3736
4785.5766
4700.0621
4552.9008
4318.8208
4058.6753
3794.5715
3570.1159
4850.0722
4820.5485
4771.6524
4684.0232
4539.9237
4303.0375
4029.1039
3730.1645
3440.6695
4833.3381
4805.6946
4753.081
4669.5139
4526.848
4290.1849
4002.8482
3667.2512
3303.5821
4838.4295
4800.56
4745.5601
4663.1828
4526.406
4283.3039
3987.3322
3613.2192
3179.1054
4824.7908
4790.1601
4731.4881
4656.5059
4514.6767
4282.6477
3974.7503
3577.9072
3088.4761
4830.9296
4787.3934
4734.7514
4650.8264
4521.3671
4281.5974
3975.3524
3540.5112
3101.995
4827.1171
4789.5978
4731.0812
4661.2458
4530.2876
4308.1514
3986.3744
3568.7697
2970.744
3789.6263
3992.8035
4351.069
4672.7535
4891.474
5060.3692
5224.2782
5392.858
5563.3242
3674.0699
3888.9048
4302.0856
4647.5245
4872.8276
5044.5807
5213.1224
5385.8905
5560.6179
3533.0481
3785.0114
4266.3248
4629.9471
4856.262
5031.9115
5205.6986
5381.2698
5557.8935
3369.6613
3681.195
4230.3784
4608.3146
4837.4751
5021.581
5203.2909
5382.928
5561.2595
3163.1006
3586.298
4199.4121
4579.4155
4804.1797
4995.552
5184.2247
5368.6914
5549.2777
2864.5774
3505.7119
4205.3023
4583.1106
4810.0302
5005.5745
5196.3661
5380.9021
5559.6339
2438.757
3365.7878
4152.8282
4525.9699
4765.2385
4974.5688
5173.8509
5364.307
5547.8183
1958.7305
3371.9729
4193.8875
4533.4513
4776.5081
4987.6908
5185.5861
5372.483
5553.483
1190.9108
3255.3837
4168.8787
4503.2827
4758.8259
4977.1278
5177.2902
5366.7843
5549.6694
5739.1714
5912.5555
6078.3127
6237.2569
6405.2489
6572.9033
6749.502
6933.746
7132.7527
5737.6098
5913.0341
6080.5699
6242.6108
6410.0832
6579.9289
6756.5803
6942.1446
7143.4096
5735.7217
5911.9813
6080.1025
6245.2203
6414.389
6587.1535
6764.6583
6950.25
7154.0647
5739.9214
5917.7494
6086.8821
6254.4281
6422.512
6596.8857
6773.8437
6961.5263
7166.6812
5729.3347
5908.3665
6079.7037
6251.1048
6421.8469
6597.3457
6774.5706
6962.4775
7170.2483
5739.001
5917.9026
6089.7087
6262.1834
6433.5582
6609.6637
6787.6915
6972.4834
7178.8982
5728.931
5908.5059
6082.8517
6257.7468
6428.8582
6607.3042
6785.7778
6973.1745
7179.0864
5733.7666
5913.8497
6088.6274
6265.2209
6436.3633
6615.1187
6792.6705
6977.1707
7182.1678
5731.1009
5910.5925
6086.5226
6262.0656
6433.5423
6613.7719
6792.6524
6978.3058
7182.6093
7350.7332
7565.7465
7787.7197
8029.4928
8270.7862
8531.5884
8789.6544
9037.9734
9147.8315
7362.3468
7583.3364
7812.4251
8055.785
8303.9755
8573.7245
8844.9195
9105.8028
9244.5702
7374.1808
7599.2192
7834.0054
8080.7734
8335.3428
8613.092
8895.7697
9170.6809
9345.5614
7387.6312
7614.7123
7852.4152
8101.0085
8363.3439
8647.3409
8942.3244
9229.956
9442.2684
7392.1684
7624.204
7867.6424
8118.1733
8386.7276
8676.6979
8985.1068
9285.1718
9537.2424
7401.2038
7634.346
7880.6338
8133.6229
8406.9868
8702.183
9022.7274
9336.2467
9624.5951
7403.2275
7638.1574
7886.0026
8139.4966
8419.6208
8718.6371
9049.653
9376.9412
9701.4968
7405.8303
7642.6463
7892.4798
8147.8243
8430.7076
8733.4411
9072.7547
9410.3267
9780.7776
7407.0651
7644.3305
7892.538
8148.8548
8435.4727
8737.1568
9082.3012
9426.0031
9780.85
9518.7511
8870.084
8441.1387
8116.4824
7761.6794
7402.1502
7053.933
6714.0559
6389.1202
9626.5318
8952.6312
8522.2674
8190.318
7826.238
7460.1009
7105.05
6763.7334
6435.7266
9693.5508
9018.8218
8596.5729
8256.7702
7886.8769
7515.6491
7156.3521
6815.9171
6483.8688
9764.5241
9080.1665
8668.5767
8318.4583
7943.548
7567.8185
7202.7345
6861.2555
6524.7073
9839.7916
9141.7337
8740.5373
8383.5443
8005.8924
7630.5225
7261.3797
6915.5175
6576.7484
9920.2228
9199.0202
8798.8324
8428.1113
8049.6673
7669.3566
7297.7493
6952.9952
6608.72
9997.3121
9276.7181
8873.9137
8499.0738
8117.1955
7738.1752
7362.169
7015.2957
6669.8253
10064.332
9304.511
8905.8807
8523.6208
8143.0322
7760.2537
7384.4611
7035.7403
6686.1563
10205.414
9422.5876
8994.0066
8607.0041
8225.541
7841.8236
7463.7695
7112.2439
6761.498
6064.2507
5751.2104
5427.3702
5105.8922
4771.4481
4427.002
4069.9501
3699.3286
3317.9963
6109.0405
5791.2817
5467.4558
5143.5676
4809.4857
4464.6915
4108.5692
3737.6358
3355.5395
6156.7591
5835.0049
5511.3206
5186.2704
4853.4655
4509.2368
4155.5586
3785.4748
3406.5139
6200.3455
5873.813
5552.5675
5225.0849
4893.9124
4549.8349
4197.1619
3828.458
3449.8302
6248.6772
5922.1452
5598.0354
5271.6034
4938.6716
4597.2736
4244.2018
3877.5519
3500.516
6283.8812
5951.8388
5630.2532
5301.0596
4970.2502
4629.1587
4276.6811
3912.487
3534.4264
6343.9799
6012.2466
5688.737
5361.0272
5028.1055
4690.29
4336.654
3976.5004
3596.8218
6361.2273
6024.5873
5703.9462
5373.3851
5042.1092
4704.6239
4351.0163
3993.3115
3612.7611
6434.3231
6098.7556
5775.6144
5447.2097
5114.8288
4780.7167
4427.0437
4075.0515
3691.0493
2875.6232
2356.3421
1807.1475
1204.639
565.76483
-123.41882
-846.69298
-1637.5778
-2660.1292
2913.9
2410.8831
1869.765
1289.9446
664.53112
16.035311
-670.05059
-1415.8386
-2388.6033
2969.9485
2481.8974
1953.6617
1391.6537
783.95313
155.39415
-510.66696
-1252.0797
-2176.4067
3021.8362
2546.5859
2035.6141
1487.0423
901.08617
283.04371
-342.15347
-1020.1719
-1865.0341
3077.2432
2612.1622
2119.7481
1582.3861
1017.2203
405.17243
-167.79267
-780.36701
-1392.4769
3124.3299
2668.7706
2197.3468
1672.7941
1120.9215
520.43114
-38.897191
-532.20629
-939.15426
3195.0746
2747.0487
2303.1075
1793.2743
1265.5283
661.3406
126.45828
-460.90995
312.37772
3223.7506
2782.7775
2349.6348
1856.7363
1328.7785
739.46518
98.317966
-312.57792
-515.34656
3316.0651
2892.7307
2492.8203
2027.3333
1549.2696
995.19301
419.5303
-760.60565
2982.0148
-4544.3391
-6167.6986
-6487.5703
-6463.4689
-6701.0764
-7073.7173
-6695.3801
-6624.5841
-6584.9581
-4383.8134
-6205.3577
-6391.5683
-6389.0566
-6595.6321
-6855.1942
-6664.3218
-6586.2054
-6526.6271
-4344.6779
-6352.2507
-6295.3843
-6389.8848
-6673.7932
-6867.675
-6639.5529
-6544.1859
-6465.9218
-4469.9617
-6526.1684
-6206.1783
-6406.9588
-6608.3645
-6738.3295
-6613.0457
-6500.5656
-6404.1593
-4715.1455
-6582.2935
-6022.8487
-6435.4968
-6673.2809
-6708.445
-6585.7186
-6458.9606
-6342.1989
-4596.8772
-6389.3524
-6003.7248
-6508.2258
-6630.213
-6657.7767
-6549.7884
-6419.0572
-6286.5523
-3799.7786
-6053.361
-6156.0359
-6527.2834
-6654.4901
-6627.7767
-6504.9521
-6386.4177
-6237.8179
-4298.4655
-7144.7764
-6139.5394
-6600.0265
-6655.0928
-6602.0122
-6478.5302
-6360.0729
-6202.8522
-13055.896
-5229.2124
-6401.2944
-6627.8134
-6629.4128
-6570.2084
-6445.1616
-6338.1131
-6180.7303
-6539.8885
-6580.9057
-6789.6313
-7261.1609
-8151.848
-9370.2321
-10767.654
-14306.518
-13727.814
-6456.0321
-6468.709
-6659.424
-7150.4837
-8104.9584
-9428.1543
-10941.59
-14504.01
-13659.301
-6389.242
-6387.701
-6607.9766
-7168.2857
-8191.0576
-9739.6038
-11514.777
-14176.587
-13624.468
-6329.2468
-6325.2655
-6565.7353
-7198.456
-8313.8881
-10010.776
-11978.149
-14419.242
-13303.322
-6272.248
-6260.9608
-6520.6073
-7223.4267
-8421.1955
-10224.424
-12289.812
-14164.542
-12773.077
-6222.1542
-6209.2046
-6482.3535
-7255.3719
-8531.3756
-10388.391
-12393.909
-13504.295
-12086.073
-6184.7259
-6177.5325
-6472.4628
-7310.9372
-8661.2915
-10587.623
-12330.732
-13054.999
-11335.118
-6158.5122
-6162.7821
-6478.6336