/*--------------------------------*- C++ -*----------------------------------*\
  =========                 |
  \\      /  F ield         | OpenFOAM: The Open Source CFD Toolbox
   \\    /   O peration     | Website:  https://openfoam.org
    \\  /    A nd           | Version:  11
     \\/     M anipulation  |
\*---------------------------------------------------------------------------*/
FoamFile
{
    format      ascii;
    class       volVectorField;
    location    "5.65";
    object      U;
}
// * * * * * * * * * * * * * * * * * * * * * * * * * * * * * * * * * * * * * //

dimensions      [0 1 -1 0 0 0 0];

internalField   nonuniform List<vector> 
4455
(
(99.986795 0.11349967 0)
(99.95962 0.55142892 -1.5270039e-18)
(99.683832 1.0109293 5.2484313e-18)
(99.500868 1.8554566 2.5808179e-20)
(98.884548 2.5931324 4.9548685e-18)
(98.573719 3.8443496 -1.87338e-17)
(97.561428 5.1437761 8.3526627e-18)
(96.518445 6.9535475 0)
(94.130487 10.080107 -5.154459e-17)
(99.987635 0.14763228 -9.8910287e-18)
(100.00215 0.65140881 9.6612842e-18)
(99.709978 1.15985 -1.1908679e-17)
(99.522538 2.0391696 1.9902636e-17)
(99.017063 2.8634919 -3.8288503e-17)
(98.549706 4.1060159 4.1872685e-17)
(97.711216 5.4209759 -4.0280679e-18)
(96.558144 7.4010005 5.876923e-18)
(93.835072 9.9803153 2.2488098e-16)
(100.03779 0.18933603 -1.027835e-17)
(99.982906 0.70661721 1.3034784e-17)
(99.809861 1.31546 1.1659224e-17)
(99.521464 2.2315229 -1.1622425e-17)
(99.112434 3.0615865 5.0948418e-17)
(98.679974 4.5023277 -2.8851234e-17)
(97.709898 5.7269941 3.7055057e-18)
(96.757626 8.0142596 -8.2703393e-17)
(93.691632 10.306262 -1.59502e-16)
(100.06423 0.1943311 1.0559996e-19)
(100.00691 0.81467789 -1.530529e-18)
(99.84839 1.3818042 2.7496382e-17)
(99.595658 2.4123106 3.7803372e-18)
(99.158631 3.2708435 -8.9818721e-20)
(98.879492 4.8134427 -5.5109261e-18)
(97.918942 6.1701899 6.1319631e-17)
(96.747209 8.8741929 1.6516294e-16)
(93.318493 11.130409 1.329983e-16)
(100.08565 0.22767721 1.9878896e-17)
(100.05147 0.8421035 -2.2302137e-17)
(99.836203 1.4743463 2.8301675e-17)
(99.717484 2.5404763 2.6848515e-20)
(99.272031 3.4954946 -3.4779635e-17)
(98.949739 5.0525697 -1.0673086e-17)
(98.133465 6.4323802 -4.8338615e-17)
(97.05168 9.4698151 -7.7469926e-17)
(92.977579 11.586764 -3.9242302e-16)
(100.09638 0.23236007 0)
(100.09157 0.88045514 0)
(99.898013 1.5202864 -4.9458246e-17)
(99.737346 2.663336 -5.6868163e-17)
(99.459419 3.6694472 0)
(99.176044 5.3745468 -7.6793636e-17)
(98.241745 6.8988833 -6.5282667e-18)
(97.129103 10.311022 -4.694429e-18)
(92.71438 12.254381 4.8476886e-16)
(100.10881 0.2398769 0)
(100.10329 0.88155628 -1.3323931e-18)
(99.968773 1.5885142 1.4999469e-18)
(99.81925 2.713794 5.5582972e-17)
(99.529721 3.7949262 -4.1000423e-18)
(99.389238 5.4921684 1.6330617e-16)
(98.59998 7.0918609 0)
(97.400409 11.051139 0)
(92.40204 12.769454 2.2266902e-16)
(100.13409 0.24449047 3.706632e-17)
(100.1165 0.86742251 0)
(99.995973 1.5958584 0)
(99.936415 2.8371581 0)
(99.705556 3.9537739 0)
(99.535313 5.7667603 -8.1395735e-17)
(98.7352 7.4626894 -8.6989287e-17)
(97.645815 11.828113 1.2474203e-16)
(92.226092 13.471773 1.0490587e-18)
(100.14023 0.23340192 -3.6499688e-17)
(100.14958 0.84705562 -1.2746172e-18)
(100.02911 1.5808144 -1.4483455e-18)
(100.02139 2.7894608 3.2698494e-18)
(99.843488 4.02691 1.2632925e-16)
(99.79484 5.8235897 1.4259307e-16)
(99.11889 7.6065028 2.7639042e-16)
(97.956231 12.587462 -1.2244074e-16)
(92.142738 13.98755 -3.8173481e-16)
(100.14896 0.22972016 0)
(100.15659 0.21287069 6.7169073e-17)
(100.14096 0.19727763 -6.6630904e-17)
(100.13718 0.17592048 6.3653712e-17)
(100.12771 0.1523161 -6.2221663e-17)
(100.10841 0.12576919 1.2389718e-16)
(100.09184 0.088256299 -1.202806e-16)
(100.0723 0.056018911 0)
(100.03203 0.018190613 0)
(100.16013 0.81113271 0)
(100.17174 0.76922278 1.1684525e-18)
(100.21383 0.71988934 0)
(100.20547 0.6508966 3.3139247e-18)
(100.22848 0.58945147 6.7429295e-17)
(100.23608 0.53099516 -2.0119016e-16)
(100.21831 0.4681093 1.3018082e-16)
(100.24547 0.40677915 -1.9802332e-18)
(100.19208 0.27740164 1.2486255e-16)
(100.09932 1.6074602 8.5299431e-17)
(100.13589 1.5869732 -1.6793018e-16)
(100.19235 1.553896 1.5991369e-16)
(100.27971 1.5100347 -5.1962585e-18)
(100.28061 1.4083287 -7.5165507e-17)
(100.3883 1.3381351 -2.2796982e-18)
(100.38224 1.1902126 0)
(100.47101 1.0965028 4.2863492e-18)
(100.41927 0.83873029 -2.0809899e-18)
(100.09735 2.8862718 8.9207902e-17)
(100.22009 2.886157 -1.8109348e-16)
(100.28289 2.9045908 1.7177819e-16)
(100.4066 2.8866807 -8.3127684e-17)
(100.45707 2.821417 -5.1826483e-18)
(100.58453 2.796376 2.4915494e-18)
(100.63242 2.7033276 0)
(100.81288 2.6418212 -2.3292705e-18)
(100.77434 2.4076216 1.3970463e-16)
(99.99621 4.0857485 -1.0146344e-16)
(100.1934 4.2877957 0)
(100.35142 4.242779 -9.2899878e-17)
(100.58977 4.3410905 9.5797701e-17)
(100.69436 4.2279288 -8.5983523e-17)
(100.95566 4.1917741 8.8852345e-17)
(101.01966 4.0353465 0)
(101.2718 3.9501275 0)
(101.23724 3.637564 4.9710098e-18)
(99.913221 6.0586171 -1.2439449e-16)
(100.27302 6.3088081 -1.1803888e-16)
(100.38059 6.533986 1.1346646e-16)
(100.74932 6.7164197 1.0787881e-16)
(100.8753 6.889176 -1.0399868e-16)
(101.23127 7.036977 0)
(101.38143 7.125286 1.8977486e-16)
(101.81928 7.1942899 -1.4544014e-18)
(101.83562 7.0031423 -3.5011821e-16)
(99.342863 7.8531988 -1.462395e-16)
(99.796348 8.2289405 0)
(100.14164 8.3977706 0)
(100.59897 8.700473 3.8908775e-18)
(100.96716 8.7354224 0)
(101.40462 8.9721367 0)
(101.72676 8.8893659 0)
(102.19026 9.0992802 0)
(102.38738 8.8931793 0)
(98.297835 13.332113 5.7670654e-18)
(99.001151 14.746321 0)
(99.465695 15.203688 4.9970539e-18)
(100.34145 16.127581 -9.1807032e-18)
(100.82801 16.219 -1.3465574e-16)
(101.66615 16.765323 -1.2522743e-16)
(102.08524 16.658596 2.4275071e-16)
(102.97042 16.866546 2.3049343e-16)
(103.33458 16.369398 -2.182682e-16)
(92.405124 15.22752 7.0408931e-16)
(93.833103 15.900545 -4.4253661e-16)
(95.712863 16.407525 3.8379286e-16)
(97.894826 16.446575 -3.7080607e-16)
(99.466021 16.442479 -5.0823996e-16)
(101.12074 16.208434 9.4525765e-16)
(102.77337 15.8165 -5.9524404e-16)
(104.39661 15.975925 -2.7695312e-16)
(105.73417 16.310654 2.6067342e-16)
(100.04118 0.012337267 -1.6402432e-19)
(100.07977 0.025654141 1.6865259e-16)
(100.13759 0.051661851 -1.5335968e-19)
(100.21034 0.083759062 -1.6979841e-16)
(100.29862 0.11936714 1.6573519e-19)
(100.40688 0.15745974 1.7044277e-16)
(100.5368 0.19797668 -1.712723e-16)
(100.69147 0.24044265 -1.6656474e-19)
(100.88705 0.29727166 -8.5830081e-17)
(100.28297 0.33299685 -1.7915441e-16)
(100.32679 0.47760115 1.8033764e-16)
(100.46183 0.50013263 -1.8039911e-16)
(100.54381 0.66252433 0)
(100.73325 0.66540276 1.8129926e-16)
(100.86965 0.87043758 -1.2212805e-19)
(101.12608 0.85026088 -4.4298702e-21)
(101.31898 1.0957836 -1.8190096e-16)
(101.63372 1.0417945 9.1165514e-17)
(100.57855 0.91712398 1.9178698e-16)
(100.63453 1.1465429 -1.9235974e-16)
(100.89762 1.2277922 -1.932623e-16)
(100.9853 1.5432583 1.9382251e-16)
(101.30614 1.622527 -1.948016e-16)
(101.41723 1.9699505 1.9415602e-16)
(101.76287 2.0353775 -1.9534204e-16)
(101.91222 2.4117736 2.8146605e-19)
(102.31072 2.456601 1.9524103e-16)
(101.06486 2.598045 -2.0460084e-16)
(101.12945 2.9887727 -8.0488448e-19)
(101.41018 3.1149613 8.0926094e-19)
(101.48283 3.4800539 0)
(101.81302 3.5729395 -1.4924556e-21)
(101.94237 3.9568252 -2.0610035e-16)
(102.32913 4.0216477 2.0950907e-16)
(102.51045 4.4380301 8.1405007e-19)
(102.93147 4.4640764 8.1470907e-19)
(101.54424 3.7707189 -8.6599795e-19)
(101.65035 4.1690518 -2.2317805e-16)
(102.07263 4.2811802 -8.2458966e-20)
(102.24673 4.7807892 2.2483371e-16)
(102.71206 4.8843255 2.2514676e-16)
(102.94202 5.4063422 -2.2629244e-16)
(103.3745 5.5130908 -8.7682541e-19)
(103.62584 6.0558404 -8.7790961e-19)
(104.10193 6.1521784 -8.7883709e-19)
(102.29335 7.3643589 2.3999143e-16)
(102.43881 7.9553909 0)
(102.81658 8.186636 0)
(102.92307 8.7001125 2.394268e-16)
(103.31372 8.8975779 -2.4265048e-16)
(103.47064 9.427892 -2.4211779e-16)
(103.92167 9.6335085 4.8396785e-16)
(104.11281 10.111359 -1.1011536e-18)
(104.60489 10.288441 -4.8510321e-16)
(102.85765 9.1231754 -1.0240301e-18)
(103.2614 9.6504867 0)
(103.79242 9.9155059 1.021772e-18)
(104.26926 10.399794 2.6837375e-16)
(104.78375 10.60408 -2.6994169e-16)
(105.22644 11.004535 2.6819865e-16)
(105.70531 11.110205 -2.6878189e-16)
(106.12584 11.412673 -1.0179644e-18)
(106.60171 11.450354 2.6769739e-16)
(103.82089 16.718089 -2.7843126e-16)
(104.1944 16.898431 2.8211323e-16)
(104.63853 16.975076 -2.8129503e-16)
(105.08214 17.127724 2.7982534e-16)
(105.64513 17.260857 -2.7634568e-16)
(106.10097 17.352764 9.4508888e-19)
(106.64913 17.38737 2.7918616e-16)
(107.06315 17.37366 2.199941e-18)
(107.54798 17.260783 1.3847031e-16)
(107.17825 16.473393 0)
(108.5817 16.854894 -3.1124117e-16)
(109.45575 17.393675 4.73405e-18)
(110.03621 18.017413 4.9693017e-18)
(110.42074 17.989635 6.1295441e-16)
(111.0778 17.690227 -3.0586753e-16)
(111.8961 16.759723 -3.0277357e-16)
(112.44629 15.951625 3.0406793e-16)
(113.07567 14.706526 1.5219418e-16)
(113.22506 13.732938 -1.7766557e-16)
(113.35622 12.155071 0)
(113.2219 11.276012 1.791666e-16)
(113.24764 10.119997 -1.7916923e-16)
(112.63471 9.4039422 0)
(112.22456 8.3305587 0)
(111.0305 7.5452574 0)
(110.2779 6.7446631 -1.9737815e-16)
(108.98908 6.3510098 1.9737856e-16)
(107.86107 17.172598 -1.5771108e-16)
(108.22878 16.912435 0)
(108.47123 16.797657 0)
(108.73491 16.471133 0)
(108.82836 16.288055 0)
(108.96503 15.991211 0)
(108.85062 15.748353 0)
(108.73388 15.494021 1.586448e-16)
(108.35828 15.376677 -3.1871417e-16)
(106.93226 11.671107 -1.2237743e-18)
(107.35003 11.898859 -2.9308593e-16)
(107.63875 12.050005 0)
(108.03005 12.236736 -1.4510399e-16)
(108.23691 12.330899 1.4510413e-16)
(108.60183 12.402223 0)
(108.73768 12.442716 0)
(108.9936 12.531668 0)
(109.00205 12.655497 0)
(104.83177 10.703758 2.6040583e-16)
(105.36364 10.922842 0)
(105.59663 11.29927 1.2830611e-16)
(106.15157 11.483115 -2.5597588e-16)
(106.39401 11.834978 1.2766772e-16)
(106.94725 11.967291 0)
(107.17849 12.273196 0)
(107.691 12.373112 0)
(107.86327 12.669504 1.2499403e-16)
(104.33417 6.7548263 0)
(104.88465 6.9108494 2.3576814e-16)
(105.10414 7.5442465 -3.530858e-16)
(105.69223 7.6874379 1.1733696e-16)
(105.92103 8.3006991 1.1620591e-16)
(106.5069 8.4246439 -5.7623439e-19)
(106.76923 9.0180019 -2.3067097e-16)
(107.36574 9.1207268 2.2951014e-16)
(107.59734 9.6933015 -1.1446289e-16)
(103.17768 4.9133964 0)
(103.59211 4.9636463 1.0712054e-16)
(103.92458 5.4204841 -1.0712052e-16)
(104.435 5.5091987 0)
(104.72662 5.975442 -2.1096151e-16)
(105.35923 6.0878143 2.1096152e-16)
(105.67142 6.519193 1.0427105e-16)
(106.30099 6.7174556 -2.0791602e-16)
(106.6764 7.0637886 1.0364494e-16)
(102.49319 2.874666 0)
(102.94449 2.9200452 0)
(103.16675 3.370616 0)
(103.66152 3.3939369 -9.8226351e-17)
(103.9363 3.8756059 1.9597028e-16)
(104.44234 3.8890463 -1.9497527e-16)
(104.82587 4.3526361 9.7217276e-17)
(105.3479 4.4542309 -9.6074511e-17)
(105.73567 4.8324337 1.9151974e-16)
(101.86723 1.3172312 -1.8457596e-16)
(102.24643 1.2510302 3.8277872e-19)
(102.53092 1.5753532 9.1732858e-17)
(102.96812 1.4850049 -9.0875715e-17)
(103.31358 1.8496994 9.0878704e-17)
(103.80727 1.7239671 0)
(104.21689 2.1017387 8.9373779e-17)
(104.74351 2.0112276 -1.7816799e-16)
(105.25387 2.2781995 8.8793032e-17)
(101.01907 0.36186689 2.9391871e-19)
(101.24551 0.39180998 8.671912e-17)
(101.56953 0.55874615 8.6045214e-17)
(101.84698 0.58187981 -8.6045222e-17)
(102.18003 0.7359754 0)
(102.51865 0.75852917 0)
(102.90192 0.8815762 -8.4525346e-17)
(103.32148 0.9339012 1.6857488e-16)
(103.78521 1.057672 -8.4049508e-17)
(104.28938 1.1053575 0)
(104.83393 1.2579488 -8.2326541e-17)
(105.43372 1.3207456 6.7031445e-19)
(106.03381 1.4509832 7.2386869e-19)
(106.73907 1.5338422 7.7617666e-19)
(107.40333 1.6649198 8.0156175e-17)
(108.20821 1.7504097 7.8408084e-17)
(108.95365 1.8819693 -7.8408088e-17)
(109.87546 1.980176 0)
(105.82291 2.3127467 0)
(106.36007 2.5301436 0)
(107.05128 2.5937697 -8.6037579e-17)
(107.63169 2.7738091 8.0530788e-19)
(108.38156 2.9073961 8.605894e-19)
(109.00675 3.1030863 8.437166e-17)
(109.87601 3.1656323 8.2470789e-17)
(110.53286 3.4395733 -8.2470772e-17)
(111.49135 3.5458172 0)
(106.40349 5.0184862 -9.5445234e-17)
(106.75435 5.3762628 0)
(107.50314 5.5636814 0)
(107.9343 6.0026456 -9.2556951e-17)
(108.7077 6.1354545 1.8427655e-16)
(109.18503 6.6236074 -8.9649417e-19)
(110.06407 6.8092223 -9.3979715e-19)
(110.51578 7.2610401 -8.9883301e-17)
(111.54409 7.4964666 0)
(107.30929 7.3038398 -1.0229795e-16)
(107.76677 7.6839151 1.0229792e-16)
(108.33304 7.9339752 0)
(108.96693 8.2534924 0)
(109.40312 8.6391678 9.9215939e-17)
(110.18676 8.9204862 -9.9215932e-17)
(110.60129 9.2947 9.7413643e-17)
(111.44723 9.7140683 -4.9193681e-17)
(111.86832 10.033078 -4.8212873e-17)
(108.22122 9.7972381 -1.1329567e-16)
(108.4288 10.370272 1.1329256e-16)
(109.03502 10.488808 0)
(109.25049 11.093247 0)
(109.85121 11.254693 0)
(110.05481 11.905959 0)
(110.69548 12.115118 0)
(110.89296 12.84991 0)
(111.51112 13.073514 0)
(108.33344 12.784826 -1.2499413e-16)
(108.44473 13.129111 1.2431529e-16)
(108.88 13.293206 -1.2430117e-16)
(108.92167 13.711816 1.2380667e-16)
(109.37007 13.963865 -1.2380612e-16)
(109.36475 14.470818 0)
(109.85903 14.819263 0)
(109.80216 15.432755 0)
(110.30212 15.845242 0)
(109.14218 12.864103 0)
(109.01363 13.063811 -1.4510604e-16)
(109.11931 13.399476 1.4519398e-16)
(108.85402 13.697231 0)
(108.95519 14.160443 1.4703895e-16)
(108.57542 14.59124 -1.4704775e-16)
(108.67085 15.107509 0)
(108.24512 15.645406 7.4487957e-17)
(108.31472 16.231209 -1.4925442e-16)
(108.06667 15.307833 1.6002215e-16)
(107.43805 15.322801 1.6361578e-16)
(107.05455 15.426992 -1.6371462e-16)
(106.26819 15.624144 1.68033e-16)
(105.8411 15.831405 -3.384673e-16)
(104.95963 16.028293 3.4327463e-16)
(104.47768 16.263242 -3.4811599e-16)
(103.40051 16.577913 1.7535182e-16)
(102.89942 17.032893 0)
(108.16241 5.8321915 -2.0665244e-16)
(106.72554 5.8517525 2.066525e-16)
(105.859 5.853327 0)
(104.35736 5.9808234 0)
(103.52308 5.8091249 0)
(101.98004 5.7663661 0)
(101.15795 5.8601974 0)
(99.516549 6.257746 -1.2049397e-16)
(98.691904 7.0021684 1.2042162e-16)
(96.618854 8.1341849 1.257451e-16)
(101.69112 17.759546 0)
(107.76114 16.928507 7.4805608e-17)
(110.27869 16.672466 0)
(111.85609 13.904334 0)
(112.8048 10.554099 0)
(112.00525 7.9744133 4.3312618e-17)
(112.21035 3.7659361 3.9537992e-17)
(110.7137 2.1148317 3.759639e-17)
(95.758346 9.6049593 -1.2584512e-16)
(101.27173 18.538094 0)
(107.86741 17.640953 0)
(110.70044 17.126707 6.0952034e-17)
(112.38578 14.195214 0)
(113.27475 10.873927 -4.6510286e-17)
(113.11302 8.2646245 -8.5997655e-17)
(113.2901 3.9043139 -7.842446e-17)
(111.73358 2.2219379 -7.4564972e-17)
(93.419137 11.206249 0)
(99.986962 19.728932 0)
(107.25871 18.651223 7.5691473e-17)
(110.82262 18.150227 -6.0952001e-17)
(112.8644 15.108045 0)
(114.24334 11.50703 4.6510278e-17)
(113.66976 8.6866964 4.2687174e-17)
(114.03988 4.209009 3.8886466e-17)
(112.67623 2.3643367 3.6968574e-17)
(92.636411 12.783313 1.3385378e-16)
(99.701252 20.778351 0)
(107.4638 19.526768 -1.5157436e-16)
(111.26739 18.685838 0)
(113.44046 15.471927 0)
(114.81626 11.80359 -4.5114601e-17)
(114.84823 9.1015245 -4.1284248e-17)
(115.23287 4.3109951 0)
(113.82127 2.477622 -3.5550131e-17)
(90.205354 14.726432 -1.33855e-16)
(98.417502 22.395881 -9.5817674e-17)
(106.83171 20.852307 7.5872998e-17)
(111.45869 19.907495 0)
(113.96421 16.545882 0)
(115.87057 12.567377 4.5114586e-17)
(115.47934 9.5045352 4.1284231e-17)
(116.07326 4.6482841 0)
(114.86438 2.6162166 3.5550126e-17)
(89.293425 16.419817 0)
(98.315072 23.682302 9.5816336e-17)
(107.17281 21.850538 -7.5907765e-17)
(112.02735 20.508447 0)
(114.66863 16.946739 0)
(116.50221 12.903695 -4.3438787e-17)
(116.74546 9.9537655 -3.9644847e-17)
(117.36352 4.7960099 0)
(116.13317 2.733432 -3.3888726e-17)
(86.579138 18.621965 0)
(97.09323 25.747129 0)
(106.62381 23.516268 7.5907674e-17)
(112.37376 21.939191 -2.9278459e-17)
(115.24208 18.18052 -2.5055751e-17)
(117.73589 13.677193 6.4675473e-17)
(117.55115 10.334141 5.9006623e-17)
(118.29082 5.1393763 0)
(117.28956 2.8785602 5.0369472e-17)
(85.787666 21.406534 0)
(97.179418 27.199821 -4.8636297e-17)
(107.14058 24.612612 0)
(113.00746 22.601368 2.9268732e-17)
(116.1275 18.595003 2.5042822e-17)
(118.40926 14.118898 -5.2964802e-19)
(118.77381 10.907634 -3.8220111e-17)
(119.67683 5.3235656 0)
(118.66659 2.9956446 -1.6480749e-17)
(83.404232 24.24806 -7.1186125e-17)
(96.209848 29.806797 4.8623925e-17)
(106.76839 26.78946 0)
(113.63237 24.287484 0)
(116.81021 20.093767 0)
(119.84103 14.909869 -4.0837009e-17)
(119.88902 11.18642 5.4830807e-19)
(120.70715 5.6844302 0)
(119.93471 3.1217002 0)
(121.62243 3.2372576 0)
(122.1962 5.8288965 0)
(121.08043 11.834863 -5.170849e-19)
(120.57114 15.424074 2.1110879e-17)
(117.87719 20.298028 0)
(114.3547 24.893147 -3.7292075e-18)
(107.63073 27.72821 -6.8534789e-19)
(96.739848 31.358398 -4.0260829e-17)
(83.076626 27.744453 1.321205e-16)
(123.18818 3.3014551 -7.2273617e-18)
(123.30808 6.114708 -9.9729982e-19)
(122.53169 11.825399 9.2157409e-18)
(122.19862 15.877145 -7.0429173e-20)
(118.95419 21.664252 -9.9265248e-18)
(115.4439 26.42007 1.3272912e-17)
(108.05057 30.047299 -4.8051839e-18)
(96.4447 34.442185 5.1927675e-17)
(82.965179 32.933901 -6.69726e-17)
(124.75301 3.3381253 1.425976e-17)
(124.9083 6.1402244 0)
(123.78046 12.456325 1.6964021e-17)
(123.06955 16.370197 -9.1529098e-18)
(120.31081 21.709474 1.0009503e-17)
(116.48343 26.962707 -2.4883032e-17)
(109.66089 30.787226 -2.2024194e-17)
(98.575497 35.58779 1.1757542e-17)
(86.391283 35.214373 1.8733201e-18)
(126.39194 3.3670094 -7.0403527e-18)
(126.17637 6.4003398 -9.3388066e-19)
(125.52123 12.460814 -7.3932304e-18)
(124.93313 16.796367 1.0473651e-17)
(121.85039 23.138812 4.0396518e-18)
(118.10771 28.527409 1.3211096e-17)
(110.77321 33.275486 1.7589457e-17)
(99.117462 38.545823 6.3237028e-18)
(86.597586 39.77136 -7.2423603e-18)
(128.11183 3.39144 1.5805125e-18)
(127.84285 6.3731368 -1.7050456e-18)
(126.78031 12.930649 -9.9627153e-19)
(125.94537 17.205205 3.2053804e-18)
(123.24193 23.097635 -4.0524184e-18)
(119.38537 28.912052 -4.5713393e-18)
(112.7593 33.765952 -4.5653564e-18)
(101.73974 39.371375 5.1546382e-18)
(89.424385 41.432862 -8.8775964e-18)
(129.8877 3.4055351 -1.5985915e-18)
(129.3126 6.6068394 1.7255466e-18)
(128.79898 12.893302 -9.5125605e-19)
(128.0372 17.534098 -1.706222e-20)
(125.32774 24.275374 -1.2081798e-18)
(121.34914 30.431714 3.1086426e-18)
(114.19576 36.245815 -4.4474165e-18)
(102.6048 42.307032 5.0337005e-18)
(90.025435 45.272663 0)
(131.6944 3.399357 -1.3903353e-18)
(130.98785 6.5488969 -8.075339e-19)
(130.09141 13.215341 -8.4120603e-19)
(129.18084 17.880829 -1.0494053e-18)
(126.64782 24.346839 -1.1837446e-18)
(122.7938 30.639943 3.2190944e-18)
(116.36424 36.504504 -7.911404e-18)
(105.34571 42.850127 1.085205e-17)
(92.960163 46.248603 -6.8928358e-18)
(133.51852 3.362555 3.9771772e-18)
(132.62843 6.693689 2.8422693e-18)
(132.2449 13.120209 4.0904598e-18)
(131.48017 17.95882 4.5046007e-18)
(129.10085 25.118576 3.5639897e-18)
(125.0546 32.060555 -1.3218613e-18)
(118.11974 38.926467 -4.1520796e-18)
(106.57236 45.750553 -1.080093e-18)
(93.918935 49.587145 -7.8813782e-18)
(135.35486 3.2908476 -7.2960115e-18)
(134.30316 6.6201321 -2.8777111e-18)
(133.62064 13.28874 -9.9406565e-18)
(132.72763 18.244036 -2.7775531e-18)
(130.48958 25.192686 7.0269014e-18)
(126.67181 32.035963 4.1405403e-18)
(120.4784 38.900139 -2.1052521e-17)
(109.48865 46.003346 4.5294174e-18)
(96.888241 50.186941 1.5006227e-17)
(98.03244 53.232561 -1.4240729e-17)
(111.0688 48.87295 5.4323463e-18)
(122.60337 41.239731 3.0078221e-17)
(129.255 33.320901 -3.8583555e-18)
(133.19892 25.713613 1.147185e-18)
(135.1599 18.082009 4.4131365e-18)
(135.88201 13.009378 6.7131214e-18)
(136.04034 6.5953769 -3.1046282e-19)
(137.1923 3.1821549 9.2573379e-18)
(101.00604 53.561183 5.3902425e-17)
(114.15993 48.844134 4.049318e-18)
(125.16478 40.86419 -4.0516799e-17)
(131.0229 33.008843 -1.0476664e-18)
(134.71735 25.472863 -6.6430337e-18)
(136.48306 18.181251 -5.4279337e-18)
(137.27842 12.978953 -1.0305383e-17)
(137.65332 6.4350658 0)
(139.00873 3.0310025 -4.2703031e-18)
(102.37331 56.498925 -6.8787001e-17)
(116.11008 51.698242 4.0587966e-17)
(127.68718 43.09609 2.1044968e-17)
(133.93524 34.113692 -9.3608062e-19)
(137.59301 25.919741 1.1874763e-17)
(139.04013 17.839175 4.8538775e-20)
(139.56989 12.570289 2.459906e-18)
(139.46574 6.317123 7.023863e-18)
(140.77806 2.8307653 6.455104e-18)
(105.47329 56.612003 -1.2785902e-17)
(119.37166 51.361503 4.6052823e-18)
(130.42134 42.305463 -2.9674333e-18)
(135.82057 33.415666 0)
(139.25902 25.153916 -1.199449e-17)
(140.36989 17.60385 0)
(141.01361 12.340528 8.1027204e-18)
(140.98653 6.0297411 -1.3653545e-17)
(142.47812 2.5799599 -1.1018249e-18)
(107.14039 59.63305 -5.2087601e-18)
(121.74257 54.189075 -2.8584933e-17)
(133.36549 44.36878 2.6373547e-18)
(139.06222 34.254191 0)
(142.1251 25.491993 -8.722051e-18)
(143.01554 17.046034 6.6594922e-18)
(143.21229 11.682773 4.2024012e-19)
(142.82611 5.6578406 1.1898936e-17)
(144.02834 2.3021189 -5.484189e-18)
(110.39954 59.488507 -5.1340618e-17)
(125.20919 53.483757 -1.9975674e-17)
(136.16576 43.113853 -6.8340481e-19)
(140.98595 33.147965 -1.390713e-18)
(144.02088 24.282061 1.6679008e-18)
(144.30202 16.465693 -1.1792041e-17)
(144.57076 11.285571 3.3530417e-19)
(144.1735 5.3098185 -5.4230919e-18)
(145.49186 1.9954192 0)
(112.52242 62.588713 3.547471e-17)
(127.97192 56.187087 2.9035126e-17)
(139.58983 44.880365 -6.5875252e-19)
(144.47768 33.603237 -1.0512899e-18)
(146.75186 24.274862 6.0202273e-18)
(146.98422 15.696619 5.445369e-18)
(146.69949 10.347386 2.508778e-19)
(145.96074 4.7548956 -2.2987451e-19)
(146.81084 1.6712246 0)
(115.97043 62.082248 0)
(131.85754 55.180117 -1.6531814e-18)
(142.371 43.078308 1.4092891e-18)
(146.4655 32.032702 -4.6322711e-18)
(148.63533 22.680145 -2.0602953e-19)
(148.11934 14.756558 3.541461e-18)
(147.88057 9.7530173 -3.8319662e-18)
(147.04781 4.3227032 3.907454e-18)
(147.95901 1.32992 2.4448474e-18)
(118.71164 65.230341 6.3375694e-17)
(134.93858 57.559261 2.222074e-17)
(146.27168 44.420499 -9.1190334e-19)
(150.04013 32.022789 4.9669664e-18)
(151.39059 22.232821 -6.7254024e-20)
(150.69816 13.735458 -3.7199331e-18)
(149.82777 8.5613686 4.1424741e-18)
(148.6432 3.5812311 -4.043994e-18)
(148.91615 0.97343553 -1.940515e-18)
(149.6716 0.59944602 -5.4002404e-19)
(149.46144 3.0983336 -4.408408e-19)
(150.75169 7.7852611 0)
(151.68965 12.387766 1.0758482e-19)
(153.0276 20.252088 -4.6832843e-18)
(152.10287 29.865614 -6.7706312e-18)
(149.05807 41.843177 0)
(139.6171 56.099833 -1.1879265e-17)
(122.68195 64.101716 -6.1590911e-17)
(150.19982 0.21664052 0)
(150.73799 2.150917 4.4756445e-19)
(152.43395 6.26604 0)
(154.00817 10.93264 3.3503756e-19)
(155.89299 18.978929 1.32256e-17)
(155.79554 28.999991 7.5164917e-18)
(153.75443 42.248027 -1.4159937e-17)
(143.77212 57.89407 -4.9343909e-18)
(127.26988 67.755932 2.7500003e-17)
(150.46709 -0.14226773 0)
(151.15731 1.5771477 0)
(152.96676 5.2821425 5.9568969e-18)
(154.72296 9.2001331 0)
(157.08602 16.588509 -9.1385797e-18)
(157.77573 26.004299 1.8980486e-17)
(156.81565 38.66465 1.295775e-17)
(149.37931 55.474319 1.1401178e-18)
(132.23274 65.488591 -2.0523785e-17)
(150.69915 -0.29872964 0)
(152.02788 0.55368303 0)
(154.22716 3.6324592 -6.0803383e-18)
(156.58039 7.5494804 -1.1065094e-17)
(159.70054 14.911504 -1.7095817e-17)
(161.05836 24.592291 -2.0764289e-17)
(161.22245 37.978629 0)
(153.88469 56.170591 -3.7859288e-17)
(138.41608 68.910999 -1.7042835e-17)
(150.33769 -0.63758332 -9.5177984e-20)
(151.94597 -0.059419231 1.0302943e-19)
(154.21891 2.5578191 0)
(156.84199 5.5292338 -2.2780335e-18)
(160.3749 12.098056 4.0411128e-17)
(162.65554 20.966019 -1.5848147e-18)
(164.06512 33.517784 -4.1576677e-17)
(159.51995 52.582329 4.1197902e-17)
(143.7534 65.416175 -3.098818e-17)
(150.3395 -0.96248964 1.0986168e-19)
(152.27777 -1.1404602 -1.191021e-19)
(155.00472 0.87216738 0)
(158.11262 3.91181 1.5887846e-17)
(162.32547 10.240821 -2.473358e-17)
(165.37797 19.045395 1.9039226e-18)
(167.87769 31.774562 4.3004647e-17)
(163.97196 51.932012 0)
(151.88707 67.946024 3.1396791e-17)
(149.22093 -1.2203767 -1.1971565e-19)
(151.6223 -1.7063852 -8.9931084e-18)
(154.4292 -0.2386303 4.4439819e-19)
(157.89688 1.5932337 -1.7696256e-17)
(162.43642 7.1072708 -2.9104564e-17)
(166.20175 15.066886 0)
(170.08555 26.570888 0)
(168.91058 47.020644 8.5789372e-17)
(157.63922 62.601302 0)
(148.69084 -1.284199 0)
(151.53254 -2.9866444 9.3076908e-18)
(154.72548 -1.7769128 0)
(158.37464 0.17154457 2.0416371e-17)
(163.55686 5.2205602 2.6773616e-17)
(168.29911 12.821777 -4.6170542e-17)
(172.93076 24.06631 0)
(172.62449 44.870866 -9.514446e-17)
(167.72789 63.589269 1.4542801e-16)
(147.00157 -1.5040205 0)
(150.43591 -3.454404 0)
(153.4812 -2.9132416 5.1748317e-19)
(158.03078 -2.3852712 9.7220525e-19)
(162.91705 1.6158281 -1.7342407e-18)
(168.01342 7.5795081 4.7653725e-17)
(174.47056 16.874301 0)
(176.95958 36.089968 0)
(173.95441 54.384372 -1.453697e-16)
(145.16938 -1.8632854 2.4713344e-19)
(150.16838 -4.7404574 8.4405198e-20)
(153.34746 -4.1315101 -1.3833065e-17)
(157.52833 -3.8234822 0)
(163.68851 0.67930556 0)
(169.81406 7.5739827 3.4010704e-18)
(176.07568 17.157748 7.1990415e-17)
(178.15034 38.207078 -2.7199541e-18)
(181.76574 58.288261 0)
(143.5313 -2.1105833 2.3072464e-19)
(148.85778 -5.206667 8.9060041e-20)
(152.05064 -4.8037581 1.2597411e-17)
(158.44182 -4.9625025 0)
(163.81876 -0.42500805 0)
(170.77031 6.0933391 -3.618084e-18)
(178.91458 18.32371 -2.2738895e-16)
(179.89842 40.563702 2.8983591e-18)
(176.39638 59.185785 -3.3067437e-16)
(141.64581 -2.3129564 0)
(148.32921 -6.5459573 -1.865054e-17)
(151.88056 -6.1219156 0)
(157.96718 -6.5789919 -1.5845038e-18)
(165.20536 -1.9704498 1.7281823e-18)
(173.34185 5.1888083 3.913842e-18)
(182.14294 17.762526 3.239119e-16)
(181.41335 41.927987 -3.1211313e-18)
(160.96189 62.303407 3.1351124e-16)
(139.54212 -2.5030726 -6.149621e-18)
(146.8167 -7.0404452 1.7862038e-17)
(150.38936 -7.1901701 -2.3720976e-17)
(158.61626 -8.4960919 -4.5238008e-17)
(165.30172 -3.5812548 7.1042462e-17)
(174.65861 3.1357614 -1.132486e-16)
(185.52765 18.00819 -1.7354857e-16)
(180.90636 43.244822 -2.4599369e-16)
(135.26836 72.154627 0)
(137.2633 -2.698211 1.0128738e-17)
(145.93277 -8.5260845 -1.6231721e-17)
(150.07483 -8.5579021 2.2943712e-17)
(158.31137 -10.39268 -2.0255403e-18)
(167.05177 -5.7389731 -6.8545641e-17)
(177.31243 1.6781288 -6.5715537e-18)
(188.24789 16.575356 0)
(179.9511 47.775183 2.3539676e-16)
(109.87047 94.337223 0)
(134.81895 -2.8962367 -5.3065237e-18)
(144.07786 -8.9863335 1.5609293e-17)
(148.25615 -9.7563942 -2.1838414e-17)
(158.40657 -12.377901 4.5186699e-17)
(166.77168 -7.54109 2.8064446e-18)
(178.3161 -0.59227509 1.1154933e-16)
(190.30565 17.1477 -2.1366359e-16)
(174.02681 50.684282 -2.8286182e-16)
(62.030441 75.379191 2.5239354e-16)
(132.23712 -3.0952112 1.6373789e-18)
(142.89308 -10.341758 -3.5960233e-19)
(147.64322 -11.125926 2.0473634e-17)
(157.99095 -14.452021 -1.7321651e-18)
(168.40328 -9.8252743 1.8674124e-18)
(180.2422 -2.587058 1.271218e-16)
(191.02028 15.448675 4.351456e-16)
(160.59609 46.62631 2.6755027e-16)
(5.040894 23.127685 -2.3900965e-16)
(129.43735 -3.2117771 7.0037351e-20)
(140.53965 -10.803111 -7.5282428e-20)
(145.36557 -12.347368 -1.7068558e-17)
(157.33273 -16.6051 -4.4050401e-17)
(167.61611 -12.040513 7.3858757e-17)
(180.71139 -4.9976646 -2.5260545e-16)
(189.70255 13.902084 -4.559383e-16)
(139.38051 48.242247 -2.8075883e-16)
(-1.4652878 45.373173 2.4594753e-16)
(127.10946 -3.219322 5.967559e-18)
(139.12752 -12.030857 1.907208e-19)
(144.53403 -13.702501 1.3795024e-18)
(156.73032 -18.645782 4.2718124e-17)
(169.25473 -14.512242 -6.8459775e-17)
(181.63559 -7.4667225 1.2801643e-16)
(186.6619 12.820231 2.2803682e-16)
(119.31009 46.329492 2.6501207e-16)
(-7.2274019 48.622733 -2.3446245e-16)
(-18.96634 50.010554 -4.1360452e-16)
(106.85529 44.60519 -2.9575634e-18)
(184.20394 11.475981 4.189349e-18)
(181.11598 -9.5762181 -3.5936593e-18)
(167.97355 -16.649568 0)
(155.59594 -20.551442 5.009631e-19)
(142.10081 -14.787525 2.9493804e-17)
(136.43102 -12.399723 6.6313367e-18)
(124.37087 -3.1382714 -1.4788875e-17)
(-23.983911 48.146983 4.0182128e-16)
(98.045673 41.674627 0)
(182.17964 8.3041613 0)
(181.46401 -13.477 3.3854867e-16)
(168.5554 -19.760381 0)
(154.29497 -22.766123 -8.774612e-17)
(140.72217 -16.105011 -3.8817804e-17)
(134.67808 -13.370811 -6.2369615e-18)
(121.42972 -3.1358846 -1.4019739e-17)
(-31.318974 48.684698 3.6329873e-18)
(87.013353 41.155905 -2.9276557e-18)
(178.76402 7.5395034 0)
(180.15956 -15.257428 -3.3110658e-16)
(167.27092 -21.615494 0)
(152.67017 -24.453678 8.6699803e-17)
(138.2593 -16.983553 2.377883e-17)
(131.62114 -13.758922 5.8435893e-20)
(118.37453 -3.0116049 2.2521079e-17)
(-35.347956 48.435706 7.929473e-16)
(78.234811 38.429266 -8.7711675e-16)
(175.96961 3.9603672 5.508525e-18)
(179.94173 -18.938327 0)
(166.81061 -24.667788 -1.7151773e-16)
(150.98711 -26.446281 0)
(136.47895 -18.186305 -7.0499647e-20)
(129.62945 -14.549791 4.5241002e-21)
(115.10685 -3.335069 5.4872944e-20)
(-41.7343 48.265356 -7.6151951e-16)
(67.284422 38.310825 -2.6826508e-17)
(171.77813 3.5177421 6.9939926e-16)
(178.15613 -20.806993 -3.6323564e-18)
(165.54097 -26.533232 5.0016173e-19)
(148.9713 -27.816203 0)
(133.88152 -18.886404 -1.0638268e-17)
(126.475 -14.762852 0)
(112.09044 -3.2708301 0)
(-43.388794 49.620341 3.4875112e-18)
(59.090231 34.914976 8.3607185e-16)
(168.3547 -0.30419767 -1.3562782e-15)
(177.58725 -24.474998 3.2950014e-16)
(164.86858 -29.205824 1.647239e-16)
(146.99686 -29.720012 6.480977e-17)
(131.85976 -19.923063 1.0213735e-17)
(124.32666 -15.518635 -9.7198184e-20)
(108.79789 -3.571191 3.6796555e-17)
(-46.750358 50.305597 3.4521553e-18)
(46.285886 34.379165 -8.5072159e-16)
(163.58385 -0.36888747 6.722109e-16)
(175.21365 -26.57793 -3.2285026e-16)
(163.46163 -31.103104 8.9485184e-19)