/*--------------------------------*- C++ -*----------------------------------*\
  =========                 |
  \\      /  F ield         | OpenFOAM: The Open Source CFD Toolbox
   \\    /   O peration     | Website:  https://openfoam.org
    \\  /    A nd           | Version:  11
     \\/     M anipulation  |
\*---------------------------------------------------------------------------*/
FoamFile
{
    format      ascii;
    class       volScalarField;
    location    "0.2175";
    object      T;
}
// * * * * * * * * * * * * * * * * * * * * * * * * * * * * * * * * * * * * * //

dimensions      [0 0 0 1 0 0 0];

internalField   nonuniform List<scalar> 
880
(
500
500.0000000275352
500.0016193071502
500.7412592161497
500.0000000000001
500.0000000095774
500.0032939186196
501.3968847344093
500.0000000000002
500.0000001543716
500.0088172254601
502.5685952133649
500.0000000001957
500.000000041103
500.0253803061122
504.48935606231
499.9999999961592
500.00000000113
499.9999995338004
500.0000242835712
500.0000007937754
500.0000116570916
500.0003546675131
500.0005685671869
500.0750671063244
500.1464566444998
500.3191118761226
500.1660463773342
509.2055888560957
514.6556706748927
519.2673787358981
521.4913925931932
500.0001263253157
500.0005954693968
500.0019555909524
500.0061400636218
500.0057907135723
500.0173107469271
500.0412436599775
500.0699009961468
500.9668887163831
501.7177296657188
502.5106522018237
503.4194513568689
523.9448208943102
526.881502261975
528.6507043895325
528.8417947698814
520.8509264424321
517.1187614667462
515.9455961548693
514.9081953436606
506.4077959189217
507.6702591541352
508.6350452374069
508.8120697087474
500.2664957785125
500.511696358007
500.7821663313645
501.0200577603835
500.0223376685952
500.0593996248714
500.1217164706277
500.1955571696478
500.242945910361
500.258941002287
500.2372033912219
500.19340677827
501.2034221644817
501.3666666712057
501.4340512748877
501.3292027568675
508.6349192068561
508.2401191416899
507.7084954616761
506.903198703825
513.8677346119289
512.621086571166
511.3727107300558
510.7217467829727
510.1616212330914
506.198306369961
501.1732134938813
500.1402778654956
508.8482735862147
505.257626576905
500.9772249831477
500.0915301926784
516.8219556542272
504.5194323544641
500.6593139860046
500.0377866487292
554.1935006100422
505.9528743667663
500.4385407167823
500.0104288438062
500.0043660032205
500.2777934129075
510.4890289423428
597.0621907010678
500.0165717636875
500.3680415580993
515.7556810872704
604.602612741937
500.049268818741
500.7878464193838
524.5763567192234
613.326050067586
500.132180064798
501.7432255784501
535.429419582391
618.3609666266884
622.5269339089475
548.4791668443333
503.5450699587547
500.2948771321144
625.6209385794908
562.2658295082832
506.6734971585084
500.6128834121272
627.6507936670349
575.4788809831452
511.3589849660955
501.1295972072971
626.8629900062838
583.3560918650123
517.6532900057626
501.9923607776229
503.2920774852012
524.1798366178001
586.0091047770583
618.7509425488547
504.0962479707299
522.8680290854148
571.3717000844596
602.0833103255401
504.2392888472249
517.6520016745404
554.6858063043184
579.6289880226767
502.7793475050152
511.0950127782895
535.1550844488921
548.5636055314494
503.0032338147288
510.5595023671748
520.4817844672821
516.0002766669279
502.3213966279542
506.1116361016881
507.2301336710133
476.2277509184283
501.2881106385369
504.1343846785447
506.843033046571
472.0537199202354
500.6058097070567
503.3877043962285
510.1518095052935
508.5959504702595
550.7045991822749
509.7204960809306
501.8174751878719
500.087597999384
546.951415823618
509.920552397723
500.6252643270877
499.9054463703798
540.1440745425886
508.8043746523064
499.6844972211825
499.8444596200366
527.2728006112932
503.8614444940468
498.7474152132976
499.7921614283932
508.3959116490648
497.7121965760053
498.4467826712353
499.8764937923319
486.6882955112515
494.4224730146892
498.8873064573017
499.961817854605
470.9866157237607
493.0081937643762
499.274848265217
499.9857912124482
468.9607415825992
493.8014927555964
499.7103211598311
499.9945261936111
472.3412837116954
494.6341093779777
499.1126584463358
499.9565248291665
472.8595235820044
493.7718263262283
499.1540981194063
499.9650439696213
471.2304438437115
492.6024489867966
499.1683213269631
499.9723100002922
468.5178479806212
491.3138767466825
499.1357221981451
499.9758296968443
468.9607415824005
493.8014927556538
499.7103211605252
499.9945261932801
470.986615724072
493.0081937643442
499.2748482650473
499.9857912120268
486.6882955111668
494.4224730144687
498.8873064567923
499.9618178541417
508.3959116488034
497.7121965753755
498.4467826709231
499.8764937922271
500.0875979995802
501.8174751881184
509.7204960813599
550.704599182103
499.9054463704031
500.6252643272571
509.9205523976774
546.9514158233555
499.8444596203094
499.6844972214253
508.8043746516886
540.1440745420565
499.7921614284982
498.747415213695
503.8614444934259
527.2728006109628
508.5959504709164
510.1518095056011
503.3877043959953
500.6058097073885
472.0537199203751
506.8430330466413
504.1343846784862
501.2881106386658
476.2277509181639
507.2301336713022
506.1116361018869
502.3213966278517
516.0002766671012
520.4817844670706
510.559502366481
503.0032338140985
503.29207748481
524.1798366185666
586.0091047780227
618.7509425492398
504.0962479704335
522.8680290852267
571.3717000847685
602.0833103259858
504.2392888471129
517.6520016749622
554.6858063041891
579.6289880229536
502.7793475046403
511.0950127775969
535.155084448885
548.5636055316779
626.8629900064645
583.3560918657112
517.6532900063307
501.9923607784913
627.6507936673769
575.4788809836464
511.358984967485
501.1295972069034
625.6209385796699
562.2658295083178
506.6734971574516
500.6128834124017
622.5269339094199
548.479166844072
503.5450699588515
500.2948771319336
500.0043660032676
500.2777934128659
510.4890289422428
597.0621907009381
500.0165717642591
500.3680415590278
515.7556810874394
604.6026127419955
500.0492688194836
500.7878464193489
524.5763567187602
613.3260500672151
500.1321800648177
501.7432255790832
535.4294195831358
618.360966626977
500.0104288437481
500.0377866485425
500.0915301930049
500.1402778655486
500.4385407161175
500.6593139856863
500.9772249829768
501.1732134936629
505.9528743665289
504.5194323545619
505.2576265765849
506.1983063696667
554.1935006098186
516.821955654299
508.848273586301
510.1616212331788
500.1934067784902
501.3292027571507
506.9031987041624
510.7217467832436
500.2372033911444
501.434051275214
507.7084954619872
511.3727107301089
500.2589410023452
501.3666666713938
508.2401191416225
512.6210865707228
500.2429459101778
501.2034221644086
508.6349192072178
513.8677346118305
500.0223376684164
500.2664957782985
506.4077959191106
520.8509264426972
500.0593996243088
500.5116963583031
507.6702591544864
517.1187614666778
500.1217164708629
500.7821663311748
508.635045237015
515.9455961543871
500.1955571694489
501.0200577603257
508.8120697091726
514.9081953431792
528.841794769718
503.419451356744
500.0699009960069
500.0061400639125
528.6507043895202
502.510652201954
500.0412436596869
500.0019555907128
526.8815022621889
501.7177296659408
500.0173107461724
500.0005954689478
523.9448208943514
500.9668887162537
500.005790713337
500.0001263258212
521.4913925932121
500.1660463775749
500.0005685671941
500.0000242840812
519.2673787359676
500.3191118761964
500.0003546673748
499.9999995338245
514.6556706749514
500.1464566444364
500.0000116568725
500.0000000010937
509.2055888560662
500.075067106193
500.0000007937008
499.9999999963862
500.0000000000001
500.0000000275649
500.0016193071855
500.7412592150329
500
500.0000000093877
500.0032939185899
501.3968847343373
500.0000000000417
500.0000001541974
500.0088172253804
502.5685952132022
500.0000000002274
500.0000000408768
500.0253803060411
504.489356062131
501.5652175841682
502.8668691157726
505.2771779190552
511.9640132583807
502.866869115976
504.6095386179161
509.3958700781861
520.2878925184707
505.2771779191721
509.3958700781544
518.4073155796399
533.3014931203066
511.9640132584115
520.2878925185016
533.3014931204998
550.981178205514
570.1355964668165
555.5380785134112
547.3093277671084
533.9742075664141
567.3309583093938
562.8765822793998
561.1828821044835
554.4086271604906
567.9038191046245
566.3568168064063
565.0783201284283
562.2534200569935
566.2345141365023
565.5966834345678
565.1180437915318
563.6732606584882
561.6242897644854
561.10704488854
558.9773485047427
554.5716139381063
562.6184044345225
560.9461525150564
558.5427689980582
554.465052525348
562.8623724205095
560.8780754713869
558.349640777937
554.6041194816468
563.3609369100863
560.9546304080641
558.3436488031912
549.6532810448997
515.2191572457668
497.000301888901
496.4306936779059
497.7986639658993
503.8091476667763
492.8423866974716
496.3926875718242
498.3317178411298
491.9101701350186
492.7232681046305
497.4536661081518
499.7671632598447
470.0081192544187
487.5782139329652
495.741895485985
498.3046295593734
498.9830926710715
500.1182417853551
501.092882966429
502.1152633176466
499.5121941832236
500.9221834706368
502.0588728129816
503.1889955501893
500.7645822787986
502.0213945997968
502.770643432046
504.1477346408605
499.6778950715034
501.3639310377174
503.2587354848545
504.5204061994301
503.0417965179398
508.1827415617775
559.7820273815657
621.9683958512032
504.1260807644446
512.7093143526122
574.376770944187
626.274091218431
505.0861771329409
516.6181514106213
585.6148757722151
625.3939282010083
505.3501624299
518.781260108903
594.2634795598617
629.0940653812112
671.7357177898144
661.9425403768853
658.4563888965948
655.8679836031016
680.3614289856769
668.6822804117897
662.2303330478205
658.0496797239913
686.4496593015147
675.6463825515439
666.3517329597998
659.4559809581992
685.7821811145653
679.730122951107
669.654283905646
660.8205857567531
658.4811042901089
657.9400003470683
655.375415694733
650.5460568944492
660.1330839126286
659.9819858732069
657.0174384904246
651.1549905099087
660.8817538587214
660.5486459819365
658.2712715307596
652.3850189809845
662.0059793441765
662.3086079989337
658.344172615505
651.6752290771094
635.5936099336127
617.6047050969146
597.0386424920091
572.7613687656625
636.343041355923
617.2293168271026
596.3277640999613
599.0637057144245
637.7461712031608
619.8987019240046
606.0580004227365
626.5889386725158
637.9837163393339
625.2980605355759
621.8514926800453
611.6344557068622
531.9241780091635
455.989873849212
337.6682236357033
325.6244085686867
516.1954377384959
414.0681477442563
280.1581842106099
257.6998001277083
475.7406061983318
354.7631584358755
252.5047617130358
239.9429124677677
376.0135315281684
279.3036200927716
242.347773861193
235.682328094348
380.3651037598391
423.1831302580979
452.6835033193875
467.1565841792702
314.9511968815188
374.8324918703485
417.1883919706518
445.6650905090369
287.2795201456025
344.6990128518788
390.3834982026621
429.7074909145991
284.4334999987212
343.7446804028051
395.3054220454026
433.9798692339224
505.897553060569
479.6838761199965
450.3063091150827
435.106417904788
484.1875459978377
480.54208174925
460.3045001175317
446.7557873785664
457.4142680386909
474.3630011281963
468.6994291615416
470.5978823683148
437.9394780011043
463.2097637668757
472.4381345742572
497.0889421674399
419.0291087099007
424.1325653232927
436.244623173531
433.0489064923935
412.9614676308281
418.0957531559144
433.3768183448214
427.0444539570353
418.7576430690927
419.0052436260092
430.9912714818371
417.5802584940446
399.7904397835176
402.8943849052621
410.3733961300969
397.5331595409258
382.9487920500804
376.8686852675156
377.217700477149
378.946006711823
399.4132474436894
388.1101960813216
385.3964400211221
386.5579026318795
415.2470896574109
404.0625863197594
397.403798127771
395.4477484351903
426.4616116597893
416.018955870062
406.465017733735
400.6699049577924
378.9460067118252
386.5579026318844
395.4477484352223
400.6699049578228
377.2177004771081
385.3964400210987
397.4037981277846
406.4650177337896
376.8686852674293
388.1101960812276
404.0625863197134
416.018955870167
382.9487920499395
399.413247443549
415.2470896572963
426.461611659839
433.0489064923499
436.2446231734128
424.1325653231117
419.0291087097077
427.0444539569195
433.376818344733
418.0957531558417
412.9614676307737
417.5802584939333
430.9912714817659
419.0052436259189
418.7576430690276
397.5331595407859
410.3733961299986
402.8943849051822
399.7904397834008
497.088942167329
472.4381345740908
463.2097637666795
437.9394780013772
470.5978823682582
468.6994291614703
474.3630011279592
457.4142680386871
446.7557873785138
460.3045001176058
480.5420817490365
484.1875459974732
435.1064179047042
450.306309115269
479.6838761198428
505.8975530598631
467.1565841798493
452.6835033200508
423.1831302586971
380.3651037599379
445.6650905096672
417.1883919716757
374.8324918713249
314.9511968818521
429.7074909152574
390.383498203699
344.6990128528438
287.2795201460269
433.9798692344412
395.3054220464119
343.7446804039428
284.4334999993141
325.6244085689712
337.6682236347008
455.9898738491415
531.9241780093188
257.6998001278466
280.1581842101365
414.0681477442189
516.1954377385731
239.9429124679145
252.5047617128553
354.7631584361351
475.7406061985942
235.6823280944897
242.3477738611373
279.3036200930526
376.0135315286185
572.7613687659708
597.0386424924443
617.6047050973056
635.5936099338492
599.0637057147244
596.3277641003546
617.2293168274846
636.3430413562222
626.5889386727604
606.0580004230978
619.8987019242925
637.7461712034288
611.6344557072389
621.851492680423
625.2980605359301
637.9837163396357
650.5460568946487
655.3754156948791
657.9400003468894
658.4811042902591
651.1549905102146
657.0174384905321
659.9819858729689
660.1330839126932
652.3850189813139
658.2712715308189
660.5486459818194
660.8817538586163
651.6752290774019
658.3441726154559
662.308607998816
662.0059793438594
655.8679836028448
658.4563888965851
661.9425403765828
671.7357177896538
658.0496797235398
662.2303330476942
668.6822804113565
680.3614289854803
659.4559809574864
666.3517329596115
675.6463825510079
686.4496593012038
660.8205857559637
669.6542839054235
679.730122950538
685.7821811142394
621.968395850986
559.7820273813953
508.1827415618604
503.041796518141
626.2740912182123
574.3767709439751
512.7093143526271
504.1260807646703
625.3939282007626
585.6148757719968
516.6181514105826
505.0861771331786
629.0940653809482
594.2634795596817
518.7812601088448
505.3501624301298
502.1152633180398
501.0928829664033
500.1182417848125
498.9830926709996
503.1889955506715
502.0588728128167
500.9221834700213
499.5121941831078
504.147734641415
502.7706434319127
502.0213945991347
500.7645822786473
504.5204062000008
503.2587354846853
501.3639310370452
499.677895071337
497.7986639654421
496.430693677191
497.0003018892264
515.2191572460873
498.3317178405251
496.3926875715022
492.8423866977403
503.8091476670953
499.7671632591549
497.4536661079106
492.7232681048907
491.9101701352255
498.3046295586385
495.741895485733
487.5782139332204
470.0081192546333
554.5716139381975
558.9773485049205
561.107044888967
561.6242897646896
554.4650525253935
558.5427689982425
560.9461525154685
562.6184044346554
554.6041194816503
558.3496407780846
560.8780754717573
562.8623724206121
549.6532810449584
558.3436488033656
560.9546304084197
563.3609369101947
563.6732606583649
562.2534200569622
554.408627160634
533.9742075665757
565.1180437914352
565.0783201284103
561.1828821045218
547.309327767131
565.5966834345261
566.3568168063451
562.8765822793044
555.5380785132947
566.2345141364991
567.9038191045368
567.3309583092498
570.1355964665671
467.1641242201634
493.1968265199727
499.4919876464546
499.9906695367941
458.5957026658903
491.1005241793808
499.2519611543652
499.984000927719
458.5693601525231
490.1664178999001
499.1394656966327
499.9803323322137
461.4853589522288
490.1765343032741
499.1180595749656
499.9782780071662
499.9565248291225
499.1126584464021
494.6341093779347
472.3412837116308
499.9650439695462
499.1540981192295
493.7718263261186
472.8595235819899
499.9723100005273
499.1683213269926
492.6024489865814
471.2304438439441
499.9758296969932
499.1357221982111
491.3138767464559
468.5178479808558
499.9782780069261
499.9803323320268
499.9840009278757
499.9906695369057
499.1180595748362
499.1394656964055
499.2519611538656
499.4919876465247
490.1765343032424
490.1664179000286
491.100524179723
493.1968265202497
461.4853589520922
458.5693601522886
458.595702665652
467.1641242199417
)
;

boundaryField
{
    back
    {
        type            empty;
    }
    inlet
    {
        type            zeroGradient;
    }
    front
    {
        type            empty;
    }
    top
    {
        type            zeroGradient;
    }
    outlet
    {
        type            fixedValue;
        value           uniform 500;
    }
    bottom
    {
        type            zeroGradient;
    }
    wall
    {
        type            zeroGradient;
    }
}


// ************************************************************************* //
