/*--------------------------------*- C++ -*----------------------------------*\
  =========                 |
  \\      /  F ield         | OpenFOAM: The Open Source CFD Toolbox
   \\    /   O peration     | Website:  https://openfoam.org
    \\  /    A nd           | Version:  11
     \\/     M anipulation  |
\*---------------------------------------------------------------------------*/
FoamFile
{
    format      ascii;
    class       surfaceScalarField;
    location    "7.4";
    object      phi;
}
// * * * * * * * * * * * * * * * * * * * * * * * * * * * * * * * * * * * * * //

dimensions      [0 3 -1 0 0 0 0];

internalField   nonuniform List<scalar> 
8667
(
15.889849
1.8577969
0.030132085
13.992023
1.7560265
0.14179896
12.090819
1.6409362
0.26026822
10.198233
1.4362601
0.45632576
8.3190013
1.2478272
0.63140455
6.4495299
0.97087105
0.89860034
4.6193017
0.65367466
1.1765535
2.8357714
0.23317497
1.5503554
-0.5248781
2.2330208
1.1276287
15.891388
3.7441867
13.988744
3.6586711
12.084749
3.5449306
10.185918
3.3350912
8.299701
3.1340444
6.4337097
2.8368624
4.5960684
2.4913159
2.8399096
1.9893338
1.1805548
1.1344767
15.888163
5.6338019
13.986466
5.5603678
12.080245
5.4511514
10.174308
5.2410285
8.2788356
5.029517
6.4159324
4.6997657
4.5825287
4.3247196
2.8214241
3.7504384
2.8940768
1.1079021
15.890242
7.521338
13.984449
7.4661605
12.075464
7.3601365
10.165584
7.1509089
8.2661152
6.9289854
6.3968054
6.5690755
4.5569071
6.1646179
2.8127898
5.4945557
4.578461
1.1284055
15.888639
9.4104746
13.986862
9.3679378
12.073114
9.2738846
10.159424
9.0645991
8.2544076
8.8340016
6.3801842
8.4432989
4.5336621
8.01114
2.801359
7.2268589
6.2505179
1.1293021
15.887481
11.300771
13.986166
11.269253
12.074482
11.185568
10.154526
10.984555
8.2462291
10.742299
6.3600756
10.329452
4.5093948
9.8618208
2.7856033
8.9506503
7.9030613
1.1330599
15.886131
13.192418
13.986397
13.168987
12.075522
13.096444
10.154385
12.905692
8.2382169
12.658467
6.3450037
12.222666
4.4826636
11.724161
2.7667514
10.666562
9.5351777
1.1346351
15.885365
15.084831
13.986234
15.068118
12.07773
15.004948
10.152146
14.831275
8.2314225
14.579191
6.3317406
14.122348
4.4604422
13.595459
2.7380244
12.38898
11.137886
1.1353162
15.885498
16.977111
13.986693
16.966923
12.079679
16.911962
10.156914
16.754041
8.2242567
16.511848
6.3182053
16.028399
4.434535
15.47913
2.7144578
14.109057
12.722608
1.1297354
18.806945
15.947944
20.634928
15.949795
22.4603
15.952412
24.282531
15.955549
26.10166
15.958631
27.91729
15.96215
29.730311
15.964759
31.53852
15.969572
15.968968
33.347332
18.804489
14.110378
20.64176
14.112524
22.477918
14.116254
24.311815
14.121652
26.142771
14.127675
27.969687
14.135233
29.793342
14.141105
31.614389
14.148525
14.152035
33.431322
18.756681
12.265659
20.60262
12.266585
22.449417
12.269456
24.297205
12.273864
26.144473
12.280407
27.992512
12.287195
29.838111
12.295505
31.682862
12.303774
12.313761
33.521136
18.610877
10.408823
20.469177
10.408286
22.32898
10.409653
24.191468
10.411376
26.052981
10.418893
27.917062
10.423114
29.777505
10.435062
31.640835
10.440444
10.453221
33.501375
18.38069
8.5399805
20.257081
8.5318945
22.135585
8.5311497
24.019931
8.5270304
25.904799
8.534025
27.79561
8.5323035
29.686443
8.544229
31.582093
8.544794
8.5542677
33.481046
17.870348
6.6980317
19.726571
6.6756711
21.595431
6.6622898
23.478086
6.6443757
25.371773
6.6403376
27.274292
6.6297849
29.183614
6.6349069
31.096025
6.6323829
6.6412459
33.009047
17.290326
4.8868354
19.126219
4.8397775
20.986016
4.8024931
22.88294
4.7474522
24.807119
4.7161583
26.758328
4.6785756
28.730929
4.6623059
30.721417
4.6418956
4.6373589
32.725304
15.745063
3.2508302
17.477054
3.1077865
19.281593
2.9979538
21.161864
2.8671808
23.087511
2.7905116
25.066788
2.6992987
27.067573
2.6615208
29.101722
2.6077465
2.5991639
31.139917
14.17229
1.8011485
15.897751
1.3823251
18.003234
0.89247099
20.283976
0.58643946
22.626211
0.4482763
25.015536
0.30997371
27.397874
0.27918282
29.784666
0.22095417
32.166165
0.2176645
33.234955
0.11237681
33.124876
0.11007975
33.015789
0.10908659
32.909373
0.10641575
32.803522
0.1058515
32.700256
0.1032654
32.598133
0.10212392
32.497868
0.10026468
0.096462127
32.401406
33.328888
0.21481075
33.227519
0.21144788
33.127491
0.20911536
33.027861
0.20604534
32.930664
0.20304827
32.833983
0.19994684
32.740627
0.19548013
32.647953
0.19293838
0.18557472
32.55884
33.413422
0.3225244
33.306243
0.31862728
33.200422
0.31493641
33.094054
0.31241318
32.989965
0.30713713
32.888176
0.30173595
32.787972
0.2956835
32.692828
0.28808258
0.28039509
32.598008
33.396226
0.42767298
33.294513
0.42034
33.195585
0.41386468
33.100295
0.40770325
33.006904
0.40052828
32.91909
0.38954953
32.83282
0.38195336
32.754111
0.36679206
0.35785998
32.676646
33.368245
0.54047433
33.260843
0.52774184
33.15718
0.51752715
33.058457
0.50642686
32.962761
0.49622376
32.872806
0.47950476
32.786544
0.46821572
32.706122
0.4472136
0.43611089
32.627871
32.919097
0.63042424
32.839078
0.60776117
32.765236
0.59136861
32.701127
0.57053582
32.642324
0.55502671
32.593852
0.52797748
32.549501
0.5125665
32.513097
0.4836175
0.47173218
32.477476
32.672592
0.68313551
32.634176
0.64617775
32.598858
0.62668593
32.575115
0.59427877
32.552479
0.57766342
32.533927
0.5465287
32.513159
0.5333348
32.49236
0.50441709
0.49732798
32.466764
31.26787
0.55518227
31.402537
0.51151075
31.54807
0.48115294
31.692803
0.44954586
31.848621
0.42184611
31.994232
0.40091721
32.132322
0.39524439
32.242805
0.39393461
0.41571318
32.32442
32.556552
0.16479555
32.891348
0.17671543
33.189562
0.18293887
33.425837
0.21327048
33.602757
0.24492583
33.697105
0.30656933
33.727509
0.36484041
33.666004
0.45543969
33.570477
0.51124032
33.532315
0.50287152
-0.46470926
33.349065
0.48752361
-0.30427376
33.087139
0.46853834
-0.20661287
32.809078
0.45561966
-0.1775588
32.508547
0.44898769
-0.14845596
32.208146
0.43523426
-0.13483409
31.905028
0.43246727
-0.12934896
31.58798
0.42906458
-0.11201681
0.4244718
31.278103
-0.11459477
32.4702
0.3570912
32.581803
0.37592076
32.658673
0.39166875
32.710318
0.40397388
32.741512
0.41779376
32.749111
0.4276355
32.742314
0.43926448
32.718343
0.45303593
0.46703257
32.675782
32.544893
0.27896242
32.623766
0.29704724
32.693991
0.32144432
32.760139
0.33782539
32.815681
0.36225197
32.863695
0.37962112
32.898304
0.4046556
32.92837
0.42296992
0.44913626
32.946266
32.557493
0.19894495
32.641093
0.21344778
32.725557
0.23698035
32.811891
0.25149052
32.89754
0.27660295
32.985105
0.29205613
33.069603
0.32015781
33.154802
0.33777099
0.36958501
33.234353
32.673585
0.15323144
32.722964
0.16406823
32.775649
0.18429569
32.831695
0.19544421
32.891213
0.21708495
32.954583
0.2286862
33.021049
0.25369177
33.091925
0.26689565
0.29641785
33.165092
32.727461
0.10241683
32.778939
0.11259007
32.838438
0.12479619
32.897116
0.13676612
32.963892
0.15030967
33.028273
0.16430501
33.102146
0.17981842
33.173788
0.19525392
0.21581578
33.25439
32.637223
0.063201236
32.675807
0.074006173
32.72519
0.075413261
32.77351
0.088446133
32.833697
0.09012272
32.891573
0.10642956
32.962897
0.10849424
33.030758
0.12739305
0.13260307
33.11397
32.592873
0.029168399
32.632391
0.03448834
32.671934
0.035870278
32.718199
0.042180985
32.765568
0.042754277
32.821496
0.050501455
32.878901
0.051088943
32.945727
0.060567481
0.061548177
33.016782
32.430574
32.465062
32.500933
32.543114
32.585868
32.636369
32.687458
32.748026
32.809574
32.882681
-0.073106555
32.956569
-0.073888097
33.043544
-0.086975296
33.132802
-0.089258092
33.235499
-0.1026974
33.34318
-0.10768074
33.463924
-0.1207442
33.594416
-0.13049202
-0.13932384
33.73374
33.093935
-0.15026042
33.181747
-0.1616995
33.272597
-0.1778256
33.376141
-0.19280225
33.481505
-0.20806142
33.601763
-0.22793814
33.723946
-0.2429277
33.863278
-0.26982364
-0.27866412
34.002618
33.192084
-0.22837379
33.287345
-0.25696067
33.376375
-0.26685511
33.483222
-0.29964953
33.584724
-0.30956341
33.704617
-0.34783183
33.819329
-0.35763929
33.951402
-0.40189632
-0.41141794
34.084156
33.3368
-0.31078411
33.424495
-0.34465551
33.517447
-0.35980661
33.615483
-0.39768569
33.719767
-0.41384744
33.828587
-0.4566521
33.945214
-0.47426572
34.066475
-0.52315748
-0.54264256
34.197699
33.243441
-0.38913321
33.322977
-0.42419153
33.408501
-0.44533043
33.494237
-0.48342237
33.587185
-0.50679468
33.679998
-0.54946561
33.781394
-0.57566198
33.88305
-0.62481353
-0.65426714
33.994675
33.314135
-0.46891478
33.386386
-0.49644287
33.460577
-0.51952095
33.527377
-0.55022227
33.598142
-0.57756005
33.662537
-0.61386099
33.733658
-0.64678295
33.800151
-0.69130663
-0.73027597
33.87616
32.960999
-0.48364776
32.968322
-0.50376588
32.972483
-0.52368191
32.968924
-0.5466627
32.971651
-0.58028702
32.963367
-0.6055771
32.95933
-0.64274599
32.95856
-0.69053697
-0.7348522
32.963137
32.629932
-0.43779803
32.566727
-0.4405604
32.491329
-0.4482841
32.416265
-0.4715989
32.330083
-0.49410507
32.230248
-0.50574167
32.136803
-0.54930175
32.032586
-0.58631939
-0.6273794
31.925113
30.962432
-0.12212635
30.643532
-0.12166111
30.338181
-0.14293247
30.024415
-0.15783316
29.696945
-0.16663471
29.41352
-0.22231685
29.095069
-0.23085062
28.785239
-0.27648994
28.530657
-0.372797
0.69592879
28.209332
-0.37460389
0.7858154
31.835226
0.78748033
32.961472
0.71200196
33.951639
0.59948894
34.107188
0.46317527
34.334013
0.31741684
34.229914
0.15740733
34.162628
33.891148
0.77568958
27.909258
-0.47561522
0.85111656
31.759799
0.83069527
32.981893
0.74464876
34.037685
0.62070375
34.231133
0.47260237
34.482114
0.32200957
34.380507
0.16200145
34.322636
34.053149
0.83815223
27.703259
-0.63215307
0.91828875
31.679663
0.90387409
32.996308
0.81275943
34.1288
0.68674182
34.357151
0.53289165
34.635964
0.36863385
34.544765
0.18555133
34.505718
34.2387
0.95558759
27.439297
-0.69162562
0.98281807
31.652432
0.95235492
33.026771
0.84743511
34.23372
0.70833932
34.496246
0.54115047
34.803153
0.3722211
34.713694
0.19088467
34.687055
34.429585
1.0850693
27.301336
-0.94710892
1.0713715
31.66613
1.0401401
33.058002
0.92693917
34.346921
0.78359953
34.639586
0.60893946
34.977813
0.42371444
34.898919
0.21668448
34.894085
34.64627
1.229141
27.494512
-1.4223171
1.165859
31.729412
1.0912975
33.132564
0.96126965
34.476948
0.80398406
34.796872
0.61520474
35.166593
0.42638655
35.087737
0.22325558
35.097216
34.869525
1.3796262
27.510113
-1.3952267
1.2605883
31.84845
1.1990243
33.194128
1.0534557
34.622517
0.88841424
34.961913
0.69116525
35.363842
0.48328891
35.295614
0.25046566
35.330039
35.119991
1.5033316
27.342179
-1.335398
1.3372862
32.014496
1.2470686
33.284345
1.0854258
34.78416
0.90486379
35.142475
0.69296292
35.575743
0.48327668
35.5053
0.25705328
35.556262
35.377044
1.5642749
26.616673
-0.83876832
1.4612225
32.117548
1.3682489
33.377319
1.1962389
34.95617
1.0040374
35.334677
0.77924945
35.80053
0.54630166
35.738248
0.28582032
35.816744
35.662864
0.069841911
35.593022
0.19253769
35.694048
0.3196467
35.611139
0.4394553
35.680722
0.55666154
35.21747
0.66554205
34.847289
0.78182301
33.261038
0.78910858
32.110262
26.507013
0.89876819
0.056275922
35.536747
0.14637215
35.603952
0.24702236
35.510488
0.3620374
35.565707
0.46803417
35.111474
0.57676115
34.738562
0.70409567
33.133703
0.88628205
31.928076
26.349486
1.0438093
0.057214151
35.479532
0.16744463
35.493721
0.28111121
35.396822
0.39094151
35.455877
0.48965353
35.012762
0.59181532
34.636401
0.69717573
33.028343
0.949383
31.675869
26.275853
1.023016
0.043427994
35.436104
0.12152444
35.415625
0.2083914
35.309955
0.3133109
35.350957
0.40022523
34.925847
0.49821749
34.538408
0.60478878
32.921772
0.92665165
31.354006
26.1602
1.042304
0.050648566
35.385456
0.15411737
35.312156
0.25556697
35.208505
0.35728188
35.249242
0.43983585
34.843293
0.51800838
34.460236
0.59484632
32.844934
0.91411082
31.034741
26.133643
0.94066858
0.035024375
35.350431
0.10676209
35.240418
0.18643476
35.128833
0.28479394
35.150883
0.35865454
34.769433
0.43372218
34.385168
0.49823515
32.780421
0.86114551
30.671831
26.025362
0.96942672
0.046787671
35.303644
0.14852297
35.138683
0.24695436
35.030401
0.34392919
35.053908
0.40823809
34.705124
0.46113657
34.33227
0.49521394
32.746343
0.78181232
30.385233
26.015862
0.79131187
0.03823937
35.265404
0.10897281
35.067949
0.18532447
34.954049
0.2852421
34.95399
0.35118743
34.639178
0.40670618
34.276751
0.39509316
32.757956
0.60941779
30.170908
25.907808
0.71747181
0.051612054
35.213792
0.15858561
34.960976
0.25946163
34.853173
0.35678068
34.856671
0.40960764
34.586351
0.44495951
34.241399
0.4181436
32.784772
0.51289646
30.076155
25.9223
0.49840485
-0.37569643
25.836505
0.46149064
-0.3349438
30.035403
-0.41999452
32.869823
-0.37804174
34.199446
-0.31465817
34.522968
-0.20949801
34.751511
-0.1250186
34.768694
-0.04622527
34.882183
35.167567
-0.35114005
25.848126
0.33951905
-0.39521353
30.079476
-0.47614912
32.950759
-0.45154227
34.174839
-0.40103532
34.472461
-0.29412436
34.6446
-0.18684281
34.661412
-0.067836198
34.763176
35.099731
-0.28795302
25.780308
0.3557718
-0.35710696
30.14863
-0.48273137
33.076383
-0.45099466
34.143103
-0.38652078
34.407987
-0.26286186
34.520941
-0.16104406
34.559595
-0.06575196
34.667884
35.033979
-0.32250972
25.819445
0.28337224
-0.45290669
30.279027
-0.56694915
33.190425
-0.54603268
34.122186
-0.47697367
34.338928
-0.35211104
34.396079
-0.22861957
34.436103
-0.09017735
34.529442
34.943802
-0.30997598
25.787929
0.34149207
-0.45935995
30.428411
-0.60677684
33.337842
-0.57300106
34.088411
-0.49057553
34.256503
-0.34100564
34.246509
-0.20823189
34.303329
-0.088420582
34.40963
34.855381
-0.37400459
25.879535
0.28239876
-0.58581087
30.640217
-0.7225216
33.474553
-0.68998682
34.055876
-0.58853698
34.155053
-0.43006182
34.088034
-0.28259438
34.155862
-0.11948266
34.246519
34.735898
-0.38738171
25.920425
0.34649203
-0.63362858
30.886464
-0.80608362
33.647008
-0.74470877
33.994501
-0.62865552
34.038999
-0.43844683
33.897825
-0.26255021
33.979965
-0.11171655
34.095685
34.624182
-0.48623242
26.120451
0.28620625
-0.79511698
31.195349
-0.94678105
33.798672
-0.87473174
33.922452
-0.72564281
33.889911
-0.52357088
33.695753
-0.34027726
33.796672
-0.14728653
33.902694
34.476895
-0.53681276
26.309518
0.34774534
-0.89096426
31.5495
-1.0682612
33.975969
-0.95517791
33.809368
-0.78196181
33.716694
-0.53809221
33.451884
-0.31864394
33.577223
-0.13477596
33.718826
34.342119
0.28780806
34.054311
0.62449147
33.382143
0.95242814
33.249287
1.3160672
33.088245
1.6273758
33.405386
1.8373017
33.599442
1.7117486
34.101522
1.1307884
32.13046
26.988771
0.45153515
0.27010854
33.784203
0.60049222
33.051759
0.97301607
32.876763
1.3891574
32.672103
1.7553766
33.039167
2.0498777
33.304941
1.946023
34.205377
1.3320913
32.744392
27.751004
0.56985809
0.29995963
33.484243
0.66636584
32.685353
1.0441434
32.498985
1.4774025
32.238844
1.8935165
32.623053
2.2365263
32.961931
2.2924532
34.14945
1.6712321
33.365613
28.976718
0.44551861
0.27805698
33.206186
0.63524819
32.328162
1.050987
32.083247
1.5351682
31.754663
2.002912
32.155309
2.4490857
32.515758
2.5851309
34.013405
2.0977154
33.853029
30.49003
0.58440312
0.30015315
32.906033
0.68462102
31.943694
1.0955642
31.672303
1.5891155
31.261112
2.1083386
31.636086
2.6276967
31.9964
2.9669149
33.674187
2.6005737
34.21937
32.350429
0.74017464
0.26614944
32.639883
0.63405797
31.575785
1.0848111
31.22155
1.6224227
30.7235
2.1882517
31.070257
2.7920484
31.392603
3.2465118
33.219723
3.1556958
34.310186
34.339255
1.1668705
0.2882065
32.351677
0.67357831
31.190413
1.1009642
30.794164
1.6374682
30.186996
2.2543759
30.453349
2.9096275
30.737351
3.5502981
32.579053
3.7170992
34.143385
35.710403
2.3459506
0.24851531
32.103162
0.60508601
30.833843
1.07141
30.32784
1.6288798
29.629526
2.2736422
29.808587
2.9976658
30.013328
3.6909329
31.885786
4.245346
33.588972
36.834592
3.1211578
0.28415175
31.81901
0.63572223
30.482272
1.0658214
29.897741
1.6075506
29.087797
2.2790331
29.137104
3.0667647
29.225596
3.9754519
30.977098
5.0372296
32.527194
37.477641
4.3941798
-1.3715224
33.190532
-2.4848249
31.595575
-3.4549891
30.867905
-4.3119954
29.944803
-5.1306848
29.955793
-6.0681652
30.163076
-7.4268569
32.33579
-9.6261346
34.726472
40.15778
-12.306274
-1.3798511
34.570383
-2.5375575
32.753281
-3.5264088
31.856757
-4.3557949
30.774189
-5.1366699
30.736668
-6.0711156
31.097522
-7.5720425
33.836717
-9.7482299
36.902659
41.565176
-11.155626
-1.4761363
36.04652
-2.6291767
33.906322
-3.5983597
32.82594
-4.3993319
31.575162
-5.151019
31.488356
-6.0886067
32.03511
-7.6919565
35.440067
-9.4661305
38.676833
38.105584
-6.0065383
-1.5050586
37.551578
-2.6846791
35.085942
-3.6793229
33.820583
-4.4366638
32.332503
-5.152008
32.2037
-6.0654976
32.948599
-7.6155154
36.990085
-8.9258047
39.987122
29.991264
-0.81148467
-1.592604
39.144182
-2.7949427
36.288281
-3.7755618
34.801202
-4.492004
33.048945
-5.1446595
32.856355
-6.0069689
33.810909
-7.400914
38.38403
-8.288327
40.874535
21.732624
-0.029686781
-1.6063709
40.750553
-2.8655868
37.547497
-3.8779078
35.813523
-4.5434331
33.71447
-5.1307097
33.443632
-5.9292603
34.609459
-7.0740715
39.528841
-7.4525104
41.252974
14.259476
0.020637744
-1.6937933
42.444346
-2.9753774
38.829081
-3.9792483
36.817394
-4.602995
34.338217
-5.0964916
33.937128
-5.7582896
35.271257
-6.7723083
40.54286
-6.7421251
41.222791
7.4983533
0.018997209
-1.731655
44.176001
-3.0601561
40.157582
-4.1106878
37.867926
-4.6860234
34.913552
-5.0706974
34.321803
-5.5648992
35.765459
-6.4094615
41.387422
-5.1262302
39.93956
1.5553591
0.81676407
-1.8013032
45.977305
-3.1768156
41.533094
-4.2263227
38.917433
-4.7608136
35.448043
-4.9979249
34.558914
-5.249125
36.016659
-5.717837
41.856134
-2.1544616
36.376184
-2.6359568
2.0368543
0.89403334
-4.4229578
0.89296766
2.5468334
34.723384
2.4124556
41.990512
2.7287289
35.700386
3.0103683
34.277274
2.8892364
35.569175
2.2323441
39.574325
1.2625841
42.502854
47.239889
0.80696938
-5.8485178
0.61859061
2.2900296
33.240324
2.2431824
42.037359
2.7664052
35.177163
3.1356742
33.908005
2.9979184
35.706931
2.3224973
40.249746
1.3116348
43.513717
48.551524
0.60980099
-7.1030606
0.64474185
2.0201108
31.830014
2.1037512
41.953719
2.7432033
34.537711
3.2406427
33.410566
3.1062883
35.841285
2.3695196
40.986515
1.3082603
44.574976
49.859784
0.47032133
-8.256276
0.68289408
1.7227237
30.577612
1.9372453
41.739197
2.817441
33.657515
3.3934863
32.834521
3.221395
36.013377
2.4574877
41.750423
1.3305119
45.701952
51.190296
0.35092208
-9.2790939
0.67189583
1.4985781
29.429956
1.7986762
41.439099
2.8200619
32.63613
3.5074034
32.147179
3.323592
36.197188
2.4803911
42.593623
1.2859783
46.896365
52.476274
0.17289303
-10.139343
0.68735575
1.1880885
28.41476
1.6668301
40.960357
2.9233564
31.379603
3.6682108
31.402325
3.4304562
36.434942
2.5491857
43.474894
1.3025217
48.143029
53.778796
-0.055084426
-10.809416
0.72515787
0.93596514
27.423711
1.4828823
40.41344
2.8878623
29.974623
3.7792257
30.510961
3.5224881
36.69168
2.551165
44.446217
1.2612938
49.4329
55.040089
-0.28790967
-10.053057
-0.46844974
0.60938276
26.526418
1.3391633
39.68366
3.0251776
28.288609
3.9559757
29.580163
3.6107721
37.036884
2.600129
45.45686
1.23957
50.793459
56.279659
-0.57709782
-9.153597
-0.32236172
0.2598458
25.689474
1.096301
38.847204
2.9390639
26.445846
4.0436342
28.475593
3.6973571
37.383161
2.5765561
46.577661
1.1645083
52.205507
57.444168
-2.5793096
-7.0610016
0.48671425
-5.1209638
28.231129
-2.3244994
36.05074
3.8606647
20.260682
6.2037511
26.132507
5.2675454
38.319366
3.3779624
48.467244
1.1397647
54.443704
58.583933
-3.5236019
-2.2947501
-1.2426496
-5.6674909
30.375018
-1.2031776
31.586426
5.3101026
13.747402
7.0247325
24.417877
5.2745336
40.069565
2.6831117
51.058666
0.41270845
56.714108
58.996641
-4.2509318
3.9282788
-1.972097
-6.3353481
32.459434
-0.76048954
26.011568
5.9228912
7.0640212
7.1200646
23.220703
4.75575
42.43388
2.1770708
53.637345
0.038378424
58.8528
59.035019
-5.2323575
10.597182
-1.4365459
-6.9404367
34.167513
-0.58236018
19.653491
6.1466374
0.33502365
7.1264678
22.240873
4.1704974
45.38985
1.028004
56.779838
-0.7230113
60.603815
58.312008
-5.9155388
15.881233
0.63148792
-6.5809571
34.832931
0.47000471
12.602529
6.5698105
-5.7647821
6.6371566
22.173527
3.0651299
48.961877
0.32300355
59.521965
-1.0582731
61.985092
57.253735
-6.081393
20.536661
1.4259654
-5.9669638
34.718502
1.6477375
4.9878281
6.9712047
-11.088249
6.2049244
22.939807
2.1926099
52.974191
-0.88114291
62.595718
-1.6456122
62.749561
55.608123
-6.0947811
24.49048
2.1409618
-5.1000899
33.723811
2.7376778
-2.8499397
7.1405758
-15.491147
5.2336424
24.846741
0.76226171
57.445572
-1.6483744
65.006354
-1.7395466
62.840733
53.868576
-6.0200851
27.791744
2.7188214
-3.6569916
31.360718
4.4703789
-10.97731
7.2504754
-18.271244
4.4794588
27.617757
-0.18311074
62.108142
-2.6060025
67.429245
-2.1549143
62.389645
51.713662
-6.0541866
3.537325
30.308606
-2.4745123
27.781043
5.5245763
-18.976399
6.8755825
-19.62225
2.8504902
31.64285
-2.217701
67.176333
-3.4020189
68.613563
-2.0470548
61.034681
49.666607
-0.58144496
-37.823994
0.38053813
38.024901
1.1252094
-11.278983
9.5723291
2.7215263
41.823587
-43.419904
3.5920935
59.955797
-60.826364
3.7221845
65.770401
-65.900492
5.7499142
34.511848
-36.539578
9.0836935
-7.5139028
4.1801234
10.775503
-32.775009
31.083199
-33.915195
32.686878
-0.62537832
-37.580144
0.38152887
0.93392405
-12.838286
2.4847804
40.272731
3.3161589
59.124418
3.5771278
65.509432
6.1409294
31.948047
9.8051071
-11.17808
11.757733
-34.727634
-35.209316
-0.65959268
-37.298032
0.37748037
0.75050914
-14.248388
2.2580131
38.765227
3.0677166
58.314715
3.5838803
64.993269
6.7557096
28.776217
10.742343
-15.164714
12.87391
-36.859201
-36.566982
-0.68076672
-36.976002
0.35873644
0.623358
-15.552512
2.0662371
37.322348
2.784265
57.596687
3.6679956
64.109538
7.5905636
24.853649
11.922607
-19.496757
14.182501
-39.119095
-37.978064
-0.67972918
-36.616037
0.31976429
0.52552431
-16.757766
1.8574742
35.990398
2.465337
56.988824
3.8787672
62.696108
8.6373608
20.095056
13.198748
-24.058144
15.554752
-41.4751
-39.437937
-0.68072228
-36.235884
0.30056904
0.40586623
-17.844354
1.6306396
34.765624
2.1819626
56.437501
4.2621744
60.615896
9.8204393
14.536791
14.504578
-28.742283
16.982382
-43.952903
-40.914597
-0.65568901
-35.867637
0.28744249
0.30882554
-18.808869
1.4151318
33.659318
1.9910734
55.861559
4.8354382
57.771531
11.142183
8.2300462
15.867551
-33.467651
18.378696
-46.464048
-42.374241
-0.63134981
-35.512633
0.27634584
0.24948741
-19.689706
1.2938523
32.614953
1.9343046
55.221107
5.6002896
54.105546
12.610763
1.2195732
17.289569
-38.146457
19.753082
-48.927562
-43.794326
-0.63084022
0.2716813
-35.153474
0.18032452
-20.500871
1.1351656
31.660112
1.8975247
54.458748
6.5387537
49.464317
14.14793
-6.3896032
18.648455
-42.646982
21.028911
-51.308018
-45.150279
0.083492142
31.752811
-5.3412248
-26.495078
-6.0723252
-42.55453
48.710345
-9.7767626
-86.118618
89.823057
-8.7828576
-80.090522
79.096617
-6.0309807
-58.818509
56.066632
-2.6615192
-39.897738
36.528276
1.463735
-29.230178
25.104924
3.2805381
-20.228875
18.412072
-28.983528
32.264066
1.096645
36.370856
-5.7146906
-4.9450355
-36.512849
-8.9894041
-82.07425
-9.0646952
-80.015231
-7.0606599
-60.822544
-4.0026304
-42.955767
-0.22183315
-33.010975
2.8079902
-23.258699
-26.175538
1.6314958
40.340742
-5.6013818
-4.6247691
-30.256584
-8.6242778
-78.074741
-8.8790348
-79.760474
-6.9603062
-62.741273
-4.2054654
-45.710608
-1.7345298
-35.481911
1.0918017
-26.08503
-25.083736
2.3892207
42.836676
-4.8851551
-3.6099654
-24.257398
-7.8936252
-73.791081
-9.0263557
-78.627743
-7.7453126
-64.022316
-5.0169216
-48.438999
-2.4936975
-38.005135
0.76081449
-29.339542
-24.322922
2.589998
43.696198
-3.44952
-3.1202699
-18.54713
-7.2768665
-69.634484
-8.4674379
-77.437172
-7.5306573
-64.959097
-5.5091761
-50.46048
-3.6570408
-39.85727
-0.49274239
-32.503841
-24.815664
3.0185733
42.932502
-2.2548777
-2.1341568
-13.3944
-6.4785848
-65.290056
-8.490269
-75.425488
-7.7545481
-65.694818
-5.5185842
-52.696444
-3.7617888
-41.614066
-0.82795038
-35.437679
-25.643615
3.0937396
40.885875
-1.0471124
-1.5741489
-8.7265119
-5.6080564
-61.256148
-7.5279503
-73.505594
-7.5233986
-65.699369
-5.9396432
-54.280199
-4.0917086
-43.462
-1.6584852
-37.870902
-27.3021
3.2037169
37.710285
-0.028126556
-0.6872836
-4.8355116
-4.7303091
-57.213122
-7.1790664
-71.056836
-7.2922884
-65.586147
-5.8363116
-55.736176
-4.1175733
-45.180738
-1.9066545
-40.081821
-29.208754
3.2093994
35.397805
-0.89691956
0.19007477
-1.8161873
-3.5541886
-53.468859
-5.9868079
-68.624217
-6.7362071
-64.836748
-5.8373058
-56.635077
-4.3068737
-46.711171
-2.4959085
-41.892786
-31.704663
0.34155913
35.818038
-36.159597
0.20169989
42.205385
-42.065526
-0.20676531
44.849728
-44.441263
-1.1078963
50.698207
-49.797076
-2.427158
54.153773
-52.834511
-3.8594776
56.874672
-55.442353
-4.3827113
51.996917
-51.473683
-1.9659365
21.0314
-23.448175
-19.862623
17.33797
0.5587165
0.39884936
35.419188
0.30551253
42.298722
-0.076452424
45.231693
-0.92828061
51.550035
-2.2676774
55.49317
-3.7181138
58.325109
-4.1759578
52.454761
-1.7964854
18.651928
-22.297083
0.63797429
0.42028427
34.998904
0.37371346
42.345293
0.038501367
45.566905
-0.79633542
52.384872
-2.143562
56.840396
-3.6090519
59.790599
-3.9865383
52.832247
-1.5191336
16.184523
-24.673612
0.85739577
0.48189289
34.517011
0.46593436
42.361251
0.17049387
45.862345
-0.6317877
53.187154
-1.9827334
58.191342
-3.4410088
61.248874
-3.763291
53.15453
-1.3299892
13.751221
-26.956158
0.95255681
0.50117918
34.015832
0.52422517
42.338205
0.2745391
46.112031
-0.49814471
53.959838
-1.8506914
59.543889
-3.3269589
62.725141
-3.5627195
53.39029
-1.0721457
11.260647
-29.142792
1.1144881
0.56015401
33.455678
0.60778943
42.29057
0.39666369
46.323157
-0.33246328
54.688965
-1.6752509
60.886676
-3.140998
64.190888
-3.3183069
53.5676
-0.89655337
8.8388931
-31.192874
1.1535285
0.56174724
32.893931
0.65382812
42.198489
0.48842357
46.488562
-0.20821283
55.385601
-1.541507
62.219971
-3.0238963
65.673278
-3.0915424
53.635247
-0.64765381
6.395004
-32.968611
1.1280828
0.601092
32.292839
0.73187262
42.067708
0.60152986
46.618904
-0.04532095
56.032452
-1.3643339
63.538984
-2.8288663
67.13781
-2.8357759
53.642157
-0.50853786
4.0677655
-34.741446
1.264297
0.58817607
0.763098
0.67083177
0.068206059
-1.2295585
-2.7159654
-2.5426668
-0.29108852
0.36527062
3.9267316
12.655249
0.75598936
8.2918879
-27.813331
7.6824932
-50.864288
5.5159841
-53.275844
3.4358794
-50.754406
1.828056
-48.189253
0.83649459
-43.449701
0.13174645
-41.360778
-36.02785
4.5520474
7.5106043
0.59259767
8.8999272
-32.161211
7.7998486
-49.764209
5.5913978
-51.067393
3.5983415
-48.76135
1.9736137
-46.564525
0.96465632
-42.440744
0.20393164
-40.600053
-35.823919
5.2299056
1.5919297
0.68876895
9.4182193
-36.349525
7.9384572
-48.284447
5.703158
-48.832094
3.7296839
-46.787876
2.124332
-44.959173
1.0663785
-41.38279
0.24344561
-39.77712
-35.580473
8.0407709
-6.344383
-0.10445818
9.7815051
-38.090259
7.9572328
-46.460175
5.7408402
-46.615701
3.8723903
-44.919426
2.2679388
-43.354721
1.2019748
-40.316826
0.33550336
-38.910649
-35.24497
9.4951849
-15.53254
-0.30702812
9.8108991
-38.405973
7.948523
-44.597799
5.8317311
-44.498909
3.9842584
-43.071953
2.4029779
-41.773441
1.2966342
-39.210482
0.38327366
-37.997288
-34.861696
10.009276
-24.716723
-0.82509304
9.7536191
-38.150316
7.8918063
-42.735986
5.8570191
-42.464122
4.1183504
-41.333285
2.5541917
-40.209282
1.4304681
-38.086759
0.47228298
-37.039103
-34.389413
10.372479
-31.60766
-3.4815412
9.7810402
-37.558877
7.8648049
-40.819751
5.9163168
-40.515634
4.1862976
-39.603266
2.6553125
-38.678297
1.5154531
-36.9469
0.52236485
-36.046015
-33.867048
10.751825
-33.417915
-8.9415705
9.7049565
-36.512009
7.7926045
-38.907399
5.9112844
-38.634314
4.2910558
-37.983037
2.7855592
-37.172801
1.634456
-35.795796
0.60747355
-35.019032
-33.259575
10.7948
-33.319994
-10.892721
9.4872988
-35.204508
7.7221488
-37.142249
5.9609686
-36.873133
4.3696312
-36.391699
2.8913187
-35.694488
1.7031938
-34.607671
0.65167253
-33.967511
-32.607902
0.46169569
38.489392
-38.951088
0.79947944
38.418666
-38.756449
1.0709724
38.468856
-38.740349
1.2646014
38.475362
-38.668991
1.337085
38.240642
-38.313126
1.2656895
37.405708
-37.334312
1.0363121
35.661302
-35.431925
0.72018547
31.871742
-31.555615
26.337601
-26.054181
0.43676529
0.53160682
37.957785
0.93293501
38.017337
1.2403089
38.161483
1.4273442
38.288326
1.49758
38.170407
1.4130915
37.490196
1.114322
35.960072
0.7039615
32.282102
26.513093
0.52846954
0.58013933
37.377646
1.0139702
37.583507
1.3725072
37.802946
1.6320483
38.028785
1.7554298
38.047025
1.7239706
37.521656
1.4662694
36.217773
1.0340073
32.714364
27.037772
0.50932889
0.64657841
36.731068
1.1533405
37.076744
1.5469485
37.409338
1.8150731
37.760661
1.9507553
37.911343
1.9200573
37.552354
1.6236311
36.514199
1.0990036
33.238992
27.509289
0.6274861
0.69937057
36.031697
1.2341971
36.541918
1.6886436
36.954891
2.0295834
37.419721
2.2324426
37.708484
2.2694048
37.515391
2.0474345
36.736169
1.5233821
33.763044
28.410952
0.62171951
0.77943685
35.25226
1.3691716
35.952183
1.860904
36.463159
2.2147865
37.065838
2.442006
37.481264
2.4857658
37.471632
2.2751539
36.946781
1.7334899
34.304708
29.407671
0.73677048
0.81724604
34.435014
1.4360721
35.333357
2.0041855
35.895045
2.4259494
36.644074
2.7362911
37.170923
2.8684702
37.339453
2.7472282
37.068023
2.3222095
34.729727
30.873684
0.85619675
0.89714271
33.537872
1.5682041
34.662296
2.1624535
35.300796
2.5932928
36.213235
2.9322092
36.832006
3.1008544
37.170807
2.9996688
37.169209
2.6613261
35.06807
32.277655
1.2573552
0.92996927
1.6247542
2.3178789
2.8366257
3.2769325
3.5746062
3.6015666
3.4651287
2.4227893
-0.16193286
-26.192199
0.29995081
-0.28114877
-31.436399
-0.46342482
-35.249649
-0.57514829
-37.222589
-0.61275591
-38.275518
-0.57834733
-38.703399
-0.45668895
-38.862008
-0.27522362
-38.937915
-39.226312
-0.22488654
-26.2279
0.26058763
-0.3008221
-31.360464
-0.41764174
-35.132829
-0.49564089
-37.14459
-0.50632228
-38.264837
-0.45082751
-38.758894
-0.35528683
-38.957549
-0.21780447
-39.075397
-39.444116
-0.089689425
-26.437462
0.29925115