/*--------------------------------*- C++ -*----------------------------------*\
  =========                 |
  \\      /  F ield         | OpenFOAM: The Open Source CFD Toolbox
   \\    /   O peration     | Website:  https://openfoam.org
    \\  /    A nd           | Version:  11
     \\/     M anipulation  |
\*---------------------------------------------------------------------------*/
FoamFile
{
    format      ascii;
    class       surfaceScalarField;
    location    "0.1535";
    object      phi;
}
// * * * * * * * * * * * * * * * * * * * * * * * * * * * * * * * * * * * * * //

dimensions      [0 3 -1 0 0 0 0];

internalField   nonuniform List<scalar> 
1652
(
2.843686947071611
0.8895636090847481
0
1.954123337988149
0.8895636090834618
-2.220446049250313e-16
1.064559728941564
0.8895636086920071
-8.573142196155459e-13
0.8895522546162524
7.157163750548534e-12
0.1749975965615637
2.843686947076741
1.779127218162428
1.954123337998014
1.779127218162188
1.064559729117223
1.779127215771888
1.779034634041297
0.1750261542219391
2.843686947090741
2.668690827246526
1.954123338008367
2.668690827244562
1.064559730580535
2.668690808200051
2.668302021088429
0.1751551504648123
2.843686947092868
3.558254436328659
1.954123338013008
3.558254436324421
1.064559753431793
3.558254138318913
3.556409301175294
0.1754020307185073
4.418652025448567
2.872852967045247
5.27904961457035
2.872852967043177
6.139447203697735
2.872852967042471
2.872852967039843
6.999844791970232
4.418652025437517
2.012455377932159
5.279049614551001
2.012455377929711
6.139447203662615
2.012455377929161
2.012455377926367
6.999844792776305
4.41865240030085
1.152059721721179
5.279050339554693
1.152052475560172
6.139480561458821
1.151981144297163
1.152662892972931
6.99870509387421
4.438009802617829
0.2489574612034607
5.430171487221846
0.108246345216289
6.470204355212316
0.04373988205822421
7.521304200943552
0.03268758614014
6.941512689729378
0.05833199244321996
6.883173374097934
0.05833121687909104
6.824845803436388
0.05831627706910847
0.05831766961407547
6.766514029638982
6.941520060992486
0.1166426039630413
6.883236514131085
0.1165829589691146
6.825008699325135
0.1164546919398159
0.1163896437575949
6.766813315634363
6.94622775252015
0.1654313540047734
6.897522199582409
0.1600448314682314
6.852123336945849
0.1554437336987426
0.1496307371932454
6.807278926597479
7.605790920007864
0.01909955717568812
7.681127933509416
0.01280034880611303
7.737601980347762
0.01398897661820858
7.796419392708848
0.004128077413270703
7.860010391312652
0.05642206021707047
-0.1748408436613811
7.75394657036588
0.113898162373682
-0.05523341094916889
7.641528847089679
0.09743707488236908
-0.01207365278474876
0.08042052419951495
7.565719603507753
-0.009148046272490051
6.839476112814505
0.0008347117825107109
6.91161730532442
0.003215768792074303
6.951543230799647
0.006435386982765801
0.00769516791721947
6.959594434852802
6.767192460294257
4.28027124428354e-05
6.768615047708016
0.0001475141289493109
6.770983855893459
0.0003737188515849921
0.0005546628831752942
6.772586621498484
6.76651642799797
6.766525971164647
6.766522860305804
6.76650889579632
6.766473922683297
-0.0005505641727791
6.766451992435786
-0.0004971891352428814
6.766454393420727
-0.0003677735864097142
-0.0002052302024559971
6.766478472382889
6.772748359894363
-0.007056069375288354
6.772127550931697
-0.00595884450974371
6.770647764385237
-0.004472453706990009
-0.002819619021325548
6.768640650151895
6.948303103296452
-0.06267372599710197
6.923606848206337
-0.0465892379483489
6.888762917120171
-0.03413234025123169
-0.02475605738198111
6.847765784928341
7.48119849619747
-0.006858702373449377
7.376435299353458
-0.003473347407129457
7.26239528539677
-0.001195664143714692
7.144384830713232
-0.001244986119369407
0.01735019695240159
7.027812161183407
-0.002235609485768952
0.001297602523172237
6.806529964768131
7.22080931039315e-05
6.767086619729862
6.766505665645989
0.01097858732969448
6.916704526918576
-0.0007352235574608623
0.0003350530118289008
6.777209975992514
1.29430931523622e-05
6.766569691501265
6.766515384514153
0.001541956398691924
6.847024033920425
-0.002951840976542497
2.27761213119626e-05
6.768689172382572
5.272402657796604e-07
6.766524384100485
6.766517910822641
0.003030435274869403
6.91446736938761
-0.168237146058427
2.076286528451821e-05
6.768450659508408
1.024728509158024e-06
6.766516112844553
6.766511933630656
0.1555527272883215
6.610960050049197
0.3110622862315436
6.610995672181414
0.4529707334466498
6.619901424468242
6.985721468924193
0.124128599222061
0.1555433843725933
6.45540860805638
0.310808759524067
6.455536850108806
0.424739409235545
6.479994280610261
6.906446235779489
0.1461105715442003
0.155506028482964
6.299873172474128
0.310162818282831
6.300311188958227
0.3854400197885069
6.34556579773162
6.804370572285133
0.1027152378536634
0.1554258910977382
6.14433523068831
0.3089608106117062
6.145141400745411
0.3385653730814471
6.215662152805439
6.625452845559005
0.07720359174169689
-0.2763081797015811
6.390065294322305
0.03909886157712739
-0.3065983521965072
6.087543525166283
-0.1552473065440422
5.990515501148363
5.988837348728358
-0.2104718089355779
6.151843139669047
0.01435239320565984
-0.3029899464974186
5.971028853748994
-0.1549223024749803
5.836460209674431
5.833340841419174
-0.1349094713628685
5.897649269192258
-0.0008134284153731297
-0.2977153570595605
5.842204081787262
-0.1545981559299621
5.681845649793671
5.677854226523852
-0.04535101271069597
5.618378503753108
-0.002241994578712991
-0.2902242810962467
5.711645062450859
-0.1538503087921074
5.528575323525977
5.522475450462901
0.1970772137602372
5.323256323343842
0.3681016316734146
5.329992447347191
0.05629695713876848
5.519840675145765
5.351755823482802
0.02181140113004987
0.1954898643873707
5.124392842252729
0.3523384908884473
5.13274661977671
0.02599567794000768
5.275837191117979
5.054741872036715
0.06287036981832839
0.1943391201917253
4.92164081803119
0.3509890631325541
4.932468438568135
0.1593111797560764
5.054824347832512
4.905142113135898
0.1812868566230025
0.1963049937130895
4.727457071628231
0.367436552203581
4.733083528839291
0.3294826821664486
4.813217867554275
4.784078568546432
0.3622857699730205
-0.3440471269406323
5.06347633558916
-0.7511499688654764
5.082760849355655
-1.296068190657222
5.193437737816647
4.870308575762286
-1.427504845884769
-0.3468031589804972
5.398324623051749
-0.7500520568775764
5.435648250196608
-1.066675389957727
5.476553656774052
4.307321103178051
-0.4439558940705035
-0.3417872043974526
5.732616177780681
-0.6927661411189012
5.757788808530113
-0.9493196165191417
5.756806172574437
3.624995101175225
-0.0524007000369662
-0.3356342910287228
6.06712441903508
-0.6669517325224725
6.074945402585863
-0.7976128689710968
5.954126999980577
3.224250143416814
-0.03753877769305585
0.3398856315897044
3.153742006924588
-0.01637285689791831
0.3376432485039512
6.028376630942614
0.1747493601745841
6.23706875226765
6.241740716034506
0.3001350365502199
3.072158315040775
-0.009976350274544819
0.3328206811027937
6.080926616480923
0.1746281018924143
6.405677935922191
6.416602276924798
0.2903590451388666
2.97488722458418
-0.002994513392295915
0.3321020621248544
6.14201504845666
0.1747057366040845
6.578764299224188
6.591430605256836
0.2692319894971894
2.87534695104323
0.009508711995122203
0.3298288732093989
6.22609090691076
0.1747031397158734
6.751896337225325
6.766440493240324
-0.201865197543745
3.241489467829398
0.08270962003968606
-0.02002628289427011
6.366804437676025
-0.0002652610652258414
6.760098300446654
6.766493912577548
-0.1432189665263396
3.620511920874866
0.1114782233958374
-0.008971616553302031
6.5298705031029
-8.168274251518781e-05
6.764415734643762
6.766511044109038
-0.102073022192236
4.137046666127367
0.1129441976012732
-0.004030738827332625
6.666220994521808
-2.877523984046171e-05
6.766255021260711
6.766515818196829
-0.07461254164110021
0.1173192108440358
4.690635986602222
-0.001724701898617287
6.695775214607552
-1.046746448940539e-05
6.765369762469959
6.766516035099198
1.00259815258391
-0.9320683567504209
-0.007752722689969963
8.418421515443697e-11
1.97239510946664
-0.8688037855768131
5.085531995518977e-11
2.858004884997355
-0.8743977042794397
7.279687963546166e-11
-0.8749720577852829
-4.764366678955412e-11
1.004069891739935
-1.749930238345367
-0.009448705852856062
1.973182695013322
-1.733854002731945
2.858012092491653
-1.748744989542073
-1.749943440273197
0.9961224930035247
-2.473550430212943
-0.01767062885260547
1.973337252726816
-2.603750566904663
2.858023079132385
-2.623565047196477
-2.624918021422681
0.9972819655668272
-0.03575138393445124
-3.130769588769073
1.97464500704407
-3.475945262029754
2.858060476208126
-3.499075425097522
-3.499908171821787
-0.07461254164158426
-4.137046666143397
0.1173192108429363
4.690635986624883
-0.001724701911668403
-6.66622099454342
6.695775214611152
-1.046752307631849e-05
-6.766255021276145
6.765369762508152
-6.766515818243881
6.766516035210152
-0.1020730221997452
-3.620511920898437
0.1129441976035421
-0.004030738839762682
-6.529870503121936
-2.877520993416205e-05
-6.764415734672725
-6.766511044051494
-0.1432189665460953
-3.24148946782635
0.1114782233938691
-0.008971616583165698
-6.366804437654088
-8.168275207554032e-05
-6.760098300452497
-6.766493912601136
-0.2018651975443445
-2.875346951030601
0.08270962003761451
-0.02002628287627628
-6.22609090690181
-0.0002652610589946036
-6.751896337213463
-6.766440493237455
-0.174749360177099
6.241740716075595
-6.067124419095814
-0.3376432484984834
6.237068752303074
-6.074945402619893
-0.3398856315827294
6.028376630893522
-5.954126999926021
3.153742006892023
-3.22425014337494
-0.01637285689812069
-0.1746281018542523
6.416602276983494
-0.3328206810843779
6.405677935955518
-0.3001350365455875
6.080926616450559
3.072158315013416
-0.009976350273786308
-0.1747057366095829
6.591430605166954
-0.3321020621045366
6.578764299242031
-0.2903590451329282
6.142015048444934
2.974887224567423
-0.002994513391536544
-0.1747031397042755
-0.3298288731850876
-0.2692319894878524
0.009508711993538956
0.7976128689724359
-3.624995101131367
-0.03753877769337161
0.6669517325510699
-5.756806172546526
0.3356342910472531
-5.757788808595151
-5.732616177812329
0.9493196165244713
-4.307321103149206
-0.05240070003463419
0.6927661411394135
-5.476553656755894
0.3417872044038187
-5.435648250263255
-5.398324623039392
1.066675389969336
-4.870308575754382
-0.4439558940681502
0.7500520569028051
-5.193437737818875
0.3468031589902831
-5.082760849402548
-5.063476335559091
1.296068190672315
-4.784078568547788
-1.427504845888966
0.7511499688855553
-4.813217867579957
0.3440471269264474
-4.733083528817374
-4.727457071657369
0.1970772137762501
5.323256323370544
-5.522475450474183
0.3681016317138299
5.329992447360573
-5.528575323519886
0.05629695713988025
5.519840675081229
-5.711645062318173
5.351755823444643
-5.618378503704969
0.02181140113372781
0.1954898643802473
5.124392842284488
0.352338490882617
5.132746619743565
0.02599567795863233
5.27583719107387
5.054741872029863
0.06287036982250971
0.1943391201949286
4.921640818502612
0.3509890631494986
4.93246843854926
0.1593111797635184
5.054824347804181
4.905142113132666
0.1812868566249128
0.1963049937275095
0.3674365522270401
0.3294826821679746
0.3622857699738176
-0.04535101267522146
-5.897649269220952
-0.002241994572259154
-0.290224281040508
-5.842204081849209
-0.1538503087560258
-5.681845649791709
-5.677854226536079
-0.1349094713915916
-6.151843139682834
-0.0008134284158534122
-0.2977153570820404
-5.971028853872871
-0.154598155941517
-5.836460209921598
-5.833340841443196
-0.210471808939603
-6.39006529427463
0.01435239320834991
-0.3029899464469971
-6.087543525079254
-0.1549223024433077
-5.990515501130902
-5.988837348745307
-0.2763081796386017
-6.625452845528746
0.03909886157993014
-0.3065983521910988
-6.215662152744204
-0.1552473065409745
-6.14514140073373
-6.144335230703088
0.1555527272915823
6.610960050127603
-6.766511933709702
0.3110622862316494
6.610995672177022
-6.766516112817627
0.4529707334543845
6.619901424472903
-6.768450659514725
6.985721468910535
-6.914467369379866
0.124128599215347
0.1555433843759482
6.455408608064658
0.3108087595274212
6.455536850124303
0.424739409230666
6.479994280608464
6.906446235814968
0.1461105715522455
0.1555060284905825
6.29987317247247
0.3101628182956175
6.300311188962201
0.3854400197906699
6.345565797772716
6.804370572321714
0.1027152378602307
0.1554258910880137
0.3089608105910478
0.3385653730869841
0.0772035917438848
-6.766517910816161
-1.024728088716564e-06
-6.766515384514869
-5.272400213085504e-07
-6.766505665642826
-1.294309260746473e-05
-7.22080892961996e-05
-6.766478472385201
-6.766524384062729
-2.076286747165756e-05
-6.766569691517351
-2.277612107637328e-05
-6.7670866197305
-0.0003350530062422585
-0.001297602522598806
-6.768640650160824
-6.768689172390886
-0.003030435275295673
-6.777209975988783
-0.001541956396246824
-6.806529964744294
-0.010978587344599
-0.0173501969529814
-6.847765784915258
-6.84702403391345
-0.1682371460484805
-6.916704526910928
-0.002951840974675768
-7.027812161176042
-0.0007352235647387628
-7.144384830718176
-0.002235609481318179
-0.0002052302092524494
-6.766454393415376
-0.002819619029461817
-6.770647764377741
-0.02475605737879194
-6.888762917145836
-7.262395285412333
-0.001244986118474845
-0.000367773587593323
-6.766451992430251
-0.004472453709491453
-6.772127550932613
-0.03413234023656586
-6.923606848213312
-7.37643529936208
-0.001195664140090646
-0.0004971891354429436
-6.766473922694466
-0.005958844512890971
-6.77274835990054
-0.04658923795313374
-6.948303103302482
-7.481198496208364
-0.003473347408624816
-0.0005505641761435198
-6.766508895787934
-0.007056069384964281
-6.77258662151798
-0.06267372598973786
-6.959594434855568
-7.565719603520455
-0.006858702372027403
-4.280272674561658e-05
6.766516427995215
-6.766514029641812
-0.0008347118019880195
6.767192460275697
-6.766813315612675
-0.05642206023939078
6.839476112767253
-6.807278926690846
7.860010391338808
-7.796419392755968
-0.1748408436617576
-0.0001475141344746689
6.766525971169042
-0.003215768795636675
6.76861504771291
-0.1138981623870127
6.911617305259297
7.75394657038236
-0.05523341095440459
-0.0003737188513645018
6.766522860306838
-0.006435386979975921
6.770983855905246
-0.09743707489421072
6.951543230776816
7.641528847107226
-0.01207365278655659
-0.0005546628885479965
-0.0076951679252657
-0.08042052420449458
-0.009148046274323418
-0.149630737205474
-7.737601980386517
0.004128077419824572
-0.1163896437711558
-6.852123337185161
-0.05831766961501206
-6.825008699321296
-6.824845803443174
-0.1554437337309617
-7.681127933520727
0.0139889766192538
-0.1164546919539574
-6.897522199811514
-0.05831627707819709
-6.883236514115468
-6.883173373562965
-0.1600448315027327
-7.605790919959124
0.01280034881719927
-0.1165829589929257
-6.946227752626855
-0.05833121686496234
-6.941520061012241
-6.941512689723339
-0.1654313539880047
-7.521304200857927
0.01909955717145539
-0.1166426039855051
-6.998705093699345
-0.05833199244877818
-6.999844792819407
-6.999844791968204
-1.152662892908717
-6.470204355195935
0.03268758615338452
-2.012455377911126
-6.139480561280149
-2.872852967039828
-6.139447203690551
-6.139447203694803
-1.151981144325596
-5.430171487203029
0.04373988207774504
-2.012455377916394
-5.279050339543145
-2.872852967042228
-5.279049614566468
-5.279049614567247
-1.152052475560432
-4.438009802556088
0.1082463452185128
-2.012455377921992
-4.41865240029287
-2.872852967044603
-4.418652025443839
-4.418652025446893
-1.152059721718444
-3.556409300950457
0.2489574610621788
-2.012455377927508
-3.558254138323768
-2.872852967046921
-3.558254436324423
-3.558254436328661
2.843686947076677
0.8895636090796828
1.954123337995112
0.8895636090815646
1.064559728947561
0.8895636086943326
0.8895522546493428
0.1749975965585324
2.843686947077599
1.7791272181565
1.954123337999196
1.779127218159969
1.064559729118092
1.779127215776108
1.779034634078273
0.1750261541484369
2.843686947089469
2.668690827241873
1.95412333800662
2.668690827242819
1.064559730578324
2.668690808211763
2.668302021041183
0.1751551503330768
2.843686947088214
1.954123338006611
1.064559753424457
0.1754020309757164
0.1749964020486529
0.1749964019970171
0.1749883482079568
0.1750265868447939
0.1749904844192213
0.1751346990323522
0.1754090330805689
0.1748841970649624
0.1750265869971541
0.1749883480914178
0.1750201126184335
0.1750201124093858
0.1750211237497911
0.1750981909449126
0.1745809899747912
0.1756533108052635
0.1751346991810534
0.1749904843012425
0.1750981910766914
0.1750211235303324
0.1750426766005397
0.1750426768486001
0.1718920117514106
0.1771900815063265
0.1754090327835417
0.1748841969645415
0.1745809896436022
0.1756533106377064
0.1718920115238376
0.1771900820046713
0.1715305309533642
0.1715305310980919
-0.07301552709238857
0.2432359616405494
-0.1350484635701444
0.2375328883890845
-0.2011600384973929
0.2400085150646054
0.2211490713194734
-0.01270992410721516
0.2544956220521054
-0.03222596769940889
0.255688424816123
-0.06076097779884371
0.2665699087662452
0.2664296445256839
-0.004828600351527657
0.2578507008128094
-0.01733884662533636
0.2665263353615899
-0.02871057309182179
0.2761696674899696
0.2793168878804483
-0.007265151120617208
0.2625899850453873
-0.01814410392679544
0.274851368079755
-0.02565447257125686
0.2815828097315577
0.2839598697695236
0.2863365770624691
0.01554887071158634
0.2880087797251711
0.01040432886875547
0.2901385297451267
0.01164592925908942
0.003789819347502998
0.2910116405543302
0.2854319062276177
0.01041779894254663
0.2880636325581777
0.007368932949455731
0.2917535548661412
0.008114888260178366
-0.002449406349894212
0.2991723735291679
0.2812570557310795
0.003020984528165571
0.2865798681244863
0.001902830230263552
0.2916418940623509
0.003189974149726438
-0.02824235389622543
0.3184484686190553
0.2650147185532629
0.2667291178846672
0.2699531718408902
0.2441830261566902
0.269269578872956
-0.1513670446546128
0.2430073628017942
-0.02748429373485817
0.2369492393520173
-0.003438882338716531
-0.007405683030887567
0.2387611498329381
0.263199993728421
-0.1136812716866871
0.2450699494083962
-0.00834157272868441
0.2426958075056909
0.001645130090100311
-0.005523129745627076
0.2445722646500891
0.2694118729068796
-0.0632114218631899
0.254073481200857
0.007910942559646195
0.2498921981334395
0.008319849984360805
4.849294335851351e-05
0.2484912797340893
0.1813558818597801
0.1903259441957363
0.2011788218682658
0.2055405042008729
0.2424959382275186
-0.007042054180820823
0.2436346737634313
-0.002848402445050913
0.2435675940826801
0.0001543860170125644
0.0005286584641221448
0.2425083935173593
0.2450348275914195
-0.003832990941338765
0.245093333219846
-0.0007824030843068264
0.2441073999971051
0.002470035330773945
0.002517402360417476
0.2428827175811713
0.2473079433837464
0.001150225592920884
0.2460387182360222
0.003212011571737672
0.2449902771467951
0.005126749393751462
0.004537088108609311
0.2439340630426244
0.2103755534864831
0.2165564829283531
0.2231388451359467
0.2280234672580356
0.2411835959274295
-0.0009036359952913631
0.2403921359519313
0.0004724062262504436
0.23889807831802
-0.003745505636076174
-0.1835447588868871
0.2452593630552282
0.2419064022347621
0.00112416176211716
0.2414287706840314
0.001125190435460777
0.2407828287313236
-0.006355795007367937
-0.1661171713969983
0.2137610696047912
0.2431233752606586
0.003265687389287619
0.2425099744501141
0.001958823055652037
0.2410963525826469
-0.00796976237074315
-0.1049925580269571
0.1697501842291445
0.2323523824581097
0.2346838423097768
0.2229796034616801
0.1061843049120956
0.2653193580345642
0.09333248365955271
0.2679870856094658
0.1352429228154425
0.2715795723691998
0.09370670056833663
0.06458917467499303
0.2776908056616061
0.2401140152750252
0.05934614254196013
0.2627737783546537
0.1061627194134607
0.2714032702763317
0.0808507351559079
0.05184166560392456
0.2796208639112188
0.1978849689144373
0.02320277632328149
0.2370686682334492
0.05930500459307764
0.2626394045998773
0.0507926293284634
0.03396300946236763
0.2775371137760731
0.1231698816418535
0.176355515121989
0.2225046101792915
0.2540576903348375
0.2766091649507165
0.03097114275933366
0.2772574335013103
0.009835704544842394
0.2790879919595429
-0.002404754597848724
-0.002763158005292254
0.2839923256020804
0.2792230130282162
0.02372340490914215
0.2793131654235307
0.006998187881063878
0.2802361721128446
-0.002133370351160457
-0.00278036693404482
0.2855480742924545
0.2791198579398135
0.01576873539832668
0.28006516943151
0.004600432449082148
0.2816850323072375
-0.001360318524057713
-0.001857087078828257
0.2867823440434464
0.2638500705097004
0.2666742302807048
0.2678362271593617
0.2725977484325366
0.3000759283735569
0.01708601207214677
0.3211830425077484
0.04916083217937484
0.3562483984272379
0.153292814855532
0.2968890436332553
0.4258606193495583
0.3030259653047409
0.0114527059967795
0.3231371323052571
0.03772167709793106
0.3577116241661208
0.1252927246441202
0.1971828708998612
0.4605778190351038
0.3032779370808753
0.006408950279578773
0.3244732969616517
0.02692521369694867
0.3664615431322659
0.09013144554260322
0.0458850269199863
0.5229933584357676
0.2902758302051562
0.3289516283235395
0.4278950336007636
0.4798402589540936
0.2167766624882994
-1.212882182058728
0.02186865401212576
-0.2477589068409894
0.003713024181241672
-0.02903262113834391
-0.02704996370186387
-0.0009092010628769442
0.1523303629387163
-0.9020089543351573
0.01059235204930066
-0.1051375656046768
0.00144363739296454
-0.01458488250477364
-0.0156140168602542
-0.004107016392861118
0.07683526523112863
-0.4540555910644475
0.003482666669971124
-0.03053322089540654
-0.002647308796186991
-0.00409485591081328
-0.007167932358039739
-0.004578345870287393
0.02675239816914801
-0.002129189698400842
-0.002557066248777216
-0.00380832670203146
0.0006135269793304567
-0.01438105630635906
0.0009270505903219498
-0.007824965977579187
-0.0001484131392129363
-0.0008960789588846746
0.005556905458025299
0.00388109948529914
-0.00360757666340197
-0.01131079639122957
-0.003555697227294452
-0.006607006375031317
-0.003458789175181725
-0.001098520885363878
0.003609702740534994
-0.002431212161355195
-0.005157912814355146
-0.00631765545824136
-0.004973029839047559
-0.0047951539028179
-0.004756139364899038
-0.000903464017637641
0.002957472115521546
-0.006267761125767494
-0.005705125459147253
-0.006867694645025013
-0.007451626494336238
-0.006784380941688633
0.04375345322494283
0.0448670956881685
0.08026740509615195
0.08135399665407406
0.1148129233493795
0.09002708259368801
0.1036056542994126
0.1459059838409683
0.02232299325893568
0.01910317619479768
0.05868691010570889
0.04855521678779903
0.09435423642195234
0.0625310349893887
0.07821886992057694
0.1336339591065659
0.005819886729606562
0.00422573278591909
0.03598634416388392
0.01880055269162378
0.07110714123779494
0.03272961996047151
0.04735897937812608
0.1122877907083163
-0.006760119826298875
0.008945149233941928
0.04373543437340748
0.09846498668311272
0.1150295123359321
-0.1284431330802083
0.1683483502894487
0.08893552979191231
-0.08613304033210463
0.1172202025699684
0.07095031757175689
-0.08163891020246991
0.09673838080306554
-0.06185164016289825
0.0411767558988736
0.09015651289600209
0.1011281373124952
-0.08985028148959204
0.07714132738969115
-0.06579318238799813
0.04898140804148515
-0.0553233002139375
-0.03012531854921561
0.01815972269900449
0.08155399801115135
-0.05589155627272879
0.04721915634799705
-0.03664298179988718
0.01740092473007442
-0.02125373872637911
-0.009580619958551199
-0.001066978039638899
0.04303647501911034
0.009336112697943565
-0.006082807817859227
-0.01097500647870918
-0.01170522119410772
0.002159545079180571
-0.01035939520537943
-0.001477843650942846
-0.005916625812883262
-0.004118084706912379
-0.006231218416936969
-7.719519468096792e-14
-0.007474723125995196
0.00773340856386108
-0.007418107941020553
-0.0009232048106824504
-0.003983299665817838
-0.005782672747514803
-0.007844777481198354
6.293576770843856e-15
0.006270893445115139
0.0183509897716668
0.0008630484048886625
0.005027469668757632
-3.72227494813103e-05
-0.001082905623225557
-0.002399558710151087
1.54973256449864e-13
0.02229001298349174
0.0111320237357394
0.00500959024960481
5.035832861821632e-13
-0.006231218416948044
0.005916625812743832
-0.007844777481229357
0.00398329966584679
-0.002399558710255382
3.722274985619792e-05
-0.005009590248200059
0.007752722689296502
-0.004118084706960354
0.01035939520539258
-0.005782672747548666
0.007418107941042602
-0.001082905623241908
-0.0008630484044485943
-0.01113202373501723
0.009448705853428701
-0.001477843650972158
0.0117052211942001
-0.0009232048107231158
0.007474723126091966
0.005027469668734909
-0.00627089344480454
-0.02229001298304894
0.01767062885281902
0.002159545079138663
0.01097500647883523
0.007733408563775442
0.001066978039831676
0.01835098977158668
-0.01815972269874435
-0.04117675589840437
0.03575138393435341
-0.07095031757120378
-0.06185164016284087
0.09015651289591793
-0.08893552979129654
-0.08163891020233045
0.09673838080287106
-0.1150295123353212
-0.08613304033199554
0.1172202025697155
-0.1284431330797821
-0.1459059838404919
0.168348350288994
-0.04898140804128934
-0.03012531854910347
-0.07714132738930927
-0.05532330021383883
-0.10112813731208
-0.06579318238790326
-0.08985028148929064
-0.1336339591061581
-0.01740092472990168
-0.009580619958452691
-0.04721915634778469
-0.02125373872633131
-0.08155399801084705
-0.0366429817998442
-0.0558915562725164
-0.1122877907078903
0.006082807817926979
-0.009336112697861595
-0.04303647501887976
-0.09846498668260956
-0.04373543437291093
-0.04735897937794631
-0.008945149233507019
-0.03272961996022196
0.006760119826046924
-0.0188005526906808
-0.004225732785860012
0.00678438094147225
-0.07110714123744803
-0.0782188699202407
-0.03598634416284832
-0.06253103498973277
-0.005819886729304721
-0.04855521678599946
-0.01910317619435782
0.006267761125619335
-0.09435423642186086
-0.1036056542986826
-0.05868691010462117
-0.09002708259525699
-0.02232299325813519
-0.08135399665195424
-0.04486709568691644
0.002431212161210918
-0.114812923349154
-0.08026740509529193
-0.04375345322387184
-0.003881099485018174
0.0001484131388145883
0.005556905457207703
-0.0009270505902423346
-0.0008960789585892442
-0.0006135269791036745
-0.007824965976922532
-0.01438105630627598
0.0009092010628368417
0.003458789174844741
0.003609702740042103
0.003555697227269517
-0.00109852088532756
0.00360757666364217
-0.006607006374508353
-0.01131079639116642
0.004107016393091087
0.004756139364679893
0.002957472115304602
0.004973029838959472
-0.0009034640176506931
0.005157912814575503
-0.004795153902517432
-0.006317655458303033
0.004578345870640146
0.007451626494053516
0.006867694644840598
0.005705125459341959
0.003808326702271469
-0.00371302418086912
-0.02704996370191168
-0.0218686540110479
-0.02903262113835712
-0.2167766624864931
-0.2477589068392889
-1.212882182061246
-0.4258606193496061
-0.001443637392753909
-0.01561401686039668
-0.01059235204911649
-0.01458488250489342
-0.1523303629374884
-0.1051375656039196
-0.9020089543367775
-0.4605778190351952
0.002647308796286107
-0.007167932358135974
-0.003482666669813434
-0.004094855910951798
-0.07683526523046828
-0.03053322089507859
-0.4540555910649315
-0.5229933584365839
0.002557066248938204
0.00212918969845194
-0.02675239816884868
-0.4798402589545485
-0.3562483984278885
0.2968890436344332
-0.3211830425080112
0.1532928148577678
-0.3000759283745977
0.04916083218319689
0.0170860120757288
-0.283992325604771
-0.3577116241667391
0.1971828709008019
-0.3231371323058192
0.1252927246464788
-0.3030259653058267
0.03772167710112106
0.01145270600023918
-0.2855480742952178
-0.3664615431337856
0.04588502692036434
-0.3244732969621081
0.09013144554266783
-0.3032779370820705
0.02692521369961998
0.006408950281965309
-0.2867823440459271
-0.4278950336028172
-0.3289516283276748
-0.2902758302089958
-0.2725977484360919
-0.2790879919611806
-0.002763158000297139
-0.2772574335018027
-0.002404754598506642
-0.27660916494997
0.009835704546108825
0.03097114276382584
-0.2776908056596721
-0.2802361721145727
-0.002780366930605793
-0.2793131654244118
-0.002133370351478425
-0.279223013028038
0.006998187882592766
0.02372340491429759
-0.2796208639095029
-0.2816850323092008
-0.001857087076835851
-0.2800651694326554
-0.001360318524283644
-0.2791198579397598
0.004600432450697856
0.01576873540330914
-0.277537113774261
-0.267836227162055
-0.2666742302835006
-0.2638500705091733
-0.2540576903279287
-0.27157957237011
0.06458917467694691
-0.2679870856106046
0.09370670057282493
-0.2653193580353607
0.1352429228225663
0.09333248365319047
-0.2452593630560301
-0.2714032702766244
0.05184166560498293
-0.2627737783552602
0.0808507351585237
-0.24011401527481
0.1061627194169414
0.05934614253864379
-0.2137610696062495
-0.2626394045991898
0.03396300946133857
-0.237068668232731
0.05079262932926831
-0.197884968913291
0.05930500459495369
0.02320277631870304
-0.1697501842288051
-0.2225046101767789
-0.1763555151199696
-0.123169881639243
-0.1061843049169448
-0.2388980783168944
-0.1835447588749662
-0.2403921359507001
-0.003745505633646673
-0.2411835959280691
0.00047240622348943
-0.0009036359915190473
-0.2425083935179988
-0.2407828287298948
-0.1661171713870149
-0.2414287706842144
-0.006355795003911091
-0.2419064022366434
0.001125190435983303
0.001124161764864295
-0.2428827175818691
-0.2410963525803249
-0.1049925580220752
-0.2425099744514808
-0.007969762366448807
-0.2431233752624842
0.001958823057087389
0.0032656873904785
-0.2439340630433082
-0.2229796034661626
-0.2346838423119061
-0.2323523824596139
-0.228023467259189
-0.2435675940838155
0.0005286584653690918
-0.2436346737640166
0.0001543860198434666
-0.2424959382280382
-0.00284840244601553
-0.007042054179961899
-0.2387611498323206
-0.2441073999975663
0.002517402361588761
-0.2450933332201867
0.002470035332814147
-0.2450348275916024
-0.0007824030848083696
-0.003832990940704384
-0.2445722646494041
-0.2449902771468752
0.00453708810928305
-0.2460387182363428
0.005126749395498786
-0.2473079433836823
0.003212011571019191
0.001150225593491316
-0.2484912797333292