/*--------------------------------*- C++ -*----------------------------------*\
  =========                 |
  \\      /  F ield         | OpenFOAM: The Open Source CFD Toolbox
   \\    /   O peration     | Website:  https://openfoam.org
    \\  /    A nd           | Version:  11
     \\/     M anipulation  |
\*---------------------------------------------------------------------------*/
FoamFile
{
    format      ascii;
    class       volVectorField;
    location    "18.9";
    object      U;
}
// * * * * * * * * * * * * * * * * * * * * * * * * * * * * * * * * * * * * * //

dimensions      [0 1 -1 0 0 0 0];

internalField   nonuniform List<vector> 
5472
(
(10.516071 2.6790417 1.6483884e-18)
(10.699935 2.6786955 -1.7164303e-18)
(10.914143 2.6396108 -1.7294037e-18)
(11.097257 2.6099356 -1.7580463e-18)
(11.310877 2.5423093 5.4539503e-18)
(11.524898 2.4680216 -3.5707406e-20)
(11.67438 2.3796004 -2.8755026e-18)
(11.901453 2.2708024 1.0041976e-18)
(12.03613 2.1485949 0)
(12.245406 2.0139023 0)
(12.348851 1.8679205 0)
(12.529983 1.708802 -3.1145037e-18)
(12.645448 1.5368002 1.5989414e-18)
(12.752725 1.3660075 -2.3928456e-20)
(12.891642 1.1689564 1.0784736e-18)
(12.927998 0.97525486 -5.5420854e-19)
(13.06573 0.78450118 -8.3022458e-19)
(13.057873 0.55509596 2.8538803e-19)
(13.159528 0.39788783 0)
(10.471497 2.452396 -1.5091644e-18)
(10.651768 2.4425553 3.1133709e-18)
(10.818307 2.4305564 -1.6061597e-18)
(11.033042 2.390019 -1.6127002e-18)
(11.237155 2.3331394 2.4839575e-20)
(11.399681 2.2789901 0)
(11.598687 2.1897328 1.7244148e-18)
(11.766706 2.1109758 -3.5189721e-18)
(11.948797 1.9842441 4.5442137e-18)
(12.094053 1.8772157 9.2721715e-19)
(12.238063 1.7432422 0)
(12.41224 1.5792066 1.9240528e-18)
(12.490656 1.4516316 0)
(12.660382 1.247087 4.8502353e-19)
(12.728189 1.1156435 -5.0169719e-19)
(12.842586 0.88851759 0)
(12.929467 0.74276751 0)
(12.970478 0.53263684 -2.5134786e-19)
(13.037912 0.35026887 0)
(10.455926 2.2774494 0)
(10.621569 2.2931936 1.4197348e-18)
(10.820516 2.2760809 1.4535431e-18)
(11.007426 2.2684479 0)
(11.168768 2.2176673 -2.0234767e-20)
(11.340554 2.1719623 -2.6701738e-20)
(11.516919 2.1073967 -1.5941662e-18)
(11.698816 2.0167667 0)
(11.822612 1.930202 -1.6328775e-18)
(11.9983 1.8228564 -4.1797369e-18)
(12.15768 1.6784323 1.2680867e-20)
(12.276182 1.5716295 -8.4592774e-19)
(12.412683 1.4053837 -8.7318801e-19)
(12.549024 1.2496369 1.7905242e-18)
(12.623524 1.0933781 1.3492671e-18)
(12.769011 0.89534747 4.5507268e-19)
(12.785043 0.76161078 2.2713567e-19)
(12.902097 0.52878275 -3.4328144e-19)
(12.902778 0.40045938 1.1448079e-19)
(10.422987 2.0789327 0)
(10.610412 2.1017283 -1.2814257e-18)
(10.75329 2.1021773 -1.3105296e-18)
(10.902296 2.0759248 2.6709963e-18)
(11.044346 2.0476351 -1.4050339e-18)
(11.231231 2.0042755 0)
(11.387665 1.9378836 -1.4426171e-18)
(11.537398 1.8969029 1.4509281e-18)
(11.709654 1.7893619 -1.5041274e-18)
(11.890244 1.6852354 -2.0596055e-20)
(12.00941 1.5856354 -1.5534049e-18)
(12.172115 1.4508422 0)
(12.304048 1.304689 0)
(12.419505 1.1512647 -7.9710732e-19)
(12.540188 1.0042267 -8.0476503e-19)
(12.61636 0.82145421 0)
(12.693144 0.66833514 -2.0479034e-19)
(12.763599 0.47763706 1.0373159e-19)
(12.783825 0.3164997 2.0664704e-19)
(10.449322 1.9404949 0)
(10.577119 1.9560919 0)
(10.698953 1.9481834 0)
(10.857641 1.9487996 -2.4218714e-18)
(11.016071 1.9090484 1.2605388e-18)
(11.184559 1.8917274 -3.8081863e-18)
(11.313656 1.8533089 5.2038588e-18)
(11.506509 1.7803546 -2.6519187e-18)
(11.653916 1.7074241 2.7694142e-21)
(11.799651 1.6394098 1.364337e-18)
(11.946982 1.5212087 1.3855972e-18)
(12.090191 1.4073187 -2.8309411e-18)
(12.201541 1.2900367 2.1543114e-18)
(12.313615 1.14583 -7.2819166e-19)
(12.414796 1.0012941 0)
(12.497819 0.83297279 7.4019916e-19)
(12.583165 0.68665208 -3.7198588e-19)
(12.627441 0.49900543 1.8486045e-19)
(12.694978 0.34151716 -1.8392129e-19)
(10.38881 1.7882847 0)
(10.518948 1.7870621 -4.2006326e-18)
(10.644411 1.7978246 2.1683857e-18)
(10.79746 1.7936825 2.2121676e-18)
(10.916552 1.7862673 1.1230826e-18)
(11.078203 1.7573804 -1.1408368e-18)
(11.218923 1.7097403 2.3674316e-18)
(11.3875 1.6703874 1.1891085e-18)
(11.506183 1.6014458 2.4201415e-18)
(11.678606 1.5145376 -2.4795806e-18)
(11.798239 1.4108338 1.7246452e-20)
(11.9413 1.3229115 2.5502682e-18)
(12.045034 1.1867292 0)
(12.174063 1.0593382 -6.552784e-19)
(12.268913 0.91521078 6.5384216e-19)
(12.368793 0.75942858 -1.6482969e-18)
(12.440312 0.60989617 6.6229789e-19)
(12.506216 0.43068671 -1.6589552e-19)
(12.551696 0.28760648 3.9307804e-22)
(10.409132 1.6311089 3.7247351e-18)
(10.528774 1.6351583 3.7965793e-18)
(10.639491 1.6638897 0)
(10.764078 1.6599721 -6.0531346e-21)
(10.897593 1.6543626 -4.0685326e-18)
(11.052097 1.6397034 4.1763514e-18)
(11.176951 1.6132843 0)
(11.337778 1.5675239 -1.0842514e-18)
(11.45072 1.5092368 -4.3776325e-18)
(11.614012 1.4359052 2.2466362e-18)
(11.707336 1.3637559 1.1243401e-18)
(11.868898 1.2581025 -1.1538106e-18)
(11.954961 1.1518728 0)
(12.101317 1.0306922 5.8081817e-19)
(12.17959 0.88314953 0)
(12.295548 0.7528484 -5.9022186e-19)
(12.346413 0.59449224 8.9301449e-19)
(12.426365 0.45126453 1.0086662e-21)
(12.450055 0.27917581 -9.7103051e-22)
(10.369997 1.4889327 1.6701226e-18)
(10.459847 1.5106464 -3.418199e-18)
(10.572848 1.5325274 -3.4824868e-18)
(10.696647 1.5237232 3.5868943e-18)
(10.811905 1.5307747 -1.8411259e-18)
(10.941424 1.5050897 -1.8626445e-18)
(11.061072 1.4960857 0)
(11.19441 1.459872 2.8949011e-18)
(11.313329 1.4113783 -1.3449137e-20)
(11.458829 1.3466532 -2.998626e-18)
(11.571039 1.2621719 3.0658752e-18)
(11.731917 1.1764429 0)
(11.820052 1.0759085 0)
(11.970463 0.95024736 1.042576e-18)
(12.026891 0.82316494 -5.3492532e-19)
(12.152078 0.6848404 -1.0603497e-18)
(12.184049 0.54926473 2.6844886e-19)
(12.284185 0.39670479 2.7029111e-19)
(12.286278 0.24249312 6.5877891e-20)
(10.37378 1.3355307 -1.4987953e-18)
(10.478316 1.3728037 4.5924322e-18)
(10.586621 1.3946885 -4.7329964e-18)
(10.684967 1.3981711 3.2167609e-18)
(10.798562 1.402472 0)
(10.912417 1.392901 1.667409e-18)
(11.020994 1.3889251 -1.7202617e-18)
(11.147973 1.354317 0)
(11.268712 1.3172802 8.7863244e-19)
(11.407966 1.2495172 -1.8160056e-18)
(11.520256 1.1913553 -9.0522256e-19)
(11.649315 1.1025993 -9.7312998e-21)
(11.740521 1.0245962 -2.7929319e-18)
(11.865639 0.910596 4.8027383e-19)
(11.938467 0.79477724 -4.6514124e-19)
(12.055224 0.6595323 9.5046957e-19)
(12.103006 0.52365539 -4.7312955e-19)
(12.206052 0.38410348 2.4212985e-19)
(12.209591 0.23434523 2.370425e-19)
(10.356479 1.2171053 -2.7006359e-18)
(10.427878 1.2666201 0)
(10.507677 1.2753787 1.4076659e-18)
(10.591495 1.2886655 -4.3100487e-18)
(10.686488 1.2980544 1.483824e-18)
(10.790178 1.2925837 -1.5059608e-18)
(10.911919 1.2865896 1.5234389e-18)
(11.037923 1.2545406 -1.5671333e-18)
(11.158765 1.2233382 0)
(11.278821 1.1704 7.9944034e-19)
(11.391588 1.110587 0)
(11.516257 1.0340113 8.1765352e-19)
(11.620309 0.9545919 -3.1297567e-22)
(11.74287 0.83845985 -4.1517064e-19)
(11.819706 0.73604666 4.1755791e-19)
(11.918901 0.59582659 4.2023311e-19)
(11.9679 0.48590057 -2.6231106e-21)
(12.05017 0.33784101 -6.3433323e-19)
(12.072239 0.21233706 0)
(10.338461 1.112449 0)
(10.421837 1.1439442 1.2337805e-18)
(10.503606 1.148104 0)
(10.596763 1.1745862 1.2772113e-18)
(10.6972 1.1635971 -3.9530206e-18)
(10.792528 1.1756303 4.0389927e-18)
(10.893094 1.1706903 -1.3515343e-18)
(10.992342 1.1586612 4.1935371e-18)
(11.101591 1.1343999 0)
(11.210937 1.0815185 7.1918318e-19)
(11.330325 1.0346695 0)
(11.442497 0.96407853 -1.457329e-18)
(11.557288 0.8947983 2.9552247e-18)
(11.660454 0.79935311 -7.9470574e-21)
(11.751843 0.69848805 -3.7550678e-19)
(11.834901 0.57075414 0)
(11.896567 0.45022676 0)
(11.961651 0.31107554 0)
(11.989896 0.18622697 -4.7019329e-20)
(10.302965 1.0124313 4.2953685e-18)
(10.378899 1.0338571 -5.5214245e-18)
(10.440787 1.0538733 2.2463424e-18)
(10.521483 1.0800913 -8.4007358e-21)
(10.606644 1.0829065 0)
(10.708283 1.0975613 -2.3858565e-18)
(10.80832 1.0794287 1.2336941e-18)
(10.911665 1.0724446 -1.236333e-18)
(11.008309 1.0390245 0)
(11.10848 1.0011548 -6.3543921e-19)
(11.220017 0.95158926 1.2838438e-18)
(11.312759 0.89111847 -1.3173531e-20)
(11.428093 0.82430204 -1.3196633e-18)
(11.522214 0.73569757 -2.6362703e-18)
(11.619355 0.64732215 2.3244895e-18)
(11.695066 0.53096644 -1.3319016e-18)
(11.770585 0.42164755 8.3649999e-19)
(11.817446 0.29227863 1.67507e-19)
(11.873572 0.16416459 4.1268117e-20)
(10.312054 0.91243034 -6.7267525e-18)
(10.394312 0.91789759 3.9411738e-18)
(10.439566 0.95325664 0)
(10.521262 0.95394356 -5.1154718e-18)
(10.582865 0.96428721 4.2015075e-18)
(10.669879 0.98026784 1.0683403e-18)
(10.750517 0.98271051 3.249305e-18)
(10.854456 0.98764841 -2.2152171e-18)
(10.949518 0.96462645 -2.7885446e-18)
(11.057556 0.93393792 1.7087279e-18)
(11.164059 0.88131883 2.2802365e-18)
(11.260487 0.82610898 -3.4738582e-18)
(11.372458 0.75330696 2.3293603e-18)
(11.453337 0.67936791 -5.9360635e-19)
(11.543597 0.58747446 2.9066393e-19)
(11.611835 0.48588719 -4.1290583e-21)
(11.683953 0.37656628 -7.3930186e-19)
(11.721558 0.25429992 -1.4686166e-19)
(11.778283 0.13089352 -3.6897559e-20)
(10.270039 0.81475918 2.5761912e-18)
(10.334812 0.83560796 3.4918412e-18)
(10.382104 0.88002082 -3.5848879e-18)
(10.47761 0.87893088 9.1329259e-19)
(10.541797 0.8981788 -2.777474e-18)
(10.632981 0.88990787 2.8564158e-18)
(10.707789 0.89003752 9.5817963e-19)
(10.801589 0.88415522 -4.8950726e-18)
(10.888153 0.87416797 3.469626e-18)
(10.982819 0.85178019 -1.5172377e-18)
(11.071781 0.81861911 0)
(11.167337 0.77289041 -5.1359058e-19)
(11.261243 0.7040036 -1.5437637e-18)
(11.34806 0.64164927 5.2868142e-19)
(11.431734 0.55216567 1.5646214e-18)
(11.501436 0.45973917 5.1982325e-19)
(11.572806 0.35672685 -1.0442658e-18)
(11.613355 0.2432993 2.6279787e-19)
(11.668493 0.12062314 2.9254025e-19)
(10.285941 0.72377834 -3.8021456e-18)
(10.336582 0.73890444 3.1178874e-18)
(10.376607 0.75631061 0)
(10.442513 0.77439809 -8.0963459e-19)
(10.491783 0.80560264 3.2946312e-18)
(10.579607 0.80732336 -6.7216696e-18)
(10.648316 0.81670052 8.7889299e-19)
(10.736811 0.80376193 3.4856859e-18)
(10.81049 0.80017265 2.6398001e-18)
(10.900783 0.77170888 -4.4547844e-19)
(10.990446 0.74301323 0)
(11.087024 0.69759877 2.2533957e-18)
(11.171813 0.63942 -9.1891758e-19)
(11.257008 0.57827139 9.1524244e-19)
(11.328908 0.49619453 -1.3812293e-18)
(11.399144 0.40857391 -2.3095235e-19)
(11.458779 0.31210088 0)
(11.50593 0.20395785 0)
(11.54872 0.091992202 -2.8749893e-20)
(10.258244 0.648065 6.5644788e-19)
(10.295435 0.68908916 -6.2251118e-18)
(10.364102 0.69078925 2.8117182e-18)
(10.413067 0.70228012 -3.597269e-18)
(10.470036 0.71094796 -7.3062091e-19)
(10.543901 0.72230264 0)
(10.599947 0.73622475 -3.7666914e-18)
(10.682161 0.7306217 2.3106164e-18)
(10.752935 0.72651319 -7.7769e-19)
(10.847064 0.7026741 -1.8126317e-21)
(10.927967 0.68308268 0)
(11.020152 0.64307355 0)
(11.105115 0.594618 -4.0027764e-19)
(11.190061 0.53704958 -4.0199488e-19)
(11.263433 0.4654415 2.0160318e-19)
(11.331499 0.38207652 1.2138534e-18)
(11.387383 0.29338793 -8.1370835e-19)
(11.433644 0.18743837 1.017238e-19)
(11.464283 0.085212693 2.5116867e-20)
(10.248902 0.55237283 4.1918914e-18)
(10.275327 0.59507202 -4.2925143e-18)
(10.328829 0.60426085 0)
(10.365031 0.63761416 6.349781e-19)
(10.437943 0.63572172 0)
(10.488357 0.65277918 6.5778354e-19)
(10.563806 0.64841972 6.6785278e-19)
(10.62414 0.65226817 0)
(10.695717 0.64404319 3.4126736e-18)
(10.769408 0.62988288 -2.431974e-18)
(10.842919 0.6127644 1.7407378e-18)
(10.928991 0.57261242 -1.4115176e-18)
(11.004389 0.53331141 1.4091197e-18)
(11.082889 0.47795057 -1.0021444e-20)
(11.15268 0.41689246 -1.4291538e-18)
(11.214464 0.34061978 -1.7765195e-19)
(11.271198 0.26046739 -1.7891955e-19)
(11.311413 0.16379953 -8.8780692e-20)
(11.339182 0.068077162 0)
(10.211933 0.4935668 4.7877563e-18)
(10.254918 0.51614215 0)
(10.295965 0.5338471 0)
(10.335076 0.56031608 5.6180082e-19)
(10.398696 0.57140546 0)
(10.444205 0.59144469 -5.7921607e-19)
(10.522471 0.58870574 -5.873944e-19)
(10.571609 0.59757127 -2.3765873e-18)
(10.656707 0.58058741 2.4183281e-18)
(10.715829 0.58103131 0)
(10.808405 0.54845168 -2.7535365e-18)
(10.878252 0.5271682 2.1713439e-18)
(10.960173 0.4799044 1.2384778e-18)
(11.030952 0.43342521 -2.4952549e-18)
(11.101679 0.37597272 2.5017029e-18)
(11.158522 0.30555715 -1.8805747e-18)
(11.213963 0.23259281 6.269761e-19)
(11.253564 0.14332162 0)
(11.280812 0.057284045 0)
(10.176336 0.41073821 7.5130191e-18)
(10.222906 0.43476857 -3.8337422e-18)
(10.255878 0.45521743 3.8908358e-18)
(10.313529 0.47268248 -4.4647337e-18)
(10.362503 0.48443048 -4.0177752e-18)
(10.417567 0.50463261 4.0943307e-18)
(10.475978 0.50917326 2.0657275e-18)
(10.532052 0.51729127 -1.0723819e-20)
(10.59825 0.51192644 -2.1254491e-18)
(10.655824 0.50878903 0)
(10.735663 0.48980946 0)
(10.792336 0.47023758 2.7065341e-19)
(10.874593 0.4268526 0)
(10.930291 0.3898505 1.0908236e-18)
(11.001024 0.33272165 -1.1000812e-18)
(11.052015 0.27768136 -5.4745267e-19)
(11.104091 0.20320865 6.8708662e-19)
(11.137968 0.12767139 -3.4246698e-19)
(11.162123 0.044163956 2.7349458e-19)
(10.162039 0.34882698 0)
(10.19698 0.37123215 0)
(10.221988 0.39272067 3.4316944e-18)
(10.269016 0.4141993 -3.4971892e-18)
(10.307345 0.4339546 3.9808489e-18)
(10.372621 0.44841537 -4.0504752e-18)
(10.423755 0.4517829 0)
(10.49466 0.45668153 4.6082938e-19)
(10.549673 0.45345797 1.8553647e-18)
(10.622011 0.44925603 -1.882015e-18)
(10.689542 0.43457565 1.8848881e-18)
(10.756182 0.41698707 -1.1622609e-20)
(10.829262 0.38019073 -3.8207079e-18)
(10.885798 0.3455195 1.9222812e-18)
(10.952447 0.29387764 0)
(11.002921 0.24377468 -9.5833972e-19)
(11.054425 0.1779141 1.5023677e-18)
(11.082488 0.11154105 -6.6041688e-19)
(11.108021 0.031544844 2.3922483e-19)
(10.137337 0.27380249 1.1342593e-17)
(10.171933 0.29707781 -5.960972e-18)
(10.206223 0.3161402 0)
(10.245704 0.33635484 -3.8417265e-19)
(10.289386 0.35337083 -3.892627e-19)
(10.336894 0.37269623 3.9433255e-19)
(10.38249 0.38070734 0)
(10.440213 0.38961074 -4.0336355e-19)
(10.490001 0.39078841 3.2535119e-18)
(10.558867 0.38622093 -3.2970651e-18)
(10.614485 0.38026077 0)
(10.686349 0.36054216 0)
(10.742774 0.33595613 2.0918304e-19)
(10.808288 0.30008114 1.0489123e-19)
(10.858934 0.2588471 -1.0506693e-19)
(10.916881 0.21357408 0)
(10.957071 0.15900605 -4.7139649e-19)
(10.993583 0.10294603 4.2031053e-19)
(11.017228 0.039139811 0)
(10.100279 0.20790686 -1.0316479e-17)
(10.124699 0.2344889 1.0812194e-17)
(10.15897 0.25823856 -1.2096291e-20)
(10.196905 0.27770235 -5.0684428e-18)
(10.245089 0.29736591 0)
(10.294723 0.3113774 2.7643134e-18)
(10.351138 0.31945745 -5.7763686e-18)
(10.403371 0.32717232 2.8351447e-18)
(10.460201 0.32925414 0)
(10.520847 0.33285964 -2.8695671e-18)
(10.582016 0.3247791 2.9023919e-18)
(10.647649 0.31229165 1.4501847e-18)
(10.708672 0.28929202 -1.462906e-18)
(10.766755 0.2563653 1.275579e-18)
(10.81783 0.21402806 -1.3769351e-18)
(10.869298 0.1677201 0)
(10.90135 0.11997375 -4.5856067e-20)
(10.938797 0.0637157 -1.3664036e-19)
(10.949579 0.012833393 1.9366736e-19)
(10.078665 0.14550019 2.8372502e-19)
(10.105365 0.16430566 -5.7607033e-19)
(10.128753 0.18761754 4.6703444e-18)
(10.164138 0.207558 2.84749e-19)
(10.20187 0.22920451 -3.1392254e-19)
(10.248154 0.24711303 -4.861649e-18)
(10.297123 0.25650494 1.531519e-19)
(10.351193 0.26507712 2.6255036e-18)
(10.407304 0.26588506 -2.5013587e-18)
(10.467693 0.26772019 -1.5724851e-19)
(10.5288 0.26837486 0)
(10.587517 0.26160494 2.6919448e-18)
(10.652442 0.25250549 -2.7136224e-18)
(10.703802 0.23271053 -1.1941158e-18)
(10.761896 0.2024405 8.6285283e-20)
(10.804405 0.1683525 1.9196075e-18)
(10.843607 0.12329433 -6.004717e-19)
(10.874047 0.081206113 -5.9695347e-20)
(10.88883 0.03138142 -9.8962028e-21)
(10.047621 0.093676309 0)
(10.073927 0.1114286 2.5282484e-19)
(10.100774 0.12936623 4.0975235e-18)
(10.138064 0.14896449 -4.5476241e-18)
(10.17379 0.16665839 4.328673e-18)
(10.221159 0.18384295 -4.2550131e-18)
(10.265623 0.19631816 1.3420362e-19)
(10.318547 0.20539404 -1.3511524e-19)
(10.371222 0.20777988 2.0387063e-18)
(10.429834 0.20642471 -2.0614476e-18)
(10.489399 0.20128934 2.0598472e-18)
(10.552268 0.19024824 -2.2861429e-18)
(10.611961 0.17613226 0)
(10.668532 0.15545986 1.106866e-18)
(10.719865 0.13057157 -1.252158e-18)
(10.759766 0.10172776 5.5391092e-19)
(10.796526 0.066659348 -5.2111361e-19)
(10.815776 0.030902967 -2.4194289e-19)
(10.830419 -0.0069038887 2.8063936e-19)
(10.035364 0.044665522 -6.5863772e-21)
(10.048698 0.058155213 -7.1013127e-18)
(10.066764 0.077187601 1.1236997e-19)
(10.094399 0.091184743 -1.1807584e-22)
(10.127137 0.10994469 1.1487139e-19)
(10.1703 0.12395343 0)
(10.21741 0.1376342 3.7438782e-18)
(10.267499 0.15065376 -3.904546e-18)
(10.322201 0.15690577 1.1880204e-19)
(10.37856 0.16722618 -1.8507699e-18)
(10.434721 0.16807777 3.9068695e-18)
(10.4982 0.16997026 -3.8599501e-18)
(10.55468 0.1647628 1.9392246e-18)
(10.616924 0.15534362 0)
(10.670647 0.14012882 -9.350807e-19)
(10.717376 0.11760969 9.6926345e-19)
(10.757012 0.092418758 -1.5014749e-20)
(10.781521 0.061784891 3.6320423e-23)
(10.798691 0.029407106 -3.742247e-21)
(10.014959 0.020405942 6.1851737e-18)
(10.026827 0.027867215 -6.2131399e-18)
(10.045564 0.034640048 6.197828e-18)
(10.067644 0.043396086 9.9386546e-20)
(10.0995 0.052419206 0)
(10.139377 0.0590673 0)
(10.185715 0.065003692 -5.0964101e-20)
(10.238993 0.067754162 -3.2369328e-18)
(10.296479 0.068722267 3.3724797e-18)
(10.35639 0.0687939 3.2962065e-18)
(10.419591 0.065078706 -1.6045281e-18)
(10.481034 0.060983303 -1.757897e-18)
(10.541085 0.053993609 0)
(10.599605 0.046157094 2.6280963e-20)
(10.64852 0.037308555 2.621506e-20)
(10.69306 0.026216273 8.2322287e-19)
(10.726172 0.014344921 -8.518579e-19)
(10.747168 -0.001711583 1.8896319e-19)
(10.75874 -0.017112495 -2.0835201e-19)
(10.006676 0.0057844931 -4.1672903e-20)
(10.013553 0.0090213931 5.3783865e-18)
(10.02625 0.013855545 -4.6025478e-21)
(10.04526 0.019810326 -6.5987744e-21)
(10.071274 0.02640709 -5.5618212e-18)
(10.104767 0.033403447 0)
(10.145722 0.040383543 2.7782438e-18)
(10.193643 0.04719698 -2.805186e-18)
(10.247556 0.05321175 -4.4597548e-20)
(10.30649 0.058070143 -2.2391065e-20)
(10.369192 0.061516819 -2.245726e-20)
(10.433522 0.063362103 2.2506849e-20)
(10.495876 0.064240139 0)
(10.556211 0.064666247 1.4233274e-18)
(10.612481 0.062809962 -1.4565778e-18)
(10.662189 0.061461675 -7.1330408e-19)
(10.707245 0.051479049 7.2755544e-19)
(10.733692 0.044405135 3.6719237e-19)
(10.759408 0.030978629 -3.6079356e-19)
(13.153809 0.14834162 -1.3636574e-19)
(13.181622 0.0026453942 -5.4514245e-19)
(13.229275 -0.22522984 5.3199821e-19)
(13.178157 -0.36241989 0)
(13.224715 -0.58158201 -9.9724475e-19)
(13.136854 -0.69678376 -1.927335e-18)
(13.163919 -0.91199303 0)
(13.080683 -1.0072951 -2.1753937e-20)
(13.050229 -1.2143692 3.2979497e-18)
(12.973459 -1.3167615 1.5716767e-18)
(12.933661 -1.5080896 -1.4768781e-18)
(12.865938 -1.6199055 2.7881975e-18)
(12.829985 -1.7793074 -2.6073481e-18)
(12.759011 -1.9078979 0)
(12.71197 -2.0678669 1.1687394e-18)
(12.661115 -2.2075852 -1.0848554e-18)
(12.604164 -2.3729637 -2.0585948e-18)
(12.587307 -2.5473938 1.9319862e-18)
(12.56385 -2.7198726 -9.0596896e-19)
(13.0516 0.16601297 -1.1801515e-19)
(13.084648 -0.056730974 7.0639013e-19)
(13.077013 -0.23057778 -4.6293815e-19)
(13.067794 -0.44746987 0)
(13.060427 -0.61192768 -8.7985061e-19)
(12.988424 -0.79882348 2.5302495e-18)
(12.998459 -0.96938395 0)
(12.898812 -1.1245582 0)
(12.890755 -1.2851677 0)
(12.779876 -1.4316754 0)
(12.752073 -1.5878575 2.628395e-18)
(12.659208 -1.7116185 -3.7401704e-18)
(12.635245 -1.8603313 -3.5532882e-18)
(12.537061 -1.9792405 2.2158576e-18)
(12.49919 -2.1598589 -2.0978397e-18)
(12.413089 -2.2572543 1.9958876e-18)
(12.337936 -2.4702435 -1.2546515e-20)
(12.286642 -2.5862299 -1.7597158e-18)
(12.21822 -2.8181436 1.6767385e-18)
(12.965368 0.15335676 0)
(12.951535 -0.017647529 -4.1237711e-19)
(12.970743 -0.24170014 -8.0832574e-19)
(12.945693 -0.41553944 -4.3483646e-21)
(12.911458 -0.6183317 -7.8927066e-21)
(12.870587 -0.78507064 1.5005963e-18)
(12.815495 -0.9669243 -2.8546442e-18)
(12.764449 -1.1176849 1.3577152e-18)
(12.690351 -1.2819767 1.5965002e-20)
(12.630567 -1.4450328 0)
(12.530153 -1.5877477 3.5449658e-18)
(12.474024 -1.7503191 8.5258258e-21)
(12.386589 -1.8693668 2.1225343e-18)
(12.316894 -2.0468958 2.0252201e-18)
(12.239284 -2.1767961 2.8496476e-18)
(12.164293 -2.3225621 -3.5773466e-18)
(12.040952 -2.5141932 -6.0651018e-21)
(11.975875 -2.6364336 3.2126569e-18)
(11.863463 -2.869863 1.5355743e-18)
(12.84451 0.101155 3.580994e-19)
(12.830143 -0.071951464 -7.1483983e-19)
(12.855766 -0.31216008 1.0531699e-18)
(12.809245 -0.46694964 0)
(12.802762 -0.69969916 2.0109246e-18)
(12.721925 -0.83265858 -3.2467088e-18)
(12.684214 -1.0515103 2.5121314e-18)
(12.599962 -1.1679487 -3.7575886e-21)
(12.533242 -1.3722932 1.7614024e-20)
(12.438594 -1.4808891 -1.1146404e-18)
(12.337387 -1.6637457 0)
(12.267762 -1.767222 -9.9605544e-19)
(12.12961 -1.9435709 9.7537466e-19)
(12.076966 -2.0563398 -1.7973847e-18)
(11.928827 -2.2197318 0)
(11.875581 -2.3452741 0)
(11.690579 -2.5236731 -1.532905e-18)
(11.625142 -2.6638326 0)
(11.417049 -2.85397 1.3820394e-18)
(12.711759 0.13945975 3.1052068e-19)
(12.751514 -0.073556974 -3.0861637e-19)
(12.736488 -0.2765108 4.1059137e-21)
(12.722206 -0.46047472 -5.9888818e-19)
(12.668419 -0.67579216 5.7744759e-19)
(12.603157 -0.82307621 -2.3457127e-21)
(12.535423 -1.029228 -1.0987864e-18)
(12.441762 -1.1520984 0)
(12.35584 -1.3517062 -2.048955e-18)
(12.258047 -1.4583777 9.753946e-19)
(12.144837 -1.6377036 0)
(12.059041 -1.754753 0)
(11.923898 -1.9088052 -1.6983352e-18)
(11.822348 -2.0313385 -1.6407113e-18)
(11.668702 -2.1818503 1.5619045e-18)
(11.577623 -2.2922818 2.9592919e-18)
(11.369097 -2.471802 1.430542e-18)
(11.263322 -2.5664832 -1.316032e-18)
(11.027661 -2.7762581 -2.4349769e-20)
(12.581911 0.066177907 0)
(12.609718 -0.11312066 2.6947067e-19)
(12.591929 -0.33863856 -1.3246085e-18)
(12.567666 -0.52627181 5.2214436e-19)
(12.511366 -0.71417371 1.5327864e-18)
(12.456942 -0.88703684 -1.0060558e-18)
(12.360369 -1.0632161 -1.9473775e-18)
(12.288697 -1.2148752 1.8674317e-18)
(12.163475 -1.3799018 -9.2054396e-19)
(12.092391 -1.4989763 1.7338055e-18)
(11.916651 -1.6614915 0)
(11.848917 -1.7749152 0)
(11.652471 -1.9034648 -1.5415269e-18)
(11.563323 -2.030173 4.3882538e-18)
(11.353614 -2.1344895 -5.5653563e-18)
(11.239866 -2.2636938 2.6572176e-18)
(11.022949 -2.3668055 -5.0988018e-18)
(10.858521 -2.4861183 1.2192383e-18)
(10.62214 -2.6106334 2.3229489e-18)
(12.507716 0.098237717 5.8685185e-20)
(12.501381 -0.11375841 2.3454369e-19)
(12.507152 -0.32824576 -4.5919369e-19)
(12.468246 -0.50477542 0)
(12.421472 -0.71130768 -8.9582754e-19)
(12.339103 -0.87674633 2.6165111e-18)
(12.249471 -1.0494522 -1.6909264e-18)
(12.142455 -1.2085539 8.3018706e-19)
(12.023813 -1.3463793 -1.6048697e-18)
(11.91195 -1.4919614 4.6316535e-18)
(11.746588 -1.6185786 -2.9545736e-18)
(11.652283 -1.7359326 0)
(11.439291 -1.8505973 1.3582595e-18)
(11.325957 -1.9575304 2.6325305e-18)
(11.087314 -2.0500232 -3.7480652e-18)
(10.949908 -2.1519706 3.6261036e-18)
(10.672118 -2.2253958 -3.4660718e-18)
(10.520141 -2.3208693 -2.2311111e-18)
(10.191505 -2.354676 -1.0761468e-18)
(12.370537 0.055797499 1.5201288e-19)
(12.337298 -0.16890774 2.0194669e-19)
(12.374088 -0.35401531 -3.9855051e-19)
(12.285707 -0.56015086 0)
(12.265248 -0.73242409 1.5509346e-18)
(12.141205 -0.91224275 -7.6547397e-19)
(12.074245 -1.0699694 0)
(11.926509 -1.2270012 -1.4485135e-18)
(11.840141 -1.353963 7.0742416e-19)
(11.660795 -1.4946149 0)
(11.540261 -1.5945172 -1.3229009e-18)
(11.357583 -1.7155017 1.2753785e-18)
(11.195135 -1.7871246 1.2275272e-18)
(11.024922 -1.8908857 -2.3559333e-18)
(10.794121 -1.9390289 2.2448633e-18)
(10.627634 -2.0174331 -1.0745312e-18)
(10.352031 -2.0440366 -1.0474999e-18)
(10.191436 -2.0769336 -1.0060964e-18)
(9.8592529 -2.0704619 -9.669071e-19)
(12.300481 0.048993941 3.5037117e-19)
(12.239501 -0.15959556 -1.7368067e-19)
(12.2819 -0.35272599 0)
(12.172138 -0.55663889 0)
(12.160608 -0.72520327 -1.3501089e-18)
(12.014537 -0.9128523 1.3274803e-18)
(11.964925 -1.0509067 0)
(11.784684 -1.2150441 6.3135581e-19)
(11.702162 -1.3183929 -6.1453063e-19)
(11.492878 -1.4574533 0)
(11.375336 -1.5314375 1.155938e-18)
(11.13995 -1.6429894 1.3828294e-20)
(10.990338 -1.6874119 1.3559638e-20)
(10.741649 -1.7751134 0)
(10.563701 -1.7682107 -4.0547593e-18)
(10.282891 -1.8413831 3.8729841e-18)
(10.055095 -1.7780035 4.6914486e-18)
(9.8401222 -1.8038784 -6.3209098e-18)
(9.5369874 -1.7061669 4.3247486e-18)
(12.153229 0.017862358 0)
(12.116465 -0.17341757 1.6741293e-21)
(12.153268 -0.38068488 0)
(12.039603 -0.56877504 0)
(12.023394 -0.74021817 5.8389119e-19)
(11.8547 -0.92025655 6.4732961e-21)
(11.795959 -1.0524149 -5.7133413e-19)
(11.598814 -1.2031482 -1.677498e-18)
(11.504376 -1.2918483 2.1617334e-18)
(11.283917 -1.418156 0)
(11.161955 -1.4616043 -1.0329898e-18)
(10.924371 -1.5645759 -5.9955658e-18)
(10.771861 -1.5606661 2.8824105e-18)
(10.513739 -1.6279722 0)
(10.339276 -1.5678866 -3.6214804e-18)
(10.064191 -1.6047082 4.3425382e-18)
(9.8765584 -1.4744546 -3.3739847e-18)
(9.5770914 -1.4763644 4.0454792e-18)
(9.366349 -1.2777674 0)
(12.052801 -0.0058205715 -2.6260688e-19)
(12.020346 -0.17501246 1.3176105e-19)
(12.030852 -0.40046591 0)
(11.926848 -0.55397633 -1.0357257e-18)
(11.889992 -0.75311123 1.5304944e-18)
(11.716297 -0.8939136 -5.0109208e-19)
(11.651416 -1.0390369 -1.5003083e-18)
(11.429405 -1.1563029 3.4095743e-18)
(11.321915 -1.2454746 -1.8959326e-18)
(11.074243 -1.3371355 0)
(10.945613 -1.3798463 9.0070949e-19)
(10.680056 -1.4372847 5.3002185e-18)
(10.53238 -1.4098508 -3.4042897e-18)
(10.240846 -1.4361332 0)
(10.08273 -1.3416503 0)
(9.806099 -1.3320441 -1.5524749e-18)
(9.6646034 -1.1455988 7.5355639e-19)
(9.4120627 -1.1006969 -2.1773476e-18)
(9.2704438 -0.82390118 0)
(11.904985 -0.0045577672 -2.2722459e-19)
(11.904987 -0.18999873 6.8071927e-19)
(11.886094 -0.40225382 -6.7654828e-19)
(11.806898 -0.55100236 0)
(11.73745 -0.75330746 1.3404516e-18)
(11.579343 -0.86471482 -1.7461119e-18)
(11.487213 -1.0247153 0)
(11.282164 -1.0904762 8.5440465e-19)
(11.162858 -1.1929119 8.3830024e-19)
(10.911005 -1.2417139 0)
(10.778332 -1.2746911 0)
(10.515607 -1.2740407 -7.7297595e-19)
(10.380505 -1.2395007 -2.2769685e-18)
(10.097166 -1.198827 -2.4429735e-20)
(9.9551577 -1.0894534 2.1241012e-18)
(9.6624438 -1.0048798 1.3803479e-18)
(9.5671409 -0.81459527 -6.660404e-19)
(9.327053 -0.70132798 1.2881677e-18)
(9.2970734 -0.40420237 0)
(11.791116 -0.024551211 0)
(11.803994 -0.21148027 -7.8545592e-19)
(11.750773 -0.39655949 1.5599337e-18)
(11.698784 -0.56087477 -1.1629019e-18)
(11.589047 -0.73645349 0)
(11.451563 -0.84594476 0)
(11.307095 -0.99236958 0)
(11.11903 -1.0302668 -7.3837009e-19)
(10.968118 -1.1319272 -7.2606574e-19)
(10.717398 -1.1236621 0)
(10.569896 -1.1558014 -7.0307408e-19)
(10.303515 -1.1070317 -6.8646975e-19)
(10.180037 -1.0501926 -6.6368413e-19)
(9.9216764 -0.95029556 2.6046157e-18)
(9.8349438 -0.82341856 -2.5169329e-18)
(9.59037 -0.68645001 -6.0991156e-19)
(9.5452432 -0.48878473 3.5649117e-18)
(9.3560278 -0.33508313 -5.7251846e-18)
(9.393368 -0.053132947 3.3292783e-18)
(11.679401 -0.019845016 -4.2650566e-20)
(11.692119 -0.21365898 8.5135675e-20)
(11.634335 -0.38787506 8.4489686e-19)
(11.583543 -0.55573041 -2.0209832e-18)
(11.449435 -0.69426268 9.9471573e-19)
(11.334046 -0.81090583 0)
(11.152458 -0.91840534 0)
(10.997392 -0.95564411 6.4929497e-19)
(10.818821 -1.0243085 -2.5604351e-18)
(10.618091 -0.98604921 -6.5152058e-19)
(10.43915 -1.0073684 5.894492e-19)
(10.193961 -0.89225536 2.9904888e-18)
(10.061201 -0.83894452 5.8815179e-19)
(9.8257181 -0.68923176 0)
(9.768545 -0.56284222 1.6689256e-18)
(9.5803358 -0.37667893 0)
(9.6012717 -0.19005643 -3.1523659e-18)
(9.46873 -0.008862081 9.1286447e-18)
(9.5673902 0.27223786 -7.8573008e-18)
(11.566977 -0.037848384 7.3372159e-20)
(11.567711 -0.2268832 -7.2939666e-20)
(11.510121 -0.38395109 0)
(11.442273 -0.54963666 -8.7730737e-19)
(11.308441 -0.66476448 2.785276e-19)
(11.186488 -0.78523397 1.1434052e-18)
(10.984056 -0.85703852 0)
(10.839607 -0.89911876 -2.8230491e-18)
(10.632273 -0.91831303 1.6540817e-18)
(10.475211 -0.86709756 -3.8554657e-21)
(10.28718 -0.8337252 0)
(10.115979 -0.69585972 0)
(9.976883 -0.63840667 -5.1318939e-19)
(9.812781 -0.43844372 0)
(9.7691234 -0.31827738 3.005035e-21)
(9.6385228 -0.086614414 9.5195069e-19)
(9.7026597 0.062895152 -2.7769624e-18)
(9.6302136 0.29756061 7.1665386e-18)
(9.831615 0.51766766 -3.4711418e-18)
(11.490832 -0.040618213 2.2190598e-19)
(11.476717 -0.21870091 -1.8967478e-19)
(11.427948 -0.36820111 0)
(11.346564 -0.51935902 0)
(11.222599 -0.61547343 0)
(11.086213 -0.72589788 0)
(10.89613 -0.76098619 -1.9853687e-18)
(10.738823 -0.80245209 1.9481863e-18)
(10.516088 -0.77383307 2.4241895e-18)
(10.373434 -0.7221058 -9.4546373e-19)
(10.175317 -0.64377429 0)
(10.057952 -0.5217352 3.6924034e-18)
(9.9203962 -0.4162569 -6.75535e-18)
(9.8530566 -0.20256229 3.512573e-18)
(9.8159131 -0.085904825 -4.2967559e-18)
(9.7899116 0.16116768 2.5029464e-18)
(9.8881511 0.26819074 -8.1248759e-19)
(9.90891 0.5122225 -7.8819391e-19)
(10.192899 0.64835879 7.6617282e-19)
(11.367514 -0.055667142 2.1878836e-19)
(11.349739 -0.21605451 -7.104958e-19)
(11.302361 -0.36384372 4.3516616e-19)
(11.193874 -0.50003014 -8.7204077e-19)
(11.078995 -0.58897498 8.6292888e-19)
(10.932498 -0.67554329 0)
(10.771846 -0.68414909 -4.2957477e-19)
(10.60578 -0.70378065 1.7066893e-18)
(10.421554 -0.63577877 -1.6741185e-18)
(10.296199 -0.58474223 -4.1368069e-19)
(10.125914 -0.46820234 -3.2792894e-18)
(10.043253 -0.35088691 3.2013974e-18)
(9.9271635 -0.1960304 -3.9291443e-19)
(9.9285211 -0.018217273 2.314352e-18)
(9.9041053 0.11317954 -2.2501885e-18)
(9.9934397 0.31944342 0)
(10.093841 0.38935932 -5.7064809e-18)
(10.250353 0.58902152 6.2370848e-18)
(10.524955 0.55354192 0)
(11.301419 -0.060034815 -3.7743496e-19)
(11.287497 -0.20577429 3.7714518e-19)
(11.23299 -0.33577767 -7.540581e-19)
(11.111695 -0.45155278 7.4860886e-19)