/*--------------------------------*- C++ -*----------------------------------*\
  =========                 |
  \\      /  F ield         | OpenFOAM: The Open Source CFD Toolbox
   \\    /   O peration     | Website:  https://openfoam.org
    \\  /    A nd           | Version:  11
     \\/     M anipulation  |
\*---------------------------------------------------------------------------*/
FoamFile
{
    format      ascii;
    class       surfaceScalarField;
    location    "13";
    object      phi;
}
// * * * * * * * * * * * * * * * * * * * * * * * * * * * * * * * * * * * * * //

dimensions      [0 3 -1 0 0 0 0];

internalField   nonuniform List<scalar> 
10792
(
0.070025006
-0.042411735
-0.070574709
0.042961438
0.069430295
-0.040302366
0.040897076
0.068804682
-0.038177423
0.038803036
0.06798205
-0.035879914
0.036702545
0.067163912
-0.033549208
0.034367345
0.06633254
-0.031305276
0.032136648
0.065542113
-0.028768391
0.029558817
0.064719747
-0.02657749
0.027399856
0.063877527
-0.023764504
0.024606723
0.063137918
-0.02152543
0.02226504
0.062399959
-0.018714805
0.019452763
0.06169547
-0.016262904
0.016967394
0.061149466
-0.013475555
0.014021558
0.060530463
-0.010922735
0.011541739
0.060107904
-0.0080238152
0.0084463739
0.059602251
-0.00540419
0.0059098431
0.059279993
-0.0024953477
0.002817605
0.059288536
0.00018992432
-0.00019846689
0.0030940801
0.059206925
-0.0030124695
0.074258308
-0.041824765
-0.074845277
0.073645878
-0.039689937
0.072823954
-0.0373555
0.072012867
-0.035068827
0.071264269
-0.032800609
0.070442779
-0.030483786
0.069759831
-0.028085443
0.068843167
-0.025660826
0.068086826
-0.023008163
0.067346183
-0.020784787
0.066526376
-0.017894998
0.06591009
-0.015646619
0.065254404
-0.012819869
0.064684053
-0.010352384
0.064245804
-0.0075855665
0.063839565
-0.0049979519
0.063677837
-0.00233362
0.063458463
0.00040929845
0.0031956141
0.063356928
0.078857578
-0.041296813
-0.07938553
0.078222532
-0.039054891
0.077474679
-0.036607647
0.076836462
-0.034430609
0.07611173
-0.032075877
0.07536413
-0.029736185
0.074488393
-0.027209707
0.073549761
-0.024722193
0.072840653
-0.022299055
0.071926677
-0.019870811
0.071214218
-0.017182539
0.070512016
-0.014944416
0.069824513
-0.012132366
0.069342981
-0.009870852
0.068841016
-0.0070836014
0.068535909
-0.0046928452
0.06816818
-0.0019658908
0.068074544
0.0005029339
0.0033104764
0.067959682
0.083731084
-0.04071053
-0.084317367
0.083030445
-0.038354251
0.082354667
-0.035931869
0.081638098
-0.03371404
0.080803871
-0.03124165
0.079865628
-0.028797941
0.078967706
-0.026311785
0.078223252
-0.023977739
0.07739812
-0.021473923
0.076578313
-0.019051004
0.075945079
-0.016549305
0.075186756
-0.014186093
0.07466619
-0.0116118
0.07410062
-0.0093052825
0.073678311
-0.0066612923
0.07333915
-0.0043536847
0.073055148
-0.0016818883
0.072944698
0.00061338329
0.0033698121
0.072885363
0.088859504
-0.039996126
-0.089573908
0.088292452
-0.037787199
0.087642703
-0.03528212
0.086864427
-0.032935764
0.085979632
-0.030356855
0.085215699
-0.028034007
0.084475403
-0.025571489
0.083672283
-0.023174619
0.082836116
-0.020637755
0.082094834
-0.018309722
0.081378093
-0.015832564
0.08066471
-0.01347271
0.080051305
-0.010998395
0.079469439
-0.0087234169
0.079071086
-0.0062629391
0.078655183
-0.0039377822
0.078424952
-0.0014516574
0.078209138
0.00082919821
0.0033916722
0.078187278
0.094620304
-0.039322448
-0.095293982
0.093805202
-0.036972097
0.092986716
-0.034463634
0.092189135
-0.032138183
0.091393978
-0.029561698
0.090662175
-0.027302203
0.089748108
-0.024657422
0.088944137
-0.022370648
0.088168928
-0.019862546
0.08741413
-0.017554923
0.086680173
-0.015098607
0.085949602
-0.012742139
0.085345274
-0.010394067
0.084784418
-0.0081625609
0.08433591
-0.0058144306
0.083953678
-0.0035555506
0.083696368
-0.0011943475
0.083546587
0.00097897964
0.0033614224
0.083576837
0.10044862
-0.038529421
-0.10124165
0.099763143
-0.03628662
0.099046925
-0.033747415
0.098321964
-0.031413222
0.097581663
-0.028821396
0.096685222
-0.026405763
0.095865862
-0.023838062
0.095137255
-0.021642041
0.094326905
-0.019052195
0.093589609
-0.016817628
0.092827371
-0.01433637
0.092157438
-0.012072205
0.091497509
-0.0097341382
0.090910019
-0.007575071
0.090465037
-0.0053694487
0.090061913
-0.0031524266
0.089874486
-0.0010069201
0.08968295
0.0011705154
0.0032678095
0.089776563
0.10716811
-0.037732931
-0.1079646
0.10627123
-0.035389741
0.1054045
-0.032880686
0.10450268
-0.030511398
0.10365197
-0.027970682
0.10286682
-0.025620616
0.102077
-0.023048239
0.10119132
-0.020756364
0.10033694
-0.01819782
0.099562194
-0.016042879
0.098763301
-0.013537476
0.09810795
-0.011416855
0.097444589
-0.0090707769
0.0969422
-0.0070726827
0.09647346
-0.0049007086
0.096174722
-0.0028536877
0.09596188
-0.00079407794
0.09584783
0.0012845656
0.0031771137
0.095938526
0.11405243
-0.037002876
-0.11478248
0.11315832
-0.034495638
0.11234654
-0.032068906
0.11154273
-0.02970758
0.11073019
-0.027158145
0.10989246
-0.024782884
0.10904276
-0.02219854
0.10817802
-0.019891628
0.10737777
-0.017397571
0.10656014
-0.015225242
0.10581044
-0.012787783
0.10516303
-0.010769438
0.10456403
-0.0084717828
0.10407923
-0.0065878827
0.10357212
-0.004393595
0.10326589
-0.0025474616
0.10295347
-0.00048165239
0.10286152
0.0013765183
0.0031757296
0.1028629
0.12176511
-0.036043451
-0.12272454
0.12076357
-0.033494096
0.11986412
-0.031169456
0.11882623
-0.028669695
0.11786264
-0.026194553
0.11685156
-0.023771805
0.11594841
-0.02129539
0.11505699
-0.019000204
0.11423921
-0.016579788
0.11345675
-0.014442787
0.11275435
-0.012085384
0.11207577
-0.010090857
0.11145696
-0.0078529732
0.11093151
-0.0060624317
0.11049167
-0.0039537548
0.11023274
-0.0022885282
0.10998124
-0.00023015172
0.11001096
0.0013467949
0.0032159122
0.10997078
0.12960759
-0.034944734
-0.1307063
0.12857604
-0.032462548
0.12759451
-0.030187926
0.1266182
-0.027693389
0.12577146
-0.025347808
0.12489363
-0.02289398
0.124084
-0.020485759
0.1232306
-0.018146803
0.12248081
-0.015830002
0.12164058
-0.013602558
0.12089572
-0.011340515
0.12012312
-0.0093182631
0.11951551
-0.0072453659
0.11892753
-0.0054744434
0.11854115
-0.0035673766
0.11824289
-0.0019902666
0.11809944
-8.6708803e-05
0.11808337
0.0013628711
0.0031625839
0.1181367
0.13853774
-0.033626661
-0.13985581
0.13741492
-0.031339733
0.13625057
-0.029023574
0.13514646
-0.026589276
0.13406934
-0.024270686
0.13303207
-0.021856718
0.13212026
-0.01957394
0.13122139
-0.017247941
0.13044967
-0.015058278
0.12963137
-0.012784261
0.12893532
-0.010644458
0.12821662
-0.0085995666
0.12759213
-0.0066208803
0.12698502
-0.0048673294
0.12658472
-0.0031670791
0.12618582
-0.0015913592
0.12612361
-2.4498e-05
0.12605648
0.0014299973
0.0029903613
0.1262287
0.14772172
-0.032375394
-0.14897299
0.14666077
-0.030278782
0.14550398
-0.027866781
0.14452655
-0.025611851
0.14344679
-0.023190921
0.14240749
-0.020817423
0.14132695
-0.018493405
0.14033737
-0.016258356
0.13946463
-0.014185539
0.1386477
-0.011967334
0.13801468
-0.010011439
0.13734899
-0.0079338683
0.13678869
-0.0060605813
0.13627383
-0.004352468
0.13589107
-0.0027843257
0.13553915
-0.0012394378
0.13542297
9.1685754e-05
0.13532976
0.0015232082
0.0028290825
0.13549104
0.15797596
-0.030966199
-0.15938516
0.15656208
-0.028864899
0.1551505
-0.026455196
0.15397429
-0.024435651
0.15289962
-0.022116249
0.15201456
-0.019932362
0.15103912
-0.01751796
0.15009862
-0.015317861
0.14912931
-0.013216228
0.14830093
-0.011138957
0.14754276
-0.0092532718
0.14686461
-0.007255717
0.14625588
-0.0054518522
0.1457252
-0.003821784
0.14530109
-0.0023602148
0.14497642
-0.00091476758
0.14484668
0.00022142934
0.14477445
0.0015954358
0.0026379634
0.14496557
0.16898964
-0.029880041
-0.1700758
0.16764816
-0.027523415
0.16632292
-0.025129956
0.16490509
-0.023017824
0.16353676
-0.020747919
0.16233005
-0.018725647
0.16126167
-0.016449586
0.16034298
-0.014399169
0.15941296
-0.012286209
0.15857605
-0.010302046
0.15771982
-0.008397044
0.15701098
-0.0065468762
0.15639372
-0.0048345888
0.15592131
-0.0033493775
0.15549731
-0.0019362109
0.15522462
-0.00064208072
0.15505927
0.00038678166
0.15500441
0.0016502984
0.002478604
0.15516377
0.18012865
-0.028357742
-0.18165095
0.17865549
-0.02605025
0.1775947
-0.024069168
0.17633906
-0.021762182
0.17513241
-0.019541275
0.17379158
-0.017384816
0.1726134
-0.015271404
0.1715219
-0.01330767
0.17051021
-0.011274519
0.16964458
-0.0094364148
0.16883624
-0.0075887067
0.16816301
-0.0058736426
0.16755964
-0.0042312221
0.167094
-0.002883729
0.16673128
-0.0015734999
0.16653443
-0.00044522301
0.16637462
0.00054658927
0.16641949
0.0016054251
0.002335554
0.16656254
0.19282804
-0.026705385
-0.1944804
0.19117675
-0.024398962
0.18968977
-0.022582187
0.18823847
-0.020310876
0.18706818
-0.018370991
0.1857657
-0.016082332
0.18464517
-0.014150871
0.18342474
-0.012087241
0.18244682
-0.010296605
0.18147362
-0.0084632176
0.18062066
-0.0067357436
0.17984611
-0.0050990952
0.1791877
-0.0035728081
0.17865058
-0.0023466049
0.17824225
-0.0011651736
0.17799864
-0.00020161012
0.17786333
0.00068190052
0.17793399
0.0015347599
0.0021874675
0.17808208
0.20584396
-0.025027647
-0.2075217
0.20436697
-0.022921972
0.20280753
-0.021022743
0.20134943
-0.018852776
0.19997435
-0.016995911
0.19868981
-0.014797793
0.19753469
-0.012995754
0.19638051
-0.010933058
0.19540666
-0.0093227561
0.19441051
-0.0074670652
0.19361993
-0.0059451675
0.19287185
-0.0043510123
0.19230784
-0.0030087964
0.1917781
-0.0018168623
0.19146551
-0.00085258699
0.19121673
4.7170321e-05
0.19109896
0.00079967075
0.19116667
0.0014670498
0.0019793489
0.19137479
0.21977073
-0.023131888
-0.22166649
0.2181218
-0.021273044
0.21651725
-0.019418192
0.21512151
-0.01745704
0.21370381
-0.015578206
0.21245612
-0.013550108
0.2111759
-0.011715531
0.21011017
-0.0098673286
0.20904157
-0.0082541531
0.20808561
-0.0065111098
0.20724555
-0.0051051005
0.20644243
-0.0035478994
0.20582112
-0.002387479
0.20522993
-0.0012256776
0.20483589
-0.00045854782
0.20455772
0.00032534522
0.2044618
0.00089558771
0.20449567
0.0014331797
0.0018030424
0.20467198
0.23547818
-0.02131804
-0.23729203
0.23366303
-0.019457889
0.23190061
-0.017655779
0.2302675
-0.015823927
0.22873049
-0.014041197
0.22734554
-0.012165152
0.22604281
-0.010412807
0.22493618
-0.0087607022
0.22386268
-0.00718065
0.22300002
-0.0056484502
0.22214284
-0.0042479147
0.22147744
-0.0028825034
0.22088534
-0.0017953833
0.22044046
-0.00078079669
0.22005553
-7.3617037e-05
0.2198081
0.00057278324
0.21973987
0.00096381425
0.2198308
0.0013422514
0.0015974567
0.22003638
0.25122916
-0.019465245
-0.25308196
0.24952875
-0.017757478
0.24789414
-0.016021163
0.24629844
-0.014228225
0.24476474
-0.012507499
0.24331933
-0.010719739
0.24198122
-0.0090747007
0.24074158
-0.0075210582
0.23962168
-0.0060607494
0.23866627
-0.0046930463
0.23778932
-0.0033709664
0.23708963
-0.0021828144
0.23643457
-0.001140315
0.23595453
-0.00030076311
0.2355513
0.00032961351
0.23537057
0.0007535193
0.23526477
0.0010696067
0.2354039
0.0012031248
0.0013621494
0.23563921
0.26889872
-0.017151245
-0.27121272
0.26683085
-0.015689606
0.26495297
-0.014143289
0.2632799
-0.012555151
0.26173586
-0.01096346
0.26031047
-0.0092943527
0.25904044
-0.0078046716
0.25783787
-0.0063184849
0.25678384
-0.0050067199
0.25587282
-0.0037820226
0.25514801
-0.0026461607
0.25456107
-0.0015958755
0.254088
-0.0006672456
0.25363479
0.00015244695
0.25327374
0.00069067181
0.2530256
0.0010016515
0.25291581
0.0011794055
0.25296085
0.0011580788
0.0011610578
0.25316194
0.28787206
-0.014796673
-0.29022663
0.28561529
-0.013432834
0.28354166
-0.012069661
0.28165142
-0.010664913
0.27996409
-0.0092761251
0.27848075
-0.0078110211
0.27712874
-0.0064526582
0.27593843
-0.005128172
0.2748444
-0.0039126915
0.2739348
-0.0028724265
0.27315626
-0.0018676175
0.27256805
-0.0010076634
0.27220075
-0.00029995098
0.27197293
0.00038026998
0.27184693
0.00081667479
0.27171514
0.0011334356
0.27171119
0.0011833566
0.27174571
0.0011235637
0.00098913224
0.27191763
0.30826703
-0.011960574
-0.31110313
0.30578118
-0.010946976
0.30352306
-0.0098115448
0.30153262
-0.0086744732
0.29973598
-0.0074794861
0.29819041
-0.0062654507
0.29687056
-0.0051328048
0.29571205
-0.0039696615
0.29477632
-0.0029769673
0.2939221
-0.0020182066
0.29324532
-0.0011908373
0.29269083
-0.00045317322
0.29223458
0.00015630646
0.29199896
0.00061588343
0.29186344
0.00095220048
0.291866
0.0011308734
0.29190096
0.0011483958
0.29199475
0.0010297719
0.00080337654
0.29218051
0.33126638
-0.0084929681
-0.33473399
0.32813891
-0.0078195097
0.32534975
-0.0070223773
0.32291744
-0.0062421668
0.32078609
-0.0053481368
0.3189706
-0.0044499651
0.31746548
-0.0036276786
0.31624697
-0.0027511539
0.31531691
-0.0020469033
0.31459654
-0.001297843
0.31411265
-0.00070693901
0.31386365
-0.00020418122
0.31378629
0.00023366578
0.31380843
0.00059374602
0.31388671
0.00087392506
0.31402591
0.00099166862
0.31417108
0.0010032233
0.31434248
0.0008583723
0.00062638756
0.31451947
0.3561622
-0.0045352018
-0.36011996
0.35251989
-0.0041772021
0.34929678
-0.0037992707
0.3464365
-0.0033818866
0.34399095
-0.0029025894
0.34196714
-0.0024261531
0.34029121
-0.0019517441
0.3390313
-0.0014912466
0.33806257
-0.0010781696
0.33743563
-0.00067090264
0.33705493
-0.00032623852
0.3368622
-1.1451672e-05
0.33689083
0.00020503381
0.33708864
0.00039593701
0.33741628
0.00054628345
0.33771851
0.00068943361
0.33805005
0.00067168491
0.33832411
0.000584311
0.00044663706
0.33850386
0.38395762
-0.38849282
0.37978041
0.37598114
0.37259926
0.36969667
0.36727051
0.36531877
0.36382752
0.36274935
0.36207845
0.36175221
0.36174076
0.36194579
0.36234173
0.36288802
0.36357745
0.36424913
0.36483344
0.36528008
0.059196586
0.0060833836
-0.0060730452
0.059292835
0.0089599376
-0.0090561863
0.0596606
0.011795691
-0.012163456
0.060120336
0.014795209
-0.015254945
0.060861985
0.017713901
-0.018455551
0.061740171
0.020599016
-0.021477201
0.062885901
0.023704007
-0.024849737
0.064160686
0.026764165
-0.028038951
0.065707623
0.029703185
-0.031250122
0.067387492
0.033005079
-0.034684949
0.069245812
0.035945854
-0.037804173
0.071264731
0.03912255
-0.04114147
0.073478305
0.042185822
-0.044399396
0.075974656
0.045018337
-0.047514687
0.078745462
0.048342192
-0.051112999
0.081863568
0.051114771
-0.054232878
0.085413335
0.054467556
-0.058017322
0.089277838
0.05744288
-0.061307383
0.060404007
0.09373405
-0.064860219
0.06331759
0.0061227213
0.063474454
0.0088030734
0.063954383
0.011315762
0.064627146
0.014122445
0.06555559
0.016785458
0.06661237
0.019542235
0.067945176
0.022371201
0.06943624
0.025273101
0.071142096
0.02799733
0.073087936
0.031059238
0.075239976
0.033793813
0.07746623
0.036896296
0.080030707
0.039621345
0.082708154
0.042340889
0.085880119
0.045170228
0.08924435
0.047750541
0.093268548
0.050443357
0.097515543
0.053195885
0.055086163
0.10283339
0.067949778
0.0061326259
0.068110996
0.0086418556
0.068594079
0.010832678
0.069300551
0.013415973
0.070245967
0.015840042
0.071434353
0.018353848
0.072834462
0.020971092
0.074501052
0.023606511
0.076329286
0.026169096
0.078485079
0.028903445
0.080872744
0.031406148
0.083392419
0.03437662
0.086438488
0.036575276
0.089469696
0.039309681
0.093201561
0.041438362
0.097009476
0.043942626
0.10165148
0.045801353
0.10649506
0.048352306
0.049320935
0.11226029
0.072959161
0.0060588277
0.073147213
0.0084538029
0.073772928
0.010206963
0.074478087
0.012710815
0.075603204
0.014714925
0.076804151
0.017152901
0.078410568
0.019364675
0.080124986
0.021892092
0.08222507
0.024069012
0.084493496
0.026635019
0.087131511
0.028768132
0.09002085
0.031487281
0.093347888
0.033248238
0.096840795
0.035816774
0.10090422
0.037374941
0.10525153
0.039595317
0.1102314
0.040821483
0.11572243
0.042861271
0.043226578
0.12181679
0.078123666
0.0061224402
0.078399912
0.0081775563
0.078976908
0.0096299678
0.079768857
0.011918866
0.080986939
0.013496842
0.082311628
0.015828212
0.084088157
0.017588146
0.085983153
0.019997096
0.088205067
0.021847097
0.090652966
0.02418712
0.093435368
0.025985729
0.096562906
0.028359743
0.10004937
0.029761776
0.10390037
0.031965773
0.10821874
0.033056567
0.11283326
0.034980794
0.11806302
0.035591725
0.12374583
0.037178468
0.037122729
0.12984967
0.083604625
0.0060946518
0.084037586
0.0077445955
0.084609208
0.0090583457
0.085660565
0.010867509
0.086876664
0.012280742
0.088461042
0.014243833
0.090279423
0.015769765
0.092371978
0.017904541
0.09469915
0.019519925
0.097434362
0.021451908
0.10036587
0.023054223
0.10380746
0.024918152
0.10740391
0.026165323
0.11152083
0.02784885
0.11587609
0.028701315
0.12062449
0.030232394
0.12575165
0.030464566
0.13107537
0.031854746
0.031495701
0.1367024
0.089786101
0.0060851145
0.0902658
0.0072648967
0.090857153
0.0084669926
0.091975129
0.0097495327
0.09319025
0.011065622
0.0949853
0.012448782
0.096809315
0.01394575
0.099176073
0.015537782
0.10163432
0.017061677
0.10457115
0.018515078
0.10764702
0.019978355
0.1112041
0.021361067
0.11493914
0.022430282
0.11912408
0.023663915
0.12334775
0.02447764
0.12804694
0.025533203
0.13249798
0.02601353
0.13737138
0.026981342
0.026952018
0.14191507
0.096014368
0.0060092728
0.096543448
0.0067358164
0.097204234
0.007806207
0.098478789
0.0084749766
0.099845777
0.0096986338
0.10177992
0.010514641
0.10371445
0.012011213
0.10624541
0.013006826
0.10878027
0.014526813
0.11191108
0.01538427
0.11501643
0.016873001
0.11875893
0.017618571
0.12231014
0.018879066
0.12642174
0.019552318
0.13033178
0.020567606
0.13448519
0.02137979
0.13828891
0.022209811
0.14231155
0.022958703
0.023568224
0.14569534
0.10307363
0.0057985449
0.1036166
0.0061928495
0.10445327
0.0069695337
0.10575592
0.0071723265
0.10719264
0.0082619081
0.10911776
0.0085895294
0.11115142
0.0099775454
0.11376402
0.010394233
0.11642505
0.011865778
0.11965211
0.012157211
0.12277505
0.013750063
0.12647299
0.013920629
0.12969909
0.015652963
0.13351179
0.015739617
0.13662688
0.017452516
0.14014209
0.017864587
0.14280056
0.019551332
0.14547318
0.020286085
0.021741318
0.14730009
0.11032712
0.0054422042
0.1107227
0.0057972738
0.11187283
0.0058193965
0.11312893
0.0059162311
0.11488017
0.0065106605
0.11681882
0.006650886
0.11907935
0.007717011
0.12165938
0.0078141983
0.1244504
0.0090747635
0.12753437
0.0090732372
0.13058291
0.010701521
0.13386881
0.010634733
0.13685531
0.012666462
0.140094
0.012500931
0.14237778
0.015168728
0.14500288
0.015239492
0.14637059
0.018183625
0.14771817
0.018938504
0.021952117
0.14750737
0.11844875
0.0051301478
0.11891364
0.0053323881
0.12017756
0.0045554715
0.12130542
0.0047883782
0.12326607
0.00455001
0.12501969
0.004897265
0.12748006
0.0052566338
0.12992523
0.0053690324
0.13277928
0.0062207152
0.13542254
0.0064299723
0.13825395
0.0078701073
0.14087978
0.008008908
0.14339095
0.010155294
0.14543893
0.010452942
0.14690327
0.013704394
0.14798091
0.014161849
0.14789454
0.018269996
0.14765542
0.019177622
0.024301813
0.14530573
0.12650347
0.004855381
0.1272709
0.0045649587
0.12844786
0.003378507
0.12975469
0.0034815484
0.13178039
0.0025243119
0.13352047
0.0031571777
0.13611584
0.0026612673
0.13838005
0.0031048209
0.14114627
0.0034545005
0.1435064
0.0040698379
0.14607803
0.0052984755
0.14800384
0.0060831023
0.14982715
0.008331977
0.15075725
0.0095228451
0.15129351
0.013168129
0.15059261
0.014862756
0.148992
0.019870606
0.14649107
0.021678552
0.02843204
0.14236084
0.13570802
0.0046383999
0.13665592
0.0036170534
0.13757767
0.0024567628
0.13910984
0.0019493718
0.14088415
0.0007500004
0.14282217
0.0012191572
0.14524961
0.00023383405
0.14722987
0.0011245618
0.14978557
0.00089879082
0.15154217
0.0023132384
0.1534715
0.003369147
0.15451338
0.0050412288
0.15533778
0.0075075712
0.15500778
0.00985285
0.15423538
0.013940525
0.15219141
0.016906725
0.14939814
0.022663879
0.14528351
0.02579318
0.033519498
0.14019605
0.14531311
0.00429086
0.14627096
0.0026592039
0.14719965
0.0015280702
0.14893279
0.00021623047
0.15045742
-0.00077462775
0.15257439
-0.00089781696
0.154512
-0.0017037813
0.15641666
-0.00078009466
0.15844896
-0.0011335075
0.15972073
0.001041464
0.16123175
0.0018581251
0.16121172
0.0050612639
0.1609215
0.0077977863
0.15918174
0.011592612
0.1572019
0.015920368
0.15374874
0.020359882
0.15001957
0.026393048
0.14491539
0.030897367
0.039252736
0.13918215
0.15561341
0.0038412178
0.15651484
0.0017577708
0.1575645
0.00047841805
0.15920386
-0.001423137
0.16061458
-0.0021853495
0.1627107
-0.0029939337
0.1641886
-0.0031816813
0.16600285
-0.0025943477
0.16716057
-0.0022912267
0.16812407
7.7967792e-05
0.16847508
0.0015071104
0.16745952
0.0060768299
0.16641274
0.0088445625
0.16371675
0.014288601
0.16082403
0.018813089
0.15619337
0.024990545
0.15166427
0.03092214
0.14543096
0.037130677
0.04563167
0.13905203
0.16708691
0.0033168543
0.1678525
0.00099217344
0.16896022
-0.0006292958
0.17041413
-0.0028770508
0.17181778
-0.0035889965
0.17365049
-0.0048266484
0.17482759
-0.0043587857
0.17631907
-0.0040858281
0.17664218
-0.002614333
0.17686165
-0.00014149823
0.17567714
0.0026916125
0.17423591
0.0075180637
0.17208838
0.010992089
0.16857783
0.017799159
0.16492919
0.02246173
0.15969595
0.030223777
0.15487529
0.035742801
0.14845766
0.043548308
0.051313737
0.14277559
0.17861286
0.0027860716
0.17939704
0.00020799004
0.18062794
-0.0018601878
0.18181553
-0.0040646432
0.18313463
-0.0049081004
0.18450125
-0.0061932658
0.18545977
-0.0053173042
0.18636864
-0.0049946998
0.1860489
-0.0022945972
0.1856769
0.00023050092
0.18383725
0.0045312711
0.18206751
0.0092877995
0.17854282
0.014516781
0.17473728
0.021604699
0.17033363
0.026865378
0.16530912
0.035248283
0.16107999
0.039971933
0.15624628
0.048382018
0.052799798
0.15476022
0.19190563
0.00225523
0.192701
-0.00058737966
0.19387459
-0.0030337806
0.19477002
-0.0049600692
0.19583115
-0.0059692301
0.19654566
-0.0069077759
0.19707881
-0.0058504581
0.19707078
-0.0049866682
0.1961964
-0.0014202198
0.19507516
0.0013517398
0.19273
0.0068764318
0.1903075
0.011710306
0.18630052
0.018523761
0.18306444
0.024840774
0.17897323
0.030956585
0.17628375
0.037937769
0.17456872
0.041686955
0.17514038
0.047810359
0.046862811
0.18107737
0.2051706
0.0017566093
0.20589416
-0.00131094
0.20678208
-0.0039217006
0.20767415
-0.005852139
0.20869903
-0.0069941126
0.20896444
-0.0071731832
0.20909453
-0.0059805533
0.2083267
-0.0042188379
0.2073387
-0.00043221654
0.205559
0.0031314375
0.2028373
0.0095981297
0.19987592
0.014671694
0.19642646
0.021973213
0.19426326
0.02700398
0.19216221
0.03305763
0.19321247
0.036887516
0.19582317
0.039076247
0.20329788
0.04033565
0.035951852
0.21420884
0.22043108
0.0013619166
0.22102019
-0.0019000591
0.22168224
-0.0045837492
0.22235933
-0.0065292246
0.22284575
-0.0074805344
0.22283646
-0.0071638976
0.22259649
-0.0057405836
0.22131968
-0.0029420204
0.21999388
0.00089358257
0.2174702
0.0056551207
0.2150641
0.012004221
0.21258646
0.01714934
0.21101381
0.023545859
0.21088898
0.02712881
0.21238741
0.031559207
0.21737296
0.031901966
0.22424984
0.032199362
0.2352622
0.029323291
0.025502645
0.24571141
0.23618535
0.00081576957
0.23668498
-0.0023996863
0.23714553
-0.0050442957
0.23744166
-0.0068253568
0.2373744
-0.0074132791
0.23692626
-0.0067157579
0.23596614
-0.0047804625
0.23457
-0.0015458796
0.23288838
0.0025752023
0.23028086
0.0082626495
0.22878508
0.013499994
0.22745197
0.018482454
0.2283239
0.022673925
0.23075882
0.024693888
0.23579429
0.02652374
0.24301859
0.024677671
0.25164684
0.023571111
0.26134565
0.01962448
0.019187757
0.26766053
0.25365563
0.00032208081
0.25394824
-0.0026922917
0.25421148
-0.0053075344
0.25419422
-0.0068081042
0.25390829
-0.0071273436
0.25329703
-0.0061045047
0.25227201
-0.0037554367
0.25089096
-0.00016483308
0.24898129
0.0044848754
0.24756032
0.0096836151
0.24724429
0.013816033
0.24802103
0.017705708
0.25122942
0.019465537
0.25551691
0.020406396
0.2621648
0.01987585
0.26929894
0.017543538
0.27658785
0.016282194
0.28183861
0.014373722
0.017859733
0.28316664
0.27227026
-3.0549896e-05
0.27230387
-0.0027258946
0.27212769
-0.0051313553
0.271577
-0.0062574158
0.27064811
-0.0061984533
0.26924757
-0.0047039686
0.26780798
-0.0023158456
0.2664335
0.0012096461
0.26523172
0.0056866568
0.2652918
0.0096235423
0.26635353
0.0127543
0.26950064
0.014558594
0.27397506
0.014991121
0.2794771
0.014904358
0.28607225
0.013280701
0.29127591
0.012339881
0.29498544
0.012572655
0.29554588
0.013813286
0.020074347
0.29333127
0.29234151
-0.00019155017
0.29243207
-0.0028164556
0.29210903
-0.0048083187
0.29158319
-0.0057315754
0.29083298
-0.0054482384
0.28981417
-0.0036851637
0.28863829
-0.0011399591
0.28765587
0.0021920586
0.28761453
0.0057280004
0.28878804
0.0084500318
0.29124996
0.010292383
0.29483003
0.010978518
0.29890425
0.010916901
0.3039148
0.009893807
0.30804201
0.009153491
0.31014201
0.010239883
0.3106052
0.012109467
0.30869773
0.015720754
0.021881494
0.30689058
0.31459799
-0.00027006707
0.31397246
-0.0021909279
0.3128815
-0.0037173545
0.31133242
-0.0041824987
0.3094223
-0.0035381225
0.30786898
-0.0021318341
0.30692414
-0.00019512529
0.30679564
0.0023205603
0.30790792
0.0046157187
0.3102947
0.006063252
0.31393699
0.0066500949
0.31827138
0.0066441246
0.32284077
0.0063475154
0.32680122
0.005933362
0.32883912
0.0071155902
0.3300469
0.0090320944
0.33041893
0.011737441
0.33107776
0.015061927
0.017961241
0.33499801
0.33858997
-0.00035616828
0.33784393
-0.0014448888
0.33659458
-0.0024680089
0.33531
-0.0028979156
0.33419613
-0.0024242539
0.33353812
-0.0014738209
0.33347436
-0.00013137071
0.33463932
0.001155601
0.3367349
0.0025201451
0.33947642
0.0033217239
0.3423237
0.0038028231
0.34518819
0.003779628
0.34727813
0.0042575801
0.34861857
0.0045929208
0.34962198
0.006112182
0.35196292
0.0066911485
0.35521676
0.0084836088
0.36156596
0.0087127192
0.0085208612
0.37100634
0.36492391
0.36347902
0.36101102
0.3581131
0.35568885
0.35421503
0.35408365
0.35523926
0.3577594
0.36108112
0.36488395
0.36866358
0.37292116
0.37751408
0.38362626
0.39031741
0.39880102
0.40751374
0.4160346
0.092103337
0.069994655
-0.068363942
0.090754311
0.073319498
-0.071970473
0.089618919
0.076510703
-0.075375311
0.08889428
0.080130808
-0.079406169
0.088503951
0.083245318
-0.082854989
0.08876722
0.086336657
-0.086599926
0.089395354
0.090002385
-0.090630519
0.090965053
0.092977771
-0.094547471
0.092622213
0.096558184
-0.098215343
0.094109828
0.098435793
-0.099923409
0.094910407
0.10049177
-0.10129234
0.094456384
0.10047767
-0.10002364
0.092556413
0.098443588
-0.096543617
0.089566725
0.094289061
-0.091299374
0.084721167
0.088135634
-0.083290075
0.077078596
0.078751202
-0.071108632
0.065463404
0.066955282
-0.05534009
0.050057405
0.053210444
-0.037804445
0.038655036
0.032297314
-0.020894944
0.10133491
0.071493133
0.10060641
0.074047994
0.099970216
0.077146901
0.10011435
0.079986671
0.10041895
0.082940722
0.10163347
0.085122135
0.10311938
0.088516476
0.10510106
0.09099609
0.1084493
0.093209946
0.11151986
0.095365232
0.11506449
0.096947141
0.11779833
0.097743824
0.11953068
0.096711232
0.11989338
0.093926366
0.11850805
0.089520968
0.11431441
0.082944833
0.10685348
0.074416221
0.095270342
0.064793577
0.053637366
0.080288012
0.11094903
0.072804392
0.11019346
0.074803559
0.10970294
0.077637427
0.10992756
0.079762045
0.11043425
0.082434035
0.11181033
0.083746059
0.1138095
0.086517299
0.11609925
0.088706342
0.11972168
0.089587513
0.12317273
0.091914183
0.12716454
0.092955336
0.13139842
0.093509943
0.13551184
0.092597807
0.13773059
0.091707618
0.13831121
0.088940347
0.13654266
0.08471338
0.13241128
0.078547602
0.12489249
0.072312367
0.065022798
0.11350706
0.12041021
0.074210964
0.11941158
0.075802195
0.11897738
0.078071626
0.11895445
0.079784971
0.11943687
0.081951615
0.12034931
0.08283362
0.12200012
0.084866493
0.12425017
0.086456294
0.12671149
0.087126194
0.13049181
0.088133863
0.13449186
0.088955281
0.13840902
0.089592782
0.14203653
0.0889703
0.14526152
0.088482626
0.14754818
0.086653685
0.14780789
0.084453675
0.14500732
0.081348172
0.1403811
0.076938591
0.072706387
0.13269751
0.12843316
0.075627479
0.1272492
0.076986158
0.12675097
0.078569847
0.1263097
0.080226249
0.12665606
0.081605252
0.12728287
0.082206804
0.12832566
0.083823705
0.13007526
0.084706692
0.131967
0.085234461
0.13506817
0.085032692
0.13794528
0.086078164
0.1411639
0.086374165
0.14477645
0.085357754
0.14846555
0.084793526
0.15095527
0.084163966
0.15243348
0.082975465
0.15186478
0.081916864
0.14925364
0.079549737
0.077285797
0.14467423
0.1350093
0.077320574
0.13367888
0.078316584
0.1324841
0.079764625
0.13159322
0.081117128
0.13159274
0.081605735
0.13148774
0.082311796
0.13197845
0.083332999
0.13337637
0.083308775
0.13483521
0.083775619
0.13706854
0.08279936
0.13965967
0.083487038
0.1428175
0.083216327
0.14588513
0.082290128
0.14882455
0.081854111
0.15142647
0.081562046
0.15336958
0.081032348
0.15445134
0.08083511
0.15357869
0.080422382
0.080207421
0.15065707
0.13978817
0.079447472
0.1375941
0.080510654
0.13596996
0.081388762
0.13487805
0.082209042
0.13404861
0.082435174
0.13353465
0.082825754
0.13375896
0.083108689
0.13447924
0.082588491
0.13601247
0.082242388
0.13776015
0.081051685
0.13971966
0.081527524
0.14258597
0.080350023
0.14582492
0.079051181
0.14951538
0.078163649
0.15245159
0.078625829
0.15472812
0.078755821
0.15572101
0.079842224
0.15614745
0.079995938
0.080956758
0.15539811
0.14277527
0.082367546
0.13995393
0.083331991
0.13774305
0.083599641
0.13583753
0.084114566
0.13460912
0.083663583
0.13356307
0.083871798
0.1333119
0.083359862
0.13371293
0.082187465
0.13453556
0.081419758
0.13535608
0.080231159
0.13812314
0.078760466
0.14217197
0.076301192
0.14574148
0.075481672
0.14919735
0.074707779
0.15270094
0.07512224
0.15771218
0.073744572
0.16283452
0.074719887
0.16757996
0.075250498
0.078287717
0.170249
0.14349231
0.086175325
0.14035876
0.086465544
0.13705766
0.086900741
0.13462495
0.086547271
0.13214143
0.086147104
0.13052294
0.08549029
0.12981165
0.084071153
0.12921091
0.082788203
0.12998955
0.08064112
0.13234976
0.077870945
0.13572726
0.075382966
0.13848085
0.073547604
0.14275751
0.071205009
0.15024746
0.06721783
0.1604773
0.064892404
0.17108485
0.063137016
0.18131983
0.064484908
0.1899404
0.066629932
0.071774921
0.19645319
0.14266474
0.091017948
0.13811247
0.09101782
0.13383679
0.091176415
0.13015882
0.09022525
0.12656121
0.089744712
0.12394521
0.088106284