/*--------------------------------*- C++ -*----------------------------------*\
  =========                 |
  \\      /  F ield         | OpenFOAM: The Open Source CFD Toolbox
   \\    /   O peration     | Website:  https://openfoam.org
    \\  /    A nd           | Version:  11
     \\/     M anipulation  |
\*---------------------------------------------------------------------------*/
FoamFile
{
    format      ascii;
    class       surfaceScalarField;
    location    "5.4";
    object      phi;
}
// * * * * * * * * * * * * * * * * * * * * * * * * * * * * * * * * * * * * * //

dimensions      [0 3 -1 0 0 0 0];

internalField   nonuniform List<scalar> 
8667
(
1.588412
0.1893661
-3.2298953e-07
1.3984559
0.18995691
-8.5513131e-07
1.2070845
0.19137276
-1.2663739e-06
1.0166334
0.19045306
-2.045226e-06
0.82469764
0.19193837
-2.5640174e-06
0.63540709
0.18929405
-3.4978698e-06
0.44439435
0.19101679
-4.0495017e-06
0.26023418
0.18416525
-5.0877243e-06
0.1813003
-6.3115423e-06
0.078940199
1.5885624
0.37858156
1.3981758
0.38034346
1.2070204
0.38252813
1.0158839
0.38158961
0.8245119
0.38331037
0.63396266
0.37984329
0.44401367
0.38096578
0.26029191
0.36788702
0.36410095
0.077491248
1.5885145
0.56784486
1.3981635
0.57069445
1.206894
0.57379762
1.0155379
0.57294575
0.82360071
0.57524752
0.6333222
0.5701218
0.44295981
0.57132817
0.25895719
0.55188964
0.54760473
0.075453411
1.5884248
0.75719788
1.398391
0.76072824
1.2067944
0.76539422
1.0155216
0.76421853
0.82306019
0.76770894
0.63221991
0.76096208
0.44147503
0.76207305
0.25707538
0.73628929
0.73115091
0.073529201
1.5884565
0.94651897
1.3985105
0.9506743
1.2070897
0.95681498
1.0155179
0.95579035
0.82295
0.96027682
0.63145654
0.95245554
0.44044259
0.95308701
0.25544985
0.92128203
0.91444322
0.072157533
1.5885205
1.1357763
1.398772
1.1404227
1.2074598
1.1481272
1.0157123
1.1475379
0.82294199
1.1530471
0.63053442
1.1448631
0.43876374
1.1448577
0.25316246
1.1068833
1.0975399
0.070065824
1.5885881
1.324966
1.3990036
1.3300072
1.2079471
1.3391837
1.015977
1.339508
0.8229993
1.3460248
0.63032107
1.3375413
0.43786753
1.3373112
0.2510104
1.2937404
1.2808483
0.067701991
1.5887917
1.5139521
1.3992304
1.5195685
1.208523
1.5298911
1.016578
1.531453
0.82305819
1.5395446
0.62956753
1.531032
0.4362712
1.5306075
0.24850831
1.4815033
1.4638753
0.065481321
1.5890208
1.7027092
1.3996534
1.7089358
1.2089631
1.7205814
1.0171932
1.7232229
0.82360853
1.7331293
0.62980343
1.7248371
0.43540124
1.7250097
0.24587709
1.6710275
1.6481463
0.06160602
1.8851126
1.5953744
2.0672833
1.595607
2.249135
1.5959267
2.4308142
1.5960988
2.6121826
1.5964076
2.7932692
1.5966914
2.9741892
1.596858
3.1544898
1.5974775
1.5973138
3.3349539
1.8920213
1.4122889
2.0748555
1.4127729
2.2575148
1.4132674
2.4397803
1.4138333
2.6219238
1.4142641
2.8035095
1.4151057
2.9849535
1.4154139
3.1658838
1.4165472
1.4164509
3.3467467
1.9055696
1.2273007
2.0902604
1.2280821
2.2746682
1.2288596
2.4584835
1.230018
2.6420412
1.2307064
2.8250264
1.2321205
3.0077518
1.2326885
3.1901662
1.2341329
1.2345046
3.3721125
1.9098553
1.0406683
2.0962172
1.0417202
2.2828022
1.0422746
2.4691051
1.0437152
2.6554092
1.0444023
2.8414461
1.0460836
3.0273186
1.046816
3.2129112
1.0485403
1.0492776
3.3981381
1.9221695
0.85162808
2.1114103
0.85247942
2.3009269
0.85275799
2.490697
0.85394513
2.6804518
0.85464745
2.8704544
0.856081
3.0600577
0.85721267
3.2497783
0.85881973
0.86030766
3.4387482
1.9148819
0.66158332
2.1061681
0.66119321
2.2980565
0.6608696
2.4911585
0.66084306
2.6844482
0.66135778
2.8788298
0.6616994
3.0730897
0.66295275
3.2683612
0.66354818
0.66510405
3.4635649
1.9159196
0.47067345
2.1094608
0.46765205
2.3038917
0.46643865
2.501462
0.46327276
2.6997263
0.46309346
2.9002696
0.46115613
3.1010048
0.46221761
3.3033813
0.46117168
0.46301863
3.5054667
1.8594558
0.28224514
2.0542513
0.27285654
2.2530558
0.26763412
2.456344
0.25998457
2.6616747
0.2577628
2.8698748
0.25295607
3.0790011
0.25309126
3.2903052
0.24986753
0.25183465
3.5014892
1.8391317
0.091259809
2.049586
0.062402215
2.2740523
0.043167824
2.5046382
0.029398688
2.7377829
0.024618104
2.9711268
0.019612138
3.2062928
0.017925252
3.4401735
0.015986881
3.6761424
0.015865733
3.3240494
0.010904572
3.3137202
0.010329179
3.303525
0.010195221
3.294109
0.0094159985
3.2847798
0.0093291151
3.2763712
0.008408607
3.2679754
0.0083958278
3.2606282
0.0073472242
0.0073848703
3.2532433
3.3384237
0.019227551
3.3308233
0.017929561
3.323361
0.017657526
3.3166189
0.016158039
3.309984
0.015964104
3.3041711
0.014221496
3.298446
0.014120892
3.2936793
0.012113885
0.012161232
3.288903
3.3649786
0.026361526
3.3583281
0.024580004
3.3519657
0.024019971
3.3459885
0.022135186
3.3403537
0.02159894
3.3351336
0.019441538
3.3303145
0.018940068
3.3259839
0.016444438
0.016050877
3.3220943
3.3928797
0.031620007
3.3880885
0.029371156
3.3836259
0.028482615
3.3794664
0.026294688
3.3756193
0.025445991
3.3720889
0.022971976
3.3688635
0.022165394
3.3659546
0.019353425
0.018681265
3.3633242
3.4337032
0.03666507
3.4290245
0.034049859
3.4246055
0.032901556
3.4204978
0.03040243
3.416621
0.0293228
3.4130585
0.026534491
3.4096992
0.025524631
3.4066225
0.022430174
0.021596599
3.4037071
3.4608982
0.03933177
3.4585662
0.036381855
3.4565929
0.034874844
3.4547012
0.032294077
3.4530878
0.030936246
3.4513146
0.028307682
3.4497545
0.027084744
3.4477171
0.024467596
0.023492755
3.4458209
3.5038127
0.040985785
3.5020819
0.038112624
3.5006232
0.036333529
3.4989207
0.033996571
3.4972932
0.032563715
3.4950293
0.030571627
3.4926099
0.02950412
3.4891126
0.027964931
0.027314363
3.485291
3.5108482
0.031626856
3.5195871
0.029373721
3.5289066
0.027013951
3.5370072
0.025896027
3.5450549
0.024516008
3.5510601
0.02456641
3.5558178
0.024746401
3.5571141
0.026668669
0.029329463
3.555099
3.6940367
0.013732527
3.7088487
0.014561688
3.7195292
0.016333483
3.726612
0.018813256
3.7279643
0.023163726
3.7232713
0.02925933
3.7119889
0.03602883
3.6930665
0.045591111
3.6706874
0.05170854
3.6541018
0.068344945
-0.05175938
3.6239267
0.065480594
-0.035305511
3.5871477
0.062939773
-0.026160778
3.5484438
0.060861562
-0.022157568
3.5074623
0.058700144
-0.017718692
3.4663426
0.056911272
-0.015791557
3.4242157
0.055214942
-0.013088011
3.3835649
0.054151135
-0.013500405
0.05310773
3.3424265
-0.011969313
3.5620219
0.061422
3.5648316
0.062670968
3.5643433
0.063427987
3.5610417
0.064163172
3.5551479
0.064593972
3.5467717
0.06528751
3.5361066
0.065880038
3.5236249
0.066632823
0.067377849
3.5093548
3.49235
0.054362955
3.4989503
0.056070671
3.5040519
0.058326388
3.5082946
0.059920532
3.5107993
0.062089227
3.5125153
0.063571497
3.5126529
0.065742434
3.5119716
0.067314183
0.06956976
3.5097797
3.4557699
0.044413999
3.4659972
0.045843317
3.4752688
0.049054793
3.4847449
0.050444403
3.493129
0.053705117
3.5015896
0.05511093
3.5088564
0.05847569
3.5161876
0.059982931
0.063498928
3.5222584
3.4132729
0.034848267
3.4232439
0.035872315
3.4330623
0.039236408
3.4432696
0.040237054
3.4531773
0.043797386
3.4634801
0.04480814
3.4733606
0.048595197
3.4836824
0.049661191
0.053716721
3.4934646
3.3737317
0.024440755
3.3845682
0.025035773
3.3956381
0.028166547
3.407161
0.028714177
3.4188208
0.032137573
3.4309823
0.032646602
3.4431921
0.036385404
3.4559771
0.036876229
0.040971495
3.4687223
3.3312774
0.015257625
3.3410356
0.015277527
3.3512057
0.017996455
3.3619988
0.017921102
3.3731816
0.02095482
3.3850719
0.020756238
3.3973248
0.024132572
3.4103886
0.023812346
0.027583621
3.4237765
3.297719
0.0064415782
3.3067812
0.0062153646
3.3167399
0.0080377125
3.3267903
0.0078707469
3.338018
0.0097270754
3.3494869
0.009287418
3.362094
0.011525386
3.374909
0.010997426
0.013178592
3.389314
3.2596849
3.2659003
3.273938
3.2818087
3.2915358
3.3008232
3.3123486
3.323346
3.3365246
3.349372
-0.012847363
3.3649941
-0.015622115
3.3797767
-0.014782561
3.3974879
-0.017711275
3.4148586
-0.017370647
3.4353027
-0.020444142
3.4548774
-0.01957466
3.4782714
-0.023393978
-0.022817983
3.5010893
3.4036296
-0.027162952
3.4194093
-0.03140186
3.4354938
-0.030866997
3.4533786
-0.035596121
3.4709982
-0.034990268
3.4908804
-0.04032627
3.5109301
-0.039624374
3.5331774
-0.045641337
-0.044875738
3.5552352
3.4380838
-0.041470251
3.452659
-0.045977019
3.468308
-0.046516038
3.4842021
-0.051490245
3.5013228
-0.052110939
3.5186556
-0.05765903
3.5374204
-0.058389156
3.5563846
-0.064605541
-0.065472619
3.5769814
3.4821468
-0.054894737
3.4954405
-0.059270771
3.5095535
-0.060628991
3.5234715
-0.065408235
3.5383778
-0.067017255
3.5530378
-0.072319074
3.5688869
-0.074238271
3.5844926
-0.080211207
-0.082480844
3.6015008
3.5037804
-0.065210589
3.5134566
-0.068946991
3.523808
-0.070980326
3.5334367
-0.07503695
3.5439137
-0.077494246
3.5536253
-0.082030699
3.5643701
-0.084983107
3.5743549
-0.09019599
-0.093697327
3.5855714
3.5284306
-0.071382758
3.5333072
-0.073823621
3.5384028
-0.076075929
3.5421801
-0.078814187
3.5463671
-0.08168129
3.5492828
-0.084946394
3.5528353
-0.08853554
3.5551786
-0.092539301
-0.096904532
3.5583858
3.5069473
-0.068550401
3.5028719
-0.069748252
3.4982342
-0.071438251
3.4926473
-0.073227268
3.4865351
-0.075569085
3.4797112
-0.078122518
3.4724145
-0.081238805
3.4646099
-0.08473467
-0.088712929
3.4564183
3.4935692
-0.052764881
3.476278
-0.052457
3.4576515
-0.052811744
3.4377615
-0.053337309
3.4166412
-0.0544488
3.3943653
-0.055846555
3.370956
-0.057829516
3.3463993
-0.060177938
-0.063227406
3.3209137
3.3030362
-0.013374568
3.2625966
-0.012017439
3.2238544
-0.014069504
3.18326
-0.012742875
3.1443926
-0.015581428
3.1026976
-0.01415155
3.0629765
-0.018108457
3.0194501
-0.016651525
2.978153
-0.021930348
0.066723172
2.9319272
-0.020497275
0.093381336
3.2942556
0.10189612
3.4479035
0.099787727
3.5604942
0.089296199
3.5960629
0.072515167
3.6182819
0.051693795
3.5978028
0.026780974
3.580148
3.5278703
0.071165538
2.8882903
-0.027528718
0.098246283
3.2671748
0.10697674
3.439173
0.10385825
3.5636127
0.091926892
3.6079943
0.073498239
3.6367105
0.05081588
3.6204852
0.026033646
3.6049302
3.553904
0.0760548
2.8384662
-0.026230632
0.10451186
3.2387178
0.11340356
3.4302813
0.11103182
3.5659844
0.099754508
3.6192716
0.081475425
3.6549896
0.058535622
3.643425
0.030712417
3.6327534
3.5846164
0.082344235
2.7920449
-0.035922944
0.11029932
3.2107627
0.11916037
3.4214203
0.11565043
3.5694943
0.10271955
3.6322025
0.082544535
3.6751646
0.05753099
3.6684385
0.030024437
3.66026
3.6146408
0.088964347
2.7386802
-0.035599658
0.11841852
3.1813085
0.12726874
3.41257
0.12411723
3.5726458
0.11173174
3.644588
0.091613624
3.6952827
0.066288056
3.6937641
0.035186659
3.6913614
3.6498275
0.09758662
2.6913622
-0.050268614
0.12519083
3.1537043
0.13360362
3.4041573
0.12912464
3.5771248
0.11495435
3.6587583
0.092677394
3.7175597
0.065069213
3.7213723
0.034413563
3.722017
3.684241
0.10595552
2.6378933
-0.052486675
0.13546766
3.1241922
0.14370395
3.395921
0.1392102
3.5816186
0.12530154
3.6726669
0.10291329
3.7399479
0.074920384
3.7493652
0.04019009
3.7567473
3.7244311
0.117214
2.5968945
-0.076215145
0.1432093
3.0981969
0.15043429
3.388696
0.14440996
3.5876429
0.12859354
3.6884834
0.1038551
3.7646864
0.073388253
3.779832
0.039408334
3.7907273
3.7638395
0.13002798
2.5445978
-0.077731299
0.15659895
3.0716259
0.16340738
3.3818876
0.15706895
3.5939813
0.14121812
3.7043342
0.11595854
3.789946
0.084837096
3.8109535
0.045954597
3.8296098
3.8097941
-0.0060218174
3.8158159
-0.0037017316
3.8272897
-0.00069490622
3.8079466
0.0087660672
3.780485
0.02137056
3.6917297
0.039616768
3.5757351
0.059060106
3.3624442
0.075197126
3.0554889
2.562858
0.05693692
-0.011350158
3.827166
-0.014075304
3.8300148
-0.011381872
3.8052532
-0.0024460513
3.7715492
0.0092296467
3.680054
0.026225332
3.5587394
0.042986185
3.3456834
0.059441263
3.0390338
2.5681441
0.054155193
-0.0090309665
3.836197
-0.0093640415
3.8303479
-0.0082975486
3.8041867
-0.00089822121
3.7641498
0.0093409447
3.6698148
0.025240826
3.5428396
0.041588579
3.3293356
0.055078736
3.0255436
2.5730903
0.05013249
-0.01419122
3.8503882
-0.020092744
3.8362494
-0.019955283
3.8040493
-0.013164171
3.7573587
-0.0033899191
3.6600406
0.011761211
3.5276884
0.026794318
3.3143025
0.041267352
3.0110706
2.5791648
0.035192825
-0.011892288
3.8622805
-0.014623209
3.8389803
-0.015471694
3.8048977
-0.010093729
3.7519808
-0.001661553
3.6516084
0.012502993
3.5135239
0.027123458
3.299682
0.038371207
2.9998229
2.58054
0.036996048
-0.0169835
3.879264
-0.025238497
3.8472353
-0.027534521
3.8071938
-0.022628768
3.747075
-0.01434752
3.6433272
-0.00088348646
3.5000598
0.01281793
3.2859806
0.026563956
2.9860768
2.579019
0.028084962
-0.014557543
3.8938216
-0.019168057
3.8518458
-0.021938987
3.8099647
-0.018074281
3.7432103
-0.01114585
3.6363987
0.0013342924
3.4875797
0.014786516
3.2725284
0.025919222
2.9749441
2.5729193
0.032018944
-0.019859034
3.9136806
-0.029459357
3.8614462
-0.033895783
3.8144011
-0.030642166
3.7399567
-0.023826341
3.6295829
-0.011906325
3.4756597
0.0013266729
3.2592954
0.016199162
2.9600716
2.564829
0.024289419
-0.016921131
3.9306017
-0.022706001
3.867231
-0.026932977
3.8186281
-0.024416909
3.7374406
-0.018902072
3.6240681
-0.0078563429
3.464614
0.0051227798
3.2463163
0.0170055
2.9481889
2.5528532
0.02898131
-0.0085518371
2.5392111
0.022193949
0.0074227733
2.9322143
0.020483623
3.2332554
0.031234378
3.4538632
0.036556225
3.6187462
0.038729989
3.7352669
0.032509687
3.8248484
0.021812265
3.8779285
3.952414
-0.010587805
2.5224286
0.027370292
0.0019591612
2.9196673
0.014503087
3.2207115
0.024350492
3.4440158
0.028477519
3.6146192
0.030298778
3.7334456
0.024907676
3.8302395
0.018354553
3.8844816
3.9707685
-0.0033567703
2.5046483
0.021137039
0.013512833
2.9027977
0.026309285
3.2079151
0.036026663
3.4342984
0.040194543
3.6104513
0.041378209
3.7322619
0.033669905
3.8379478
0.0223995
3.895752
3.993168
-0.0064798509
2.4846209
0.0265073
0.0064095549
2.8899083
0.018364446
3.1959602
0.027096048
3.4255668
0.0302477
3.6072997
0.031518814
3.7309908
0.025795482
3.8436711
0.018805121
3.9027423
4.0119732
-0.0005381927
2.4645042
0.020654857
0.016824921
2.8725452
0.029090666
3.1836944
0.037783881
3.4168736
0.040907152
3.6041764
0.041050044
3.7308479
0.033015782
3.8517054
0.022019556
3.9137386
4.0339927
-0.0047424212
2.4431405
0.026106145
0.0080277801
2.859775
0.019104699
3.1726175
0.026758876
3.4092194
0.029095257
3.60184
0.029459625
3.7304836
0.023738077
3.8574269
0.017482634
3.919994
4.0514753
-0.00021321922
2.4226838
0.020669958
0.017008688
2.8425531
0.028437267
3.1611889
0.036068943
3.4015878
0.038283066
3.5996259
0.037478552
3.7312881
0.029906838
3.8649987
0.020116152
3.9297847
4.0715915
-0.0056858074
2.402342
0.026027602
0.0064240852
2.8304432
0.01628278
3.1513302
0.022899193
3.3949713
0.024557151
3.5979679
0.024525757
3.7313195
0.019946367
3.869578
0.014780189
3.9349509
4.0863717
-0.0027691035
2.3842994
0.020811718
0.013744804
2.8139293
0.024111968
3.1409631
0.030491311
3.388592
0.031755856
3.5967034
0.030584252
3.7324911
0.024389655
3.8757726
0.016237919
3.9431026
4.1026096
0.0040755594
4.098534
0.012552623
3.9346256
0.019805719
3.8685195
0.026645576
3.7256512
0.032053154
3.5912958
0.037561126
3.383084
0.041871727
3.1366525
0.040910909
2.8148901
2.3820517
0.043158553
0.0051312736
4.0934028
0.011343711
3.9284131
0.017651724
3.8622115
0.023675925
3.719627
0.028490493
3.5864812
0.033240233
3.3783343
0.037955935
3.1319368
0.042348754
2.8104973
2.3873023
0.037098204
0.012307922
4.0810949
0.024943494
3.9157775
0.035414026
3.851741
0.044011393
3.7110296
0.050080528
3.5804121
0.055153637
3.3732612
0.059435275
3.1276551
0.057576143
2.8123564
2.3983391
0.046539279
0.014793745
4.0663011
0.025906785
3.9046645
0.035820939
3.8418268
0.044175782
3.7026748
0.05003231
3.5745556
0.054559973
3.3687335
0.059831423
3.1223837
0.064429323
2.8077585
2.4209914
0.041777054
0.022540262
4.0437608
0.040193796
3.887011
0.054903582
3.8271171
0.066415995
3.6911624
0.073779751
3.5671918
0.078811472
3.3637018
0.083643298
3.1175518
0.085697949
2.8057039
2.4596583
0.04703102
0.025453975
4.0183069
0.042857273
3.8696077
0.057775839
3.8121985
0.069374098
3.6795641
0.076981598
3.5595843
0.081418349
3.359265
0.08734625
3.1116239
0.10006191
2.7929882
2.517021
0.042699248
0.0337583
3.9845486
0.057892973
3.845473
0.077989578
3.7921019
0.093292966
3.6642607
0.10279496
3.5500823
0.10760663
3.3544534
0.11051216
3.1087184
0.126264
2.7772364
2.5863799
0.056905114
0.037493089
3.9470555
0.061724614
3.8212415
0.082619336
3.7712072
0.098572546
3.6483075
0.10898388
3.539671
0.11273805
3.3506992
0.11548797
3.1059685
0.14749815
2.7452262
2.6635523
0.070325694
0.045510164
3.9015453
0.077051873
3.7896998
0.10384396
3.7444151
0.12567961
3.6264719
0.13995276
3.5253978
0.1454787
3.3451733
0.14467896
3.1067682
0.17874611
2.711159
2.6748677
0.16743078
-0.14599633
4.0475417
-0.29966125
3.9433647
-0.45411366
3.8988675
-0.60412014
3.7764784
-0.73948165
3.6607593
-0.85509573
3.4607873
-0.92636808
3.1780406
-0.94932525
2.7341162
2.6746754
-0.94913298
-0.14374036
4.191282
-0.29824766
4.097872
-0.45406922
4.0546891
-0.60937956
3.9317887
-0.7505542
3.801934
-0.86678313
3.5770163
-0.93433408
3.2455915
-0.92783436
2.7276165
2.4674947
-0.7206537
-0.14088577
4.3321678
-0.29623827
4.2532245
-0.45229228
4.2107431
-0.61457491
4.0940713
-0.75817995
3.945539
-0.88092318
3.6997595
-0.93710249
3.3017709
-0.86641129
2.6569253
1.8097656
-0.20868213
-0.13720923
4.469377
-0.29440048
4.4104157
-0.45097659
4.3673192
-0.61812603
4.2612208
-0.76841962
4.0958326
-0.89243082
3.8237707
-0.92819624
3.3375363
-0.80209759
2.5308266
1.0454127
-0.037744664
-0.13175808
4.6011351
-0.29114038
4.569798
-0.4477745
4.5239533
-0.62207909
4.4355254
-0.77496993
4.2487234
-0.90288586
3.9516866
-0.91899899
3.3536494
-0.69753798
2.3093656
0.35344859
-0.0055739178
-0.12529346
4.7264286
-0.28605145
4.730556
-0.44460247
4.6825043
-0.62365325
4.6145761
-0.78443666
4.4095068
-0.91219001
4.07944
-0.88043158
3.321891
-0.44556571
1.8744998
-0.1721533
0.080036178
-0.12027425
4.8467028
-0.28059434
4.8908761
-0.43961163
4.8415216
-0.62589527
4.8008598
-0.78958949
4.5732011
-0.90737961
4.1972301
-0.79465439
3.2091657
-0.29359292
1.3734383
-0.53871222
0.072965993
-0.11305926
4.9597621
-0.27344825
5.0512651
-0.43456885
5.0026422
-0.62496275
4.9912537
-0.79547952
4.7437178
-0.90452133
4.3062719
-0.71335619
3.0180006
-0.2297851
0.88986721
-0.82891921
0.060421887
-0.10813293
5.067895
-0.26683396
5.2099661
-0.42785176
5.16366
-0.62505486
5.1884568
-0.7974243
4.9160873
-0.88375843
4.392606
-0.57441894
2.7086611
-0.11106813
0.4265164
-1.0162024
0.076215011
0.032653421
-1.0923052
0.043449412
0.28868649
0.17048333
0.53192685
2.4654208
0.4805897
4.4439432
0.36615656
5.0305204
0.23523964
5.3193737
0.13517651
5.2637231
0.041480602
5.303662
5.1093756
0.01995525
-1.1579882
0.045727776
0.26164858
-0.071209998
0.51534945
2.2117199
0.47478431
4.4845083
0.35616694
5.1491378
0.22332525
5.4522154
0.12603041
5.361018
0.03650995
5.3931825
5.1458855
0.028354791
-1.2334299
0.047086888
0.26273261
-0.30558782
0.49689549
1.977557
0.47007028
4.5113335
0.35018746
5.2690206
0.21549904
5.5869038
0.11681336
5.4597037
0.029657693
5.4803381
5.1755432
0.040876089
-1.3204951
0.046189161
0.27210686
-0.53681859
0.48383746
1.7658264
0.46136594
4.5338051
0.33875835
5.3916282
0.2031885
5.7224737
0.10748933
5.5554028
0.024964801
5.5628627
5.200508
0.047168873
-1.4119417
0.044277678
0.27204675
-0.76169647
0.46975813
1.568115
0.45535058
4.5482126
0.33121028
5.5157685
0.19450624
5.8591777
0.098175805
5.6517333
0.018741644
5.6422968
5.2192497
0.051213957
-1.5081028
0.044947109
0.27132979
-0.98181229
0.45839379
1.381051
0.443928
4.5626784
0.31804497
5.6416515
0.18170291
5.9955198
0.08861467
5.7448215
0.014380159
5.7165313
5.2336298
0.053276667
-1.5952501
0.033870634
0.26336512
-1.1919007
0.44375884
1.2006573
0.43709056
4.5693467
0.30922726
5.7695148
0.17238817
6.1323589
0.079475999
5.8377337
0.0089611795
5.7870462
5.242591
0.052302255
-1.6856098
0.038057454
0.25619546
-1.3957939
0.43018642
1.0266663
0.4215626
4.5779705
0.29289155
5.8981859
0.15944625
6.2658042
0.06989519
5.9272847
0.0055347701
5.8514066
5.2481258
0.053764806
-1.7406996
0.0013250292
0.24148396
-1.5835131
0.41099058
0.85715972
0.41509527
4.5738658
0.28593385
6.0273473
0.15020036
6.4015377
0.061604954
6.0158801
0.0020855446
5.910926
5.2502113
0.35977115
-2.0677995
-0.03267126
0.50081053
-1.7245525
0.41390169
0.94406856
0.16974684
4.8180207
-0.072825205
6.2699193
-0.18757313
6.5162856
-0.20287302
6.03118
-0.15761163
5.8656646
5.0925997
0.38002643
-2.4507757
0.0029497933
0.47040426
-1.8149303
0.33544443
1.0790284
0.084477109
5.068988
-0.16362127
6.5180177
-0.27387788
6.6265422
-0.25695611
6.0142583
-0.18018807
5.7888966
4.9124116
0.38852145
-2.7501154
-0.089181718
0.45345323
-1.8798621
0.26718832
1.2652933
-0.048866551
5.3850429
-0.26194183
6.731093
-0.3092297
6.6738301
-0.2694622
5.9744908
-0.17646431
5.6958987
4.7359473
0.38974081
-2.9067052
-0.23315105
0.4234163
-1.9135376
0.19088425
1.4978254
-0.12440793
5.700335
-0.32806908
6.9347542
-0.36685791
6.7126189
-0.30623335
5.9138662
-0.1876992
5.5773645
4.5482481
0.37430417
-2.9281218
-0.35288762
0.38009831
-1.9193317
0.10213777
1.7757859
-0.25358965
6.0560624
-0.40212518
7.0832897
-0.38044317
6.6909369
-0.29599982
5.8294229
-0.15917444
5.4405391
4.3890737
0.34430365
-2.8798673
-0.39255809
0.33000806
-1.9050361
0.034139257
2.0716547
-0.31235504
6.4025567
-0.44118529
7.2121199
-0.4123825
6.6621341
-0.31232137
5.7293617
-0.15676765
5.2849854
4.232306
0.31128765
-2.7918864
-0.39926861
0.2703473
-1.8640958
-0.06670519
2.4087072
-0.42874832
6.7645999
-0.49107292
7.2744445
-0.40426644
6.5753276
-0.28493272
5.610028
-0.12846664
5.1285193
4.1038394
0.27219921
-2.7113599
-0.35272567
0.22291491
-1.8148115
-0.12360412
2.7552262
-0.46510292
7.1060987
-0.49912442
7.308466
-0.41722643
6.4934296
-0.29548741
5.488289
-0.12951536
4.9625473
3.974324
0.24066851
-0.22704103
-2.7249874
0.15858682
-1.7327298
-0.24473906
3.1585521
-0.59465193
7.4560115
-0.53735165
7.2511658
-0.39797527
6.3540532
-0.25450927
5.344823
-0.081672641
4.7897107
3.8926514
-0.35637326
0.28122275
0.074825487
0.0003250135
-0.71331836
0.35667214
0.00027296836
-1.0607103
0.34739425
-2.3425685e-06
-1.0377345
-0.022418478
-0.00055734068
-0.67584475
-0.36188412
-5.5798846e-06
-0.31430326
-0.36195556
0.00041406433
-0.011506319
-0.30266512
-0.00013182338
0.30817535
-0.319518
-0.00016366738
-0.35955703
-0.00010934129
-0.35245065
0.55874749
0.074925916
-0.70305635
0.70727784
-1.0307725
0.67511039
-0.96644518
-0.086745782
-0.55560523
-0.77272408
-0.17857151
-0.73898927
0.13019582
-0.61143245
0.48513621
-0.6744584
-0.74807058
-0.34647527
0.82880429
0.076418468
-0.6795481
1.0403507
-0.96591403
0.96147632
-0.87426056
-0.17839925
-0.44555203
-1.2014326
-0.040199831
-1.1443415
0.29686406
-0.94849634
0.72526541
-1.1028597
-1.1732155
-0.33224406
1.0821421
0.078906271
-0.63857564
1.3466822
-0.86671069
1.1896114
-0.73511087
-0.30999907
-0.29897533
-1.6375681
0.13920431
-1.5825211
0.53159767
-1.3408897
0.99759818
-1.5688603
-1.559427
-0.31907585
1.3198374
0.081380561
-0.59510562
1.622712
-0.74773485
1.3422406
-0.55769875
-0.50003517
-0.13215306
-2.0631138
0.33716495
-2.0518391
0.7681003
-1.7718251
1.2101471
-2.010907
-1.8953669
-0.3013022
1.5381468
0.082992781
-0.54575574
1.8671656
-0.621643
1.4181279
-0.36066173
-0.76101644
0.063135894
-2.4869115
0.53615289
-2.5248561
0.97394445
-2.2096166
1.3884363
-2.4253988
-2.1918869
-0.28418513
1.7343946
0.087937359
-0.49469254
2.077673
-0.49981954
1.4232549
-0.16448523
-1.0963508
0.25961691
-2.9110136
0.73581191
-3.0010511
1.1746031
-2.6484078
1.544992
-2.7957877
-2.4473496
-0.26253502
1.908417
0.088512553
-0.4525888
2.2677267
-0.39491774
1.3655838
0.025842667
-1.5171112
0.45843597
-3.3436069
0.91734487
-3.45996
1.3294599
-3.0605228
1.657608
-3.1239358
-2.6744721
-0.24810577
0.08711996
2.0694028
-0.40707774
2.4266987
-0.28019406
1.2387001
0.19854425
-1.9958495
0.63893781
-3.7840005
1.0841746
-3.9051968
1.4723661
-3.4487143
1.7609011
-3.4124708
-2.8789385
0.24071677
2.7116743
-0.22709036
-2.7253007
0.15862111
1.814827
-1.7327314
-0.24473175
-2.7552788
3.1586317
-0.59464467
-7.1060778
7.4559907
-0.53734412
-7.3084649
7.2511643
-0.39798011
-6.4934886
6.3541246
-0.25452507
-5.4883861
5.3449311
-0.0816824
-4.9626152
4.7897726
-3.9743466
3.8926642
0.27225081
2.7921946
-0.35277115
0.2229534
1.8641244
-0.12358947
-2.4087359
-0.46509325
-6.764574
-0.49911484
-7.2744433
-0.41722584
-6.5753776
-0.29549704
-5.6101149
-0.12952497
-5.1285873
-4.1038715
0.3113397
2.8801506
-0.39929572
0.2703934
1.9050707
-0.06668325
-2.0716593
-0.42873888
-6.4025184
-0.49106312
-7.2121191
-0.40426496
-6.6621758
-0.2849412
-5.7294387
-0.12847268
-5.2850558
-4.2323442
0.34435106
2.9283793
-0.39257975
0.3300512
1.9193706
0.034163277
-1.7757713
-0.31234225
-6.0560128
-0.44117345
-7.0832879
-0.41237644
-6.6909728
-0.31232597
-5.8294891
-0.15677458
-5.4406072
-4.3891188
0.37434944
2.9069256
-0.35289569
0.38014356
1.9135765
0.10216594
-1.4977937
-0.25357524
-5.7002717
-0.40211463
-6.9347485
-0.38043808
-6.7126493
-0.29600203
-5.9139252
-0.15917999
-5.5774293
-4.5482988
0.38977833
2.7502758
-0.23312861
0.42345586
1.8798989
0.19091206
-1.2652499
-0.12438949
-5.3849701
-0.32805434
-6.7310836
-0.36684868
-6.673855
-0.30623252
-5.9745414
-0.18770314
-5.6959586
-4.7360019
0.38855501
2.4508913
-0.089170411
0.45349009
1.8149639
0.26721836
-1.0789782
-0.04884478
-5.068907
-0.26192614
-6.5180023
-0.3092197
-6.6265614
-0.26945817
-6.0143029
-0.17646417
-5.7889526
-4.9124661
0.38005437
2.0678872
0.0029497132
0.47043285
1.7245854
0.33546905
-0.94401441
0.084497852
-4.8179358
-0.16360321
-6.2699012
-0.27386568
-6.516299
-0.2569515
-6.0312171
-0.18018907
-5.8657151
-5.0926552
0.35979471
1.7407629
-0.032670414
0.50083746
1.5835426
0.41392966
-0.85710661
0.16977072
-4.5737768
-0.072806857
-6.0273236
-0.18755953
-6.4015463
-0.20286552
-6.0159111
-0.15761032
-5.9109703
-5.2502655
-0.041483349
5.1094137
-5.0679303
-0.13518165
5.3036837
-5.2099854
-0.2352463
5.2637371
-5.1636724
-0.36616428
5.31937
-5.188452
-0.48059689
5.0305006
-4.916068
-0.53192852
4.4438886
-4.3925569
-0.28868389
2.4653365
-2.7085812
-0.032653292
0.17044961
-0.42648021
-1.0923176
1.016215
0.043449262
-0.036512577
5.1459262
-0.12603576
5.3932069
-0.22333213
5.3610334
-0.35617473
5.4522126
-0.47479176
5.1491176
-0.51535017
4.484447
-0.2616514
2.2116378
-0.019961001
-0.071240788
-1.1580034
0.045724777
-0.029659942
5.1755862
-0.11681843
5.4803654
-0.21550615
5.4597212
-0.35019573
5.5869022
-0.47007799
5.2689999
-0.49689739
4.5112664
-0.2627405
1.9774809
-0.028362376
-0.30561891
-1.233451
0.047085299
-0.024966968
5.2005531
-0.10749425
5.5628926
-0.20319539
5.5554223
-0.33876666
5.7224735
-0.46137384
5.3916071
-0.48383988
4.5337324
-0.27211402
1.765755
-0.040884497
-0.53684843
-1.3205231
0.046187515
-0.018743713
5.2192969
-0.098180622
5.6423295
-0.19451322
5.6517549
-0.33121897
5.8591792
-0.45535874
5.5157468
-0.46976142
4.5481351
-0.27205437
1.5680479
-0.047177111
-0.76172568
-1.4119753
0.044275166
-0.014382077
5.2336789
-0.088619348
5.7165668
-0.18170991
5.7448455
-0.31805377
5.9955231
-0.44393623
5.6416293
-0.45839778
4.5625967
-0.2713375
1.3809877
-0.051221962
-0.98184122
-1.5081437
0.044946434
-0.0089630873
5.242642
-0.079480683
5.7870844
-0.17239514
5.8377599
-0.30923614
6.1323641
-0.43709885
5.769492
-0.4437636
4.5692614
-0.26337387
1.2005979
-0.053285479
-1.1919296
-1.5952973
0.033868075
-0.0055366154
5.2481786
-0.069899908
5.8514477
-0.15945313
5.9273131
-0.29290019
6.2658111
-0.42157088
5.8981627
-0.43019254
4.5778831
-0.25620448
1.0266099
-0.052311023
-1.3958231
-1.6856652
0.038056924
-0.002086856
-0.06160942
-0.15020735
-0.28594252
-0.41510346
-0.4109972
-0.24149392
-0.053774374
0.0013232777
0.1110675
0.82893892
0.076208617
0.57441254
-0.88982526
0.88375928
-3.0179279
0.79743139
-4.3062291
0.62506288
-4.7436995
0.42785895
-4.9912481
0.26683923
-5.0026527
0.10813588
-5.051282
-4.9597944
0.22978045
0.53874069
0.060417781
0.71334811
-1.3733929
0.90452379
-3.2091036
0.79548627
-4.1971915
0.62497039
-4.5731836
0.43457571
-4.8008534
0.27345334
-4.8415303
0.11306233
-4.890891
-4.8467321
0.29358799
0.17217083
0.072981872
0.79464936
-1.8744543
0.90738178
-3.321836
0.78959539
-4.0794051
0.62590219
-4.4094904
0.43961814
-4.6145694
0.28059944
-4.6825116
0.12027747
-4.7305691
-4.7264546
0.44555743
-0.35343042
0.080043807
0.88042739
-2.3093242
0.91219249
-3.3536011
0.78444236
-3.951655
0.62365991
-4.2487079
0.44460898
-4.4355184
0.28605627
-4.5239589
0.12529638
-4.5698092
-4.6011582
0.69753238
-1.0453912
-0.0055716446
0.91899595
-2.5307878
0.90288775
-3.3374929
0.77497462
-3.8237419
0.62208512
-4.0958184
0.44778043
-4.2612138
0.29114503
-4.3673235
0.13176108
-4.4104252
-4.4693972
0.80209305
-1.8097511
-0.037733064
0.9281932
-2.656888
0.89243255
-3.3017323
0.76842442
-3.6997337
0.6181317
-3.9455257
0.45098212
-4.0940642
0.29440478
-4.2107462
0.13721149
-4.253232
-4.3321857
0.86640382
-2.4674855
-0.20866946
0.93709909
-2.7275832
0.88092463
-3.2455578
0.75818378
-3.5769929
0.61457959
-3.8019215
0.4522975
-3.9317821
0.29624251
-4.0546912
0.14088834
-4.0978778
-4.1912973
0.92782896
-2.6746679
-0.72064652
0.93433163
-2.7340859
0.86678433
-3.1780105
0.75055811
-3.4607667
0.60938425
-3.6607477
0.45407385
-3.7764717
0.2982511
-3.8988684
0.14374348
-3.9433702
-4.0475538
0.94932089
-2.6748597
-0.9491291
0.92636588
-2.7111309
0.85509673
-3.1067413
0.73948457
-3.3451545
0.60412405
-3.5253871
0.45411779
-3.6264654
0.29966458
-3.7444152
0.14599649
-3.7897021
-3.9015574
0.0040740992
4.0985315
-4.1026056
0.012550488
3.9346197
-3.943096
0.019803055
3.8685117
-3.8757643
0.026642634
3.7256389
-3.7324784
0.032050355
3.5912817
-3.5966895
0.037558858
3.3830674
-3.3885759
0.041870357
3.1366365
-3.140948
0.040910297
2.8148799
-2.8139199
2.3820459
-2.3842936
0.043158076
0.0051298402
4.0934017
0.011341471
3.928408
0.017648517
3.8622047
0.0236721
3.7196153
0.028486992
3.5864668
0.033237459
3.3783169
0.037954381
3.1319196
0.042348769
2.8104855
2.3872968
0.037097873
0.012306124
4.0810956
0.024940874
3.9157733
0.035411003
3.8517346
0.044007924
3.7110183
0.050076874
3.5803979
0.055150441
3.3732434
0.05943336