/*--------------------------------*- C++ -*----------------------------------*\
  =========                 |
  \\      /  F ield         | OpenFOAM: The Open Source CFD Toolbox
   \\    /   O peration     | Website:  https://openfoam.org
    \\  /    A nd           | Version:  11
     \\/     M anipulation  |
\*---------------------------------------------------------------------------*/
FoamFile
{
    format      ascii;
    class       volVectorField;
    location    "0.2225";
    object      U;
}
// * * * * * * * * * * * * * * * * * * * * * * * * * * * * * * * * * * * * * //

dimensions      [0 1 -1 0 0 0 0];

internalField   nonuniform List<vector> 
880
(
(25 -2.337980295972877e-14 0)
(25.00000000027214 9.870714752842658e-10 0)
(24.99988739601723 -6.854470811799856e-05 0)
(24.95177451742846 -0.005963063183086984 0)
(25 -3.732049693122007e-13 0)
(24.99999998693971 -9.721562688910377e-09 0)
(24.99973254774443 -0.0002731545466801676 0)
(24.91733935492208 -0.1024328831749334 0)
(25 1.859319805941485e-12 0)
(24.99999999543446 9.824085728295217e-09 0)
(24.99919009633835 -0.0007218878334219734 0)
(24.86222779335244 -0.1987449845659633 0)
(24.99999999999818 -9.712956192070921e-12 0)
(25.00000002553445 -2.506615879706846e-08 0)
(24.99738413614442 -0.001736343256284887 0)
(24.59742114318983 -0.345964850862776 0)
(25.0000000002586 -5.001585179206614e-10 0)
(24.99999999917206 5.663059143502714e-09 0)
(25.00000000444203 4.293016421829969e-08 0)
(24.99999660612828 2.106174886337737e-06 0)
(25.0000003664197 -4.899620324270386e-07 0)
(24.99999602456668 1.438844753778264e-06 0)
(24.99996577315615 6.398320500797796e-05 0)
(25.00005953655826 -0.000244192855782272 0)
(24.99083761670726 -0.003162348126357813 0)
(24.98235322617847 0.0008366508577149199 0)
(24.97148775510652 0.01894790630902258 0)
(24.98088736506745 -0.03118217541370219 0)
(23.98448755864083 -0.09537122115133577 0)
(23.39305883511829 0.5528993744729704 0)
(23.11038200817063 1.160722334553208 0)
(23.03688427895987 1.545200482231603 0)
(24.99999452968288 -2.085658513021164e-05 0)
(24.9999668569819 -7.906119207185937e-05 0)
(24.99986684530664 -0.0001905365126730196 0)
(24.99962387417438 -0.000750702120442525 0)
(24.99923054974136 2.932019650013474e-05 0)
(24.9977891066992 0.0005508920591257052 0)
(24.99508406570359 0.002923405473782927 0)
(24.99267012647891 0.004313898378541961 0)
(24.90490906626371 0.005207589612700469 0)
(24.83358534301278 0.07108401692365388 0)
(24.75341488928656 0.1892005166888907 0)
(24.6997618524212 0.2534280651536494 0)
(22.99636090834093 1.991715677248527 0)
(22.80989327304643 2.41390804136586 0)
(22.86089990953554 2.807336818699399 0)
(23.04091772838264 3.241911902085762 0)
(24.02209159909939 3.706845350177108 0)
(24.60939098743463 3.479357656982909 0)
(24.88947790368215 3.030586006973814 0)
(25.13696619390761 2.593187241124909 0)
(24.54072319102916 0.5190375687576233 0)
(24.57611755810893 0.8167202134829885 0)
(24.66978611304987 1.012901102771999 0)
(24.81265967215495 1.116651012625892 0)
(24.97178432876739 0.01633247728205297 0)
(24.94774369411824 0.04808271197604969 0)
(24.93009299078163 0.09866486889994878 0)
(24.92873374009334 0.1570871967713142 0)
(24.99826953405212 -0.002055475396601007 0)
(24.99566333957106 -0.00579053315145533 0)
(24.99222554915039 -0.01191537487211469 0)
(24.98901253968621 -0.01871181504403362 0)
(24.98372515931443 -0.02216312129432016 0)
(24.97958349282633 -0.0218882164517152 0)
(24.97761843024609 -0.01926162502195369 0)
(24.97779860146894 -0.01591585173447713 0)
(24.95036929447685 0.20604805326474 0)
(24.99218078680726 0.2327690643842823 0)
(25.03902140133626 0.2293164911879574 0)
(25.06418009288123 0.2081137491833544 0)
(24.98064235157805 1.110533013644792 0)
(25.14279034376302 1.039658840018752 0)
(25.28037074749636 0.9427711468509056 0)
(25.36203312943115 0.8448097896057469 0)
(25.34693718506863 2.191500360438866 0)
(25.50891363445784 1.794097550383852 0)
(25.6420358979771 1.410536572723261 0)
(25.79711703533534 1.037520439498751 0)
(25.94128476927313 0.7402638468321632 0)
(25.40769315550805 0.7258806557265312 0)
(25.07559272505858 0.1771027551271685 0)
(24.97974346551669 -0.01229113023784094 0)
(25.88523673109313 0.5752876720549878 0)
(25.40811548469356 0.6315772301813457 0)
(25.07786499318667 0.1419229345876379 0)
(24.98314962285823 -0.008851144663691477 0)
(25.11923078404548 0.8276479809696291 0)
(25.39154641028026 0.432843339020573 0)
(25.07708620124473 0.08887617081761393 0)
(24.98807153053108 -0.004883611182759246 0)
(20.98086794788752 1.439749671731331 0)
(25.06487280054467 0.3917505486099858 0)
(25.05487555269173 0.04304997034410368 0)
(24.99319391741191 -0.002194842766001939 0)
(24.99643646319744 -0.001722341218607565 0)
(25.01303696279891 0.02598103092814515 0)
(24.33653554383951 0.5091858018566584 0)
(16.42741721630193 2.730759238083347 0)
(24.99717990854982 -0.002337657777294738 0)
(24.97851032367132 0.03220997013431454 0)
(23.69187319859974 0.8727811651178264 0)
(16.17642379325461 4.616761332279127 0)
(24.99614968402922 -0.005518622217876438 0)
(24.92467176986816 0.06959928246982773 0)
(22.82429516522106 1.537746628306792 0)
(15.39404002373984 6.280861548777711 0)
(24.98982926646042 -0.01275618705448835 0)
(24.84603457888342 0.1563916781534122 0)
(22.01506004527484 2.458404479472274 0)
(15.10402313499499 7.682665369258921 0)
(15.09408186858833 8.900635154606061 0)
(21.20158605040956 3.665227346619741 0)
(24.69431071578592 0.3452021666771863 0)
(24.97900752725715 -0.02810237280692232 0)
(15.06685746900331 9.931242659957244 0)
(20.50103709061148 5.050157454412849 0)
(24.50138462941634 0.6677630506407576 0)
(24.95397872560525 -0.0528927598180973 0)
(15.37194527956566 10.70152340904368 0)
(20.16675286009429 6.273437933609536 0)
(24.21074131888195 1.194474057830138 0)
(24.91735330037805 -0.0897999142659449 0)
(15.99762251686953 11.26867969019118 0)
(20.0345961454811 7.467953558160798 0)
(23.96512372422066 1.853834711067005 0)
(24.85047084736371 -0.1311047517839603 0)
(24.76632823206257 -0.1865531956337076 0)
(23.72313716983849 2.758045252722036 0)
(20.93713706595886 7.962914759377806 0)
(17.59261853660545 11.1765307981138 0)
(24.70789172427525 -0.2376094478351625 0)
(24.34346722783323 2.834657757875612 0)
(22.62595269982978 7.389863964333628 0)
(19.84691552276307 10.582943687866 0)
(24.89059817150127 -0.2210202511461136 0)
(24.9019773772135 2.445260064106719 0)
(24.61487332663291 6.321042639159003 0)
(22.74421506337555 9.560562201731775 0)
(24.74275786142286 -0.376536719490871 0)
(25.16598043835864 1.783054893604888 0)
(25.96076367890275 4.584270904276013 0)
(25.82541918268193 7.346396194605277 0)
(24.79587988676693 -0.1300699790973182 0)
(25.53192465029908 1.525469960979308 0)
(27.15756408719259 3.191418919082007 0)
(30.01237282341472 4.667052771076287 0)
(24.88069077898168 -0.06963103887934068 0)
(25.87478694114253 0.9939948184538987 0)
(27.6796439548629 1.912452549438034 0)
(33.09900586414532 1.111344532471421 0)
(24.97241430799951 -0.05833569614811582 0)
(25.87960574398211 0.5164201820769461 0)
(27.71609189177897 0.6640848791065257 0)
(33.52116743492463 -2.803685919012819 0)
(25.03694379701033 -0.04195351662576063 0)
(25.64389507775008 0.221720221362623 0)
(27.29673498435342 -0.2920735432604153 0)
(28.73360662907674 -1.676479889608059 0)
(24.86580147086498 -2.614370698456471 0)
(26.74170578844909 -1.253295461493492 0)
(25.44031412301693 -0.1004567055397403 0)
(25.04431459667755 -0.02810308902383577 0)
(21.7250647764615 -3.246216047612625 0)
(25.9676265217779 -2.043716817133523 0)
(25.24460598163715 -0.326461729180989 0)
(25.01899974424825 -0.007270489529523013 0)
(18.44117832605339 -5.902020937553437 0)
(25.01500643258412 -2.752517630894304 0)
(25.07415608032086 -0.3593115085669316 0)
(25.00458059841815 -0.01147319063877388 0)
(14.2535579809479 -7.393991193473905 0)
(23.95196635794728 -3.212700710370106 0)
(24.92107181689384 -0.3870116668826224 0)
(24.99782956747054 -0.01448860016044276 0)
(13.86174184755406 -7.856800724239382 0)
(23.35693892890565 -2.810994725698715 0)
(24.83433797300755 -0.2812331988369834 0)
(24.99485223841016 -0.008344722109459458 0)
(15.46374871076618 -7.470042436534347 0)
(23.26998108203493 -2.015903963539011 0)
(24.84224487182294 -0.1626206718678707 0)
(24.99671408724811 -0.003275342937208823 0)
(16.85175903754873 -4.757851349071255 0)
(23.50270852234952 -1.089156546789467 0)
(24.89019493629212 -0.07056140210178785 0)
(24.99838077639795 -0.001274765537489064 0)
(19.19957851945729 -3.348697669294127 0)
(23.99808126229168 -0.7550308112177169 0)
(24.95769450181485 -0.06117660554709157 0)
(24.99942446541529 -0.0007555306427288203 0)
(19.06934081121184 0.6087195031682354 0)
(23.85623580460009 0.02063561604718959 0)
(24.8887565629792 -0.002904408253491128 0)
(24.99574199278967 -0.0001403459225736162 0)
(18.83236025108036 1.587702945610494 0)
(23.78145594110697 0.1109210023579835 0)
(24.88760574404953 -0.005495511304113364 0)
(24.99618075850139 -0.0003818600508173865 0)
(18.33960445145421 1.841979269376096 0)
(23.64913538548831 0.1236244913996539 0)
(24.88205891438851 -0.005306813997125868 0)
(24.99657097721672 -0.0003537712207051003 0)
(17.99849153097742 1.806536816513215 0)
(23.55822849375592 0.06919830101986928 0)
(24.87762578604548 -0.007396125063029218 0)
(24.99685029294078 -0.0003504591788604864 0)
(19.19957851948779 3.34869766927469 0)
(23.99808126236224 0.7550308112030376 0)
(24.95769450192829 0.06117660547776375 0)
(24.9994244655142 0.0007555306283435982 0)
(16.85175903757446 4.757851349043499 0)
(23.50270852240656 1.089156546804547 0)
(24.89019493631772 0.07056140211664698 0)
(24.99838077644213 0.001274765584430099 0)
(15.46374871077238 7.470042436526568 0)
(23.26998108206524 2.015903963578372 0)
(24.84224487183498 0.16262067192135 0)
(24.99671408726878 0.003275342948542238 0)
(13.86174184751134 7.856800724220406 0)
(23.35693892893145 2.810994725756995 0)
(24.83433797300489 0.281233198860692 0)
(24.99485223841391 0.008344722135596014 0)
(25.04431459665843 0.02810308904336451 0)
(25.44031412299342 0.1004567055168754 0)
(26.74170578844447 1.253295461480626 0)
(24.86580147082922 2.614370698541125 0)
(25.01899974425716 0.007270489548331032 0)
(25.24460598162566 0.3264617291797933 0)
(25.96762652176803 2.043716817113527 0)
(21.72506477640782 3.246216047662105 0)
(25.00458059839214 0.01147319064052781 0)
(25.07415608030799 0.3593115085674767 0)
(25.01500643263881 2.752517630961987 0)
(18.44117832599529 5.902020937603845 0)
(24.99782956744919 0.01448860015734712 0)
(24.92107181685215 0.3870116668566721 0)
(23.95196635796983 3.212700710425858 0)
(14.25355798089223 7.393991193480975 0)
(28.73360662902975 1.676479889636619 0)
(27.29673498434877 0.2920735432342623 0)
(25.64389507774925 -0.2217202213271935 0)
(25.0369437970129 0.04195351663843636 0)
(33.52116743492071 2.803685919051222 0)
(27.71609189177967 -0.6640848791001354 0)
(25.87960574392665 -0.5164201820932821 0)
(24.97241430802427 0.05833569616042454 0)
(33.09900586417088 -1.111344532456538 0)
(27.67964395485532 -1.912452549435249 0)
(25.87478694109971 -0.9939948184284111 0)
(24.88069077902983 0.06963103875349676 0)
(30.01237282342669 -4.667052771057912 0)
(27.15756408721721 -3.19141891906845 0)
(25.53192465033618 -1.525469960941733 0)
(24.79587988688587 0.1300699786332772 0)
(24.76632823206648 0.1865531956694093 0)
(23.72313716974362 -2.758045252757178 0)
(20.93713706587964 -7.962914759389014 0)
(17.59261853662334 -11.17653079811165 0)
(24.70789172426369 0.2376094478587143 0)
(24.34346722779187 -2.83465775781571 0)
(22.62595269979271 -7.389863964310765 0)
(19.84691552277805 -10.58294368785665 0)
(24.89059817141909 0.2210202515773345 0)
(24.90197737714391 -2.445260064090081 0)
(24.61487332664881 -6.321042639138982 0)
(22.74421506340535 -9.560562201719387 0)
(24.74275786123347 0.3765367195720747 0)
(25.16598043842203 -1.783054893560769 0)
(25.9607636789042 -4.584270904272431 0)
(25.82541918269587 -7.346396194596325 0)
(15.99762251688129 -11.26867969018369 0)
(20.03459614548796 -7.467953558192987 0)
(23.96512372428209 -1.853834711091813 0)
(24.85047084722354 0.1311047517699855 0)
(15.3719452795652 -10.70152340903048 0)
(20.16675286012985 -6.2734379335448 0)
(24.21074131893026 -1.194474057811067 0)
(24.91735330035675 0.08979991426990205 0)
(15.06685746899912 -9.931242659960784 0)
(20.50103709055281 -5.050157454466882 0)
(24.50138462952142 -0.6677630505970518 0)
(24.953978725537 0.05289275979922903 0)
(15.09408186862015 -8.900635154606976 0)
(21.20158605038024 -3.66522734666508 0)
(24.6943107156008 -0.3452021668393728 0)
(24.9790075272612 0.0281023728195091 0)
(24.99643646318479 0.00172234121746945 0)
(25.01303696277404 -0.02598103091558282 0)
(24.33653554384145 -0.5091858018687101 0)
(16.42741721631225 -2.730759238097932 0)
(24.99717990846898 0.002337657780363309 0)
(24.97851032367628 -0.03220997010242329 0)
(23.69187319866736 -0.872781165100838 0)
(16.17642379332796 -4.616761332313533 0)
(24.99614968393464 0.005518622229526502 0)
(24.92467176967993 -0.0695992825639169 0)
(22.82429516513176 -1.537746628351604 0)
(15.39404002368909 -6.280861548797897 0)
(24.98982926639387 0.01275618705153939 0)
(24.84603457913602 -0.1563916780322518 0)
(22.01506004536968 -2.458404479392473 0)
(15.10402313502693 -7.682665369245207 0)
(24.99319391741161 0.002194842760880097 0)
(24.98807153054287 0.004883611183313413 0)
(24.98314962282092 0.008851144680359963 0)
(24.97974346551613 0.01229113024871218 0)
(25.0548755527971 -0.04304997028448742 0)
(25.07708620126726 -0.08887617083563869 0)
(25.07786499321125 -0.1419229345826206 0)
(25.07559272505567 -0.1771027551663041 0)
(25.06487280059228 -0.391750548630338 0)
(25.39154641026964 -0.4328433390352239 0)
(25.40811548473622 -0.6315772301887871 0)
(25.40769315553553 -0.7258806557356565 0)
(20.98086794792256 -1.439749671733517 0)
(25.11923078404111 -0.8276479809622121 0)
(25.88523673109039 -0.5752876720518868 0)
(25.94128476927673 -0.7402638468203506 0)
(24.97779860144219 0.0159158517505465 0)
(25.06418009285515 -0.2081137491730261 0)
(25.36203312942698 -0.8448097895745044 0)
(25.79711703532037 -1.037520439469711 0)
(24.97761843026275 0.01926162501620439 0)
(25.03902140130361 -0.2293164911801632 0)
(25.28037074748417 -0.9427711468356423 0)
(25.64203589797031 -1.410536572718201 0)
(24.97958349282288 0.0218882164499618 0)
(24.99218078679151 -0.2327690643737472 0)
(25.14279034380188 -1.039658840037176 0)
(25.50891363452532 -1.794097550395079 0)
(24.98372515934907 0.02216312128180072 0)
(24.95036929449497 -0.2060480532664435 0)
(24.98064235158899 -1.110533013640314 0)
(25.3469371850755 -2.191500360436019 0)
(24.99826953405291 0.002055475364184841 0)
(24.97178432882229 -0.0163324772119211 0)
(24.54072319100603 -0.5190375687716884 0)
(24.02209159907719 -3.706845350152044 0)
(24.9956633396188 0.005790533090872475 0)
(24.9477436941349 -0.0480827119015183 0)
(24.57611755809322 -0.8167202134723153 0)
(24.60939098741641 -3.479357656974272 0)
(24.99222554911623 0.01191537488245408 0)
(24.9300929908071 -0.0986648688726912 0)
(24.66978611307801 -1.012901102816077 0)
(24.889477903743 -3.030586007002226 0)
(24.98901253970496 0.01871181502287306 0)
(24.92873374011244 -0.1570871967416419 0)
(24.81265967215297 -1.116651012627266 0)
(25.13696619393248 -2.593187241143388 0)
(23.0409177283866 -3.241911902084193 0)
(24.69976185240681 -0.2534280651864551 0)
(24.99267012655068 -0.004313898297012297 0)
(24.99962387414343 0.0007507021295037362 0)
(22.86089990956577 -2.807336818679411 0)
(24.7534148892641 -0.1892005166961965 0)
(24.99508406578173 -0.002923405422218475 0)
(24.99986684532544 0.0001905364795537058 0)
(22.8098932730343 -2.413908041346665 0)
(24.83358534298828 -0.07108401693498538 0)
(24.99778910679261 -0.0005508920634625885 0)
(24.99996685699422 7.906111249539541e-05 0)
(22.99636090835914 -1.991715677244076 0)
(24.904909066269 -0.005207589625883626 0)
(24.99923054979539 -2.932019363382656e-05 0)
(24.99999452962013 2.085660077646263e-05 0)
(23.03688427900715 -1.545200482221196 0)
(24.98088736507805 0.0311821754318154 0)
(25.00005953656318 0.000244192859888535 0)
(24.99999660609987 -2.1061493963876e-06 0)
(23.1103820081971 -1.160722334559172 0)
(24.97148775513699 -0.01894790629289576 0)
(24.99996577321869 -6.398320999954728e-05 0)
(25.00000000443924 -4.292929812941185e-08 0)
(23.39305883514134 -0.5528993744858877 0)
(24.9823532262005 -0.0008366508552731538 0)
(24.99999602459688 -1.43885310491058e-06 0)
(24.99999999917513 -5.674928313981437e-09 0)
(23.98448755865772 0.0953712211290733 0)
(24.99083761672679 0.003162348116036888 0)
(25.00000036643219 4.899739805398581e-07 0)
(25.00000000022526 5.123886357145536e-10 0)
(25.00000000000001 2.333043719400666e-14 0)
(25.00000000027026 -1.001772233141417e-09 0)
(24.999887396004 6.854470353087162e-05 0)
(24.95177451663455 0.005963063279399401 0)
(25 5.402796835283036e-13 0)
(24.99999998696457 9.718556144646658e-09 0)
(24.99973254774012 0.0002731545344626775 0)
(24.91733935474437 0.1024328831139075 0)
(25 -3.063735040400758e-12 0)
(24.9999999954418 -9.828762158482852e-09 0)
(24.99919009633775 0.0007218878217053268 0)
(24.86222779332605 0.1987449845247645 0)
(24.99999999999409 1.498509063781379e-11 0)
(25.00000002558429 2.506439342430555e-08 0)
(24.99738413616042 0.001736343245883821 0)
(24.59742114320377 0.3459648508367569 0)
(24.91051840140516 -1.96414894075812e-11 0)
(24.84530801678749 0.1049293817332469 0)
(24.65994892561075 0.1815002300659769 0)
(23.96472101209955 0.1009677571466494 0)
(24.84530801704978 -0.1049293818610396 0)
(24.7110995597154 -8.422347730467408e-11 0)
(24.2560777313318 -0.0138015470931465 0)
(23.02537266903767 -0.3831108887053363 0)
(24.65994892577199 -0.1815002301426089 0)
(24.25607773144973 0.0138015469968634 0)
(23.12506811896796 -2.05327657926811e-11 0)
(21.09711695220465 -0.5501744914462899 0)
(23.96472101209708 -0.1009677572125118 0)
(23.02537266906075 0.3831108886307082 0)
(21.09711695221496 0.5501744913865211 0)
(18.74282475684614 -3.434761521799965e-11 0)
(18.07427066212194 2.609021547545811 0)
(18.77689685791916 3.050102784406647 0)
(20.5521344635105 2.69919359692474 0)
(22.10711377474674 1.781565119786452 0)
(19.06182274407812 4.370267344367033 0)
(19.17273465947882 4.357395990010451 0)
(19.97977022038469 4.284282601074844 0)
(21.10567038890333 4.016862209115658 0)
(18.85122118294347 5.443429372025405 0)
(19.73156103674382 4.61981130457802 0)
(20.4747082080484 4.822150434562647 0)
(21.12956011856842 4.675403625906416 0)
(19.43120166284837 5.957640088109902 0)
(20.42664570568263 4.888444797966198 0)
(20.96363300804627 5.047077750945747 0)
(21.34809186427222 4.961039585900477 0)
(21.70341311898086 5.111054454729156 0)
(21.81408364333614 5.184003463970892 0)
(22.07320210303499 5.248263782795281 0)
(22.61061760033783 5.379090056829499 0)
(21.48814517049194 5.175357282488765 0)
(21.74357063636879 5.2607681030908 0)
(22.03720837598544 5.291995054030762 0)
(23.08034008802894 5.615450499286815 0)
(21.11506850672584 5.04285333926896 0)
(21.53892206750603 5.204204223968421 0)
(21.90844955085061 5.273505786905248 0)
(24.47714624218304 6.036397441874522 0)
(20.02701482885805 6.03598676706876 0)
(20.58554723617194 6.072658219070227 0)
(21.14366660147906 6.079826139535931 0)
(26.13887267536285 7.333382598303927 0)
(26.25333538804049 3.176478366793063 0)
(26.71106906078455 0.7492247266009633 0)
(25.95090496347166 0.4341891167665164 0)
(25.75457394961544 0.4263568423988557 0)
(28.61714541097383 2.166429303772791 0)
(28.69274251821172 0.3293333487008838 0)
(27.50262002919914 0.2804136175702481 0)
(26.79797924366049 0.3837591376764782 0)
(31.73933987763972 1.863410355554179 0)
(29.97590897945374 0.06296045067024099 0)
(28.46496506520835 0.07729841786829178 0)
(27.48230863847332 0.1524791352355203 0)
(25.49153539112404 1.652795315549979 0)
(24.11348941131179 0.600789875229622 0)
(23.76398074846658 0.2379644668736664 0)
(23.54657183506172 -0.06349130798096081 0)
(25.69613560200778 0.345526697218578 0)
(25.66976411978479 0.2456015576164212 0)
(25.6581458146027 0.1333638381982759 0)
(25.73120484589709 0.002191327884969236 0)
(26.35904865587551 0.3398769807353052 0)
(26.00581452658574 0.2460305544385818 0)
(25.80149962236495 0.1076068463467661 0)
(25.73171027143326 0.03263691217624372 0)
(26.78483008663531 0.1382870132586792 0)
(26.17953490569537 0.0995151562174932 0)
(25.82512046708307 0.02593809840791748 0)
(25.58607856155976 0.043456904335959 0)
(23.31927967352426 -0.420668831740771 0)
(23.21164805624164 -0.6074485995599651 0)
(23.18514790002038 -0.5208025880137546 0)
(23.08078487800864 -0.6001014285334043 0)
(25.86157875511951 -0.1444797424433058 0)
(25.58083795374242 0.3737845869612694 0)
(21.16680316058213 4.180245291098107 0)
(15.12665373572422 3.5073955648454 0)
(25.81611781955948 -0.1139414058270101 0)
(25.189428206727 0.6932930314388681 0)
(17.90136517575566 4.345324390515531 0)
(10.85168515392186 2.002684755130405 0)
(25.64599128537452 -0.03383302566309415 0)
(24.3918885418535 0.7271441836804304 0)
(14.45019454094534 3.338645628912507 0)
(5.431032078636176 2.323475833909125 0)
(23.51969184851015 -0.7151766586234944 0)
(21.37794312611029 -0.8114401755269935 0)
(10.91547215344719 -1.051808001316528 0)
(1.743820065817601 0.1705007129022144 0)
(11.80377676861753 4.87794868544875 0)
(13.19066279385761 6.394963363836907 0)
(13.77899019587405 7.681662897035672 0)
(14.33229504496987 8.609919002375145 0)
(10.03391965862894 4.494903426707827 0)
(12.59115176097074 6.358766917955373 0)
(13.60357653259789 7.835162764696029 0)
(14.19727200507171 8.769254356534175 0)
(6.9544456700565 2.777394781451281 0)
(10.80194503838417 5.545514405531942 0)
(12.7863798428047 7.728020884879292 0)
(13.62328961029503 8.786859090012099 0)
(2.255226579456429 1.992050843229969 0)
(5.950147413604452 3.957112722850972 0)
(9.721837128662655 5.302808331479982 0)
(11.76581415889628 6.391281049631266 0)
(14.72106413707569 8.844264158614898 0)
(14.33843505893427 9.206557341511491 0)
(14.69422893371138 10.05156960537846 0)
(15.6745615793288 11.06702862924578 0)
(14.69858523366309 9.031832678728241 0)
(14.65741868597985 9.312655526289673 0)
(14.96030154531226 10.12386392119505 0)
(15.67187959869029 10.90812706244212 0)
(14.30933929178885 9.166093549251743 0)
(14.66946079626482 9.455945934569163 0)
(15.11081547419597 10.0730005749603 0)
(15.82296509820404 10.73756624950684 0)
(12.82517343317788 7.484065384862293 0)
(13.75713286541619 8.839250095928914 0)
(14.83826576360247 9.648146859085436 0)
(15.64430446555234 10.09310379935092 0)
(16.66854397828595 11.84954190899038 0)
(18.23766043108107 11.94645590612848 0)
(21.01075778929171 11.66192392149819 0)
(24.9486390484534 10.22196568238196 0)
(16.59768273112039 11.56881864910473 0)
(18.13185664883094 11.86973943711282 0)
(20.64074385446732 11.71855637650931 0)
(24.85127852505263 12.29419072999493 0)
(16.70509234408349 11.34737710070072 0)
(17.87860921351734 11.7765120457993 0)
(20.73370861131266 12.64048291684731 0)
(30.82089496747278 18.00184286853251 0)
(16.68993548019711 10.27072110778945 0)
(17.89625752709633 11.32982643433944 0)
(21.59976270221061 13.04671557439622 0)
(42.05393550507194 24.78994783525474 0)
(30.68257634629804 5.270804014880865 0)
(32.9258613421391 -4.639214342485378 0)
(11.28499217072468 2.168030747735685 0)
(7.563291900368564 8.445363220848764 0)
(32.03872523322568 4.5524154320994 0)
(26.6798511101385 -3.307447364895383 0)
(7.964639983427157 8.73016874704021 0)
(5.10587921641873 14.05911692415983 0)
(31.54093429992015 3.111674042466753 0)
(17.10846348906556 -6.394924661514136 0)
(3.50661658337769 10.83375283777615 0)
(3.216401830594964 14.63902023397695 0)
(20.28428651436263 -8.591486937339216 0)
(6.043973852233222 -3.042217308706673 0)
(1.306949135885339 12.52486968722908 0)
(1.699703294664714 14.1999393241878 0)
(4.229599278664272 7.768178506083923 0)
(1.735816432046561 5.829443679589314 0)
(0.3855632572147533 3.677213266999154 0)
(-0.1082995007199381 3.353071151137541 0)
(2.838675548667768 12.65667129252546 0)
(1.420804326534922 9.846548813519862 0)
(0.4351072057126569 6.976722825924687 0)
(0.3601093607601935 4.450315573403422 0)
(2.287716443283528 13.64773843938303 0)
(1.631835367115894 11.19687214674554 0)
(0.8875956487470428 8.238263411812305 0)
(0.03239337231948928 3.807827715193195 0)
(0.7684386644060145 13.4501021365487 0)
(0.1383131616353269 11.2153154645176 0)
(-0.632880313995438 8.239377615254092 0)
(-0.7462244088393279 3.390727855436883 0)
(2.553747677467316 -0.2224987498449771 0)
(6.48321401627278 -5.553449766481684 0)
(9.738695981845579 -7.491283121885314 0)
(14.15618648797344 -8.966420466814812 0)
(-1.015297751931283 0.2835608418280825 0)
(3.779839269809247 -3.314638387804937 0)
(8.971292900021494 -5.425552215339673 0)
(14.0142196611447 -7.605307496589051 0)
(-2.595092455652991 0.6677265099483433 0)
(0.5615578441194529 -2.122176351226064 0)
(6.696615491230099 -3.874423256952621 0)
(13.34631932234294 -5.58978666763179 0)
(-2.589351777853599 1.34745394418376 0)
(-0.5494990508869153 -0.2854243494549856 0)
(5.71333875441751 -0.1722947885141963 0)
(14.45120211337593 -3.824168530797586 0)
(14.42960271535051 -10.22121298952417 0)
(13.41976983951187 -10.36978825889554 0)
(12.24074871056469 -8.711765840073577 0)
(9.549673633516292 -7.461808265154367 0)
(15.63160515073718 -11.50630597580254 0)
(14.45743353693704 -13.16334800771942 0)
(11.98557750084514 -10.722793562579 0)
(7.890678563071936 -9.33550156240643 0)
(15.69995553408646 -11.91505315848937 0)
(13.61655452992032 -13.1373865840666 0)
(10.0636907822527 -8.483793761608492 0)
(4.938538923731719 -6.126204321759968 0)
(13.59382721759779 -14.18413674921034 0)
(9.508472386243209 -10.18570673856502 0)
(5.143186124219904 -3.143034805281729 0)
(1.63083430153478 -0.8477247604118393 0)
(0.05190990668912559 0.2277809200575972 0)
(-0.6936261782744478 0.5509148658950258 0)
(-1.050763278216856 0.4315369583219143 0)
(-1.132531317441851 0.1176330273141979 0)
(1.195701647123911 -3.46616327751664 0)
(-0.51300418988682 -2.053904304266186 0)
(-1.190562169679205 -1.038792896036521 0)
(-1.241035410458915 -0.3552160748546189 0)
(4.099711957660626 -7.20402152440037 0)
(1.79489253694793 -5.488721714815075 0)
(0.7022669065056402 -3.458941324812701 0)
(0.618595370016642 -1.179919545250461 0)
(6.956436493042055 -5.624575176082914 0)
(5.387101792996219 -4.398319753350483 0)
(4.885743822249772 -2.672813534689032 0)
(4.8879293078229 -0.8021342513496429 0)
(-1.132531317442729 -0.1176330273053874 0)
(-1.241035410462396 0.3552160748653816 0)
(0.6185953700094103 1.179919545254751 0)
(4.887929307804684 0.8021342513262897 0)
(-1.050763278217585 -0.4315369583148281 0)
(-1.190562169678629 1.038792896046311 0)
(0.7022669065143395 3.458941324815259 0)
(4.885743822277959 2.672813534674176 0)
(-0.6936261782738885 -0.5509148658886701 0)
(-0.5130041898795421 2.053904304268812 0)
(1.794892536968612 5.488721714820455 0)
(5.387101793053002 4.398319753352577 0)
(0.05190990669156891 -0.2277809200573046 0)
(1.195701647128532 3.466163277523038 0)
(4.09971195766922 7.204021524417337 0)
(6.956436493071372 5.624575176099222 0)
(9.549673633517097 7.46180826516606 0)
(12.24074871056577 8.711765840080332 0)
(13.41976983951826 10.36978825890143 0)
(14.42960271535816 10.22121298952252 0)
(7.890678563073169 9.335501562411963 0)
(11.98557750084672 10.72279356257673 0)
(14.45743353694286 13.16334800771866 0)
(15.63160515074326 11.50630597579737 0)
(4.938538923735937 6.126204321757955 0)
(10.06369078225255 8.48379376160908 0)
(13.61655452992079 13.1373865840702 0)
(15.6999555340917 11.91505315848723 0)
(1.630834301533051 0.8477247604106667 0)
(5.143186124213526 3.143034805277998 0)
(9.50847238624185 10.18570673855428 0)
(13.59382721759922 14.18413674920977 0)
(14.45120211338044 3.824168530794938 0)
(5.71333875442398 0.1722947885130556 0)
(-0.5494990508709392 0.2854243494465263 0)
(-2.589351777826526 -1.347453944170095 0)
(13.3463193223465 5.589786667629481 0)
(6.696615491227236 3.874423256952645 0)
(0.561557844123837 2.122176351209302 0)
(-2.59509245563238 -0.6677265099503421 0)
(14.01421966114839 7.605307496582972 0)
(8.971292900015269 5.425552215342636 0)
(3.779839269791409 3.314638387782412 0)
(-1.015297751944205 -0.2835608418413688 0)
(14.15618648797613 8.966420466806373 0)
(9.738695981841255 7.491283121889759 0)
(6.483214016235754 5.553449766463586 0)
(2.553747677393209 0.2224987498479952 0)
(-0.1082995007693845 -3.35307115115655 0)
(0.3855632571536941 -3.677213267047436 0)
(1.735816432011842 -5.829443679691805 0)
(4.22959927864265 -7.768178506188283 0)
(0.3601093607241995 -4.450315573378822 0)
(0.4351072056722485 -6.976722825943185 0)
(1.420804326536557 -9.846548813585297 0)
(2.838675548701753 -12.6566712926048 0)
(0.03239337230745442 -3.807827715175643 0)
(0.8875956487098643 -8.238263411814518 0)
(1.631835367112303 -11.19687214679029 0)
(2.287716443299578 -13.6477384394523 0)
(-0.7462244088364997 -3.390727855417802 0)
(-0.6328803140147163 -8.239377615248136 0)
(0.1383131616201249 -11.21531546455134 0)
(0.7684386644017259 -13.45010213661153 0)
(7.563291900342286 -8.445363220921212 0)
(11.28499217059879 -2.168030747878312 0)
(32.92586134207736 4.639214342535145 0)
(30.68257634630799 -5.270804014851572 0)
(5.1058792164362 -14.05911692420288 0)
(7.964639983420336 -8.730168747118981 0)
(26.67985111009519 3.307447364876767 0)
(32.03872523322809 -4.552415432079221 0)
(3.216401830591793 -14.63902023402452 0)
(3.506616583374285 -10.83375283783911 0)
(17.10846348904091 6.394924661476125 0)
(31.54093429992585 -3.111674042471737 0)
(1.699703294662836 -14.19993932424301 0)
(1.306949135886097 -12.52486968728494 0)
(6.043973852253925 3.042217308655614 0)
(20.28428651440079 8.591486937327236 0)
(24.94863904847143 -10.22196568236592 0)
(21.01075778932564 -11.66192392149338 0)
(18.23766043109223 -11.94645590612466 0)
(16.66854397829279 -11.8495419090191 0)
(24.85127852506555 -12.29419072998155 0)
(20.64074385447731 -11.7185563765048 0)
(18.13185664883997 -11.8697394371159 0)
(16.59768273111619 -11.56881864913059 0)