/*--------------------------------*- C++ -*----------------------------------*\
  =========                 |
  \\      /  F ield         | OpenFOAM: The Open Source CFD Toolbox
   \\    /   O peration     | Website:  https://openfoam.org
    \\  /    A nd           | Version:  11
     \\/     M anipulation  |
\*---------------------------------------------------------------------------*/
FoamFile
{
    format      ascii;
    class       volScalarField;
    location    "15.1";
    object      p;
}
// * * * * * * * * * * * * * * * * * * * * * * * * * * * * * * * * * * * * * //

dimensions      [0 2 -2 0 0 0 0];

internalField   nonuniform List<scalar> 
4455
(
142.52221
142.62059
142.81612
143.13193
143.54583
144.12609
144.79805
146.0888
146.45905
142.4719
142.58274
142.79652
143.12401
143.5742
144.18611
144.99228
146.27467
147.17419
142.36929
142.50354
142.73977
143.08734
143.55786
144.20242
145.0377
146.42155
147.41258
142.21885
142.38542
142.64818
143.01712
143.50388
144.1876
145.07721
146.56057
147.77288
142.0303
142.23207
142.52361
142.91373
143.41928
144.14072
145.10573
146.70298
148.21781
141.81118
142.04948
142.36936
142.77854
143.30726
144.07011
145.1024
146.84122
148.64582
141.56932
141.84343
142.18978
142.615
143.16337
143.96617
145.0638
146.96911
149.10041
141.31463
141.61935
141.98916
142.42797
142.9936
143.83358
144.98624
147.07183
149.55929
141.05571
141.38349
141.77119
142.22192
142.80142
143.678
144.88524
147.15083
150.03673
140.79961
140.55362
140.32601
140.12094
139.94116
139.78903
139.66724
139.57794
139.52516
141.14124
140.89689
140.65751
140.42769
140.21212
140.01466
139.83848
139.68605
139.55699
141.53858
141.29347
141.04455
140.79588
140.55133
140.31477
140.08871
139.87567
139.67471
141.99496
141.74641
141.48852
141.2246
140.95619
140.68702
140.42046
140.16038
139.90278
142.58479
142.33932
142.08077
141.81123
141.52945
141.23994
140.94788
140.66177
140.37528
143.49742
143.27771
143.03282
142.76529
142.46965
142.15452
141.82267
141.48644
141.14405
144.76594
144.618
144.44201
144.22639
143.94522
143.61772
143.2547
142.87878
142.49629
147.23142
147.21049
147.06816
146.81492
146.45513
146.02692
145.55106
145.04124
144.49081
150.65546
151.12258
151.01898
150.45805
149.62745
148.6724
147.67165
146.65608
145.63562
139.51972
139.50026
139.45776
139.4028
139.3319
139.25066
139.1494
139.03601
138.89929
139.47856
139.4039
139.31176
139.20227
139.0749
138.93062
138.76837
138.5881
138.38784
139.54243
139.44205
139.33749
139.22348
139.096
138.95301
138.79316
138.61601
138.4207
139.7147
139.58552
139.46294
139.33344
139.18883
139.02602
138.84353
138.64149
138.41986
140.15428
140.01778
139.90252
139.78316
139.64553
139.48611
139.30435
139.102
138.88092
140.86338
140.69578
140.55993
140.41779
140.25275
140.06088
139.84239
139.60226
139.34691
142.18394
141.99829
141.84671
141.67557
141.47058
141.23286
140.9678
140.68337
140.3911
143.98045
143.53087
143.07936
142.60653
142.10859
141.58951
141.05947
140.53216
140.03625
144.72846
143.91539
143.10379
142.30987
141.5405
140.79196
140.07829
139.40846
138.8088
138.39663
138.0043
137.88608
138.11173
138.64227
139.36787
140.17612
141.0322
141.92136
139.61841
139.27172
138.98684
138.77227
138.63157
138.5691
138.58584
138.71294
138.90431
140.11354
139.85878
139.61599
139.39077
139.18672
139.00775
138.85534
138.73162
138.6373
139.0866
138.8319
138.57467
138.31604
138.05681
137.79811
137.54082
137.28683
137.03705
138.64895
138.412
138.1643
137.90613
137.63676
137.35641
137.06447
136.76168
136.44773
138.18271
137.93214
137.66421
137.37915
137.07662
136.75636
136.41745
136.05973
135.6821
138.20922
137.98157
137.73451
137.46737
137.17928
136.86935
136.53623
136.179
135.79597
138.16842
137.92823
137.66704
137.38442
137.08056
136.75251
136.39956
136.01795
135.60745
138.72642
138.51693
138.29571
138.06108
137.81149
137.53682
137.23459
136.89905
136.5307
136.12621
135.68613
135.20601
134.68656
134.12098
133.51009
132.84514
132.12711
131.34533
135.16493
134.69074
134.18123
133.63671
133.05256
132.42889
131.75925
131.04372
130.27463
135.38639
134.94821
134.48076
133.98117
133.4487
132.87927
132.27188
131.62087
130.92507
135.2847
134.866
134.42624
133.96291
133.47611
132.96171
132.41949
131.84323
131.23234
136.12364
135.78862
135.44368
135.08646
134.71773
134.33263
133.93151
133.50674
133.05828
136.79361
136.55687
136.32818
136.10555
135.88965
135.67442
135.45959
135.23516
135.00044
138.57424
138.54122
138.53906
138.56261
138.61162
138.67645
138.75625
138.83945
138.92418
139.17041
139.49582
139.87985
140.31221
140.7906
141.30566
141.85454
142.42658
143.01834
142.83673
143.77287
144.73325
145.71604
146.73044
147.77163
148.84925
149.95616
151.09028
152.24356
143.61568
138.99671
134.74238
132.57584
130.57825
130.17715
129.45209
130.50098
153.41736
144.21411
139.05294
134.46
132.05907
129.88
129.37569
128.56635
129.5811
154.60234
144.79218
139.08133
134.13723
131.49503
129.12663
128.51156
127.61771
128.58706
155.79364
145.34388
139.07304
133.77149
130.88301
128.31683
127.58318
126.59451
127.5035
156.9655
145.83647
139.01048
133.3427
130.20734
127.43734
126.57973
125.4973
126.33219
158.10518
146.26191
138.88021
132.84564
129.46666
126.48659
125.49934
124.31038
125.05726
159.11229
146.5717
138.65954
132.2655
128.64245
125.44971
124.32916
123.03315
123.68133
159.94838
146.75487
138.32911
131.59074
127.73047
124.32546
123.06623
121.65826
122.19619
160.38791
146.70721
137.84833
130.79811
126.70847
123.09822
121.69144
120.18517
120.6151
118.94958
118.60286
120.18278
121.74353
125.52662
129.83432
137.14134
146.37009
160.34335
117.25635
116.90085
118.50953
120.23477
124.10607
128.57682
135.92897
145.05464
157.4726
115.32232
115.06351
116.68284
118.56577
122.46412
127.04099
134.31108
143.2821
154.96691
113.12581
113.07688
114.70233
116.73847
120.62984
125.29524
132.47794
141.35412
152.69315
110.64158
110.92527
112.56634
114.75354
118.64479
123.40603
130.52191
139.35115
150.36995
108.005
108.61227
110.27204
112.62328
116.51872
121.38526
128.45451
137.23386
147.93112
105.18377
106.13236
107.81403
110.3387
114.25056
119.22131
126.25311
134.98782
145.39639
102.21239
103.49254
105.1868
107.90439
111.8317
116.90299
123.9055
132.59162
142.85574
99.017339
100.68947
102.38132
105.30732
109.25296
114.4208
121.40061
130.06942
140.28928
137.69122
127.40481
118.74388
111.77354
106.50577
102.55958
99.39567
97.724239
95.631791
135.04854
124.62362
115.93584
108.96169
103.58609
99.649122
96.216473
94.588761
92.007858
132.36222
121.70065
112.98308
105.99648
100.49515
96.583799
92.862828
91.286233
88.192526
129.61279
118.65272
109.884
102.87821
97.23441
93.345728
89.317035
87.803782
84.147689
126.8024
115.44588
106.64528
99.608533
93.810463
89.943949
85.611077
84.155274
79.920698
123.89545
112.10237
103.26332
96.187757
90.227972
86.373717
81.723566
80.328472
75.476031
120.88629
108.58392
99.751057
92.615
86.496558
82.653322
77.693554
76.347988
70.869286
117.74055
104.9255
96.106411
88.892626
82.621824
78.76402
73.499222
72.199543
66.077566
114.46159
101.08705
92.33616
85.022942
78.614743
74.733415
69.192704
67.911203
61.206094
56.342518
63.438557
64.704699
70.445883
74.363371
80.855506
88.242893
96.823627
110.66796
51.56308
58.787628
60.087151
65.899801
69.83454
76.320426
83.762682
91.897741
106.0799
46.624873
54.006396
55.372694
61.177464
65.183709
71.610039
79.144963
86.881791
101.06339
41.595142
49.135386
50.634391
56.331424
60.427989
66.777173
74.461793
81.771624
95.657241
36.446372
44.170294
45.851353
51.387693
55.597311
61.855495
69.736634
76.754838
89.690709
31.387085
39.158365
41.073618
46.40673
50.696072
56.861967
65.006951
71.839354
83.006556
26.439074
34.137877
36.287332
41.413999
45.755131
51.797323
60.28397
67.357474
75.247194
21.797092
29.189772
31.557627
36.466147
40.807993
46.668743
55.571703
63.4276
66.295749
16.638045
24.388216
26.89119
31.592428
35.932485
41.51992
50.880327
60.476125
56.620016
11.614117
19.790786
22.295162
26.811114
31.065026
36.336431
45.679289
58.760633
49.820773
7.5160796
15.513481
17.848047
22.201642
26.568735
31.895275
41.521549
58.150157
46.698173
4.2431732
11.427434
13.653893
17.797215
22.374826
28.11075
38.643029
56.900024
48.931979
1.3749211
7.5365833
9.6988199
13.300254
18.127026
24.009382
36.027794
54.71503
59.720987
-1.1635528
3.8053008
5.9256611
8.6104086
13.653759
19.461773
33.37022
50.551404
55.974068
-3.3174972
0.26464761
2.3681891
3.688455
8.9860353
14.551131
30.350288
47.920413
53.064843
-4.9966062
-3.1075338
-0.97738889
-1.3611355
4.1207571
9.4003911
27.636276
47.917384
52.962775
-6.1432241
-6.3041138
-4.0787166
-6.4691842
-0.93984697
4.2656469
25.537555
44.590173
50.667918
-6.739384
-9.2859105
-6.9904011
-11.520774
-6.2355407
-1.4384432
23.788238
42.686756
50.193
49.931702
41.799172
22.461148
-5.8594471
-11.353144
-16.22683
-9.5700968
-11.892075
-6.7900148
49.776201
41.39197
19.586935
-10.299386
-16.198978
-20.485826
-11.883732
-14.055738
-6.4192635
49.429263
40.212712
16.6364
-14.74904
-21.199432
-24.581655
-13.906556
-15.765013
-5.6094319
48.848114
38.370419
13.455175
-19.099224
-26.286817
-28.483648
-15.680841
-17.033493
-4.28255
48.103816
36.863191
9.9670953
-23.376211
-31.449886
-32.160853
-17.137913
-17.847332
-2.5122231
47.244005
35.307343
6.2964505
-27.51186
-36.602674
-35.573745
-18.340004
-18.223404
-0.29663318
46.418257
33.981079
3.0128369
-31.704056
-41.743149
-38.660771
-19.218488
-18.129607
2.2744366
45.186727
32.570871
0.037981223
-35.884042
-46.714542
-41.341964
-19.830838
-17.553332
5.1911834
44.503408
31.975828
-2.5742607
-40.616966
-52.294751
-43.586465
-20.101097
-16.41553
8.7025742
43.69453
28.999806
-7.3866734
-47.941212
-60.036313
-46.094406
-19.901512
-13.463275
15.171656
41.815038
21.642948
-23.72085
-63.727337
-70.143174
-46.912748
-17.236575
-6.9923503
24.875859
40.378331
13.951281
-33.121728
-77.883807
-77.383438
-44.964421
-12.410851
1.6529174
35.190981
39.459266
5.1923033
-49.405569
-91.74079
-81.707803
-40.150106
-5.4559533
11.909347
45.429283
36.430509
-3.8272336
-60.262137
-103.56695
-82.546957
-32.865147
2.6278848
23.045723
55.162251
31.948195
-12.987696
-75.527467
-114.45993
-80.208265
-23.208528
11.743776
34.600226
63.718893
26.995439
-22.020437
-85.989856
-121.96735
-74.642496
-11.980702
21.009088
45.975676
71.060367
21.8785
-30.738368
-99.451289
-126.48646
-66.377799
0.57099029
30.380063
56.927697
76.948408
16.783001
-41.587372
-108.14759
-124.46693
-55.324382
12.971968
39.081179
66.825824
81.376315
22.188353
-28.133924
-109.74073
-131.61197
-53.611384
22.283389
54.178674
82.684155
110.84966
22.10246
-27.760716
-106.47858
-132.01512
-58.394109
19.509787
54.694191
81.582409
109.02912
22.020237
-27.532354
-104.37171
-132.98586
-61.493389
16.453785
54.487999
79.680897
107.47793
21.842455
-27.837904
-103.81785
-134.45554
-67.361056
12.388201
54.301624
77.11257
105.4679
21.55059
-27.862779
-103.62118
-136.69615
-72.388652
8.8308867
53.303657
74.611672
104.05156
21.237885
-28.41992
-105.93743
-137.7125
-77.085387
5.8082922
52.065947
72.24209
102.55752
20.969984
-28.709895
-107.64313
-139.5758
-81.190099
3.4507674
50.407094
70.055722
101.44799
20.617078
-29.432526
-110.10892
-142.87257
-84.168097
2.0877773
48.776371
67.876839
100.65013
20.353778
-30.341461
-112.529
-144.84557
-86.087052
1.7732531
47.032202
67.445988
99.02146
14.536338
-54.781144
-135.84964
-134.4094
-35.134335
17.271348
40.311154
68.570228
81.93057
20.379267
-43.034142
-126.78748
-140.28953
-49.820797
6.5008272
32.208827
58.83986
77.743397
26.190955
-32.116067
-110.91432
-138.23894
-62.124943
-5.2166123
23.530444
48.107026
72.118777
31.666799
-21.270458
-99.414349
-132.73674
-71.760309
-16.524607
14.811565
37.027096
65.06089
36.473221
-10.174568
-81.309794
-122.96123
-78.065196
-27.094871
6.0858969
25.720054
56.791796
39.572303
1.0049946
-68.664203
-111.36541
-80.971999
-35.764125
-2.0345135
14.781089
47.335587
40.806353
11.580027
-49.248508
-96.83425
-79.985686
-42.33731
-9.4847817
4.4520842
37.3234
42.812697
20.752947
-37.724228
-81.75989
-75.316008
-46.030086
-15.092109
-4.4685275
27.124551
45.196301
29.203761
-17.866101
-63.590472
-66.89095
-46.814493
-18.709462
-11.488526
17.358822
-6.7191297
-13.130687
-11.592144
-20.332831
-17.536268
-15.354392
18.781981
44.434081
52.645307
-6.0684137
-14.99529
-13.689654
-24.527571
-22.690216
-20.393557
15.242132
43.583611
52.348796
-4.9596338
-16.376527
-15.447171
-28.478762
-27.978342
-25.493409
11.649357
41.915085
51.713984
-3.3431284
-17.305131
-16.921015
-32.170707
-33.325501
-30.530304
7.6838797
40.088323
50.916733
-1.3108467
-17.771436
-18.053055
-35.573775
-38.679898
-35.491534
3.4986403
38.366347
50.015583
1.1410224
-17.799916
-18.91405
-38.654426
-43.954278
-40.274437
-0.77280102
36.69617
49.010506
3.9158
-17.358454
-19.436986
-41.348526
-49.134913
-45.219829
-4.5575851
35.234473
48.168528
7.006563
-16.438757
-19.671918
-43.577788
-54.073494
-50.072898
-8.2632932
33.716441
46.730009
10.671566
-14.964607
-19.567305
-45.287802
-59.63755
-55.495533
-11.468142
33.09275
45.931063
52.995145
44.887978
20.783071
-10.283294
-12.07789
-15.622421
-9.1883367
-10.788971
-6.9139809
53.450891
46.244647
22.856197
-3.7551782
-6.4245169
-10.511886
-6.4274632
-8.0201863
-6.6010439
55.75386
49.531474
25.262992
2.137041
-1.0248757
-5.3114598
-3.4606067
-4.9920172
-5.7538442
56.104763
49.234956
28.101647
8.0185918
4.154141
-0.13651203
-0.23218078
-1.7588253
-4.3639755
58.150973
51.466293
31.188556
13.649078
9.1250428
4.9341147
3.2374468
1.6605963
-2.4745282
62.283932
55.317565
33.955132
18.898663
13.893925
9.7912681
6.9629127
5.2895063
-0.16590906
51.940045
57.123597
36.591217
23.635695
18.434667
14.445629
10.920101
9.1100816
2.5098992
49.351349
57.952823
39.337742
27.857305
22.912465
19.01276
15.146157
13.150525
5.6294925
52.119095
58.401605
43.525696
32.762216
27.701901
23.775644
19.636356
17.40605
9.6070933
54.654141
61.85833
63.206364
69.100841
73.344605
80.353732
88.429276
97.409274
111.24349
49.757787
57.070278
58.432647
64.379354
68.621673
75.657497
83.89234
92.533788
106.76158
44.708843
52.15025
53.555018
59.468396
63.746043
70.746267
79.18137
87.564635
101.87475
39.591023
47.147383
48.651825
54.419071
58.751181
65.668882
74.353281
82.475964
96.61076
34.365023
42.05863
43.707948
49.266409
53.655345
60.45613
69.435545
77.448016
90.817253
29.255792
36.940024
38.784751
44.075193
48.472828
55.1248
64.463923
72.464938
84.326479
24.270265
31.83216
33.872033
38.877207
43.236877
49.670291
59.440235
67.846292
76.813861
19.630832
26.825453
29.035934
33.742235
37.998506
44.10397
54.35042
63.696166
68.137931
14.538965
21.997021
24.288505
28.699812
32.84681
38.472607
49.216594
60.446385
58.686222
114.94876
101.61231
92.542252
84.639327
77.755727
73.544403
67.839461
66.46631
59.644053
118.15992
105.40523
96.318958
88.597758
81.893531
77.715184
72.279666
70.881705
64.639017
121.24706
109.01038
99.962685
92.388403
85.879066
81.729336
76.597826
75.151699
69.555562
124.20387
112.48143
103.46904
96.014942
89.702622
85.56148
80.741091
79.243449
74.280029
127.07105
115.7788
106.83651
99.477732
93.36352
89.22824
84.731756
83.17404
78.838261
129.84557
118.94317
110.05981
102.77853
96.85201
92.712374
88.530225
86.91621
83.169399
132.56653
121.95259
113.14002
105.91876
100.16571
96.022958
92.158476
90.486333
87.312203
135.2257
124.84158
116.07542
108.89884
103.29954
99.152816
95.585782
93.866292
91.215061
137.84532
127.59206
118.8661
111.71586
106.25274
102.11871
98.829772
97.071652
94.919711
118.65536
118.31194
119.9346
121.53988
125.40094
129.77658
137.157
146.40567
160.39374
116.93503
116.58577
118.24086
120.01869
123.97528
128.52241
135.95281
145.09672
157.52824
114.96927
114.7216
116.39035
118.33481
122.32576
126.98931
134.34347
143.33696
155.02898
112.7401
112.70527
114.38279
116.48842
120.48171
125.24549
132.51953
141.42065
152.76377
110.2164
110.51962
112.21703
114.48246
118.48618
123.35799
130.57395
139.43215
150.44929
107.53642
108.16857
109.88935
112.32709
116.3478
121.33775
128.51781
137.3306
148.02217
104.66359
105.6449
107.39415
110.01451
114.06498
119.17358
126.32938
135.10348
145.49869
101.63601
102.95618
104.72477
107.54728
111.62807
116.85341
123.99597
132.72772
142.9732
98.375985
100.09812
101.87182
104.91347
109.02737
114.36837
121.50681
130.22994
140.42314
120.34536
121.94679
123.4502
124.84189
126.13079
127.31437
128.40897
129.41279
130.34152
119.91688
121.41003
122.80105
124.09019
125.28906
126.39752
127.43102
128.38899
129.28323
121.45833
122.84428
124.1188
125.29997
126.39035
127.4029
128.33944
129.21102
130.01921
122.90413
124.13989
125.27145
126.31495
127.27154
128.15642
128.97105
129.72893
130.43129
126.58455
127.60778
128.5207
129.34571
130.08701
130.76332
131.37592
131.94061
132.458
130.73546
131.52351
132.19378
132.76983
133.26327
133.6887
134.0513
134.3712
134.65095
137.85434
138.32621
138.64821
138.86107
138.98407
139.03986
139.04181
139.00745
138.9456
146.73402
146.77344
146.58246
146.26523
145.83265
145.33318
144.77484
144.19029
143.58555
160.43311
159.98792
159.14687
158.13456
156.98949
155.81196
154.6148
153.42397
152.24454
131.1938
130.11347
130.77332
131.08927
132.94115
134.90664
138.86787
142.98202
151.08591
131.98278
130.8896
131.47475
131.70377
133.39033
135.13923
138.77846
142.3842
149.94671
132.7073
131.61155
132.131
132.28348
133.8159
135.36181
138.69085
141.80624
148.8348
133.37819
132.2871
132.74321
132.82894
134.21788
135.575
138.60693
141.25162
147.75143
133.99448
132.9162
133.31715
133.34648
134.60392
135.78884
138.53829
140.73098
146.70331
134.56502
133.5054
133.85381
133.83629
134.97366
136.00357
138.48578
140.2472
145.68242
135.089
134.05459
134.35736
134.30254
135.33199
136.22527
138.45901
139.80965
144.69344
135.57333
134.56846
134.82852
134.74514
135.67811
136.45326
138.45823
139.42064
143.72693
136.01729
135.04672
135.27022
135.16661
136.01441
136.68957
138.4886
139.0904
142.78468
138.64139
138.07732
138.11783
138.08739
138.55484
138.98866
140.01866
139.51199
138.29704
138.42978
137.83481
137.88791
137.83453
138.31596
138.73265
139.76359
139.16616
137.90971
138.20641
137.57114
137.63848
137.56422
138.06636
138.47421
139.52076
138.88249
137.79582
137.96959
137.28588
137.36886
137.27671
137.80636
138.21449
139.29591
138.66976
138.02572
137.71772
136.97922
137.07817
136.97168
137.53522
137.95431
139.0926
138.53164
138.56092
137.44054
136.64821
136.76551
136.64886
137.25316
137.69485
138.91469
138.47234
139.29189
137.13558
136.29211
136.42954
136.30736
136.95959
137.43699
138.76366
138.49233
140.10591
136.79702
135.90714
136.06931
135.94702
136.65527
137.18268
138.64163
138.6237
140.96798
136.42536
135.49307
135.68311
135.56672
136.33986
136.93283
138.54931
138.81971
141.8632
138.70489
139.9286
140.2968
139.25045
138.78884
138.32677
138.33149
138.29889
138.81606
139.30153
140.42352
140.58987
139.50745
139.01203
138.55059
138.52891
138.50114
138.95421
139.96906
140.95022
140.87535
139.74933
139.21651
138.75476
138.70807
138.6832
139.06881
140.68046
141.47987
141.14189
139.96965
139.40042
138.9393
138.86984
138.84708
139.17119
141.4268
141.99901
141.3815
140.1634
139.56202
139.10409
139.01462
138.99281
139.25335
142.19497
142.49756
141.58873
140.33038
139.7018
139.25064
139.14377
139.12149
139.32511
142.98825
142.97165
141.7624
140.47454
139.82328
139.38201
139.25928
139.23217
139.38075
143.80012
143.42491
141.91669
140.6126
139.9405
139.50638
139.36512
139.32542
139.42376
144.61379
143.87623
142.10496
140.78279
140.07868
139.63726
139.46652
139.40111
139.44337
145.52085
144.38846
142.41937
141.06676
140.30132
139.82729
139.59987
139.48068
139.44874
146.53966
144.94146
142.80404
141.41284
140.59057
140.08775
139.80272
139.61146
139.50209
147.55411
145.45409
143.18252
141.75246
140.87936
140.35064
140.01799
139.76583
139.59242
148.55484
145.93343
143.54892
142.08777
141.17435
140.62017
140.24662
139.94421
139.71563
149.51044
146.36593
143.88073
142.40643
141.46702
140.89253
140.48608
140.14419
139.86956
150.34412
146.7312
144.16689
142.70578
141.75216
141.16436
140.73384
140.36262
140.05158
150.91462
146.9917
144.38784
142.9773
142.02539
141.4319
140.98599
140.59564
140.25948
151.03941
147.14301
144.56891
143.22649
142.2879
141.69371
141.23868
140.83857
140.4904
150.60279
147.17348
144.72204
143.45088
142.53754
141.94645
141.48788
141.0869
140.74008
142.51865
142.61743
142.81319
143.12904
143.54303
144.12353
144.7963
146.08771
146.45728
142.4608
142.57271
142.78738
143.11545
143.56618
144.17847
144.9851
146.26832
147.16978
142.35037
142.4868
142.72477
143.07343
143.54458
144.18976
145.02502
146.41098
147.40776
142.19265
142.36229
142.62743
142.99793
143.48526
144.16976
145.05967
146.54538
147.76323
141.99741
142.20283
142.49718
142.88922
143.39541
144.11772
145.08409
146.68181
148.20671
141.77205
142.01443
142.33744
142.74874
143.27831
144.04215
145.07633
146.81347
148.62996
141.52428
141.80298
142.15272
142.58013
143.12952
143.93337
145.03311
146.93454
149.08001
141.26421
141.57389
141.94727
142.3883
142.95508
143.79612
144.95103
147.03003
149.53242
141.00046
141.33345
141.72478
142.17773
142.75847
143.63606
144.8458
147.10159
150.00101
149.34651
150.04254
150.74063
151.56208
152.50285
153.51732
154.60442
155.72452
156.77973
150.04417
150.68483
151.41316
152.26595
153.22606
154.24506
155.31619
156.41551
157.44646
150.74541
151.4155
152.18215
153.05493
154.01403
155.02416
156.07664
157.15843
158.20286
151.56911
152.27168
153.0583
153.9273
154.87044
155.86358
156.8995
157.97809
159.06409
152.51502
153.2372
154.02351
154.8768
155.79219
156.76589
157.78931
158.87968
160.0327
153.53816
154.2658
155.04364
155.88025
156.77671
157.74069
158.77052
159.90002
161.11891
154.6383
155.35137
156.11262
156.9333
157.81778
158.78894
159.83487
161.0302
162.36383
155.78222
156.47539
157.21927
158.03957
158.93941
159.95397
161.0716
162.29211
163.62294
156.87372
157.54401
158.30449
159.17028
160.14305
161.22803
162.47342
163.69455
165.42325
170.07461
166.56611
165.35753
163.4988
162.14748
160.86119
159.78173
158.84719
158.08701
160.00219
161.0307
160.98306
160.90852
160.56411
160.05474
159.47406
158.80417
158.11312
156.36898
156.90818
157.0335
157.25676
157.27661
157.21723
157.08974
156.85242
156.48778
153.98964
154.30209
154.27991
154.4577
154.4717
154.49815
154.46815
154.42888
154.26959
152.21927
152.40413
152.38433
152.46467
152.44067
152.43775
152.40627
152.39531
152.32568
150.61651
150.74131
150.68686
150.77222
150.70928
150.73338
150.66381
150.6483
150.57642
149.19115
149.23203
149.19323
149.21566
149.16835
149.15179
149.10454
149.06972
149.01663
147.8189
147.81149
147.74049
147.75688
147.67414
147.67205
147.59469
147.56711
147.49749
146.51121
146.44326
146.37441
146.31975
146.24593
146.18585
146.12701
146.07363
146.0129
144.6268
143.25847
141.76359
140.03825
138.07599
135.52
132.46876
128.78534
125.99123
144.70576
143.32857
141.81405
140.0619
138.01252
135.44255
132.25917
128.67521
125.21763
144.72766
143.34962
141.79181
140.019
137.88382
135.28274
131.99444
128.31045
124.29574
144.80912
143.39178
141.85451
140.01103
137.88036
135.14541
131.78856
127.77294
123.30382
144.83281
143.44531
141.85474
140.04386
137.82899
135.08441
131.5706
127.29392
122.35244
144.93293
143.50944
141.92692
140.07947
137.85654
135.03997
131.46147
126.79293
121.49337
144.9701
143.58386
141.97822
140.17331
137.89473
135.12725
131.4106
126.60317
120.64018
145.0549
143.63628
142.04359
140.20337
137.96174
135.10832
131.42493
126.36171
121.98514
145.17135
143.77397
142.18321
140.39814
138.14732
135.43236
131.60704
126.66995
119.37865
126.54018
129.17431
132.34709
134.59282
136.10324
137.5074
138.8705
140.21339
141.49836
125.38127
128.31955
131.97106
134.34359
135.92182
137.40257
138.84799
140.22977
141.54025
124.00369
127.55926
131.67144
134.0971
135.70452
137.23399
138.73082
140.15227
141.48542
122.16201
126.73108
131.42509
133.91834
135.63315
137.23394
138.78607
140.21838
141.55876
119.84328
125.67459
130.92822
133.45885
135.26985
136.98104
138.61209
140.09662
141.46587
117.09673
125.54483
131.12392
133.52898
135.38771
137.11438
138.74157
140.20744
141.56635
111.54558
123.83868
130.48373
132.90613
134.96584
136.84985
138.56535
140.07336
141.46123
107.51406
124.31535
130.96346
133.12544
135.13798
137.00357
138.69102
140.17604
141.54655
96.886065
122.79953
130.55403
132.76492
134.91929
136.88057
138.61046
140.1052
141.49275
142.74729
143.96711
145.213
146.48307
147.80733
149.17547
150.61354
152.1262
153.74706
142.78452
144.01498
145.25597
146.53833
147.86139
149.24656
150.69173
152.22546
153.85137
142.74865
143.99621
145.25405
146.55255
147.88841
149.28862
150.74214
152.29384
153.93455
142.81187
144.06624
145.32062
146.62579
147.96082
149.36882
150.82692
152.39228
154.04268
142.73954
144.01324
145.28643
146.60546
147.95408
149.37635
150.85138
152.43578
154.10288
142.82544
144.09192
145.35609
146.67266
148.0182
149.44215
150.91625
152.50495
154.176
142.74322
144.02969
145.31354
146.64476
148.00207
149.43639
150.92148
152.52271
154.20506
142.81854
144.09448
145.37192
146.69668
148.05186
149.4837
150.96875
152.5697
154.25362
142.77383
144.06025
145.34272
146.67591
148.03279
149.47089
150.9569
152.56392
154.24985
155.48244
157.35798
159.37589
161.53989
163.84105
166.29516
168.84042
171.50599
173.40367
155.6113
157.49852
159.55444
161.7611
164.14874
166.70505
169.40734
172.20452
174.25826
155.72111
157.63205
159.72837
161.98005
164.45353
167.11399
169.96345
172.85547
175.1109
155.84863
157.77547
159.90699
162.19122
164.73589
167.46236
170.43723
173.43903
175.95468
155.92902
157.8755
160.03631
162.35261
164.95403
167.74305
170.84912
173.97868
176.79219
156.01265
157.96997
160.15318
162.49112
165.14088
167.97699
171.21916
174.4674
177.61755
156.05712
158.02477
160.22857
162.58258
165.27397
168.142
171.51016
174.88153
178.43764
156.10892
158.07933
160.29445
162.65593
165.37855
168.26336
171.7492
175.19836
179.40034
156.11093
158.08771
160.30782
162.68136
165.41036
168.3232
171.86171
175.39964
179.5382
174.42417
167.09761
164.35649
161.2163
157.99406
154.90898
151.95048
149.07792
146.26237
175.59023
167.90997
165.08348
161.80252
158.50694
155.33977
152.36784
149.44346
146.61776
176.66804
168.64502
165.75125
162.39488
159.02765
155.80562
152.80474
149.8577
147.01747
177.77163
169.32062
166.33866
162.8684
159.48855
156.19096
153.1928
150.18818
147.36091
178.93106
170.16206
167.04559
163.48003
160.04523
156.72705
153.68387
150.68165
147.8209
180.08164
170.73631
167.51892
163.86
160.4272
157.01432
153.97853
150.90481
148.06173
181.4938
171.80203
168.25972
164.55876
161.06424
157.6346
154.55513
151.48009
148.61866
182.23049
172.07873
168.47863
164.72625
161.24067
157.7553
154.67953
151.57047
148.71434
184.67504
173.70985
169.44118
165.58085
162.05029
158.51166
155.39128
152.25182
149.38029
143.4445
140.62664
137.78015
134.91276
132.0041
129.05591
126.04673
122.97
119.81903
143.7594
140.94868
138.07429
135.21992
132.28778
129.35213
126.31998
123.2568
120.08334
144.16033
141.34674
138.47982
135.62551
132.7032
129.77178
126.75557
123.70489
120.55014
144.45558
141.66431
138.76222
135.93118
132.98528
130.072
127.04222
124.00357
120.84691
144.92716
142.11398
139.22413
136.38457
133.4426
130.5383
127.50168
124.49284
121.31317
145.12154
142.33162
139.4145
136.59229
133.64033
130.74197
127.71267
124.69441
121.55106
145.67818
142.88486
139.96413
137.15484
134.19015
131.31884
128.26686
125.29995
122.0962
145.75575
142.96749
140.0424
137.23117
134.27426
131.39271
128.36146
125.36979
122.22647
146.40529
143.61832
140.68333
137.8865
134.9197
132.06229
129.01974
126.06908
122.88072
116.20648
112.0557
107.85916
103.49017
99.128293
94.950275
90.961502
85.241919
78.017546
116.5302
112.45685
108.37377
104.10802
99.864278
95.832755
92.27361
87.301897
80.929808
117.03955
113.04574
109.08528
104.89287
100.83497
96.797024
93.531295
88.605674
83.415727
117.41357
113.53893
109.65454
105.57888
101.57065
97.65785
94.68288
91.654569
85.874174
117.93966
114.10316
110.39253
106.35113
102.50781
98.483256
95.849907
91.636281
93.620996
118.22995
114.5701
110.84759
106.99306
103.03662
99.157175
95.834352
95.619048
94.61945
118.872
115.24134
111.78244
107.94664
104.24162
100.22086
97.150007
91.782973
114.88039
119.01014
115.54018
111.99487
108.37304
104.53068
100.62324
96.137202
94.126453
104.63242
119.79037
116.43969
113.17263
109.66546
106.19089
102.40725
99.978388
83.191152
141.72151
60.310227
47.846726
50.548756
47.332723
45.745258
49.583379
50.916461
51.251095
50.539902
61.557406
47.288674
50.729774
47.972085
48.520012
50.059448
51.133987
51.362601
50.66638
61.958748
46.571678
51.092733
47.897753
47.806337
50.15437
51.250661
51.43461
50.786721
60.422176
45.404989
51.859535
47.884984
49.279565
50.422125
51.343769
51.570775
50.891345
56.119781
44.064465
51.946842
48.115571
49.164403
50.674336
51.457408
51.687901
51.013642
50.913612
44.069614
53.172556
47.585203
49.757176
50.953846
51.508353
51.821683
51.120801
52.990729
55.492164
50.888129
48.25633
50.077145
51.1156
51.621399
51.930305
51.21762
52.321748
40.35877
51.855865
47.63525
50.343561
51.278105
51.652029
52.014599
51.283552
-19.721839
62.975444
49.179028
48.225687
51.038841
51.403249
51.754892
52.069024
51.311577
49.360961
48.082826
46.238521
43.838497
41.038091
36.917585
33.346478
23.339878
27.998471
49.627736
48.341344
46.408791
43.958955
40.828937
36.21444
32.369974
23.308478
29.481825
49.726018
48.332982
46.32988
43.644856
40.238148
35.17994
30.580462
23.781532
29.523136
49.830958
48.41622
46.273616
43.435727
39.716926
34.405277
29.410247
23.725142
31.640181
49.961892
48.48146
46.216216
43.235408
39.208227
33.819321
28.849519
25.777496
33.807991
50.042009
48.539668
46.151593
43.008032
38.766977
33.415602
28.906823
27.924325
36.048248
50.131013
48.545638
46.005016
42.681719
38.282023
32.94234
29.388896
30.379967
39.033377
50.165725
48.561771
45.930936
42.486277
37.974313
33.027028
29.577462
32.069069
40.186798
50.176971
48.434213
45.600612
41.884349
37.167542
32.350824
30.261735
34.88254
43.451095
30.348594
29.937083
31.119479
34.143692
37.838961
40.895636
39.529705
36.873177
33.593637
31.005765
29.544825
29.401982
33.059257
37.27199
40.895979
40.677448
38.903688
37.148406
31.640294
30.088235
29.781256
32.787358
36.645775
40.43599