/*--------------------------------*- C++ -*----------------------------------*\
  =========                 |
  \\      /  F ield         | OpenFOAM: The Open Source CFD Toolbox
   \\    /   O peration     | Website:  https://openfoam.org
    \\  /    A nd           | Version:  11
     \\/     M anipulation  |
\*---------------------------------------------------------------------------*/
FoamFile
{
    format      ascii;
    class       surfaceScalarField;
    location    "19.4";
    object      phi;
}
// * * * * * * * * * * * * * * * * * * * * * * * * * * * * * * * * * * * * * //

dimensions      [0 3 -1 0 0 0 0];

internalField   nonuniform List<scalar> 
10792
(
0.069315851
-0.0432038
-0.069833083
0.043721032
0.068776401
-0.0412593
0.04179875
0.068113584
-0.039073094
0.039735912
0.067463241
-0.036873994
0.037524336
0.066653257
-0.034598282
0.035408267
0.065837213
-0.03213898
0.032955024
0.065040941
-0.02990498
0.030701251
0.064229645
-0.027401291
0.028212587
0.063415934
-0.025050047
0.025863757
0.062670278
-0.022495902
0.023241558
0.061877473
-0.020093199
0.020886004
0.061240013
-0.017401555
0.018039015
0.060562596
-0.015080522
0.01575794
0.060019432
-0.012272561
0.012815724
0.059528787
-0.0099485643
0.01043921
0.05906018
-0.0071148321
0.007583439
0.058775134
-0.0047645267
0.0050495725
0.058546141
-0.0021120833
0.0023410767
0.00040228871
0.058623912
-0.00048005914
0.073240002
-0.04273285
-0.073710952
0.072671819
-0.040691117
0.071997153
-0.038398429
0.071314145
-0.036190986
0.070508329
-0.033792466
0.069790569
-0.03142122
0.06904815
-0.029162561
0.068276038
-0.026629179
0.067496487
-0.024270496
0.066739265
-0.02173868
0.065978888
-0.019332823
0.0653297
-0.016752367
0.064626893
-0.014377715
0.064095897
-0.011741565
0.063601952
-0.0094546195
0.063199484
-0.006712364
0.062955332
-0.0045203739
0.062659755
-0.0018165062
0.00047349626
0.062588547
0.077902378
-0.04228523
-0.078349998
0.077314602
-0.040103341
0.07664215
-0.037725976
0.075968946
-0.035517783
0.075233355
-0.033056875
0.074568639
-0.030756505
0.073758929
-0.028352851
0.072964604
-0.025834855
0.072148032
-0.023453923
0.071341261
-0.020931909
0.070582048
-0.01857361
0.069873924
-0.016044243
0.069209245
-0.013713035
0.068657155
-0.011189475
0.068124113
-0.008921578
0.067738929
-0.0063271797
0.067384378
-0.0041658218
0.067133762
-0.0015658907
0.00061093559
0.066996323
0.082390325
-0.041939965
-0.082735591
0.081707365
-0.039420381
0.081079907
-0.037098518
0.080421895
-0.034859771
0.079756487
-0.032391467
0.079020471
-0.030020488
0.078118924
-0.027451304
0.077364496
-0.025080428
0.07656147
-0.022650896
0.075831215
-0.020201654
0.075100772
-0.017843167
0.074410025
-0.015353496
0.073770359
-0.013073369
0.073203827
-0.010622942
0.07268828
-0.0084060307
0.072314481
-0.0059533806
0.071970319
-0.003821659
0.071789535
-0.0013851074
0.00075259584
0.071647875
0.087605006
-0.041409815
-0.088135155
0.086904234
-0.038719609
0.086427463
-0.036621748
0.085697854
-0.034130162
0.084960055
-0.031653668
0.084115364
-0.029175797
0.08334749
-0.026683431
0.082681656
-0.024414593
0.081895336
-0.021864576
0.081203991
-0.01951031
0.080421043
-0.017060218
0.079739239
-0.014671693
0.079053074
-0.012387205
0.078466387
-0.010036254
0.07794735
-0.0078869939
0.077560934
-0.0055669641
0.077197435
-0.0034581597
0.076970192
-0.0011578646
0.00090902745
0.076813761
0.092759611
-0.040812113
-0.093357314
0.092182214
-0.038142212
0.091532647
-0.03597218
0.090661082
-0.033258597
0.089987381
-0.030979967
0.089222193
-0.028410609
0.088561437
-0.026022675
0.08775958
-0.023612737
0.086960354
-0.021065349
0.086237004
-0.01878696
0.085460956
-0.016284171
0.084840483
-0.01405122
0.084167532
-0.011714253
0.08365214
-0.0095208616
0.083109788
-0.0073446416
0.08270965
-0.005166826
0.082342319
-0.0030908284
0.08213863
-0.00095417563
0.0010601937
0.081987464
0.098520163
-0.040119649
-0.099212627
0.097986093
-0.037608142
0.097294842
-0.035280929
0.096587214
-0.032550968
0.096009123
-0.030401876
0.095252329
-0.027653815
0.094589694
-0.02536004
0.093711504
-0.022734547
0.093023318
-0.020377163
0.092250152
-0.018013795
0.091540846
-0.015574864
0.090896925
-0.013407299
0.090214311
-0.011031639
0.089657793
-0.0089643437
0.089069857
-0.0067567054
0.08866618
-0.0047631492
0.088243365
-0.0026680129
0.088010982
-0.00072179254
0.0012275228
0.087843653
0.10479241
-0.03941594
-0.10549612
0.10420195
-0.037017678
0.10338304
-0.034462022
0.10271905
-0.031886977
0.10192968
-0.029612508
0.1010877
-0.026811839
0.10040218
-0.024674517
0.099576827
-0.021909194
0.098941054
-0.019741391
0.098133597
-0.017206337
0.097494535
-0.014935803
0.096745165
-0.012657929
0.096142078
-0.010428552
0.095582053
-0.0084043189
0.095089306
-0.0062639583
0.094704842
-0.0043786843
0.094332825
-0.002295996
0.094140008
-0.00052897637
0.0014141019
0.09395343
0.11135995
-0.038636146
-0.11213974
0.11075458
-0.036412306
0.11003204
-0.033739483
0.1093836
-0.031238535
0.10844694
-0.028675849
0.10776145
-0.026126349
0.10706183
-0.023974896
0.10637797
-0.021225341
0.10574379
-0.019107208
0.10491339
-0.016375935
0.1042625
-0.014284914
0.1034771
-0.011872533
0.10293427
-0.0098857167
0.10227586
-0.0077459128
0.10180722
-0.0057953196
0.1013195
-0.0038909562
0.10097873
-0.0019552332
0.10070734
-0.0002575854
0.0016270855
0.10049436
0.11863735
-0.037855554
-0.11941795
0.11785574
-0.035630696
0.11704907
-0.032932815
0.11646766
-0.03065712
0.11568799
-0.027896177
0.1150099
-0.02544826
0.11405508
-0.023020079
0.11339047
-0.020560732
0.11267188
-0.018388611
0.11201944
-0.015723501
0.11139121
-0.013656683
0.11066412
-0.01114544
0.11010229
-0.009323891
0.10941965
-0.0070632725
0.10901264
-0.0053883114
0.10853536
-0.0034136763
0.10828314
-0.0017030123
0.10797887
4.6685166e-05
0.0017717599
0.1078342
0.12638421
-0.037063438
-0.12717632
0.12558883
-0.034835323
0.12476106
-0.032105046
0.12392796
-0.029824013
0.1231596
-0.027127821
0.12255385
-0.024842512
0.12166212
-0.022128345
0.12093452
-0.019833134
0.12001986
-0.017473948
0.11940894
-0.015112587
0.11868014
-0.01292788
0.11804986
-0.010515162
0.11737984
-0.0086538633
0.11676442
-0.0064478585
0.11629841
-0.0049223008
0.11580053
-0.0029157971
0.11552907
-0.0014315522
0.11521022
0.00036554132
0.0018639774
0.115118
0.13508513
-0.036312413
-0.13583616
0.13409172
-0.033841904
0.13330561
-0.031318938
0.13239818
-0.028916583
0.13154114
-0.026270788
0.13070967
-0.024011037
0.12988544
-0.021304119
0.12917151
-0.019119201
0.12831359
-0.016616026
0.12771482
-0.014513821
0.12694071
-0.012153772
0.12645429
-0.010028743
0.12575628
-0.007955854
0.12529028
-0.0059818487
0.12473628
-0.0043683053
0.12435588
-0.0025353962
0.12404244
-0.0011181114
0.1237749
0.00063307384
0.002004392
0.12363449
0.14382202
-0.035241933
-0.1448925
0.14275055
-0.03277043
0.14191795
-0.030486336
0.14095553
-0.027954167
0.14022728
-0.025542531
0.13932041
-0.023104171
0.13855079
-0.020534494
0.13776291
-0.018331322
0.13695402
-0.015807137
0.13624088
-0.013800678
0.13546117
-0.011374068
0.13487861
-0.0094461781
0.13414607
-0.0072233203
0.13368947
-0.0055252494
0.1330628
-0.003741628
0.13274381
-0.0022164083
0.13232187
-0.0006961747
0.13215703
0.00079791109
0.0022384738
0.13192295
0.15405299
-0.034048759
-0.15524617
0.15289555
-0.03161299
0.15186675
-0.02945753
0.15081212
-0.026899544
0.14992548
-0.024655889
0.14890971
-0.022088396
0.14820161
-0.019826398
0.14728987
-0.017419576
0.14658755
-0.01510482
0.14580962
-0.013022746
0.14517998
-0.01074443
0.14454352
-0.0088097214
0.14391802
-0.0065978178
0.14338569
-0.0049929216
0.14278598
-0.0031419192
0.14246917
-0.0018995996
0.14207665
-0.00030365288
0.14196123
0.00091333013
0.0024864529
0.14171325
0.16408575
-0.032676704
-0.1654578
0.16291002
-0.030437265
0.16168865
-0.028236159
0.16064518
-0.025856076
0.15967466
-0.023685367
0.15876597
-0.021179709
0.15799399
-0.01905441
0.15702655
-0.016452145
0.15630529
-0.014383556
0.15541395
-0.012131404
0.15480471
-0.010135195
0.15410271
-0.0081077195
0.15366645
-0.0061615599
0.15309052
-0.0044169872
0.1526419
-0.0026932956
0.15220012
-0.0014578257
0.1518624
3.4070194e-05
0.15171905
0.001056678
0.0025490392
0.15165646
0.17626358
-0.031137004
-0.17780328
0.1748989
-0.02907259
0.173582
-0.026919262
0.17243582
-0.024709891
0.17126355
-0.022513093
0.17032365
-0.020239816
0.16935558
-0.018086332
0.16852569
-0.015622264
0.16773769
-0.01359555
0.16689179
-0.011285501
0.16621656
-0.0094599716
0.16550823
-0.0073993843
0.16505222
-0.0057055481
0.16440361
-0.0037683822
0.16400377
-0.0022934515
0.16338412
-0.00083818024
0.16307101
0.00034717821
0.16266741
0.0014602831
0.0026357139
0.16258073
0.1882749
-0.02943868
-0.18997323
0.18668277
-0.027480455
0.18522416
-0.025460653
0.18389963
-0.023385365
0.18261719
-0.021230644
0.18154978
-0.019172415
0.18050521
-0.017041757
0.17970429
-0.014821342
0.1788587
-0.012749958
0.17809053
-0.010517334
0.17731936
-0.0086887998
0.17665581
-0.006735839
0.17612731
-0.0051770424
0.17571117
-0.0033522452
0.17546622
-0.0020485006
0.17510466
-0.00047662635
0.17492832
0.00052352583
0.17462153
0.0017670683
0.0026565199
0.17460072
0.20236295
-0.027538263
-0.20426336
0.20059354
-0.025711051
0.19902249
-0.023889603
0.1975431
-0.021905975
0.19624243
-0.019929966
0.19502839
-0.01795838
0.19391629
-0.015929658
0.1929921
-0.013897146
0.1920885
-0.011846361
0.19131831
-0.0097471441
0.19047847
-0.0078489564
0.1897389
-0.0059962748
0.18898748
-0.0044256232
0.18843532
-0.0028000833
0.18792641
-0.0015395877
0.18758909
-0.00013931092
0.18732346
0.00078916223
0.18713112
0.0019594007
0.002748225
0.18703942
0.21658575
-0.02539511
-0.21872891
0.21461479
-0.023740086
0.21277506
-0.022049876
0.2110877
-0.020218616
0.20962317
-0.018465434
0.20823424
-0.016569445
0.20700366
-0.014699077
0.20592115
-0.012814643
0.20501363
-0.010938844
0.20428667
-0.0090201827
0.20363066
-0.0071929406
0.20306897
-0.0054345827
0.20247403
-0.0038306859
0.20203359
-0.0023596433
0.20157965
-0.001085644
0.20130454
0.00013579714
0.20104377
0.0010499256
0.20094529
0.0020578796
0.0028381908
0.20085533
0.2329381
-0.022992907
-0.2353403
0.23073734
-0.021539324
0.22869344
-0.020005976
0.22686027
-0.018385451
0.22519429
-0.016799454
0.22369733
-0.015072479
0.22235412
-0.013355869
0.22110884
-0.011569364
0.21999407
-0.0098240744
0.21906287
-0.0080889779
0.21831676
-0.0064468381
0.21771431
-0.0048321272
0.21718665
-0.0033030274
0.21674782
-0.0019208159
0.21637184
-0.00070966454
0.21608477
0.00042286779
0.21583902
0.0012956738
0.21573169
0.0021652154
0.0029177886
0.21565209
0.24959959
-0.020441137
-0.25215136
0.2472155
-0.019155228
0.24492985
-0.017720333
0.24292929
-0.016384884
0.24106027
-0.014930432
0.23948572
-0.013497936
0.23808463
-0.011954774
0.23684623
-0.010330967
0.23574667
-0.0087245136
0.23477569
-0.0071179978
0.23392391
-0.0055950542
0.23327423
-0.0041824524
0.23278527
-0.0028140629
0.23240242
-0.0015379714
0.23215228
-0.00045952111
0.23195344
0.00062170252
0.23184611
0.0014030099
0.23181184
0.0021994825
0.0028571956
0.23187244
0.26839498
-0.017689538
-0.27114658
0.26579315
-0.016553398
0.26337881
-0.015305994
0.26105152
-0.014057596
0.2589218
-0.012800711
0.25704619
-0.01162232
0.25539126
-0.010299844
0.25403988
-0.0089795918
0.25288421
-0.0075688442
0.25194549
-0.0061792776
0.25110123
-0.0047507906
0.25041473
-0.0034959536
0.2498369
-0.0022362301
0.24943998
-0.0011410595
0.24910127
-0.00012080494
0.2489434
0.00077957283
0.2489008
0.0014456061
0.24895832
0.0021419665
0.0026675538
0.24914796
0.28790857
-0.014816974
-0.29078114
0.28517621
-0.01382103
0.28272264
-0.012852427
0.28038173
-0.01171669
0.27821944
-0.01063842
0.27617341
-0.0095762866
0.27433291
-0.0084593474
0.27276054
-0.0074072204
0.27141989
-0.0062281963
0.27033698
-0.0050963598
0.26945864
-0.0038724544
0.26874277
-0.0027800819
0.26818592
-0.0016793785
0.26780503
-0.00076017095
0.26766196
2.2266074e-05
0.26756613
0.00087540426
0.26758054
0.0014311952
0.26770355
0.0020189537
0.002478999
0.26789211
0.3092758
-0.01156642
-0.31252635
0.30621046
-0.010755699
0.30330941
-0.009951376
0.30070556
-0.0091128316
0.29834451
-0.0082773772
0.29620218
-0.0074339567
0.29430051
-0.0065576752
0.29260128
-0.0057079872
0.29116476
-0.0047916761
0.2899955
-0.0039271057
0.2891199
-0.0029968469
0.28848472
-0.0021449098
0.28805885
-0.0012535083
0.28777588
-0.00047719538
0.28761571
0.00018243649
0.28767159
0.0008195252
0.28787338
0.001229403
0.28817997
0.0017123588
0.0020201863
0.28863879
0.33229735
-0.0081807298
-0.33568304
0.32909083
-0.0075491836
0.32606368
-0.006924227
0.32326236
-0.0063115108
0.32068861
-0.0057036269
0.31835923
-0.0051045706
0.31629812
-0.004496571
0.31446548
-0.0038753434
0.31290815
-0.0032343459
0.31161747
-0.0026364277
0.31059196
-0.0019713314
0.3098565
-0.0014094536
0.30936494
-0.00076195053
0.30916601
-0.0002782599
0.30917232
0.00017612345
0.30932708
0.00066476053
0.30964427
0.00091221533
0.30998593
0.0013706975
0.0015133975
0.31049272
0.35683912
-0.004320936
-0.36069891
0.35329425
-0.0040043203
0.35001805
-0.0036480194
0.34700799
-0.0033014542
0.34425703
-0.0029526636
0.34178646
-0.002634003
0.3395957
-0.0023058162
0.33767309
-0.0019527335
0.33606315
-0.0016244029
0.3347116
-0.0012848764
0.33370588
-0.00096561482
0.3329746
-0.00067817453
0.33258634
-0.00037368391
0.33244888
-0.00014080077
0.33252953
9.5473703e-05
0.33294273
0.0002515541
0.33349893
0.00035602095
0.33415483
0.00071479802
0.00066610127
0.33500213
0.38435687
-0.38867781
0.38035255
0.37670453
0.37340308
0.37045041
0.36781641
0.36551059
0.36355786
0.36193346
0.36064858
0.35968297
0.35900479
0.35863111
0.35849031
0.35858578
0.35883733
0.35919336
0.35990815
0.36057426
0.05850397
0.0030042183
-0.0028842759
0.058769287
0.0055873569
-0.0058526741
0.059232443
0.0077466395
-0.0082097945
0.05989107
0.010604666
-0.011263293
0.060826749
0.012572056
-0.013507735
0.061803688
0.01535819
-0.016335128
0.063247154
0.017413004
-0.01885647
0.06453313
0.019929697
-0.021215672
0.066318403
0.022259845
-0.024045117
0.068011072
0.024250758
-0.025943427
0.069872173
0.026813423
-0.028674523
0.072048425
0.028347921
-0.030524173
0.073934168
0.030701532
-0.032587274
0.076414418
0.032297983
-0.034778234
0.078591811
0.034144184
-0.036321576
0.081068789
0.035889478
-0.038366457
0.083591669
0.03706241
-0.03958529
0.085918276
0.038504845
-0.040831451
0.039290968
0.088602604
-0.041975296
0.062520151
0.0030726151
0.062842983
0.0052645244
0.063280122
0.0073095008
0.064123697
0.0097610915
0.065061287
0.011634467
0.066214415
0.014205062
0.067666693
0.015960726
0.069054934
0.018541456
0.070939531
0.020375247
0.072501364
0.022688927
0.074499171
0.024815616
0.076239275
0.026607817
0.078071975
0.028868832
0.079998446
0.030371513
0.081592229
0.032550401
0.083393749
0.034087959
0.084737641
0.035718518
0.086134937
0.037107549
0.03810434
0.087321566
0.066924001
0.003144937
0.067239514
0.0049490115
0.067639671
0.0069093449
0.068478342
0.0089224204
0.069330088
0.010782721
0.070566728
0.012968422
0.071817914
0.014709541
0.073295572
0.017063798
0.074852166
0.018818654
0.076415147
0.021125946
0.078157016
0.023073748
0.079613701
0.025151132
0.081269485
0.027213049
0.082573667
0.029067331
0.083880379
0.03124369
0.084782616
0.033185723
0.08533002
0.035171113
0.085498742
0.036938828
0.03842807
0.085175012
0.0716416
0.0031512128
0.071925867
0.0046647447
0.072401922
0.0064332903
0.07320232
0.0081220221
0.074109317
0.0098757251
0.075320215
0.011757524
0.076523602
0.013506154
0.077989873
0.015597527
0.079294874
0.017513654
0.080823577
0.019597243
0.082086465
0.02181086
0.083398079
0.023839518
0.084416916
0.026194212
0.08517263
0.028311617
0.0856877
0.03072862
0.085632589
0.033240835
0.085179346
0.035624356
0.083982682
0.038135493
0.040316933
0.082093818
0.076729714
0.0032352596
0.076913098
0.0044813612
0.077303583
0.0060428053
0.07797317
0.007452436
0.078852485
0.0089964099
0.07993816
0.01067185
0.081089912
0.012354402
0.082354964
0.014332475
0.083560154
0.016308464
0.08472502
0.018432378
0.085727418
0.020808462
0.086637614
0.022929323
0.087076493
0.025755334
0.087358325
0.028029786
0.086875563
0.031211382
0.086200073
0.033916325
0.084483062
0.037341367
0.082264652
0.040353904
0.043777162
0.078804423
0.08202558
0.0031971433
0.082272009
0.0042349322
0.082795289
0.0055195257
0.083552519
0.0066952062
0.084439445
0.008109485
0.085458807
0.0096524878
0.086419118
0.011394091
0.087493739
0.013257854
0.088394413
0.01540779
0.089191774
0.017635018
0.08977826
0.020221977
0.090010031
0.022697553
0.089909254
0.025856111
0.089286998
0.028652042
0.088001765
0.032496615
0.086443488
0.035474603
0.083718621
0.040066233
0.080760188
0.043312338
0.048138281
0.076399069
0.087776995
0.0032638009
0.087897566
0.0041143619
0.088336156
0.0050809363
0.088914647
0.006116715
0.089709245
0.0073148877
0.09055843
0.0088033029
0.09149656
0.010455962
0.092396355
0.012358058
0.093103639
0.014700507
0.093652181
0.017086476
0.093781968
0.02009219
0.09360385
0.022875672
0.09282717
0.026632792
0.09151051
0.029968702
0.089632243
0.034374883
0.087105046
0.0380018
0.084063294
0.043107986
0.080451826
0.046923805
0.052803545
0.075786562
0.093929555
0.0032876753
0.094085348
0.0039585693
0.094535006
0.0046312787
0.095172739
0.0054789827
0.095955603
0.0065320242
0.09668152
0.0080773859
0.097452395
0.0096850865
0.097883229
0.011927225
0.098312701
0.014271035
0.09826479
0.017134388
0.098044913
0.020312067
0.097179064
0.023741521
0.095928661
0.027883195
0.094139282
0.031758082
0.091771293
0.036742873
0.088814028
0.040959065
0.085453034
0.04646898
0.081234361
0.051142479
0.0575467
0.076491206
0.10041519
0.0033668452
0.10051022
0.0038635351
0.10089185
0.0042496559
0.10138132
0.0049895118
0.10201137
0.0059019696
0.10266601
0.0074227529
0.10329047
0.0090606261
0.10365284
0.011564849
0.10389525
0.014028628
0.10349069
0.017538946
0.10299155
0.020811208
0.10157147
0.025161603
0.10015611
0.029298563
0.097695529
0.034218659
0.095254322
0.039184079
0.091871558
0.04434183
0.088341867
0.04999867
0.08410564
0.055378706
0.061943209
0.079709131
0.10766412
0.0035369277
0.10775226
0.0037753954
0.10812994
0.0038719686
0.10854742
0.004572035
0.10902224
0.0054271509
0.10944763
0.006997364
0.10970866
0.0087995955
0.10972043
0.011553078
0.10944969
0.014299367
0.10877097
0.018217672
0.10784489
0.021737289
0.10622968
0.026776809
0.10451351
0.031014737
0.10190725
0.036824922
0.099622482
0.041468846
0.096169245
0.047795067
0.093506357
0.052661558
0.089944628
0.058940436
0.064585114
0.087302722
0.11485594
0.0037989807
0.1150263
0.0036050371
0.11527341
0.0036248597
0.11560584
0.0042396118
0.11602102
0.005011964
0.11644929
0.0065690958
0.11660029
0.0086486026
0.11647402
0.011679341
0.1160051
0.01476829
0.11521543
0.019007342
0.11390849
0.023044228
0.11226291
0.028422388
0.11032994
0.03294771
0.10818515
0.038969716
0.10616038
0.043493615
0.10384618
0.050109273
0.10272922
0.053778512
0.10145437
0.060215292
0.062967868
0.10307161
0.12337755
0.0040559193
0.12356734
0.0034152469
0.12360279
0.0035894091
0.12382418
0.0040182285
0.1239463
0.0048898399
0.12405268
0.0064627143
0.12391456
0.0087867247
0.12367624
0.011917669
0.12296173
0.015482799
0.12198487
0.019984197
0.12054854
0.024480565
0.1192174
0.029753524
0.11762663
0.034538484
0.11647903
0.040117311
0.11546459
0.044508064
0.1155907
0.049983162
0.1170536
0.052315607
0.12041544
0.056853456
0.055632208
0.1277511
0.13179889
0.0041799781
0.13189429
0.0033198512
0.13201872
0.0034649809
0.13237684
0.0036601071
0.13251592
0.0047507633
0.13252789
0.0064507481
0.13226878
0.0090458291
0.13189529
0.012291161
0.13097634
0.016401751
0.1300514
0.020909137
0.1288346
0.025697367
0.12812239
0.030465733
0.12741391
0.035246962
0.1277463
0.039784924
0.12876595
0.043488415
0.13215211
0.046597008
0.13703352
0.047434193
0.14518691
0.048700068
0.044808339
0.15601078
0.141582
0.0043112325
0.14124119
0.0036606628
0.14127149
0.003434679
0.14143458
0.0034970189
0.14145784
0.0047274998
0.14144887
0.0064597248
0.14120888
0.0092858148
0.14069933
0.012800717
0.13989059
0.017210491
0.1393675
0.021432226
0.13884765
0.026217225
0.13912157
0.030191813
0.13977154
0.034596991
0.14204585
0.03751062
0.14565324
0.039881025
0.15193871
0.040311531
0.15949422
0.03987869
0.17001309
0.038181197
0.033669575
0.18115185
0.15173795
0.004229747
0.1515184
0.0038802123
0.15165653
0.0032965544
0.15164978
0.0035037631
0.1516318
0.0047454817
0.15152948
0.0065620501
0.15115774
0.0096575508
0.15060033
0.013358133
0.15019486
0.017615963
0.15021629
0.021410795
0.15065073
0.025782782
0.1520412
0.02880135
0.15438959
0.032248597
0.15872041
0.033179802
0.1644701
0.034131333
0.17255626
0.03222537
0.18117229
0.031262668
0.19148887
0.02786461
0.024469932
0.20068852
0.16237081
0.0044396704
0.16229867
0.0039523524
0.16245676
0.0031384697
0.16234791
0.0036126099
0.16242378
0.0046696132
0.16225539
0.0067304438
0.16200016
0.0099127775
0.16186743
0.013490861
0.1621894
0.017294003
0.1629802
0.02061999
0.16454207
0.024220913
0.16712933
0.026214094
0.17117526
0.028202669
0.17703214
0.027322927
0.18397839
0.027185076
0.1924111
0.023792661
0.20041798
0.023255796
0.20875789
0.019524701
0.018819544
0.21440827
0.17420174
0.0048386509
0.17444051
0.0037135874
0.17433436
0.0032446187
0.17428567
0.0036613015
0.17437648
0.0045788064
0.1741039
0.0070030242
0.1740697
0.0099469814
0.17438785
0.013172713
0.17531726
0.016364592
0.17682252
0.019114732
0.17943994
0.021603495
0.18315539
0.02249864
0.18853738
0.022820684
0.195024
0.02083631
0.20202219
0.020186885
0.20915115
0.016663698
0.21502875
0.017378198
0.22015055
0.014402899
0.017095174
0.22187492
0.18684023
0.0050378362
0.18708267
0.0034711479
0.18685639
0.003470901
0.18717393
0.0033437628
0.18720816
0.0045445807
0.18725524
0.0069559461
0.18771743
0.0094847866
0.18864289
0.01224726
0.19029514
0.014712345
0.1926124
0.016797473
0.19647299
0.017742909
0.20102273
0.017948898
0.20699528
0.016848135
0.21283111
0.015000476
0.21849996
0.014518037
0.22293105
0.012232608
0.22589394
0.014415306
0.2271374
0.013159447
0.019086086
0.22514648
0.20091973
0.0049734336
0.20090416
0.0034867194
0.2009634
0.0034116628
0.20121568
0.0030914843
0.20107906
0.0046812026
0.20150836
0.0065266402
0.20230817
0.0086849772
0.20370758
0.010847854
0.2057659
0.012654022
0.20867941
0.013883968
0.21301787
0.013404455
0.21755258
0.013414188
0.22307826
0.011322452
0.22710631
0.010972432
0.23091372
0.010710622
0.23243767
0.010708661
0.23276333
0.014089641
0.23024343
0.015679352
0.024271318
0.2250582
0.21580427
0.004821259
0.21575623
0.0035347555
0.2161326
0.0030352952
0.21633287
0.0028912148
0.21672044
0.0042936373
0.21767438
0.0055727009
0.21889317
0.0074661824
0.22078195
0.0089590722
0.2232586
0.010177376
0.22703061
0.010111957
0.23101753
0.0094175377
0.23534632
0.0090853989
0.23915274
0.0075160371
0.24118474
0.0089404268
0.24285079
0.0090445757
0.24117506
0.012384393
0.23862993
0.016634765
0.23255855
0.02175073
0.031483265
0.22534661
0.23200925
0.0046844467
0.23206575
0.0034782519
0.23232125
0.0027798015
0.23230364
0.0029088183
0.23307591
0.0035213703
0.23391985
0.0047287639
0.23538707
0.0059989547
0.2376272
0.0067189473
0.24043826
0.0073663152
0.24406743
0.0064827901
0.24690454
0.0065804271
0.25034451
0.0056454313
0.25179261
0.0060679369
0.25254109
0.0081919414
0.25126475
0.010320922
0.24726403
0.016385115
0.24297257
0.020926225
0.23637263
0.028350664
0.035867361
0.23198854
0.24953296
0.0042994463
0.24998027
0.0030309428
0.25033394
0.0024261349
0.25095048
0.0022922782
0.25185001
0.0026218391
0.25291208
0.0036666902
0.254899
0.0040120404
0.2571265
0.0044914412
0.25995775
0.0045350702
0.26255375
0.0038867876
0.26486921
0.0042649702
0.2666109
0.0039037431
0.26630347
0.0063753642
0.26526214
0.009233272
0.26140923
0.014173831
0.25790226
0.019892087
0.25446637
0.02436211
0.25198575
0.030831288
0.033182121
0.25467099
0.26832375
0.0038678002
0.26855923
0.0027954656
0.26892688
0.0020584866
0.26974425
0.0014749089
0.27049676
0.0018693252
0.27181925
0.0023441972
0.27342518
0.0024061161
0.27526646
0.002650157
0.27751061
0.0022909201
0.27898053
0.0024168693
0.28037805
0.0028674507
0.28029674
0.0039850552
0.2791411
0.0075309996
0.27715391
0.01122046
0.27488231
0.016445432
0.27471533
0.020059072
0.27501841
0.024059024
0.27977833
0.026071369
0.024470113
0.28849034
0.28934367
0.0031629143
0.2899297
0.0022094373
0.29067175
0.0013164359
0.29143418
0.00071247806
0.29247506
0.00082845119
0.29379839
0.0010208584
0.29501086
0.001193649
0.29661898
0.0010420317
0.29800607
0.00090382928
0.29908084
0.0013421066
0.2994159
0.0025323823
0.29825009
0.0051508677
0.29695276
0.0088283327
0.29581454
0.012358676
0.29654876
0.015711214
0.29896069
0.01764714
0.30410833
0.018911389
0.31333449
0.016845208
0.015643657
0.32216095
0.31120912
0.0024465131
0.31165441
0.0017641499
0.31228757
0.0006832738
0.31300864
-8.5891716e-06
0.31364567
0.0001914206
0.31430938
0.00035715266
0.31509036
0.00041266574
0.31576248
0.0003699049
0.31618829
0.00047801847
0.31648493
0.0010454676
0.3163896
0.0026277123
0.31641816
0.0051223081
0.31760149
0.0076450039
0.32017306
0.0097871081
0.32470708
0.011177196
0.33067763
0.011676588
0.33847705
0.011111965
0.34539103
0.0099312282
0.011292645
0.34974204
0.33615438
0.0012942583
0.3372937
0.00062483431
0.33813068
-0.0001537146
0.33872296
-0.00060086392
0.33924671
-0.00033232875
0.33960353
3.2442628e-07
0.3398445
0.00017170105
0.3400609
0.00015349806
0.34035297
0.00018594608
0.34061672
0.00078171705
0.34112737
0.002117061
0.34269228
0.0035573986
0.34507938
0.0052579073
0.3489854
0.0058810915
0.35357112
0.0065914766
0.35907075
0.0061769592
0.36417409
0.0060086189
0.36838567
0.0057196461
0.0060947894
0.37358353
0.36186851
0.36249335
0.36233963
0.36173877
0.36140644
0.36140676
0.36157846
0.36173196
0.36191791
0.36269962
0.36481668
0.36837408
0.37363199
0.37951308
0.38610456
0.39228152
0.39829014
0.40400978
0.41010457
0.085233003
0.045855609
-0.042486008
0.082254806
0.045844562
-0.042866364
0.078858423
0.045951525
-0.042555143
0.076282227
0.044878018
-0.042301822
0.072842704
0.043990502
-0.040550979
0.070252248
0.042702377
-0.040111922
0.067584696
0.039758813
-0.037091261
0.064384715
0.037592665
-0.034392684
0.063035484
0.03241628
-0.031067049
0.060196888
0.028340666
-0.02550207
0.057826756
0.022966363
-0.020596231
0.060266253
0.012306203
-0.014745699
0.062536958
0.0015203206
-0.0037910253
0.059999672
-0.0038446138
0.0063818998
0.053001979
-0.0054939109
0.012491604
0.041070321
-0.0031339297
0.015065588
0.024207288
0.0019008292
0.014962203
0.0036300465
0.010640227
0.0099370152
0.021227129
-0.017154725
-0.00044235835
0.083317486
0.049859689
0.078990411
0.050171637
0.074797248
0.050144688
0.070605755
0.049069512
0.066057718
0.048538539
0.06257608
0.046184015
0.057336014
0.04499888
0.053602249
0.041326429
0.048811535
0.037206995
0.044648951
0.03250325
0.045930506
0.021684808
0.046154886
0.012081823
0.037357858
0.010317348
0.022389237
0.011124007
0.0051292637
0.011766063
-0.013416556
0.01541189
-0.032153453
0.020637726
-0.050898012
0.029384786
0.039814528
-0.069485411
0.080354594
0.054680107
0.074992513
0.055533718
0.069699336
0.055437866
0.063642208
0.055126639
0.058031987
0.054148761
0.051499915
0.052716087
0.045371182
0.051127613
0.0393095
0.047388111
0.031100254
0.045416241
0.027532798
0.036070706
0.023406378
0.025811228
0.013049542
0.022438659
-0.001699996
0.025066886
-0.018530527
0.027954538
-0.036400582
0.029636118
-0.055234002
0.034245309
-0.074360407
0.039764132
-0.092236186
0.047260565
0.055202862
-0.10762452
0.07602445
0.060749476
0.069771098
0.06178707
0.062987433
0.062221531
0.055828895
0.062285176
0.048492761
0.061484895
0.039941114
0.061267734
0.031827132
0.059241595
0.02117865
0.058036593
0.012554017
0.054040875
0.0060643399
0.042560383
-0.007108176
0.038983744
-0.022709948
0.038040431
-0.038336295
0.040693233
-0.054579001
0.044197244
-0.071903078
0.046960195
-0.08869801
0.051040241
-0.10455941
0.05562553
-0.11866872
0.061369879
0.066562344
-0.1300282
0.071594271
0.067959628
0.064456856
0.068924486
0.056651141
0.070027246
0.048500037
0.07043628
0.039486709
0.070498223
0.029755019
0.070999424
0.018817107
0.070179508
0.0069770515
0.069876648
2.7998534e-05
0.060989928
-0.010816766
0.053405148
-0.028784195
0.056951173
-0.047798758
0.057054994
-0.065576095
0.05847057
-0.081959485
0.060580634
-0.097727224
0.062727934
-0.11232244
0.065635458
-0.12539303
0.068696122
-0.13571844
0.07169529
0.074382812
-0.14353891
0.068579937
0.075778761
0.060575481
0.076928941
0.052193021
0.078409708
0.043559827
0.079069474
0.03402542
0.080032631
0.024298315
0.080726528
0.01309693
0.081380894
0.00308047
0.079893108
-0.0044453563
0.068515755
-0.019379383
0.068339174
-0.037810177
0.075381967
-0.057480639
0.076725456
-0.077597999
0.078587929
-0.095967897
0.078950532
-0.11208925
0.078849288
-0.12560252
0.079148728
-0.13667865
0.079772252
-0.14511928
0.08013592
0.080451949
-0.15118842
0.067309913
0.084255411
0.058619442
0.085619411
0.049735338
0.087293813
0.040766081
0.08803873
0.031693324
0.089105389
0.023320775
0.089099077
0.013866054
0.090835615
0.0045913672
0.089167795
-0.0089182928
0.082025416
-0.030520085
0.089940966
-0.050635662
0.095497545
-0.070664352
0.096754146
-0.090232215
0.098155792
-0.10797561
0.096693924
-0.1236561
0.094529782
-0.13642594
0.091918569
-0.14564091
0.088987221
-0.15160511
0.086100116
0.083738883
-0.15489204
0.067200485
0.093546133
0.057586192
0.095233704
0.047772043
0.097107963
0.03763834
0.098172432
0.027637155
0.099106574
0.018804007
0.097932225
0.0099629449
0.099676678
-0.0031010195
0.10223176
-0.027371367
0.10629576
-0.054199927
0.11676953
-0.078879802
0.12017742
-0.10207665
0.11995099
-0.1219632
0.11804234
-0.13815863
0.11288935
-0.15075798
0.10712913
-0.15906272
0.10022331
-0.16435828
0.094282786
-0.16707421
0.088816045
0.084005647
-0.16734097
0.069360826
0.10389444
0.05786205
0.10673248
0.045715864
0.10925415
0.032377726
0.11151057
0.017898699
0.1135856
0.0025546722
0.11327625
-0.011570208
0.11380156
-0.031992671
0.12265422
-0.06145561
0.1357587
-0.087935036
0.14324895
-0.11393193
0.14617432
-0.13790067
0.14391973
-0.15828163
0.13842331
-0.17488481
0.12949253
-0.18694803
0.11919235
-0.19396886
0.10724414
-0.19676151
0.097075434
-0.19653718
0.088591716
0.080870927