/*--------------------------------*- C++ -*----------------------------------*\
  =========                 |
  \\      /  F ield         | OpenFOAM: The Open Source CFD Toolbox
   \\    /   O peration     | Website:  https://openfoam.org
    \\  /    A nd           | Version:  11
     \\/     M anipulation  |
\*---------------------------------------------------------------------------*/
FoamFile
{
    format      ascii;
    class       volScalarField;
    location    "5.55";
    object      p;
}
// * * * * * * * * * * * * * * * * * * * * * * * * * * * * * * * * * * * * * //

dimensions      [0 2 -2 0 0 0 0];

internalField   nonuniform List<scalar> 
4455
(
7155.4446
7169.0341
7192.3248
7226.2335
7268.5563
7328.6042
7400.4426
7506.9809
7584.2476
7082.1909
7103.6728
7135.3701
7175.8533
7224.9902
7290.7712
7375.8566
7494.5353
7620.7201
7005.3215
7035.4726
7075.5932
7123.0185
7177.1925
7249.0669
7343.7648
7475.7874
7626.6766
6925.8676
6965.5729
7013.7608
7067.0169
7125.6093
7204.2592
7307.0543
7453.7605
7628.8829
6845.7868
6894.7681
6950.2513
7008.5751
7071.4335
7155.5227
7267.4995
7429.4167
7637.5743
6766.3697
6824.0517
6885.8255
6948.1804
7014.9405
7104.1881
7224.9907
7402.216
7644.0752
6689.152
6754.0875
6820.8965
6886.3163
6956.3941
7050.5893
7180.0224
7371.6518
7647.0988
6615.25
6685.5695
6756.2262
6824.2493
6897.1578
6995.3701
7131.6329
7336.5043
7644.5384
6545.7031
6619.4062
6692.6544
6762.6633
6837.557
6939.1178
7081.2482
7297.4861
7633.8041
6481.1811
6422.179
6369.3995
6323.0066
6283.3192
6250.2753
6223.9728
6204.5216
6192.2621
6555.9457
6495.4364
6439.0244
6387.1265
6339.9607
6297.6677
6260.8953
6230.0789
6205.2468
6629.7457
6567.8287
6508.7088
6452.7164
6399.9595
6350.7336
6304.6148
6261.3043
6220.0606
6699.9933
6636.3749
6574.241
6514.1835
6456.3868
6400.8907
6347.8876
6297.616
6249.7935
6775.4724
6710.3942
6645.8764
6582.3887
6519.9598
6458.6873
6398.5925
6340.1499
6282.1803
6879.0822
6813.7712
6747.4994
6680.9759
6614.3208
6548.0927
6482.8267
6419.6639
6357.1632
7025.7358
6960.6363
6892.1734
6820.7862
6745.761
6668.2949
6589.2111
6510.3213
6431.1269
7250.2223
7183.3621
7106.0487
7022.1467
6934.4483
6845.7061
6756.2933
6666.6052
6576.0864
7610.2658
7522.3903
7389.2703
7238.0634
7082.3157
6922.8961
6760.1786
6597.7026
6439.4968
6189.653
6186.002
6178.7588
6167.775
6154.1152
6137.7488
6118.011
6095.7722
6069.4457
6191.9086
6177.4419
6158.4736
6136.5576
6111.1195
6082.8982
6052.4442
6018.4362
5981.2881
6191.3529
6168.5957
6144.9008
6119.787
6091.7337
6060.7511
6027.8085
5991.8796
5952.4982
6215.2702
6187.4379
6158.532
6127.8415
6094.7384
6058.9866
6020.4081
5978.9538
5934.4168
6236.601
6202.1967
6169.1957
6135.3724
6099.3625
6060.5271
6018.5114
5973.0899
5924.3605
6305.3929
6264.4937
6224.4323
6182.9586
6138.9396
6091.6784
6041.5172
5988.3408
5932.5097
6365.1317
6313.8121
6265.3497
6215.8003
6163.4902
6107.9766
6049.0787
5987.0017
5923.1027
6491.1959
6408.6491
6321.5042
6233.8479
6148.1655
6062.6047
5977.1409
5893.5987
5812.7836
6307.6103
6196.61
6087.9414
5979.0133
5868.69
5757.6494
5651.1756
5551.5712
5460.8603
5395.1807
5333.999
5294.3366
5285.2976
5309.4947
5356.9902
5418.0139
5488.1835
5560.021
5742.2656
5677.2772
5615.9636
5563.1135
5520.2828
5485.9606
5460.3295
5443.0901
5432.6013
5861.2495
5801.3275
5741.7801
5683.4393
5627.5205
5574.8759
5526.4192
5480.9786
5439.3168
5876.5861
5820.7066
5763.1441
5704.9917
5647.1118
5589.6795
5532.522
5475.3845
5418.471
5873.8446
5822.0046
5767.7779
5711.6998
5654.0106
5595.077
5534.779
5473.1377
5409.9691
5887.7145
5838.9805
5787.3256
5732.8949
5675.9306
5616.5574
5554.5384
5489.8362
5422.496
5909.9687
5865.0465
5817.714
5767.7668
5715.2252
5659.7329
5601.0528
5539.1356
5473.8544
5940.8218
5896.2042
5848.6473
5798.2999
5744.3032
5686.9363
5626.763
5563.0065
5495.5588
6035.9267
5996.3966
5956.0482
5914.4146
5870.4056
5822.338
5769.4834
5711.6602
5649.601
5583.0482
5511.9779
5436.2113
5355.8374
5270.1519
5179.9075
5084.1314
4982.8201
4875.7797
5424.2118
5349.0407
5270.2478
5187.7628
5100.9104
5010.3636
4915.8993
4816.6696
4713.5575
5405.202
5333.2105
5257.9612
5179.1869
5097.0417
5011.2695
4921.6566
4827.7886
4729.7684
5352.7218
5280.4658
5205.7016
5128.3276
5048.4307
4965.7625
4880.2812
4791.5276
4699.3907
5345.2309
5278.9208
5211.3041
5142.4673
5072.4538
5000.8609
4927.5651
4851.7502
4772.7269
5361.8904
5305.2486
5248.7367
5192.5265
5136.444
5079.9005
5022.7972
4964.3745
4904.0002
5401.1723
5366.014
5335.1948
5306.0352
5278.261
5251.5774
5226.3643
5200.0357
5173.9774
5429.2019
5431.2981
5438.1871
5450.9088
5467.3635
5488.6668
5512.9516
5539.5906
5568.1275
5635.6731
5714.628
5794.9038
5878.225
5964.3786
6051.6556
6142.6847
6236.5242
6333.2349
6432.142
5597.4343
5146.3243
4840.3614
4690.7715
4603.3156
4627.0391
4605.5227
4763.4196
6533.501
5626.4383
5114.5725
4773.2269
4603.114
4502.6543
4519.854
4491.913
4644.4787
6637.0737
5653.6826
5079.3828
4701.3632
4511.1044
4396.7931
4407.4306
4375.2272
4519.9229
6741.6963
5677.0416
5038.8755
4623.3506
4414.2295
4284.9284
4289.2932
4251.8789
4388.9188
6841.7643
5694.4904
4990.5092
4538.9206
4309.2865
4167.698
4165.8411
4122.4446
4251.5892
6938.8853
5703.0527
4933.9352
4447.126
4197.0354
4043.5255
4035.918
3988.3517
4107.6946
7020.9302
5700.4304
4865.3633
4343.4184
4077.3217
3910.9096
3898.6144
3848.0307
3957.1779
7082.3864
5682.1749
4783.3331
4230.5755
3946.9634
3772.2705
3757.1804
3702.3228
3801.6445
7102.2312
5639.2325
4684.0138
4103.5952
3805.1618
3623.9032
3606.4003
3550.9323
3641.1635
3482.225
3394.4233
3446.3237
3464.7343
3649.1539
3954.8342
4556.0727
5556.6183
7065.5034
3327.7982
3231.5838
3280.5039
3297.4665
3475.9705
3781.0397
4381.4976
5387.093
6791.312
3152.3803
3063.1149
3103.5592
3116.8284
3284.0814
3576.9519
4157.7786
5145.6716
6461.6347
2960.5368
2888.276
2917.9183
2925.2782
3075.5206
3347.914
3903.3119
4868.6673
6142.6332
2763.8504
2707.6781
2728.5142
2724.5458
2852.7982
3100.8242
3625.1765
4574.5562
5832.2299
2566.411
2521.4431
2531.4111
2514.2329
2617.6596
2839.8351
3330.7942
4265.4782
5516.142
2368.7145
2332.8013
2328.9249
2295.8482
2368.3004
2560.5457
3018.973
3935.7708
5188.7762
2171.4278
2143.9231
2125.8712
2074.6973
2113.1105
2267.2491
2685.9859
3583.5575
4847.1684
1976.4371
1954.2768
1921.5973
1848.2921
1849.7457
1960.4049
2330.9694
3203.7868
4491.9504
4121.9452
2796.0725
1956.8257
1641.4644
1580.045
1620.208
1715.9369
1767.0249
1786.024
3738.5125
2360.54
1557.5592
1309.9258
1304.3786
1391.7771
1515.668
1585.6652
1602.5451
3334.5536
1899.1873
1141.7805
969.51699
1028.6276
1166.741
1319.3086
1409.7649
1428.3683
2912.1051
1401.9581
709.02303
622.16885
753.17784
945.22675
1130.419
1243.3823
1267.6295
2458.4938
869.67862
262.47087
273.73147
484.16634
733.65575
952.90021
1090.0896
1122.3033
1971.1424
300.15197
-200.04919
-72.964306
223.65311
533.51625
789.18443
950.25307
995.6921
1441.533
-302.37454
-664.08497
-409.90497
-21.666296
348.05509
641.15299
827.42356
890.76372
867.82461
-939.33617
-1132.8881
-733.17774
-250.14291
181.73616
512.80651
725.78519
806.8803
234.55369
-1607.181
-1591.6882
-1034.3459
-454.53029
36.984706
406.55639
645.67916
755.40787
730.70248
590.10963
322.49714
-85.503039
-636.95137
-1317.4808
-2054.7578
-2355.6842
-531.13819
735.36417
557.31373
269.12836
-176.82945
-785.90337
-1560.6999
-2487.489
-3187.9615
-1489.706
769.99868
550.21985
245.9869
-232.17488
-891.47864
-1748.9279
-2854.9954
-4027.4564
-2589.6714
832.01212
567.15005
256.52741
-252.50722
-951.41012
-1871.157
-3132.606
-4810.9607
-3855.9163
922.45225
609.65413
295.81325
-241.34146
-969.89386
-1928.9607
-3303.6428
-5488.7381
-5354.1404
1038.2078
675.62254
364.87492
-199.88102
-950.77716
-1926.235
-3342.2945
-5954.0718
-7176.3388
1176.3369
763.2258
458.17071
-131.07458
-898.87568
-1877.5082
-3240.876
-6138.9663
-9349.0458
1334.4483
869.60978
575.05256
-35.835874
-818.86121
-1798.9026
-3023.0134
-5984.5172
-11430.416
1507.5622
989.66423
708.7361
78.694793
-721.34501
-1721.9932
-2791.0229
-5401.2446
-13018.117
1679.7852
1117.7223
858.84206
208.08073
-617.96079
-1691.477
-2647.5949
-4705.7393
-14482.356
1839.5584
1247.5005
990.89749
301.15557
-588.98377
-1785.5731
-2865.0369
-5610.2583
-16524.612
2025.22
1380.0229
1098.4516
358.87065
-630.49826
-1981.5134
-3383.7759
-7190.9706
-18672.407
2224.2977
1521.7829
1200.1353
410.8718
-680.19535
-2219.5854
-3932.143
-8665.8612
-17661.996
2429.4472
1677.1373
1313.6193
486.83005
-714.97915
-2444.0915
-4408.8523
-10185.645
-14043.242
2633.0527
1846.6348
1439.2234
585.77773
-719.07235
-2650.7082
-4816.7684
-11853.617
-13635.922
2838.8935
2028.6795
1573.4874
706.16754
-706.33197
-2840.3158
-5265.5028
-13504.806
-15281.169
3041.9861
2220.8258
1714.1585
837.24957
-673.40051
-3014.4155
-5805.3153
-14851.483
-16686.952
3246.3146
2423.5453
1861.2904
980.21945
-627.29588
-3159.1095
-6361.0955
-15485.991
-17124.411
-17180.229
-15588.753
-6730.185
-3221.3811
-559.124
1129.3573
2011.1204
2630.5472
3443.3774
-17284.49
-15604.845
-6900.2583
-3219.7796
-458.30053
1290.2241
2161.3946
2838.7726
3639.5807
-17258.024
-15611.819
-6988.656
-3176.9363
-325.88466
1469.0915
2319.5169
3050.47
3835.564
-17204.904
-15622.664
-7042.6504
-3107.6473
-171.03523
1654.1522
2484.1014
3265.4848
4012.0806
-17126.059
-15584.512
-7082.481
-3028.715
-8.2441381
1841.2724
2651.2797
3479.3991
4177.9772
-17032.873
-15451.491
-7103.4042
-2947.091
159.35148
2023.4422
2820.0698
3690.0636
4336.4303
-16886.744
-15259.546
-7105.9957
-2858.0912
327.54967
2203.5902
2988.7226
3895.3803
4484.1843
-16854.501
-15011.61
-7089.0437
-2750.673
504.95735
2385.0391
3157.5696
4097.4879
4618.9069
-16817.161
-14764.977
-7043.9691
-2602.6523
691.72846
2563.2375
3329.8024
4292.3758
4739.7336
-16637.924
-13918.592
-6628.1795
-2230.762
1057.2111
2883.7876
3638.5618
4614.0766
4915.3298
-15889.224
-13072.908
-6154.3087
-1579.906
1616.3411
3341.8041
4039.4702
4989.2347
5043.5926
-14705.589
-12324.172
-5587.3572
-828.16662
2229.1534
3779.5322
4483.8983
5324.4157
5018.0846
-13713.479
-11667.851
-4877.9571
20.500371
2787.0533
4173.662
4807.3887
5486.8003
4798.7113
-13093.393
-11127.014
-4084.6983
806.19795
3281.6164
4457.0037
5106.8308
5499.3832
4327.4928
-12880.962
-10681.287
-3221.9042
1483.6281
3685.2811
4642.8451
5259.5036
5286.2173
3757.3168
-12781.335
-10322.843
-2309.8952
2083.4131
3964.7444
4778.9989
5309.0469
4893.4375
3033.1021
-12973.399
-10018.446
-1354.7061
2630.6854
4126.3619
4803.5027
5169.216
4303.7159
2319.2282
-12700.638
-9731.8137
-388.39163
2913.9566
4181.5343
4809.6098
4992.6215
3633.6143
1606.9026
-9109.1006
-7570.0627
-5503.8038
-3352.6298
-2599.906
-1304.5762
-126.3698
478.63293
172.74311
-9347.1798
-7838.4278
-5466.0423
-2656.5699
-2220.9291
-1061.8302
5.8653218
321.89003
13.397682
-9575.1361
-8087.0287
-5386.6904
-2003.8118
-1810.0489
-774.7246
188.85249
160.50832
-139.88269
-9790.2773
-8310.3503
-5285.6029
-1411.9626
-1368.0848
-455.35037
406.68057
-0.55311702
-268.27834
-9990.5092
-8510.3678
-5144.6789
-891.8254
-914.69522
-112.83066
652.97375
-150.62474
-349.19917
-10179.435
-8687.6743
-4923.2177
-440.14055
-457.91771
248.96299
928.6657
-281.78196
-374.01872
-10363.687
-8840.2744
-4649.7472
-26.364262
-0.36695291
617.70715
1231.9959
-370.51202
-331.07989
-10531.839
-8958.1024
-4341.37
370.42447
457.89601
987.24916
1545.0249
-417.47235
-221.51489
-10708.01
-9062.6485
-4002.7723
748.22769
908.18546
1360.204
1861.5947
-395.7068
-53.236064
-3713.9276
-2002.8726
-4144.413
-6496.8797
-802.78311
254.94961
1231.0047
1149.1939
617.55573
-3529.2912
-1905.4297
-4102.9987
-6435.8468
-1344.5739
87.702744
1115.8741
1305.1314
815.17951
-3350.9453
-1775.8193
-3749.262
-6296.5614
-1829.8266
-169.6596
940.63048
1356.9119
953.71144
-3271.0252
-1612.5084
-3449.0777
-6086.882
-2230.1609
-451.93952
714.92609
1324.9712
1065.275
-3303.6743
-1445.2391
-3003.1255
-5787.7073
-2541.2043
-751.37994
445.93732
1206.5352
1126.6849
-3316.1009
-1264.5046
-2599.2537
-5388.3877
-2728.1209
-1028.2282
184.3846
997.35144
1123.2032
-3274.4363
-1048.7359
-1986.8713
-4867.4964
-2782.5215
-1258.7706
-62.669364
751.82205
1084.3408
-3260.5313
-813.45125
-1585.0904
-4262.5608
-2678.4863
-1365.1716
-268.68382
508.54095
987.24133
-3280.3976
-580.66087
-915.73533
-3590.949
-2427.4842
-1382.2473
-397.91062
265.96108
848.57183
258.42797
60.401679
-49.191491
-354.62006
-617.43664
-993.72856
934.09547
1601.7268
-2693.5883
269.43318
1.7593582
-147.8442
-517.35914
-838.27307
-1301.1237
948.00556
1481.1515
-2721.9063
298.25075
-34.65677
-233.84837
-668.83434
-1058.4767
-1632.4192
860.92207
1326.0391
-2755.0391
337.64111
-53.197313
-304.55483
-808.99256
-1271.6316
-1954.1113
697.22703
1114.0315
-2811.5599
388.04341
-54.262512
-360.42142
-939.03244
-1474.5363
-2261.0536
477.8302
863.84307
-2879.2027
444.2891
-35.697761
-400.95361
-1055.1957
-1668.5953
-2539.5268
230.40512
594.08346
-2965.8092
509.91779
0.7237733
-426.87416
-1155.6041
-1855.1725
-2808.4262
-49.055739
313.74048
-3037.7409
582.21479
54.845222
-439.72519
-1242.5821
-2033.5228
-3041.8786
-317.30836
28.236912
-3128.5507
685.30951
124.59456
-438.38525
-1313.0004
-2203.1606
-3287.0913
-614.82979
-291.00396
-3195.7783
-2640.8573
1837.0941
835.06741
-659.02864
-374.40144
-170.9391
62.720599
145.58717
263.20682
-2382.1032
2210.6625
818.05845
-285.39422
-104.59709
34.072254
189.37645
253.33646
290.94971
-2262.6151
2404.4472
863.18134
50.15992
168.56316
250.03207
333.39056
372.90777
339.52675
-1797.5626
2794.5171
950.03304
349.85816
440.90399
475.30203
490.00848
502.70811
410.47199
-1212.8668
3321.8135
1042.7942
609.42203
699.35743
692.73956
650.80336
642.43495
486.75802
-2213.6427
3688.1356
1164.5287
845.38442
939.08547
906.64487
826.92918
789.98194
579.19379
-2866.6142
3825.4659
1452.1396
1073.9095
1163.9001
1117.3464
1015.5693
954.29675
690.13338
-1913.5444
3776.41
1822.181
1325.8734
1391.4743
1330.6294
1213.9103
1131.3231
823.15198
-1120.6993
3574.4897
2213.485
1629.3568
1634.0293
1547.1915
1423.7967
1325.233
997.72968
3229.0664
3543.6372
3623.3515
3766.9965
3940.1467
4040.5548
4294.7572
4339.8367
5428.0574
2980.9988
3287.0799
3369.9968
3514.4836
3681.9915
3780.5962
4010.3207
3926.1321
4874.4525
2712.732
3026.4631
3116.3139
3260.5826
3423.3838
3523.9866
3747.1652
3532.8517
4250.446
2437.3801
2765.4159
2859.9358
3004.3385
3161.9753
3269.7475
3505.7414
3191.2967
3512.3799
2169.3217
2505.9655
2606.532
2747.9516
2899.5181
3018.3287
3293.9981
2934.3123
2677.3895
1917.0511
2251.2215
2353.7859
2492.3738
2641.2071
2761.087
3109.3285
2777.1961
1726.8373
1678.0541
2002.9822
2105.8379
2239.879
2382.7904
2499.1337
2936.3732
2751.8781
754.5231
1457.0884
1763.8767
1868.42
1999.507
2125.559
2226.3527
2752.2297
2895.8381
-155.86802
1218.0256
1536.6886
1640.5116
1772.2345
1880.8912
1944.2332
2546.0936
3236.8944
-729.53283
5873.0495
4726.5197
4580.1614
4291.9051
4190.9522
4009.3391
3872.0658
3793.9992
3483.645
6245.1764
5083.9238
4860.1515
4537.3487
4434.3411
4244.1681
4113.9659
4036.4173
3749.6244
6597.091
5430.628
5142.2713
4783.5007
4672.1903
4478.4442
4353.3567
4274.1142
4015.6754
6927.7937
5766.0931
5423.4491
5028.6563
4908.151
4706.1656
4585.9968
4504.2153
4275.5956
7239.8899
6089.5845
5700.1568
5272.1103
5139.5464
4928.1898
4814.7544
4727.2643
4529.5497
7535.7806
6401.605
5969.6402
5511.2554
5363.673
5143.1025
5036.1227
4943.316
4774.3616
7822.3056
6699.2406
6230.7898
5744.2613
5581.027
5352.0688
5248.7269
5150.4676
5010.5529
8099.3008
6982.2202
6480.9732
5968.5428
5790.407
5549.4944
5451.2384
5348.7556
5235.3961
8368.7848
7252.1926
6721.2923
6183.5173
5989.5366
5741.2507
5645.8515
5539.147
5449.8098
6814.7102
6789.11
6919.6859
6988.2648
7313.6285
7556.7504
8240.11
8910.8571
10318.941
6725.0683
6692.7759
6822.086
6896.3576
7221.3488
7470
8158.7721
8837.4803
10232.005
6620.6987
6585.8287
6713.4423
6790.1209
7113.2683
7360.1267
8041.7421
8706.4601
10037.641
6490.9481
6469.1167
6592.8839
6673.6472
6987.3528
7229.8739
7897.8135
8546.2815
9824.8674
6343.6913
6340.5433
6460.8248
6545.247
6846.9102
7084.7063
7735.2121
8369.5825
9600.1945
6183.9442
6200.9753
6318.0016
6405.3431
6697.4
6927.7594
7558.4069
8179.4002
9371.0354
6016.8272
6050.1821
6165.5326
6254.4031
6534.4529
6759.137
7368.1487
7971.8209
9132.4836
5839.9464
5889.9012
6001.9785
6091.4707
6361.9081
6579.5768
7165.339
7748.3133
8885.7534
5651.2789
5718.7437
5828.7527
5922.727
6181.4132
6387.1432
6949.4131
7508.0572
8630.7995
6902.2921
6986.4488
7064.3565
7135.3155
7199.4133
7257.0972
7308.1051
7353.7212
7393.6507
6878.3887
6960.4552
7035.775
7103.8519
7166.3342
7222.3643
7272.8919
7318.6545
7358.9069
7006.1617
7081.6363
7149.3973
7210.3617
7265.8807
7313.7442
7357.478
7395.852
7430.9451
7072.4629
7145.2452
7212.7051
7272.8992
7325.5433
7373.6923
7414.5004
7451.5685
7483.8354
7385.3816
7443.0574
7492.5093
7533.8938
7570.1741
7600.53
7624.5853
7647.2705
7664.9231
7624.3172
7677.7685
7720.6179
7755.6636
7782.1756
7801.7992
7815.8962
7825.2495
7831.6029
8282.7633
8305.9505
8315.9674
8316.6329
8311.0635
8300.3471
8284.3138
8265.0156
8243.4148
8922.2257
8914.7819
8894.1902
8864.1876
8824.7759
8778.3066
8726.0722
8668.9597
8607.1777
10234.819
10161.341
10082.017
9996.2681
9904.4071
9806.352
9703.4217
9593.5344
9474.6314
7429.0332
7395.3403
7461.1039
7511.2757
7679.3778
7835.3981
8219.8707
8545.873
9356.5054
7459.442
7427.9844
7487.7158
7536.6636
7691.6275
7836.6582
8194.4592
8486.7745
9244.9312
7486.3221
7456.9264
7511.5105
7558.4988
7701.8617
7835.868
8168.0317
8430.349
9139.7347
7509.3201
7481.5522
7532.6976
7576.5665
7710.8985
7833.7038
8141.3111
8375.7848
9033.3789
7529.4796
7504.5069
7550.2823
7593.0568
7716.711
7831.6508
8114.8938
8320.5779
8923.6345
7546.8826
7524.9843
7567.6091
7607.2709
7722.44
7828.4405
8089.2189
8265.9405
8815.687
7561.8852
7542.0312
7581.6272
7618.6256
7727.8093
7825.4914
8064.9731
8215.6018
8712.5898
7574.517
7556.0846
7592.0341
7628.1686
7730.6597
7822.5611
8042.8904
8169.1375
8614.3278
7584.8944
7568.7979
7602.5998
7636.8216
7734.2161
7819.9117
8023.6301
8126.1067
8513.686
7616.2788
7614.3963
7637.2715
7658.1119
7733.0997
7803.3384
7941.7427
7983.9362
7919.0538
7615.8522
7613.3805
7637.5445
7659.1467
7736.5204
7805.0304
7943.8494
7976.9448
7912.4132
7614.7972
7611.7022
7636.8235
7659.2768
7739.3552
7807.492
7946.0072
7976.1624
7922.6066
7612.6801
7609.6638
7634.3738
7658.8448
7741.2347
7810.1511
7951.4013
7978.6249
7962.3831
7609.7277
7606.3571
7632.412
7658.7396
7742.1347
7812.4329
7959.6575
7984.8529
8032.7049
7606.5128
7601.9715
7628.4844
7657.7358
7741.7706
7814.7738
7968.692
7999.112
8121.9493
7602.8621
7596.4471
7622.601
7654.7589
7740.3904
7816.2008
7978.6529
8021.3346
8218.0538
7598.2622
7589.3079
7618.0929
7650.2018
7738.143
7817.7027
7991.0632
8049.4527
8316.7352
7592.7024
7580.3145
7611.7609
7644.3509
7736.4381
7819.0159
8006.2535
8084.8678
8415.582
7928.874
7997.9543
7940.2984
7802.1717
7729.5269
7656.782
7636.492
7614.864
7615.7734
7963.1442
8017.3447
7940.8895
7799.4883
7725.7054
7655.1597
7635.0032
7614.5848
7614.9929
8010.4809
8040.1664
7941.8468
7794.7866
7721.2142
7651.6794
7633.1832
7613.7396
7614.0139
8059.0994
8061.4254
7942.2709
7787.366
7715.7772
7646.6015
7631.1795
7612.4513
7613.212
8112.593
8077.5422
7940.419
7777.6047
7709.3629
7641.4035
7628.825
7610.8582
7612.541
8170.6056
8090.6707
7934.3142
7766.3101
7701.6129
7636.0453
7626.0678
7609.214
7611.8586
8229.6585
8100.8022
7924.0192
7753.9002
7692.593
7630.0284
7622.8992
7607.7392
7611.4124
8286.2688
8108.7959
7912.7812
7742.5955
7683.142
7624.2481
7619.4165
7606.6824
7611.1956
8337.894
8117.5906
7906.3047
7735.4066
7675.4984
7621.9088
7616.0592
7606.3652
7610.8418
8393.5465
8131.8992
7908.7866
7737.2304
7672.2383
7624.678
7613.2981
7607.0026
7609.6842
8453.9725
8147.0908
7910.6686
7740.777
7669.2249
7626.2661
7610.6306
7606.4627
7607.8889
8509.1806
8157.3243
7910.4633
7743.2797
7667.0676
7625.4516
7607.7491
7604.4857
7605.7093
8557.1194
8162.3734
7905.8778
7742.5762
7664.1096
7622.3175
7604.0611
7601.0335
7602.7626
8592.7981
8158.2064
7894.9166
7738.4273
7659.2294
7617.1166
7598.948
7596.0761
7598.7377
8609.2161
8142.3395
7876.9784
7730.3033
7651.6863
7609.7512
7591.84
7589.4202
7593.2774
8581.141
8112.5026
7851.9589
7717.7262
7641.3332
7600.0638
7582.3841
7580.8007
7586.0032
8466.5938
8070.248
7821.2976
7701.5409
7628.1878
7587.6584
7570.1942
7569.8362
7576.4474
8296.9527
8013.7722
7787.8171
7681.544
7611.4574
7572.2246
7555.1876
7555.9208
7563.9825
7223.7909
7230.5417
7246.2507
7274.0763
7313.0643
7369.3628
7435.2092
7533.3651
7611.3686
7286.391
7287.4966
7298.2893
7322.0336
7360.8005
7417.0732
7487.0921
7585.8675
7693.7142
7343.0066
7339.3003
7345.5547
7366.9419
7404.4684
7461.3822
7531.338
7633.2684
7736.4155
7392.91
7385.5632
7388.4254
7407.9363
7444.8998
7502.5938
7574.3522
7683.6146
7793.0076
7435.969
7426.2971
7426.9784
7444.9104
7481.8862
7540.6763
7615.7698
7736.8644
7857.0745
7472.4435
7461.7878
7460.9231
7477.7905
7515.1792
7575.9047
7655.2218
7791.3212
7924.6336
7502.8852
7492.0462
7490.3245
7506.9219
7545.0132
7607.2688
7691.4838
7846.572
7997.061
7527.884
7517.3716
7515.7383
7532.3283
7570.3943
7634.9787
7724.7443
7900.9952
8076.1888
7547.9995
7538.5147
7537.1805
7553.7085
7592.0063
7658.91
7755.2916
7954.0152
8165.4116
7851.3383
7921.9501
7992.1797
8079.7013
8185.1793
8310.4554
8463.2315
8655.4299
8894.4519
7892.7844
7960.9086
8036.027
8127.598
8238.2363
8367.9751
8525.2607
8721.9113
8961.0998
7937.2577
8006.4195
8085.5975
8181.0596
8295.1437
8430.208
8591.1183
8791.8411
9038.62
7989.5029
8060.775
8142.796
8240.6818
8356.5705
8493.5064
8658.2763
8863.6579
9121.1991
8047.0831
8119.6375
8202.9494
8300.2677
8416.3505
8553.7963
8720.1141
8932.2742
9201.7508
8103.0721
8174.8815
8257.1487
8353.0101
8466.5294
8602.4762
8768.1507
8981.819
9247.2925
8146.6288
8214.5536
8293.4982
8386.2496
8495.9897
8628.3928
8794.9722
9007.0794
9243.3811
8165.8901
8230.6777
8305.4818
8390.7352
8490.8763
8611.1584
8756.9849
8987.1987
9119.1349
8146.6189
8204.495
8274.9154
8353.1029
8429.5105
8558.7281
8616.2772
8916.0489
8895.3608
7543.0009
8309.3866
8072.5972
8358.9138
8168.9509
8233.1088
8152.8179
8107.5047
8051.146
7412.058
7567.943
7570.7001
7719.4122
7704.3094
7791.077
7772.6648
7794.7556
7763.7004
7286.0934
7331.5368
7323.9371
7381.7515
7387.0014
7434.6925
7442.0124
7469.9933
7467.9402
7133.0047
7171.233
7152.1408
7190.4984
7176.381
7205.4088
7202.9798
7222.4779
7224.4613
6981.2101
7009.0108
6995.4895
7022.1743
7009.4263
7026.9585
7022.6229
7032.4667
7034.3919
6835.543
6852.3407
6841.4908
6862.5307
6850.4609
6865.1235
6858.3478
6864.9722
6861.8129
6698.6242
6706.8586
6699.0138
6708.8029
6701.4057
6707.4835
6703.1666
6705.691
6702.5404
6560.1252
6560.4725
6552.8607
6557.7192
6549.3014
6553.0492
6547.6018
6549.4816
6544.9249
6416.0493
6410.2631
6401.4949
6399.6955
6392.2951
6390.2091
6385.2157
6383.4923
6377.3389
6205.4282
6032.2188
5842.7836
5623.121
5375.6691
5071.4787
4732.812
4361.8097
4092.5139
6212.7336
6039.41
5847.8237
5626.6651
5370.1817
5065.7075
4712.2097
4343.9166
4017.2706
6214.2465
6041.3391
5846.4961
5624.0989
5359.6087
5051.4229
4686.937
4302.9257
3921.4159
6221.5404
6045.9158
5851.1031
5624.3354
5357.4303
5039.2888
4664.8782
4245.665
3807.3763
6224.9966
6051.2294
5852.8501
5627.4313
5355.9619
5032.256
4642.7369
4188.5383
3689.3653
6235.0684
6059.0216
5861.0241
5632.8334
5359.7837
5028.8825
4628.0803
4130.9691
3574.9318
6239.9321
6066.5619
5868.0073
5642.6557
5367.1221
5036.5101
4620.9183
4106.1871
3476.1916
6249.2327
6074.2083
5875.4244
5647.3463
5374.5248
5037.979
4615.4928
4075.4842
3519.7073
6261.8849
6090.1549
5893.5529
5668.8545
5398.1589
5068.6405
4646.7744
4100.4118
3222.6526
4122.5891
4332.2111
4648.2908
4903.3492
5062.9486
5178.884
5292.1413
5409.4752
5525.1561
4006.3563
4229.8379
4602.5181
4882.1101
5046.771
5165.8417
5283.375
5403.7934
5523.614
3865.5014
4124.0629
4566.127
4866.763
5030.7507
5153.5924
5274.2312
5397.2503
5518.8765
3695.7213
4013.424
4527.6913
4845.0125
5012.8378
5144.7822
5274.0208
5400.0586
5523.6828
3479.1629
3911.3593
4494.8628
4815.054
4980.9391
5119.039
5254.7768
5386.047
5512.4864
3171.4667
3829.6155
4500.7671
4819.5542
4987.1138
5130.3501
5268.1428
5398.5707
5523.5087
2731.0445
3678.3932
4441.0008
4759.7388
4940.6714
5096.4906
5245.3325
5381.2704
5510.3841
2264.0946
3703.2108
4493.8617
4775.3593
4956.4099
5113.5204
5258.6331
5392.3979
5518.7686
1372.1602
3554.9212
4464.8173
4740.7537
4935.1999
5100.2366
5250.1739
5385.3436
5513.6507
5637.4636
5742.3957
5846.5866
5951.6662
6064.0683
6179.1061
6308.2039
6442.869
6596.042
5637.5855
5745.2666
5849.8135
5956.7527
6069.2568
6186.5209
6316.4109
6453.9605
6608.0669
5634.7384
5743.6499
5850.1048
5958.4243
6072.3985
6191.4345
6322.6462
6463.1996
6619.1711
5639.17
5749.7981
5855.9229
5965.6974
6079.1301
6199.682
6330.7665
6473.773
6630.5327
5630.2334
5743.0059
5851.2076
5962.8808
6077.827
6200.0932
6332.3829
6478.1354
6636.2732
5640.2122
5752.5734
5860.6473
5972.2887
6087.0152
6209.6136
6341.7498
6488.6234
6647.9063
5628.2249
5743.9195
5853.0654
5967.3243
6082.2312
6206.6659
6338.7032
6488.8406
6647.6454
5636.163
5750.3798
5859.4863
5973.1577
6088.4112
6212.1843
6344.9526
6494.8788
6655.3741
5631.6632
5747.2354
5856.8399
5971.4657
6086.7859
6211.0487
6344.0904
6495.0194
6655.1997
6758.9061
6947.3018
7148.8326
7378.4357
7622.5666
7894.5301
8162.3984
8436.4835
8637.4123
6774.6556
6964.9581
7172.3879
7405.4332
7659.9277
7940.49
8224.1837
8517.109
8737.0281
6789.621
6982.0271
7195.2967
7432.5369
7696.506
7986.0574
8288.2322
8596.6869
8836.4348
6804.5093
6998.3747
7216.6855
7458.085
7730.5938
8028.4875
8348.8677
8670.7628
8932.4233
6813.5905
7010.0283
7232.954
7478.4127
7758.8092
8066.1249
8403.7758
8739.7891
9024.9942
6826.9746
7024.6263
7250.336
7499.5236
7785.992
8101.9165
8455.3432
8804.4452
9111.0162
6829.3125
7028.5322
7257.404
7509.6504
7804.3204
8124.7539
8495.2309
8853.2674
9188.2206
6837.3166
7038.2379
7267.3703
7522.7184
7818.9361
8146.8546
8525.5164
8897.8929
9260.9313
6838.1131
7039.1499
7269.685
7525.2849
7824.7115
8153.3673
8539.4583
8915.3312
9284.3645
8672.3784
8018.6886
7514.717
7129.2715
6751.5096
6362.8512
5963.7184
5579.3118
5192.3059
8802.7848
8117.9403
7598.7387
7204.4825
6819.6153
6422.8066
6020.8112
5632.2784
5242.0011
8939.6252
8214.4316
7676.8404
7274.8163
6883.152
6480.6407
6078.3105
5685.5605
5294.0866
9078.0945
8309.5611
7755.7637
7342.8795
6942.5431
6532.2724
6130.4554
5734.6767
5343.2492
9220.0191
8404.8553
7836.5711
7418.0788
7012.0584
6595.9326
6188.8475
5791.7059
5398.9909
9363.0032
8502.5584
7906.7167
7471.2199
7059.7805
6637.3072
6233.4443
5830.4639
5436.5424
9487.2703
8611.7832
8005.6173
7555.1263
7137.0122
6713.0552
6306.0049
5902.8735
5508.4193
9592.6879
8676.7809
8046.1919
7583.5402
7161.4173
6732.6624
6326.4706
5919.4982
5523.0347
9712.5095
8830.1758
8170.8447
7685.7432
7257.8232
6826.2129
6417.5783
6009.8622
5612.495
4806.005
4414.0674
4009.4798
3592.8248
3153.4647
2700.5837
2221.3172
1716.8208
1176.993
4851.9953
4459.2079
4056.7775
3640.6627
3200.9756
2743.61
2262.0929
1753.9133
1209.7902
4902.5747
4508.9859
4106.5765
3693.5255
3256.3309
2801.9375
2326.1215
1821.3286
1285.631
4946.3547
4555.1057
4152.8614
3744.2833
3307.3058
2851.8136
2371.5702
1868.0705
1324.567
5004.3269
4609.7292
4207.2383
3798.6898
3364.9098
2913.149
2440.4021
1940.886
1409.9185
5035.4088
4644.9047
4241.8915
3841.6626
3405.6244
2951.9752
2473.5307
1974.3561
1434.5655
5109.4095
4715.5078
4310.8436
3909.6903
3478.8468
3033.1206
2558.1896
2068.9339
1533.7096
5121.6974
4730.0861
4327.6479
3930.6667
3498.8374
3049.2938
2573.86
2081.2487
1547.7687
5210.7933
4818.05
4414.9548
4019.7114
3593.2336
3149.0482
2676.889
2192.9257
1659.377
514.76791
-308.01589
-1177.9709
-2100.6122
-3003.0818
-3784.2882
-4731.2676
-6498.4321
-9199.7446
567.32203
-231.64138
-1076.2672
-1968.3322
-2845.92
-3588.2079
-4420.976
-6063.9558
-8680.1866
651.58143
-119.78386
-946.47478
-1806.3385
-2709.7304
-3544.8413
-4424.7563
-5927.5882
-8179.258
719.60264
-25.229566
-823.65417
-1656.2206
-2559.6112
-3424.7016
-4316.6814
-5686.9533
-7589.9777
801.70165
84.149
-696.8717
-1503.5995
-2384.1888
-3253.5363
-4137.2427
-5347.209
-6809.4108
857.90764
161.92301
-588.4094
-1375.5071
-2227.4781
-3113.5268
-3991.7849
-5072.4511
-5867.1379
958.23151
295.87959
-414.73248
-1179.3644
-1992.649
-2923.0611
-3721.1305
-4901.0805
-4682.4365
992.38156
336.20397
-356.2585
-1113.4595
-1894.9335
-2802.2265
-3744.0491
-4580.7818
-5073.707
1122.079
510.4311
-132.91904
-836.71539
-1560.1421
-2415.9044
-3252.2711
-5029.1251
-52.895619
-12625.525
-15724.305
-17618.99
-16383.486
-16418.368
-16385.323
-16661.557
-16943.061
-16938.025
-12377.583
-15842.758
-17443.195
-16194.753
-16215.73
-16265.91
-16601.733
-16877.973
-16899.082
-12317.351
-16099.662
-17122.13
-16083.117
-16216.024
-16294.742
-16605.308
-16846.737
-16814.366
-12486.882
-16392.524
-16747.642
-15997.763
-16150.293
-16260.959
-16579.402
-16806.031
-16814.477
-12814.414
-16614.458
-16193.527
-15977.608
-16160.039
-16274.775
-16568.976
-16745.908
-16667.194
-12631.065
-16428.125
-15968.851
-15998.518
-16156.192
-16276.092
-16560.347
-16735.418
-16597.258
-11606.28
-15951.989
-15951.046
-16012.394
-16180.382
-16283.771
-16542.675
-16673.403
-16496.534
-12831.129
-16913.004
-15800.665
-16081.104
-16189.383
-16297.201
-16537.899
-16666.889
-16464.863
-25736.379
-14286.267
-16143.925
-16092.623
-16213.22
-16320.88
-16541.348
-16632.475
-16414.161
-16366.576
-15471.299
-14316.429
-13381.602
-12535.657
-11888.083
-11590.972
-13003.011
-13409.71
-16264.229
-15318.84
-14186.674
-13235.27
-12306.899
-11639.186
-11309.046
-12954.477
-13346.356
-16115.86
-15120.243
-14015.429
-13046.045
-12065.577
-11427.327
-11225.979
-12988.357
-13596.532
-15984.808
-14941.584
-13822.137
-12802.079
-11791.221
-11208.212
-11246.122
-12855.796
-13732.447
-15842.803
-14769.455
-13619.501
-12528.989
-11494.42
-10985.864
-11275.378
-12662.174
-13820.853
-15717.535
-14619.374
-13425.378
-12258.316
-11217.612
-10766.623
-11262.634
-12575.945
-13842.781
-15586.977
-14469.481
-13234.486
-12006.723
-10967.501
-10621.526
-11259.575
-12557.127
-13724.828
-15512.653
-14384.873
-13107.463
-11813.118
-10761.999
-10544.511
-11248.6
-12568.19