/*--------------------------------*- C++ -*----------------------------------*\
  =========                 |
  \\      /  F ield         | OpenFOAM: The Open Source CFD Toolbox
   \\    /   O peration     | Website:  https://openfoam.org
    \\  /    A nd           | Version:  11
     \\/     M anipulation  |
\*---------------------------------------------------------------------------*/
FoamFile
{
    format      ascii;
    class       surfaceScalarField;
    location    "5.55";
    object      phi;
}
// * * * * * * * * * * * * * * * * * * * * * * * * * * * * * * * * * * * * * //

dimensions      [0 3 -1 0 0 0 0];

internalField   nonuniform List<scalar> 
8667
(
15.88315
1.9987114
-0.10408402
13.972605
2.1939868
-0.28344143
12.049381
2.4059883
-0.48276403
10.124411
2.549522
-0.62455186
8.1850563
2.6937069
-0.7543526
6.2653408
2.7863816
-0.86666603
4.322781
2.9117262
-0.96916643
2.4378556
2.9800335
-1.095108
3.167359
-1.3253387
0.59583525
15.88405
3.8924395
13.974309
4.1037281
12.056112
4.3241849
10.125135
4.4804994
8.1876562
4.6311855
6.2549489
4.7190889
4.3227176
4.8439574
2.4329515
4.8697996
5.0334229
0.56688755
15.884161
5.7860565
13.975415
6.0124741
12.058499
6.2411006
10.128322
6.4106768
8.1901917
6.5693157
6.2534808
6.6557999
4.3174286
6.7800096
2.4278127
6.7594155
6.9187333
0.54250233
15.884364
7.67947
13.978685
7.9181532
12.063562
8.1562236
10.135951
8.3382883
8.193226
8.5120405
6.2539432
8.5950827
4.3072942
8.7266586
2.4131416
8.6535681
8.8090001
0.52287479
15.885883
9.5713627
13.985135
9.8189016
12.071257
10.070102
10.143375
10.26617
8.1991283
10.456287
6.25557
10.538641
4.3023809
10.679848
2.40062
10.555329
10.706879
0.50274107
15.887655
11.461485
13.991407
11.71515
12.080174
11.981334
10.153924
12.192421
8.2074752
12.402736
6.2559363
12.49018
4.2964993
12.639285
2.3810684
12.47076
12.609716
0.47823187
15.889437
13.349826
13.998985
13.605602
12.09051
13.889809
10.16463
14.1183
8.2185104
14.348856
6.2627356
14.445955
4.2930823
14.608938
2.3648606
14.398982
14.528643
0.44593356
15.891709
15.235895
14.005791
15.49152
12.103764
15.791836
10.178553
16.043512
8.2268892
16.30052
6.2659845
16.406859
4.2900454
16.584877
2.3441277
16.344899
16.470179
0.40259134
15.894909
17.118764
14.012028
17.374401
12.111772
17.692091
10.192115
17.963169
8.2417116
18.250923
6.275019
18.373552
4.2883156
18.57158
2.3250563
18.308159
18.444886
0.35034901
18.938919
15.957623
20.755235
15.961462
22.567451
15.965568
24.376408
15.968824
26.181929
15.972238
27.982663
15.977046
29.782446
15.977996
31.574019
15.986207
15.982742
33.369057
19.197659
14.134365
21.016797
14.142324
22.830525
14.151839
24.638469
14.16088
26.443064
14.167643
28.239671
14.18044
30.032322
14.185345
31.817026
14.201504
14.201738
33.59803
19.539799
12.286657
21.380261
12.301862
23.216691
12.31541
25.044051
12.33352
26.868144
12.34355
28.683804
12.36478
30.498848
12.370301
32.311107
12.389245
12.388945
34.1239
19.842471
10.407355
21.715413
10.42892
23.588907
10.441915
25.45609
10.466337
27.320124
10.479516
29.177908
10.506996
31.028408
10.519801
32.868973
10.54868
10.561813
34.696106
20.168128
8.4901507
22.088541
8.5085067
24.008883
8.5215737
25.932386
8.542834
27.853201
8.5587015
29.779583
8.5806136
31.706152
8.5932318
33.634145
8.6206872
8.6371719
35.558786
20.314306
6.5493966
22.268706
6.5541073
24.224639
6.5656404
26.1926
6.5748726
28.157407
6.5938946
30.12841
6.6096107
32.086829
6.6348126
34.052786
6.6547303
6.6850564
36.004902
20.541349
4.5796282
22.537553
4.5579034
24.546664
4.5565288
26.581325
4.5402121
28.62442
4.5507998
30.687707
4.5463228
32.75691
4.5656101
34.842432
4.5692083
4.5932622
36.934226
20.297905
2.5898822
22.332108
2.5236997
24.387286
2.5013509
26.470639
2.4568593
28.559566
2.4618724
30.657908
2.4479811
32.751274
2.472244
34.861188
2.4592941
2.4864654
36.967985
20.596696
0.43807242
22.887538
0.23285807
25.199828
0.18906038
27.515953
0.14073427
29.840613
0.13721273
32.17186
0.11673423
34.520813
0.12329088
36.858407
0.12170024
39.204492
0.14037969
33.281305
0.087751658
33.195789
0.085515888
33.122496
0.073293263
33.054051
0.068445068
32.996219
0.057832183
32.946925
0.049293413
32.902621
0.044304306
32.871163
0.031458033
0.030835241
32.840328
33.547621
0.1381612
33.511664
0.12147293
33.475375
0.1095814
33.451348
0.092472117
33.425683
0.08349739
33.413272
0.061704648
33.397631
0.059945088
33.394171
0.034918197
0.039404545
33.385602
34.101674
0.16038726
34.092416
0.13073054
34.075234
0.12676296
34.069136
0.098569985
34.055751
0.096882705
34.05041
0.067045338
34.04255
0.067806015
34.040686
0.036781495
0.040228317
34.039862
34.688326
0.16816735
34.680546
0.1385098
34.673856
0.13345353
34.666932
0.10549417
34.661018
0.10279656
34.653992
0.074071491
34.64846
0.073337426
34.642408
0.04283335
0.045270832
34.637366
35.539242
0.18771102
35.519298
0.15845363
35.499482
0.1532697
35.477812
0.12716366
35.456111
0.12449846
35.432038
0.098144489
35.407892
0.097483481
35.38011
0.070615334
0.071877859
35.353503
35.983514
0.20909906
35.959487
0.18248046
35.938352
0.17440421
35.912907
0.15260927
35.891104
0.14630145
35.863308
0.12594027
35.838109
0.12268194
35.803938
0.10478664
0.10284394
35.772972
36.907783
0.23554238
36.875395
0.21486808
36.844879
0.20492056
36.807028
0.19045987
36.768974
0.18435543
36.719417
0.1754975
36.669731
0.1723677
36.604754
0.16976413
0.16806777
36.53953
37.006532
0.19699555
37.033958
0.18744265
37.069395
0.16948302
37.095441
0.16441423
37.123443
0.15635327
37.129066
0.16987483
37.123072
0.17836146
37.077652
0.21518397
0.24136445
37.004355
39.279636
0.12185198
39.323718
0.14336114
39.331965
0.16123608
39.305592
0.19078711
39.230052
0.23189295
39.105992
0.2939351
38.9297
0.3546529
38.690166
0.45471779
38.417206
0.5143252
38.223901
0.76174825
-0.56844321
37.877891
0.72947116
-0.38346103
37.457199
0.68255296
-0.26186135
37.014912
0.65954908
-0.21726206
36.570007
0.62434086
-0.17943621
36.127177
0.60311273
-0.160282
35.672366
0.58493679
-0.13012617
35.233127
0.56444988
-0.12521132
0.55500594
34.784735
-0.10661348
37.02534
0.74076401
37.011141
0.74366987
36.952353
0.74134085
36.872891
0.73901113
36.762664
0.73456726
36.639291
0.72648641
36.502859
0.72136845
36.351732
0.71557667
0.71727266
36.189466
36.589591
0.69070307
36.633826
0.69943522
36.661119
0.71404745
36.67984
0.72029031
36.681459
0.73294773
36.671461
0.73648503
36.644628
0.74820123
36.608892
0.75131225
0.76426219
36.561903
35.861868
0.60180728
35.954166
0.60713703
36.034581
0.63363221
36.117227
0.63764494
36.187196
0.66297831
36.257956
0.66572514
36.315744
0.69041323
36.374178
0.69287847
0.71813493
36.420305
35.455225
0.50008531
35.56073
0.50163117
35.65948
0.53488282
35.762402
0.53472283
35.857487
0.56789279
35.956688
0.56652486
36.046868
0.60023308
36.142363
0.59738336
0.63103755
36.22946
34.759393
0.37805817
34.885878
0.37514668
35.010142
0.41061814
35.138463
0.4064017
35.263794
0.44256234
35.393799
0.43651939
35.520578
0.47345449
35.652362
0.4655993
0.50365549
35.779744
34.170813
0.24710722
34.303848
0.24211222
34.439279
0.27518747
34.576107
0.26957301
34.716626
0.30204392
34.858371
0.29477359
35.003362
0.32846392
35.151054
0.317907
0.35384432
35.300865
33.522738
0.10997058
33.655194
0.10965648
33.79896
0.13142186
33.939167
0.12936593
34.092667
0.14854326
34.242336
0.14510537
34.406522
0.16427758
34.564891
0.15953826
0.18054595
34.738189
32.950298
33.059955
33.191377
33.320743
33.469286
33.614391
33.778669
33.938207
34.118753
34.293147
-0.17439425
34.489543
-0.19639566
34.678351
-0.18880807
34.890368
-0.21201652
35.09287
-0.20250263
35.32047
-0.22759996
35.53758
-0.21711009
35.780559
-0.24297851
-0.23223781
36.012797
34.905394
-0.34159933
35.088175
-0.37917608
35.263892
-0.3645254
35.456864
-0.40498831
35.64221
-0.38784897
35.845347
-0.43073676
36.040861
-0.41262446
36.256603
-0.45872001
-0.4389918
36.463357
35.453692
-0.49442568
35.608302
-0.5337865
35.767385
-0.52360792
35.92712
-0.56472365
36.093378
-0.55410661
36.260349
-0.59770759
36.435001
-0.58727732
36.610805
-0.63452359
-0.62444447
36.796258
35.912969
-0.62765026
36.041623
-0.6624414
36.177443
-0.65942717
36.309008
-0.69628858
36.449394
-0.69449341
36.586095
-0.73440784
36.73353
-0.73471235
36.878147
-0.77914124
-0.78145853
37.035161
36.322724
-0.72091353
36.407591
-0.74730887
36.49898
-0.75081584
36.581744
-0.77905295
36.673509
-0.78625797
36.758552
-0.81945105
36.855031
-0.83119103
36.946216
-0.87032692
-0.8862828
37.05104
36.467968
-0.76857665
36.504494
-0.78383452
36.546461
-0.79278354
36.579987
-0.81257901
36.618973
-0.82524359
36.651797
-0.85227505
36.690097
-0.86949058
36.725819
-0.90604885
-0.92847932
36.768015
36.51
-0.71667416
36.447976
-0.72180991
36.385596
-0.73040391
36.313758
-0.74074059
36.243698
-0.75518373
36.167365
-0.77594257
36.094115
-0.79624061
36.018255
-0.83018872
-0.85762851
35.947404
36.015302
-0.54251031
35.831955
-0.53846323
35.638267
-0.53671536
35.43938
-0.54185385
35.228246
-0.5440494
35.017931
-0.56562843
34.791488
-0.56979716
34.566132
-0.60483247
-0.61874542
34.327249
34.359511
-0.11728683
33.922175
-0.10112653
33.505353
-0.11989378
33.071105
-0.10760557
32.660923
-0.13386755
32.217004
-0.12170943
31.806155
-0.15894762
31.349753
-0.14843103
30.929649
-0.19864146
0.66715917
30.453519
-0.19102861
0.90453014
34.089878
0.97481604
35.877118
0.93369435
36.809137
0.832562
37.152173
0.67636732
37.191356
0.49053909
36.982086
0.26211249
36.691783
36.274909
0.69239037
30.023396
-0.26226774
0.94147553
33.840792
1.0041373
35.814457
0.9528672
36.860407
0.83577487
37.269265
0.66624769
37.360883
0.46755705
37.180777
0.24793113
36.911409
36.52284
0.7608757
29.523761
-0.26124119
1.0044243
33.597244
1.0645855
35.754295
1.0103692
36.914623
0.89406999
37.385564
0.72336105
37.531592
0.52454278
37.379595
0.28192437
37.154028
36.804765
0.80137837
29.084586
-0.36220295
1.0518886
33.346734
1.1001214
35.706063
1.0333462
36.981398
0.90176278
37.517148
0.71363465
37.71972
0.49955753
37.593672
0.26654766
37.387038
37.071312
0.89216264
28.563256
-0.37083273
1.1341443
33.104752
1.1772708
35.662936
1.1011136
37.057556
0.96149402
37.656767
0.77262809
37.908586
0.56087459
37.805425
0.30184419
37.646068
37.373156
0.94656923
28.135547
-0.51886045
1.1925831
32.858738
1.2189383
35.636581
1.1286207
37.147873
0.97757124
37.807817
0.76819938
38.117958
0.53612524
38.0375
0.28856715
37.893626
37.661724
1.069138
27.624646
-0.55823638
1.2978702
32.630006
1.3133586
35.621093
1.2067494
37.254482
1.038236
37.97633
0.82301886
38.333175
0.59239614
38.268122
0.31976127
38.166261
37.981485
1.1555186
27.271352
-0.80222448
1.3674237
32.418101
1.3609909
35.627525
1.2371977
37.378275
1.0593902
38.154138
0.82699298
38.565572
0.57815964
38.516956
0.31267002
38.43175
38.294155
1.3291882
26.801252
-0.85908823
1.5062371
32.241052
1.4823442
35.651418
1.3321447
37.528475
1.1224111
38.363871
0.87671109
38.811272
0.6240629
38.769604
0.33663114
38.719182
38.630786
0.060279953
38.570506
0.1797633
38.599699
0.29575155
38.653616
0.41719955
38.689824
0.55039907
38.230672
0.67635124
37.402523
0.78668558
35.541084
0.87160332
32.156134
27.012618
0.66023693
0.055822304
38.514684
0.16481545
38.490706
0.28205373
38.536377
0.3975384
38.57434
0.48928334
38.138927
0.57120799
37.320598
0.63408383
35.478208
0.6669929
32.123225
27.09175
0.58786067
0.067823254
38.44686
0.17651664
38.382012
0.28296304
38.429931
0.39446164
38.462841
0.50362515
38.029763
0.58532082
37.238902
0.63437379
35.429155
0.65271299
32.104886
27.213378
0.5310857
0.072163151
38.374697
0.18151081
38.272665
0.28856399
38.322878
0.3860286
38.365377
0.44670897
37.969083
0.48624151
37.19937
0.50456557
35.410831
0.49912568
32.110326
27.248912
0.46359099
0.082461877
38.292235
0.19430414
38.160822
0.29641586
38.220766
0.39496079
38.266832
0.48276913
37.881275
0.52546609
37.156673
0.53348346
35.402814
0.50700126
32.136808
27.365976
0.38993713
0.093615093
38.19862
0.20846017
38.045977
0.31701606
38.11221
0.4021476
38.1817
0.4341019
37.84932
0.44012552
37.150649
0.41773451
35.425205
0.36885774
32.185685
27.398679
0.33615484
0.10851616
38.090104
0.23092532
37.923568
0.33857706
38.004558
0.43626308
38.084014
0.5004555
37.785128
0.50114239
37.149962
0.46586669
35.46048
0.39658902
32.254962
27.422765
0.37250295
0.12684554
37.963259
0.25765809
37.792756
0.3715618
37.890655
0.4560169
37.999559
0.47263162
37.768513
0.43789414
37.1847
0.36710163
35.531273
0.27824484
32.343819
27.387823
0.31318725
0.1484423
37.814816
0.29224331
37.648955
0.41049559
37.772402
0.50566675
37.904388
0.55555349
37.718627
0.52367092
37.216582
0.44346504
35.611479
0.34235234
32.444932
27.43375
0.29642518
-0.24595374
27.443054
0.23664959
-0.36225332
32.561231
-0.48087701
35.730102
-0.54881814
37.284524
-0.55044928
37.720258
-0.4663295
37.820268
-0.33274911
37.638822
-0.17321847
37.489424
37.641598
-0.32953977
27.481025
0.29156917
-0.46935674
32.701048
-0.59838377
35.85913
-0.66167683
37.347817
-0.6224721
37.681053
-0.52038377
37.71818
-0.38215862
37.500597
-0.20250999
37.309775
37.439088
-0.2388209
27.422875
0.29697042
-0.42095569
32.883183
-0.59356983
36.031744
-0.68684613
37.441093
-0.69367216
37.687879
-0.59880114
37.623309
-0.43853018
37.340326
-0.23795509
37.1092
37.201133
-0.34393482
27.414152
0.35265789
-0.56323127
33.10248
-0.74127878
36.209791
-0.83265179
37.532466
-0.79130774
37.646535
-0.67250899
37.50451
-0.50193529
37.169752
-0.27402958
36.881295
36.927103
-0.27347214
27.425495
0.26212989
-0.54417149
33.373179
-0.77810782
36.443727
-0.89185344
37.646212
-0.89036032
37.645042
-0.77044255
37.384592
-0.56810879
36.967418
-0.31690588
36.630092
36.610197
-0.4292218
27.585741
0.2689752
-0.72770857
33.671666
-0.96695264
36.682972
-1.0711668
37.750426
-1.0129442
37.586819
-0.86339392
37.235042
-0.64487765
36.748902
-0.35980906
36.345023
36.250388
-0.39012671
27.76609
0.20977772
-0.75491391
34.036453
-1.0525104
36.980568
-1.1653992
37.863315
-1.1375793
37.558999
-0.98190622
37.079369
-0.72345305
36.490449
-0.40344907
36.025019
35.846939
-0.57986137
28.095253
0.25069831
-0.98341786
34.440009
-1.2790277
37.276178
-1.3774502
37.961737
-1.285967
37.467516
-1.0857533
36.879155
-0.80706557
36.211761
-0.44305374
35.661007
35.403885
-0.57408873
28.421364
0.24797797
-1.071179
34.9371
-1.414635
37.619634
-1.5014692
38.048571
-1.4235596
37.389606
-1.2150966
36.670692
-0.8922441
35.888909
-0.5004013
35.269164
34.903484
0.67393995
34.229544
1.2292052
34.713899
1.7141976
35.403916
2.1076418
36.277248
2.3726005
37.124648
2.3967546
38.024417
2.0649332
37.951455
1.3255389
35.676494
29.164006
0.58289707
0.73140197
33.498142
1.3206525
34.124649
1.8578217
34.866747
2.2820535
35.853016
2.5668679
36.839833
2.6570958
37.934189
2.3213945
38.287157
1.4444817
36.553407
30.043423
0.56506389
0.77949529
32.718647
1.4041258
33.500018
1.9842926
34.28658
2.4677802
35.369528
2.8341741
36.473439
3.0177685
37.750595
2.8043975
38.500528
1.9289771
37.428827
31.224615
0.74778558
0.82539025
31.893257
1.4908409
32.834568
2.1179149
33.659506
2.6262687
34.861175
3.0266279
36.07308
3.2795098
37.497713
3.148695
38.631343
2.2435395
38.333983
32.749516
0.71863884
0.86336852
31.029888
1.5588901
32.139046
2.2371899
32.981207
2.8068
34.291565
3.2833146
35.596566
3.6232835
37.157744
3.68836
38.566266
2.9651838
39.057159
34.909472
0.80522712
0.90273794
30.12715
1.6286861
31.413098
2.3462841
32.263609
2.9423049
33.695544
3.4537167
35.085154
3.8802906
36.73117
4.0574215
38.389135
3.5353567
39.579224
37.315853
1.1289762
0.92815807
29.198992
1.6788355
30.66242
2.4405518
31.501892
3.0995315
33.036564
3.6726253
34.51206
4.1813902
36.222405
4.5710999
37.999425
4.3205402
39.829783
39.509208
2.1271851
0.95247602
28.246516
1.731639
29.883257
2.5233684
30.710163
3.2059122
32.35402
3.809961
33.908011
4.3615859
35.67078
4.773633
37.587378
4.9593515
39.644065
41.398396
3.0701634
0.97014378
27.276372
1.7566268
29.096774
2.5896766
29.877113
3.3507269
31.59297
4.03269
33.226048
4.6349
35.06857
5.3099429
36.912335
5.9346451
39.019363
42.373664
4.959377
-0.42778864
27.704161
-1.1325896
29.801575
-1.9759126
30.720436
-3.0943398
32.711397
-4.4738904
34.605599
-6.1993157
36.793996
-8.2938441
39.006864
-10.976916
41.702434
44.607301
-13.210552
-0.39102174
28.095183
-1.0774342
30.487988
-1.8785508
31.521553
-2.9548686
33.787715
-4.3700597
36.02079
-6.2059709
38.629907
-8.4582687
41.259162
-11.050833
44.294999
45.353273
-11.796805
-0.37848205
28.473665
-1.0047529
31.114259
-1.7880465
32.304846
-2.874263
34.873931
-4.3278734
37.4744
-6.2404683
40.542502
-8.6728351
43.691529
-10.776598
46.398762
40.541529
-5.9648549
-0.35202705
28.825692
-0.94440091
31.706632
-1.6804113
33.040857
-2.7039249
35.897445
-4.192409
38.962884
-6.2292219
42.579315
-8.6383143
46.100621
-10.368676
48.129124
30.886316
-0.71346307
-0.3546521
29.180344
-0.87589812
32.227878
-1.5932131
33.758172
-2.610453
36.914685
-4.1230701
40.475502
-6.2055125
44.661757
-8.4068198
48.301928
-9.8948824
49.617186
21.440977
-0.44954287
-0.33950523
29.519849
-0.82184509
32.710218
-1.4921878
34.428514
-2.4226181
37.845115
-3.9538822
42.006766
-6.134864
46.842739
-8.3607115
50.527776
-9.2604779
50.516953
12.850299
-0.66980027
-0.36329364
29.883143
-0.77242086
33.119346
-1.4118985
35.067992
-2.3225074
38.755724
-3.8553628
43.539621
-5.9998848
48.987261
-8.1845301
52.712421
-8.6242619
50.956684
5.0965572
-0.87051996
-0.36872194
30.251865
-0.73074155
33.481365
-1.3125041
35.649754
-2.1401532
39.583373
-3.6725731
45.072041
-5.8765583
51.191246
-7.9466188
54.782482
-6.3895553
49.399621
-0.76954522
-0.52345277
-0.40873182
30.660597
-0.70455746
33.777191
-1.2421768
36.187374
-2.0055483
40.346745
-3.5236126
46.590105
-5.6917495
53.359383
-7.3712125
56.461945
-4.398399
46.426807
-5.398804
0.2308597
1.8683478
-8.0042431
0.73709138
3.3489705
44.946185
2.2599827
57.550932
0.9765857
54.64278
0.15645598
47.410235
-0.030802327
40.534003
-0.074798437
36.23137
0.081604059
33.620788
30.742201
1.5975558
-10.459692
0.85789291
3.1135934
43.430147
2.0535704
58.610955
0.80477659
55.891573
0.048082112
48.166929
-0.059586687
40.641672
-0.055383505
36.227167
0.13626722
33.429138
30.878468
1.4394185
-12.795137
0.8960263
2.9227414
41.946824
1.9434357
59.590261
0.70954911
57.12546
-0.037431963
48.91391
-0.084088518
40.688328
-0.034961387
36.17804
0.18928081
33.204895
31.067749
1.2017126
-15.05609
1.0592406
2.6833575
40.465179
1.73297
60.540649
0.53624072
58.322189
-0.12330042
49.573452
-0.080997342
40.646025
0.017994548
36.079048
0.27492678
32.947963
31.342675
0.87918691
-17.333775
1.3984989
2.5094216
38.834944
1.6242283
61.425842
0.44831874
59.498099
-0.18807296
50.209843
-0.084256947
40.542209
0.080115049
35.914676
0.3529524
32.675126
31.695628
0.6210798
-19.548188
1.5933326
2.2838167
37.172207
1.4071151
62.302543
0.27416691
60.631047
-0.25575027
50.73976
-0.052999935
40.339459
0.1640064
35.697669
0.4730346
32.366098
32.168662
0.36224611
-21.638903
1.7284688
2.1227963
35.411657
1.3017176
63.123622
0.18320795
61.749557
-0.31814422
51.241113
-0.040370921
40.061686
0.26319604
35.394102
0.59130986
32.037984
32.759972
0.12687986
-23.695694
1.9299117
1.9086213
33.629916
1.0854405
63.946803
0.038669597
62.796328
-0.34844874
51.628231
0.022242731
39.690994
0.38175868
35.034586
0.7296751
31.690067
33.489647
-0.058659914
-25.264009
1.6269743
1.7104943
31.860762
0.9706763
64.686621
-0.073085885
63.84009
-0.41498249
51.970128
0.067498359
39.208513
0.53319698
34.568888
0.86316933
31.360095
34.352817
-0.649668
-25.970675
1.3563345
-4.5583062
35.7694
-7.3454165
67.473731
-7.4486698
63.943343
-5.3131569
49.834615
-2.2356596
36.131016
0.08902475
32.244203
1.6669938
29.782126
36.01981
-0.43149861
-25.477533
-0.061643715
-5.4015258
40.739427
-8.0977756
70.169981
-7.7638171
63.609385
-4.9292584
47.000056
-1.1879086
32.389666
1.5842992
29.471996
2.6567789
28.709646
38.676589
-0.83846155
-22.216493
-2.422578
-6.3047604
46.205726
-8.3995309
72.264751
-7.2592313
62.469085
-3.8840656
43.62489
-0.037308465
28.542909
2.4961358
26.938551
3.0933703
28.112412
41.76996
-1.0192593
-17.360092
-3.8371422
-6.7858107
51.972277
-8.8472329
74.326174
-6.9513542
60.573206
-2.6780082
39.351544
1.6959069
24.168994
4.544698
24.08976
4.210954
28.446156
45.980914
-1.9249012
-11.019147
-4.4160433
-7.5379745
57.585351
-8.6783546
75.466554
-6.2171241
58.111976
-1.3339433
34.468363
3.4293838
19.405667
5.1534713
22.365673
3.9498164
29.64981
49.93073
-2.2190573
-4.0988458
-4.7012441
-7.8524445
63.218738
-8.7254318
76.339541
-5.6028852
54.989429
0.60771308
28.257765
5.595637
14.417743
7.0431363
20.918173
4.7077267
31.98522
54.638457
-3.1061072
3.8326046
-4.8253432
-8.5290604
68.641691
-8.4992511
76.309732
-4.085127
50.575305
2.5828218
21.589816
6.7683473
10.232217
7.224541
20.46198
3.6394111
35.57035
58.277868
-3.4176329
11.621703
-4.3714659
-8.7138715
73.93793
-8.1276761
75.723536
-3.4900615
45.93769
2.9993919
15.100363
7.5403892
5.6912201
8.3338104
19.668559
4.0498666
39.854294
62.327734
-4.5683894
-2.4376502
18.627743
-9.343813
78.713353
-7.4695591
73.849282
-2.2842693
40.752401
3.3094929
9.5066009
7.6851785
1.3155345
7.7434885
19.610249
2.2481865
45.349596
64.575921
-0.82406456
-7.4741312
0.38552597
7.9126697
-1.0970387
-50.387844
50.660819
-0.36428742
-68.081678
67.348927
3.6176807
-20.428936
16.446968
6.4264565
26.483757
-29.292532
8.1110053
43.691332
-45.375881
8.7758734
52.696937
-53.361805
8.5066156
49.705651
-49.436393
10.469588
-10.401304
-0.7509725
-7.1102391
0.38708035
-0.84147301
-50.297344
-0.34921927
-68.573932
3.2601031
-24.038258
5.9764565
23.767403
7.5657214
42.102067
8.3603864
51.902272
8.3264802
49.739557
10.371391
-0.67619038
-6.8184672
0.38441836
-0.55198726
-50.421547
-0.20822079
-68.917699
2.9545171
-27.200996
5.5842972
21.137623
7.1613862
40.524978
8.1234933
50.940164
8.3592832
49.503768
10.012896
-0.58796702
-6.6085286
0.37802832
-0.20951657
-50.799997
0.060703673
-69.187919
2.7445188
-29.884811
5.2709956
18.611146
6.9049969
38.890977
8.0447048
49.800457
8.6339691
48.914503
9.2700478
-0.50915012
-6.4754311
0.37605254
0.11770272
-51.42685
0.35622004
-69.426436
2.6385189
-32.16711
5.0873707
16.162295
6.7969322
37.181415
8.1235904
48.473798
9.1792495
47.858844
7.9549667
-0.44253323
-6.4062208
0.37332285
0.38533996
-52.254723
0.6232131
-69.664309
2.5934632
-34.13736
4.9684432
13.787315
6.7323876
35.417471
8.2913375
46.914848
9.9843925
46.165789
5.8405063
-0.37557644
-6.4033735
0.37272912
0.63279786
-53.263098
0.82697557
-69.858487
2.5469208
-35.857305
4.8953174
11.438918
6.7735759
33.539212
8.6184323
45.069992
11.075596
43.708626
2.7672092
-0.32595215
-6.4579593
0.38053787
0.85776998
-54.44682
1.0376651
-70.038382
2.5554446
-37.375085
4.8275871
9.1667755
6.8435081
31.523291
9.038991
42.874509
12.422922
40.324695
-1.4075852
-0.26761425
0.38442565
-6.5747707
1.1081778
-55.822612
1.3047627
-70.234967
2.6208396
-38.691161
4.8233515
6.9642635
6.9847819
29.361861
9.5712065
40.288084
14.057975
35.837927
-6.7390462
2.0308515
20.482407
-0.013391035
-22.499867
3.4103959
31.209397
-32.58894
-0.62651773
-14.794168
18.83108
-6.2706574
-71.264544
76.908683
-7.0073227
-77.886178
78.622843
-5.8148129
-67.462392
66.269882
-3.171098
-53.175253
50.531538
-1.0642763
-42.554662
40.44784
-33.435895
32.371619
2.3026402
18.326977
-0.14721072
4.2166987
29.295339
0.62607707
-11.203546
-4.7625579
-65.875909
-6.4403175
-76.208418
-6.2615047
-67.641205
-4.199804
-55.236953
-2.1648797
-44.589586
-35.600775
2.4390722
17.160479
-1.2725742
4.3294245
27.404986
1.0698322
-7.9439539
-4.0197417
-60.786335
-5.851577
-74.376583
-5.521575
-67.971207
-3.8349233
-56.923605
-2.0929625
-46.331547
-37.693737
2.6357739
16.372196
-1.8474902
4.6242851
25.416475
2.0716812
-5.3913501
-2.7414358
-55.973218
-5.3045193
-71.813499
-5.7286253
-67.547101
-4.2996715
-58.352559
-2.2046955
-48.426523
-39.898433
2.695741
14.567285
-0.89082998
4.6461068
23.466109
2.5812991
-3.3265424
-1.8406901
-51.551229
-4.3461733
-69.308016
-4.8104265
-67.082848
-3.7869458
-59.37604
-1.6280472
-50.585422
-41.52648
2.6290214
11.758666
0.17959747
4.7945364
21.300594
3.3887435
-1.9207494
-0.48682453
-47.675661
-3.6351813
-66.15966
-4.6876958
-66.030333
-4.1787902
-59.884945
-2.0901299
-52.674082
-43.61661
2.4040001
9.1549524
0.19971415
4.8240261
18.880569
3.8715689
-0.96829308
0.47876806
-44.28286
-2.4680692
-63.212822
-3.6606169
-64.837786
-3.5536966
-59.991866
-2.0723322
-54.155447
-45.688942
2.1252201
6.5083704
0.52136229
4.7498001
16.255989
4.4517735
-0.67026718
1.6566496
-41.487736
-1.5716036
-59.984569
-3.2940474
-63.115342
-3.3451068
-59.940806
-2.0199742
-55.480579
-47.708917
1.5341353
4.1118332
0.86240245
4.5503518
13.239774
4.9520294
-1.0719457
2.6486174
-39.184324
-0.19156323
-57.144388
-1.9694746
-61.33743
-2.5755515
-59.334729
-1.8288178
-56.227313
-49.537734
-0.37936426
48.840982
-48.461618
-1.2897812
50.648442
-49.738025
-2.3458296
50.814114
-49.758065
-3.6293197
50.109574
-48.826084
-4.7262376
47.170384
-46.073466
-5.0736409
39.753326
-39.405923
-2.3151824
21.47894
-24.237399
0.32217623
3.6273941
-6.2647522
-3.6455439
3.4043405
0.56337979
-0.29253296
49.133515
-1.1725951
51.528504
-2.2633902
51.904909
-3.5568991
51.403083
-4.6956289
48.309114
-4.9263531
39.98405
-1.9092578
18.461844
0.56040633
1.1577298
-3.6649635
0.57982591
-0.24201293
49.375528
-1.079079
52.36557
-2.1485921
52.974422
-3.5002081
52.754699
-4.674568
49.483474
-4.7699097
40.079392
-1.7689352
15.460869
0.57039068
-1.1815959
-3.6507156
0.55614303
-0.16323803
49.538766
-0.95408294
53.156415
-2.04383
54.064169
-3.4081406
54.119009
-4.6073029
50.682636
-4.6284538
40.100542
-1.8527658
12.685181
0.41514666
-3.4495082
-3.7730476
0.5374789
-0.1102074
49.648974
-0.8501978
53.896405
-1.9178972
55.131868
-3.3340716
55.535184
-4.5689095
51.917474
-4.5009991
40.032632
-1.8983902
10.082572
0.2656546
-5.6135533
-3.9413031
0.43391027
-0.040439606
49.689413
-0.72771883
54.583685
-1.8086072
56.212757
-3.219878
56.946455
-4.4734205
53.171016
-4.3733703
39.932582
-1.9201331
7.6293334
0.14744963
-7.6811346
-4.079425
0.28557194
-0.00028434789
49.689698
-0.61373836
55.197139
-1.6670083
57.266027
-3.1280508
58.407497
-4.4258902
54.468856
-4.2362505
39.742942
-1.9281228
5.3212044
0.019286742
-9.6285431
-4.0948513
0.03471367
0.059730694
49.629967
-0.4998342
55.756703
-1.5525656
58.318758
-2.9962621
59.851194
-4.3043684
55.776962
-4.0960384
39.534612
-1.9211937
3.1463583
-0.045104735
-11.504631
-4.2254108
0.085455455
0.092232651
-0.37837689
-1.3943482
-2.880585
-4.2480113
-3.8977237
-1.823311
-0.088168427
-0.20174604
0.28415535
2.0733573
1.0468278
4.9876778
-10.968275
8.3084676
-27.558188
7.6533087
-38.750764
6.0779588
-44.498116
4.2309515
-46.979077
2.553422
-48.080536
1.0014187
-48.186022
-47.4602
1.4697004
-0.4087005
1.0123574
6.4990708
-15.997645
8.4658797
-29.524997
7.6364968
-37.921381
6.056592
-42.918211
4.2476064
-45.170091
2.6276892
-46.460619
1.0920531
-46.650386
-46.368146
2.7478119
-4.2533211
1.0968086
7.4160724
-20.665906
8.4697496
-30.578675
7.5563771
-37.008008
6.0528804
-41.414715
4.3400318
-43.457243
2.7061344
-44.826721
1.1503148
-45.094566
-45.217832
5.4093361
-9.7676872
0.10503005
8.1345647
-23.391134
8.473564
-30.917674
7.4983058
-36.03275
6.0174512
-39.93386
4.3347988
-41.77459
2.7462546
-43.238177
1.2274241
-43.575736
-43.990408
6.7252041
-16.472072
-0.020818906
8.3937845
-25.059715
8.353251
-30.87714
7.3923035
-35.071803
5.9999432
-38.5415
4.4029223
-40.177569
2.8037412
-41.638996
1.2748657
-42.04686
-42.715542
7.6078461
-24.071043
-0.0088756197
8.5335032
-25.985372
8.266598
-30.610235
7.3228413
-34.128046
5.943025
-37.161683
4.3786701
-38.613214
2.8312064
-40.091532
1.3429689
-40.558623
-41.372573
8.3132269
-28.938255
-3.446015
8.6171277
-26.289273
8.1571931
-30.150301
7.2058591
-33.176712
5.9127368
-35.868561
4.4249082
-37.125386
2.8702633
-38.536887
1.3794382
-39.067798
-39.993135
8.8218466
-29.135811
-8.6242907
8.6378267
-26.105253
8.1070381
-29.619512
7.1229166
-32.192591
5.8423992
-34.588044
4.3902077
-35.673194
2.8827796
-37.029459
1.3951685
-37.580186
-38.597966
8.9166053
-27.802746
-10.249671
8.5014354
-25.690083
7.9903748
-29.108452
7.0055997
-31.207815
5.7998256
-33.38227
4.4069667
-34.280335
2.8988523
-35.521345
1.4141059
-36.09544
-37.18386
0.014933669
38.877806
-38.89274
0.098346475
37.412116
-37.495529
0.19258212
36.672268
-36.766504
0.31136088
35.440321
-35.5591
0.42098432
34.296661
-34.406285
0.56611775
32.413348
-32.558481
0.66880791
30.959463
-31.062153
0.63602866
28.162091
-28.129312
24.736554
-24.534082
0.43355725
0.044388443
38.833417
0.1153418
37.341163
0.1786398
36.60897
0.28017954
35.338781
0.38709202
34.189749
0.54857843
32.251861
0.6849695
30.823072
0.65630441
28.190756
24.973455
0.41940332
0.087784796
38.745633
0.20342403
37.225524
0.32059694
36.491797
0.45070894
35.208669
0.57001025
34.070447
0.73431952
32.087552
0.89656135
30.66083
0.89446587
28.192852
25.508569
0.35935122
0.12998832
38.615644
0.23736266
37.118149
0.32831819
36.400842
0.44536605
35.091621
0.55607548
33.959738
0.73576417
31.907863
0.94742009
30.449174
1.0500113
28.090261
26.013824
0.54475652
0.18216223
38.433482
0.34083249
36.959479
0.48874034
36.252934
0.63180651
34.948555
0.75337109
33.838173
0.92595494
31.735279
1.1636871
30.211442
1.3138798
27.940068
26.807839
0.51986495
0.22658679
38.206895
0.38304022
36.803026
0.50980242
36.126172
0.64245473
34.815903
0.75486432
33.725764
0.93249664
31.557647
1.2157923
29.928146
1.5490355
27.606825
27.450985
0.90588935
0.28594905
37.920946
0.49699574
36.591979
0.68687862
35.936289
0.84824323
34.654538
0.96704451
33.606962
1.1139713
31.41072
1.3872791
29.654838
1.8360458
27.158058
28.133375
1.1536556
0.34227591
37.57867
0.55666173
36.377593
0.72378433
35.769166
0.88170581
34.496617
0.99206795
33.4966
1.1222624
31.280526
1.4132425
29.363858
2.0925453
26.478755
28.233954
1.9919665
0.39480994
0.6769629
0.9247844
1.1410659
1.2553966
1.3281071
1.5835134
2.3721862
2.8033949
-0.15966431
-24.592211
0.21779327
-0.073422776
-28.215554
0.033345079
-31.168921
0.17242793
-32.697564
0.23015427
-34.464011
0.25921376
-35.588159
0.21022816
-36.717518
0.15009616
-37.435397
-38.742643
-0.20570236
-24.684853
0.29834412
-0.1108983
-28.310358
-0.019007072
-31.260812
0.1152356
-32.831807
0.17288532
-34.521661