/*--------------------------------*- C++ -*----------------------------------*\
  =========                 |
  \\      /  F ield         | OpenFOAM: The Open Source CFD Toolbox
   \\    /   O peration     | Website:  https://openfoam.org
    \\  /    A nd           | Version:  11
     \\/     M anipulation  |
\*---------------------------------------------------------------------------*/
FoamFile
{
    format      ascii;
    class       volScalarField;
    location    "0.355";
    object      Ma;
}
// * * * * * * * * * * * * * * * * * * * * * * * * * * * * * * * * * * * * * //

dimensions      [0 0 0 0 0 0 0];

internalField   nonuniform List<scalar> 
880
(
1.118016635923664
1.118016634915626
1.117919673479911
1.102160480948428
1.118016635922026
1.118016632883349
1.117878190562188
1.096817407440673
1.118016635907888
1.118016623168687
1.117749684636072
1.089713265859216
1.118016635829485
1.118016573695676
1.117422156185534
1.070373926595473
1.118016636517356
1.118016634963129
1.118016606149498
1.118016155522876
1.118016309088565
1.118014757231325
1.118008592166067
1.118021862743841
1.116503222264619
1.115436984477348
1.113928957215367
1.11326728332183
1.032261320427982
0.9953864922019716
0.9735346426177538
0.971233931172379
1.118011128596091
1.117996340246015
1.117972078030884
1.117866793307983
1.117906661585198
1.117487599510059
1.116814942223348
1.115597091960986
1.104684592071851
1.097801488327462
1.088787806422452
1.080560066898324
0.9601807070958752
0.9601892431065778
0.9585024086582455
0.9818158605999904
1.040654305003905
1.075942627544259
1.090269516240354
1.104533929005284
1.066359532742192
1.065891344382708
1.070117293886637
1.078334878574207
1.111352584916224
1.105924780354505
1.100905551201998
1.098201262322078
1.117345640689816
1.116462292197235
1.115183102329781
1.113606901461472
1.112123351456914
1.111023376710274
1.110308058393923
1.110162798542801
1.097622403027905
1.099294960508501
1.103105947999508
1.108346185696951
1.086730205025539
1.096718980386675
1.106033388293394
1.113845894728407
1.111598605848396
1.119404670643432
1.123424562188079
1.126637931583869
1.129212901328636
1.121225427843697
1.113909985210364
1.11022128293526
1.084893143324583
1.126119031179093
1.120563438151957
1.110544345350303
0.8189110334475502
1.116626365562742
1.125848711550784
1.111568315520039
0.5800740320406363
1.042289999072528
1.125970505756129
1.113346157815011
1.113199803062236
1.121853351335178
0.959362852667334
0.5212159819145099
1.10927682110056
1.109848947264236
0.8910636660615561
0.5574883979134904
1.107272110588679
1.082498126750438
0.814332139374575
0.5768930975464714
1.102120829305668
1.037709744096823
0.7677888386940234
0.6149209118636273
0.6628490501843028
0.7527824699327028
0.9800987691331005
1.091512115507662
0.714402323824593
0.775770345434407
0.9271466828889739
1.072427298795463
0.767338436730031
0.8174462794597456
0.9084417766388235
1.042689596454158
0.8150031631698733
0.8731070956335213
0.9237942196034097
1.01139698149545
0.9896573699534252
0.9764962124787159
0.9491000039909091
0.8749324650291478
1.012971512578861
1.040074424560002
1.035603509147514
0.9565150204816292
1.040472555551921
1.102209815960679
1.127508939194487
1.063560661960331
1.065266506042124
1.149181466199207
1.215444040536041
1.19197430953349
1.084436702677154
1.189863759207762
1.303629857864367
1.393068325057367
1.108578991994548
1.220016573067241
1.36239414215623
1.583560530737172
1.124266180265905
1.224699790112556
1.405123097849723
1.777618701872369
1.133509249543403
1.210449179309785
1.378135858157332
1.920893116046543
1.695083071826784
1.315957538940731
1.199068147889928
1.139308552329852
1.160956601372262
1.271577351064962
1.186856134261429
1.139269705112559
1.019933085879295
1.249517288583339
1.177443120240227
1.135838955894119
0.871626421176494
1.212618181566933
1.163391253432487
1.13180303805493
0.8001947482558808
1.157980760896197
1.140520929930716
1.124920527825821
0.7294034995867755
1.089565112557214
1.116246730599861
1.118782595426259
0.699757198033503
1.040581528133869
1.105839942083827
1.117603056228059
0.6845564927874057
1.03383982941176
1.107109200200198
1.117619775782944
0.6559600866191189
0.9431120324503461
1.071964498573917
1.113480709920175
0.6649607374870892
0.941163315256194
1.071984872849503
1.113335754639084
0.6940338279375039
0.9400463881895388
1.072565030559746
1.113260169849581
0.7170046014202827
0.9474360231794614
1.075619737886489
1.113480316484287
0.6845564927874784
1.033839829412835
1.107109200202036
1.117619775785591
0.6997571980337968
1.040581528135726
1.105839942084526
1.117603056229517
0.7294034995876633
1.089565112558929
1.116246730600337
1.118782595427902
0.800194748255953
1.157980760898426
1.140520929931197
1.124920527826149
1.139308552329431
1.199068147890296
1.315957538940883
1.695083071834499
1.139269705112359
1.186856134261599
1.27157735106496
1.160956601375229
1.135838955893273
1.17744312024034
1.249517288585916
1.019933085878862
1.131803038054371
1.163391253431419
1.212618181569383
0.8716264211770326
1.920893116050538
1.378135858158829
1.210449179310777
1.133509249543281
1.777618701871953
1.405123097851084
1.224699790112608
1.124266180265462
1.583560530737129
1.362394142156351
1.220016573067586
1.108578991992664
1.393068325056819
1.303629857864874
1.189863759208906
1.08443670267524
0.9896573699518264
0.9764962124771627
0.9491000039899442
0.8749324650289898
1.012971512578694
1.040074424559982
1.035603509146871
0.9565150204811932
1.040472555553607
1.102209815961666
1.127508939193912
1.063560661960183
1.065266506041412
1.149181466200626
1.215444040535551
1.191974309532956
0.8150031631701178
0.8731070956333959
0.9237942196025861
1.011396981491296
0.7673384367304509
0.8174462794597722
0.9084417766385099
1.042689596453201
0.7144023238249507
0.7757703454345749
0.9271466828889756
1.072427298794315
0.6628490501845385
0.7527824699324768
0.9800987691307904
1.091512115506743
1.113199803062196
1.121853351335897
0.9593628526682374
0.5212159819151287
1.109276821097512
1.109848947263132
0.8910636660620037
0.557488397913902
1.10727211058446
1.082498126747477
0.8143321393741109
0.5768930975471041
1.102120829304027
1.037709744097934
0.7677888386945172
0.6149209118637927
1.11334615781605
1.11156831552165
1.110544345352543
1.110221282940455
1.125970505757336
1.125848711547284
1.12056343814539
1.113909985203366
1.042289999075122
1.11662636556352
1.126119031180651
1.121225427844233
0.5800740320415475
0.8189110334489922
1.084893143324624
1.129212901328671
1.110162798548609
1.108346185690189
1.113845894726791
1.126637931583351
1.110308058399609
1.10310594799537
1.106033388291628
1.123424562188883
1.111023376711684
1.099294960508466
1.096718980385592
1.119404670646078
1.112123351455948
1.097622403031002
1.086730205023078
1.111598605849494
1.117345640696972
1.11135258491979
1.066359532744502
1.040654305001095
1.116462292192688
1.105924780360086
1.0658913443866
1.075942627542925
1.11518310232196
1.100905551205778
1.070117293888594
1.090269516241962
1.113606901457322
1.098201262325854
1.078334878571805
1.10453392900704
0.9818158605980526
1.080560066896864
1.115597091954429
1.117866793299354
0.9585024086601477
1.088787806416883
1.11681494221526
1.11797207805028
0.9601892431085286
1.097801488334061
1.117487599516382
1.117996340257853
0.9601807070966262
1.104684592071448
1.117906661585714
1.118011128594191
0.97123393117186
1.11326728332082
1.11802186274364
1.118016155520454
0.973534642616414
1.113928957215523
1.118008592167366
1.118016606148196
0.9953864921996941
1.11543698447811
1.118014757232627
1.118016634963951
1.032261320423811
1.116503222265494
1.118016309089881
1.118016636515667
1.118016635923539
1.118016634915505
1.11791967348019
1.102160480947785
1.118016635921949
1.118016632884602
1.117878190562468
1.096817407434799
1.118016635907415
1.118016623170056
1.117749684636419
1.0897132658511
1.118016635828668
1.118016573697217
1.11742215618615
1.070373926589673
1.090782801939443
1.080740889169214
1.059446363208103
1.009938881696242
1.080740889174064
1.065304371141548
1.029210834924621
0.9545901495658247
1.059446363219441
1.02921083493314
0.9638028786408697
0.8607309804982313
1.009938881706012
0.9545901495774356
0.860730980505807
0.7529485376923406
0.7271127492723519
0.7647639888517643
0.8368789056645285
0.9084005779951937
0.7820650112066491
0.7869325897799803
0.8169553031456178
0.8623566119655349
0.7696469044024632
0.8096527956128678
0.8396059895603847
0.8610970356225998
0.8048204849377347
0.848573659818997
0.8705505061864737
0.8819098289149351
0.8977273123662078
0.9103242214129086
0.9303365728810437
0.9688616797578632
0.8959893990110304
0.9113533108159471
0.9359034911303727
0.9907328069764925
0.884875844250218
0.9087941301573406
0.9372267799137741
1.054441767830498
0.8347054308185198
0.8619170750424646
0.9001301908193555
1.141842081615395
1.149532583483813
1.190349737472231
1.162351401374689
1.155812561347503
1.270785434824518
1.297968785489629
1.245180208213489
1.213414466917635
1.425896195091443
1.363214562111311
1.296444490715122
1.251000902673589
1.16058949981419
1.100588833869238
1.087247997942246
1.089317080664996
1.15783598313053
1.158668368414108
1.156453949090342
1.152551871006045
1.196781165740075
1.181803656441977
1.167828941055531
1.155496852389005
1.222616849350512
1.197092891617053
1.174072191219658
1.152697247275238
1.087693425756183
1.077370228574098
1.067045660624014
1.04964881523958
1.126334021884024
0.8837911331109652
0.5755722892510253
0.3693761614970656
1.098164817387147
0.7152366466553488
0.3775172467660151
0.1780468024899483
1.044336201068886
0.5244347206456363
0.1587268024814789
0.02901294057228236
0.8680610092892604
0.3178658168744947
0.02494660633988911
0.09965670645682531
0.3436571322700761
0.4409249339970536
0.5028560914464588
0.5678456400350178
0.2471342831045641
0.4004992825897074
0.4903374756711227
0.5650063560591108
0.1136457301740721
0.3119660898790333
0.4563265410501264
0.5492632445155369
0.01030175346694041
0.1639733310473845
0.3279864264735484
0.4611602300828808
0.6416060314438325
0.707588043479783
0.7644361780194804
0.8046582141367153
0.6353381847887517
0.7007416898624118
0.7590673092848159
0.8003690299870168
0.6201275577451673
0.6893936368445788
0.7535614137623947
0.7988045773166277
0.5728675829884704
0.6665984774922343
0.7494130547687018
0.7975820069463461
0.8513817505158767
0.9219997683437036
1.015691444235197
1.129804289807955
0.8438124054956118
0.9082540926379115
0.9947852468934375
1.145672196491208
0.8404869840451502
0.8968716698340995
1.009674572049919
1.463700506153978
0.8386721142138543
0.89151460506545
1.035754138085455
2.041085523054942
1.356481051240465
1.499342716822091
0.7596338649682874
1.606986561477056
1.438984440634258
1.288196938393596
1.130745640987091
1.907357534669559
1.483278596788801
0.9190815691586814
1.361382647034575
1.912744314275104
1.14357441826263
0.4333352657152299
1.636900391447738
1.847796591962009
1.34253568152393
0.8560938517978415
0.6756309323959503
0.4486302869117818
1.392831384746812
0.9724576821548532
0.704180609881872
0.3476183133949244
1.326841027841321
0.9613510224309468
0.6093431710094052
0.2332387543364284
1.265675444970958
0.9226909209166357
0.5517499253102223
0.1773904944197451
0.3041731811416222
0.07760525866931915
0.165141369731219
0.3615146293101993
0.3457569287773975
0.2601340007446659
0.06216408653019263
0.2843070492266754
0.3149082584536689
0.3630203302326455
0.1924003392347332
0.1848607701810406
0.2497456317981964
0.3654480222693453
0.2699506968784103
0.04968538474247639
0.3324048126734551
0.3665147852445338
0.3738868162168806
0.3776228909943074
0.3182051620307415
0.3058745200085801
0.3113142397901384
0.2990887702842149
0.2211120034870334
0.1655078988959474
0.1605177002486486
0.1363838961610971
0.1366936125663863
0.0791802476001663
0.09383069237975536
0.08329771706019636
0.06460283119267919
0.061824894251706
0.05841544777455485
0.053414082740273
0.09060977359382689
0.03835504997001749
0.01410868520646773
0.03542230411702701
0.2458720014404422
0.1829104038512986
0.1091947857763864
0.0454417939665991
0.3379270049740244
0.2896802350439291
0.2282302738285374
0.1831466773044332
0.05341408274009071
0.03542230411705419
0.04544179396625995
0.1831466773043318
0.0584154477740351
0.01410868520664602
0.1091947857761304
0.2282302738287402
0.06182489425108125
0.03835504997008544
0.182910403851096
0.2896802350439878
0.06460283119224311
0.09060977359384685
0.2458720014401689
0.3379270049736962
0.3776228909936696
0.3738868162164336
0.3665147852441071
0.3324048126732203
0.2990887702838345
0.311314239789834
0.305874520008151
0.3182051620303935
0.1363838961611041
0.1605177002486518
0.1655078988958587
0.2211120034868214
0.08329771706003103
0.09383069237974155
0.07918024760017806
0.1366936125661997
0.04968538474244841
0.2699506968782774
0.3654480222688041
0.2497456317974693
0.184860770180839
0.1924003392346803
0.3630203302321291
0.3149082584530987
0.2843070492262739
0.06216408653019154
0.2601340007440953
0.3457569287767598
0.3615146293098735
0.1651413697312069
0.07760525866849295
0.3041731811409856
0.4486302869104103
0.6756309323989677
0.8560938518111936
1.342535681526125
0.3476183133941894
0.7041806098823633
0.9724576821602413
1.392831384749063
0.2332387543361732
0.609343171009185
0.9613510224315341
1.326841027842496
0.1773904944193741
0.5517499253096338
0.9226909209155898
1.265675444971886
1.606986561445904
0.7596338649661127
1.499342716819439
1.356481051239422
1.90735753466382
1.130745640994663
1.288196938392187
1.438984440633614
1.912744314278679
1.361382647041994
0.9190815691576376
1.483278596788286
1.847796591965904
1.636900391456503
0.4333352657161741
1.143574418262899
1.129804289807762
1.015691444235234
0.9219997683435149
0.8513817505161306
1.145672196490836
0.9947852468932052
0.9082540926375827
0.8438124054955708
1.463700506153214
1.009674572049525
0.8968716698336112
0.8404869840449741
2.041085523053702
1.035754138085114
0.8915146050648969
0.8386721142135938
0.8046582141373005
0.7644361780203152
0.7075880434802765
0.641606031444204
0.8003690299874759
0.7590673092856638
0.7007416898633072
0.6353381847888502
0.7988045773169098
0.7535614137630418
0.6893936368455114
0.6201275577450045
0.7975820069465832
0.7494130547689515
0.6665984774919688
0.572867582988324
0.5678456400356399
0.5028560914481729
0.4409249339969823
0.3436571322704127
0.5650063560593982
0.4903374756723038
0.4004992825898895
0.2471342831050348
0.5492632445155523
0.4563265410503463
0.3119660898794293
0.1136457301745007
0.4611602300823907
0.3279864264729907
0.1639733310474615
0.01030175346711869
0.3693761614977822
0.5755722892524948
0.8837911331115386
1.126334021883329
0.1780468024907422
0.3775172467675613
0.7152366466567838
1.098164817386466
0.02901294057169197
0.1587268024822165
0.5244347206470624
1.044336201068317
0.0996567064565955
0.02494660633998245
0.317865816874655
0.8680610092882113
1.152551871005465
1.15645394909232
1.158668368417647
1.157835983131947
1.155496852388241
1.167828941057579
1.181803656445217
1.196781165741394
1.152697247275046
1.174072191221542
1.197092891620391
1.222616849351798
1.049648815238837
1.067045660626024
1.077370228577829
1.087693425758265
1.155812561349535
1.16235140137592
1.190349737469452
1.149532583480847
1.213414466919452
1.245180208213973
1.297968785485288
1.270785434821842
1.251000902675201
1.29644449071519
1.363214562105492
1.425896195089909
1.089317080664593
1.08724799794489
1.100588833868964
1.160589499818995
0.9688616797569268
0.9303365728839058
0.9103242214123092
0.8977273123661028
0.9907328069762514
0.9359034911315001
0.9113533108147069
0.8959893990097879
1.054441767829694
0.9372267799133968
0.9087941301550344
0.8848758442481685
1.141842081614074
0.9001301908218232
0.8619170750434907
0.8347054308182843
0.8819098289146839
0.8610970356213208
0.8623566119643657
0.9084005779894624
0.8705505061849661
0.8396059895578444
0.8169553031432971
0.8368789056578078
0.8485736598159863
0.8096527956091919
0.7869325897764965
0.7647639888471589
0.80482048493693
0.7696469044012061
0.7820650112028333
0.7271127492706054
0.624744003614634
1.004547623789266
1.099681089871403
1.116764760655604
0.6599014162219539
0.9811883488874155
1.092776080100377
1.115990427102254
0.6936600996417924
0.97360379590768
1.086968727882156
1.115043944255898
0.7128496908368381
0.9606780578241744
1.080898245661153
1.114137045879008
1.113480709919433
1.071964498573892
0.943112032450046
0.6559600866185267
1.113335754639016
1.071984872849207
0.9411633152556649
0.6649607374874795
1.113260169849718
1.07256503056071
0.9400463881891199
0.6940338279375466
1.113480316484288
1.075619737887652
0.9474360231793275
0.7170046014196571
1.114137045879289
1.115043944255012
1.115990427102557
1.116764760657756
1.080898245662622
1.086968727883059
1.092776080101463
1.099681089872613
0.9606780578247341
0.9736037959083117
0.9811883488880743
1.004547623789555
0.712849690836357
0.6936600996416588
0.6599014162217008
0.6247440036145485
)
;

boundaryField
{
    back
    {
        type            empty;
    }
    inlet
    {
        type            calculated;
        value           nonuniform List<scalar> 
16
(
1.118016635923663
1.118016635923226
1.118016635922135
1.118016635901343
1.11801663603142
1.11801663585756
1.118016625534367
1.118016455038745
1.118016455037916
1.118016625534003
1.118016635857789
1.118016636031136
1.118016635923537
1.118016635923214
1.118016635921958
1.118016635901029
)
;
    }
    front
    {
        type            empty;
    }
    top
    {
        type            calculated;
        value           uniform 0;
    }
    outlet
    {
        type            calculated;
        value           nonuniform List<scalar> 
16
(
1.112143040184014
1.111992178532535
1.111921155920567
1.112220713073167
1.116243581594356
1.115315989577034
1.114157284788616
1.113035959778803
1.112143040183063
1.111992178532303
1.111921155920718
1.112220713073278
1.113035959779032
1.114157284787632
1.115315989577532
1.116243581596587
)
;
    }
    bottom
    {
        type            calculated;
        value           uniform 0;
    }
    wall
    {
        type            calculated;
        value           uniform 0;
    }
}


// ************************************************************************* //
