/*--------------------------------*- C++ -*----------------------------------*\
  =========                 |
  \\      /  F ield         | OpenFOAM: The Open Source CFD Toolbox
   \\    /   O peration     | Website:  https://openfoam.org
    \\  /    A nd           | Version:  11
     \\/     M anipulation  |
\*---------------------------------------------------------------------------*/
FoamFile
{
    format      ascii;
    class       volScalarField;
    location    "0.325";
    object      T;
}
// * * * * * * * * * * * * * * * * * * * * * * * * * * * * * * * * * * * * * //

dimensions      [0 0 0 1 0 0 0];

internalField   nonuniform List<scalar> 
880
(
500.0000000000026
500.0000001233981
500.0138122163868
502.6968186214982
500.0000000002325
500.000000333361
500.019954862089
504.0696526634922
500.0000000004374
500.0000012793776
500.0389472987475
505.7438593063157
500.0000000107222
500.0000061684674
500.0856683246423
508.2713643197254
499.999999923273
499.9999999891917
500.0000052793731
500.0001661404177
500.0000345830276
500.0000891613962
500.0013131221556
500.0018273264671
500.2035931448718
500.348258021202
500.5959775864417
500.7277500754003
513.5963893459648
519.646049479378
524.7600783171112
527.3238379112281
500.0003718027728
500.0025427267977
500.007701252426
500.0283210203151
500.0184849264742
500.0714821456389
500.1472104056337
500.3032703914184
502.0531409589876
503.1985794925009
504.5814739443208
506.3050556191795
529.609343385141
532.4379543916871
533.1613753810088
532.4209462844889
522.4083581016574
517.4736145529085
515.6557553835264
514.0279428322592
509.9880443401902
511.5164522191001
512.4975257501911
512.6919751234838
500.9139508983306
501.6040355106767
502.3722276538752
503.0253235399863
500.1007901544021
500.2533442981693
500.4929684787755
500.8259208422958
501.1906277143482
501.5469329853185
501.8671108791111
502.0226202715669
503.5217856447501
503.8309588486891
504.0387842909331
504.0188219838773
512.2413583063501
511.6429254202869
510.6268739128614
509.5775550287249
512.2497805816531
511.5100491457119
510.424419632921
509.8342013461229
508.7898651351123
508.7789074110336
503.9681230436126
502.0472201301964
513.7667036455157
507.69835759265
503.849585378829
501.9372497371689
549.9586998806428
509.0460547724362
503.2473523277712
501.5388934498445
606.052434583179
518.3201964099352
503.7149358192536
501.4608116625759
500.9049301154819
504.3407667881119
531.9530140338657
631.4465882694192
500.5973937623452
505.7409219696984
545.9290092285421
630.6093705869558
500.8314969403779
509.09186119418
564.5565489058761
634.0222458347871
501.6309152721369
515.4794993757525
582.746618309248
635.7354966457358
632.58772481836
597.1647247768294
526.3494235095505
503.402743068146
626.9315646705006
604.7370684334395
540.1226404718665
506.797256214103
619.1942353044528
603.6869963304146
553.7800296638937
512.3459286512525
609.8277875762395
597.5085896655883
560.9423689828078
520.0754569134109
528.9290534615533
559.7789113797505
583.6113146347208
598.9005545473176
528.5543583193837
548.7591371096687
566.3467692800172
583.4389166200449
526.2205053832852
537.9011785160484
547.826539563866
562.1360031622114
522.5727672271681
527.5192200942802
527.9071264658156
532.8333575409939
520.131372334705
519.0022997240914
512.1590912967788
498.7807057935402
515.5020908747091
510.3439659279055
496.6199077565834
462.2490247881408
511.4096447791098
505.3964017595999
489.2467529493983
419.7363824745871
507.9968817342508
504.7524392599941
492.2063805677035
400.588970019601
455.3574608962448
497.2934447175791
503.642740601776
504.9521785686137
506.1522798482853
500.4978751457986
502.5680493073159
502.9027206871421
535.3081142404681
502.8251002820226
501.3386373272641
501.4993051156108
545.5992171265818
506.8923166885582
500.5699555106884
500.7849740887847
540.2773435461771
506.9319828430918
498.9323851072334
499.7220783302007
525.3897830632249
503.4694229033639
497.5973487839794
499.3194156424868
509.9892112435772
500.3277228593103
497.6534414578
499.5203903086321
501.2684404403827
496.0301053866468
497.7146445664515
499.7509863085943
463.5986546107458
473.010286817999
493.2615963839431
499.4060409767144
458.5115158080584
474.2376011381844
493.3312284898155
499.3872386454794
453.3731030154296
476.4296076197828
493.4139384570367
499.3695982471625
453.0582625729198
479.1009052527541
493.7929006416982
499.364077508279
501.2684404404139
496.0301053866032
497.714644566692
499.7509863084176
509.9892112435741
500.3277228590478
497.6534414577542
499.5203903082982
525.38978306313
503.4694229030027
497.5973487835544
499.3194156420673
540.2773435461402
506.9319828426729
498.9323851071525
499.7220783300191
504.9521785685818
503.6427406019475
497.2934447178566
455.3574608949952
502.9027206870328
502.5680493073797
500.4978751459678
506.1522798474951
501.4993051156147
501.338637327321
502.825100281655
535.3081142403372
500.7849740887486
500.5699555108803
506.8923166880804
545.5992171265182
400.5889700192162
492.206380567753
504.7524392600442
507.9968817342356
419.7363824745676
489.2467529493408
505.3964017597852
511.4096447790574
462.2490247882264
496.619907756667
510.3439659280235
515.5020908747647
498.7807057937261
512.1590912967634
519.0022997239662
520.131372334743
528.9290534616548
559.778911380125
583.6113146350812
598.9005545474985
528.5543583192896
548.759137109643
566.3467692800938
583.438916620272
526.2205053828197
537.9011785161656
547.8265395639012
562.1360031623409
522.5727672270986
527.5192200942017
527.9071264658006
532.8333575411954
609.8277875763375
597.5085896657596
560.9423689830389
520.075456913948
619.1942353045793
603.6869963306129
553.7800296641487
512.3459286512734
626.9315646706516
604.7370684336055
540.1226404718185
506.7972562141691
632.5877248184914
597.1647247769804
526.3494235098239
503.4027430681277
500.9049301154246
504.3407667881541
531.9530140338951
631.4465882693986
500.597393762671
505.7409219699492
545.9290092285814
630.6093705868363
500.8314969408335
509.0918611948376
564.5565489061142
634.0222458347158
501.6309152722125
515.4794993754889
582.7466183094276
635.7354966459147
501.4608116625008
501.5388934498861
501.9372497377202
502.0472201305963
503.7149358188515
503.2473523275164
503.8495853780013
503.9681230424599
518.320196409676
509.0460547724274
507.6983575923891
508.7789074108763
606.0524345829456
549.9586998804721
513.7667036456498
508.7898651352484
502.02262027218
504.0188219830378
509.5775550288215
509.8342013463912
501.8671108795869
504.0387842905002
510.626873912982
510.4244196331113
501.5469329852
503.8309588490972
511.6429254202591
511.5100491454855
501.1906277140524
503.5217856453076
512.2413583065667
512.2497805817695
500.1007901535564
500.9139508981513
509.9880443404581
522.4083581022725
500.2533442986702
501.6040355101258
511.5164522187329
517.473614553293
500.4929684797157
502.3722276532049
512.4975257500286
515.6557553833989
500.8259208426439
503.0253235400791
512.6919751238225
514.0279428321595
532.4209462849759
506.3050556200554
500.3032703928374
500.0283210230138
533.1613753806847
504.5814739440231
500.1472104064035
500.0077012482512
532.4379543916674
503.1985794921298
500.0714821447807
500.0025427241814
529.609343385306
502.0531409591462
500.0184849267844
500.0003718032637
527.3238379114026
500.7277500758138
500.001827326707
500.0001661411158
524.7600783171861
500.5959775863603
500.0013131220258
500.000005279645
519.646049479368
500.3482580211459
500.0000891612713
499.9999999891918
513.5963893455471
500.2035931448377
500.0000345828631
499.9999999232887
500.0000000001076
500.0000001235795
500.0138122163357
502.6968186218459
500.000000000219
500.000000333215
500.0199548620832
504.0696526636231
500.0000000005882
500.0000012792851
500.0389472987623
505.743859305176
500.0000000109317
500.0000061683427
500.0856683246241
508.2713643191837
505.1099809960746
507.507295021047
511.438643382666
519.7021463962267
507.507295019703
510.5491233585158
516.757667317578
528.9211302133602
511.43864338223
516.7576673182141
526.6569655456188
541.7344607265952
519.7021463956529
528.9211302131628
541.7344607270888
558.2413115958165
575.7311644454102
562.3594098466712
555.1854589250744
542.5833964399066
573.7771307136044
569.7355564584313
568.4063613566699
562.4625534132612
573.9974374167385
572.8410050318128
572.1747761452152
570.2672970263917
570.870775167216
570.3573904894341
570.3994119419363
569.5327779019871
566.6370804654545
564.8649401924775
560.1074947361557
553.6410870298083
566.3558008104433
564.4793850633743
559.9876368257007
554.2759693573985
566.401020173132
564.4913097858521
559.8924714338111
554.8906260321775
566.5201613768623
564.2372252412042
559.9949053672549
550.9960089067513
512.9982584932569
493.6928397340965
491.0848160458537
491.6741384944156
502.5480746642337
489.5358361842689
491.2476411820181
492.2574896852404
492.3400239154989
489.5924377620503
492.8208730933763
493.938257736925
470.4271201797811
484.8915387657711
491.2523061321977
492.5849817233814
492.2492130097231
493.23546226755
494.7767214436179
496.2452935514452
492.7355859850016
493.4810106667992
494.6606846530479
496.3678453783998
494.1927037818239
494.5499966324625
495.2999317934322
496.4969670860316
493.1691709781725
493.837000602375
494.7628722922984
496.7023810091389
499.9508801037577
546.996758907364
616.3331268245067
656.5207626644691
502.2009677569975
560.1427533809702
624.4769415869924
651.3283743490468
504.9884251096777
567.9888610319477
627.1379474212767
652.9250898695833
506.9424785612541
576.4615825891375
630.6439848360685
652.563025073339
690.442785723029
680.2256939851953
674.0008290436741
665.0199785421737
698.9192772800652
688.9259148091319
681.4613065241717
670.8395167676122
705.8498641704266
696.3639374209646
688.2314138201079
676.83465420502
704.2699800594377
700.4632673861418
691.9036591622876
680.0715485590265
653.0257506601509
641.2804668252238
628.3794835303372
620.7146667882646
657.6004531743748
645.2498149088568
631.5722232596091
622.3996279992602
662.5085654848316
649.7724903184564
635.7305913155379
624.7345478932947
665.5945919272856
654.2734239192616
640.5261199047692
627.5781055758659
614.9409248137293
606.4233713942579
590.4342430585806
565.8446941537089
616.034267360709
607.2717462536283
593.1145682108145
593.4346402319759
616.8750728822527
607.2472879572733
600.9901585810018
620.5145124339411
618.7633310648981
611.0152080217925
613.8002783460238
604.0198352367959
524.017508470439
458.6372671953386
373.1939443105031
284.8217740620411
511.7513331392998
417.5040484123188
284.3294313471602
241.6352892946037
469.9607179564558
365.8270357176028
249.9607515327542
236.2183949074804
369.5804262348345
285.5441967632736
231.4414343483378
244.7463660195731
345.4785837363041
427.6351708581467
476.9353753886363
516.8199056135766
316.3480768883751
389.2022315111014
438.7927307761421
480.1186300104902
300.1201222867138
352.3328651151221
396.6659938283144
434.0764148210025
303.3619330678374
349.0460661172933
393.2321800681749
419.9786271485073
490.9858881470753
504.7354748238121
497.328888420404
494.1220619741565
438.7729358406753
471.3904121437506
483.6874141712453
495.9528044185479
403.2159602484815
431.9293779442458
463.6043993338888
504.2140985727686
387.7577639207495
407.2894149214766
441.8770125621631
518.6833359934514
481.7617117178806
466.170887677512
456.8438338246067
451.7733592641302
484.4686187117023
480.5409272779551
477.6323414800934
474.6031395058986
492.2130514968729
502.5875726940831
499.7949662382354
492.3378537804788
480.5160087206341
499.136293857705
493.6428674559517
483.5170730140459
466.3456703170492
449.0192621104849
438.874225829742
435.7167435684865
476.8205604701003
459.2884759060317
446.2886537681613
442.2487766256538
472.8040563299838
467.266068088138
459.7776525420551
456.1011454241155
456.3307856984978
460.9974249902052
461.9614439417272
462.393702546587
435.7167435684838
442.24877662563
456.1011454241112
462.3937025466286
438.8742258296867
446.2886537680461
459.7776525419956
461.961443941821
449.0192621103567
459.28847590587
467.2660680880547
460.9974249902938
466.3456703169069
476.8205604699612
472.804056329927
456.3307856985801
451.7733592641641
456.8438338246276
466.1708876776055
481.7617117179585
474.6031395059061
477.6323414801323
480.5409272780159
484.4686187117848
492.3378537804336
499.7949662382316
502.5875726940701
492.2130514968968
483.5170730139807
493.6428674559591
499.136293857735
480.5160087206706
518.6833359933754
441.8770125622898
407.2894149216788
387.7577639210699
504.2140985727764
463.6043993339895
431.9293779444068
403.2159602487614
495.952804418616
483.6874141713441
471.3904121438562
438.7729358409091
494.1220619742158
497.3288884204548
504.7354748238564
490.9858881471692
516.8199056138175
476.9353753891227
427.6351708582564
345.4785837355375
480.1186300108179
438.7927307767458
389.2022315114037
316.3480768880559
434.0764148213439
396.6659938288034
352.3328651154678
300.1201222865575
419.9786271488184
393.2321800686129
349.0460661177491
303.3619330678691
284.8217740638782
373.1939443094922
458.6372671954225
524.0175084706964
241.6352892946355
284.3294313464653
417.5040484123064
511.751333139587
236.2183949074431
249.9607515321119
365.8270357177425
469.9607179566617
244.7463660196154
231.4414343477997
285.5441967634467
369.5804262351572
565.8446941539682
590.4342430588271
606.4233713945252
614.9409248138575
593.4346402322714
593.1145682110075
607.2717462537477
616.0342673607006
620.5145124341768
600.9901585811299
607.2472879572886
616.8750728820451
604.019835237043
613.8002783460611
611.0152080217244
618.7633310645598
620.7146667882515
628.3794835304132
641.2804668253465
653.0257506602748
622.3996279991874
631.572223259619
645.2498149089611
657.6004531744655
624.7345478931401
635.7305913155013
649.7724903186015
662.508565484919
627.5781055756669
640.5261199047117
654.2734239195549
665.5945919273721
665.0199785421179
674.0008290433879
680.2256939851075
690.4427857230116
670.8395167675068
681.4613065237022
688.9259148089636
698.9192772800275
676.8346542048107
688.2314138196411
696.3639374207048
705.8498641703272
680.071548558733
691.903659161726
700.4632673858086
704.2699800593441
656.5207626643403
616.3331268242783
546.9967589074588
499.9508801040402
651.3283743488942
624.4769415867651
560.1427533809526
502.2009677573421
652.925089869379
627.1379474210403
567.9888610318343
504.9884251100275
652.5630250731007
630.6439848357885
576.4615825889836
506.9424785615878
496.2452935518309
494.7767214438184
493.2354622674772
492.2492130098576
496.3678453787838
494.6606846530828
493.4810106666645
492.7355859851876
496.4969670863863
495.2999317933919
494.5499966323013
494.1927037820577
496.7023810094511
494.7628722922822
493.8370006021397
493.1691709784618
491.6741384943211
491.0848160458838
493.6928397344642
512.9982584937995
492.2574896850864
491.2476411821305
489.535836184823
502.548074664581
493.938257736685
492.8208730936243
489.5924377627659
492.3400239154539
492.5849817231458
491.2523061324932
484.8915387666555
470.4271201799262
553.6410870299586
560.1074947361805
564.8649401929728
566.6370804656112
554.2759693572777
559.9876368258045
564.4793850638413
566.3558008106263
554.8906260319476
559.8924714339196
564.491309786245
566.4010201732194
550.9960089063383
559.9949053673838
564.2372252416335
566.5201613769614
569.5327779018399
570.267297026154
562.4625534130552
542.5833964401647
570.3994119418247
572.1747761449466
568.4063613562154
555.1854589249159
570.3573904893383
572.8410050315123
569.735556457747
562.3594098459721
570.8707751671014
573.9974374164165
573.7771307128626
575.7311644440869
495.6980056059533
494.532970833616
497.5052906728957
499.7732839233425
486.8307473109568
489.8350355708207
496.3058935751283
499.6700834573676
475.4165484762088
485.6328927071384
495.2196300878302
499.539115955165
461.7627756785905
481.8072533697677
494.3428470300788
499.4313619965781
499.4060409766306
493.2615963839995
473.0102868180052
463.5986546107753
499.3872386453694
493.3312284900132
474.2376011381284
458.5115158081887
499.3695982471671
493.4139384571665
476.4296076196453
453.3731030155379
499.3640775083908
493.7929006417017
479.1009052526626
453.05826257291
499.4313619965445
499.5391159550536
499.670083457559
499.7732839234003
494.3428470299431
495.2196300877134
496.3058935749578
497.5052906729721
481.8072533697998
485.6328927072631
489.8350355710811
494.5329708338594
461.7627756784213
475.4165484760427
486.8307473108943
495.698005606012
)
;

boundaryField
{
    back
    {
        type            empty;
    }
    inlet
    {
        type            zeroGradient;
    }
    front
    {
        type            empty;
    }
    top
    {
        type            zeroGradient;
    }
    outlet
    {
        type            fixedValue;
        value           uniform 500;
    }
    bottom
    {
        type            zeroGradient;
    }
    wall
    {
        type            zeroGradient;
    }
}


// ************************************************************************* //
