/*--------------------------------*- C++ -*----------------------------------*\
  =========                 |
  \\      /  F ield         | OpenFOAM: The Open Source CFD Toolbox
   \\    /   O peration     | Website:  https://openfoam.org
    \\  /    A nd           | Version:  11
     \\/     M anipulation  |
\*---------------------------------------------------------------------------*/
FoamFile
{
    format      ascii;
    class       volScalarField;
    location    "0.1255";
    object      rho;
}
// * * * * * * * * * * * * * * * * * * * * * * * * * * * * * * * * * * * * * //

dimensions      [0 0 0 0 0 0 0];

internalField   nonuniform List<scalar> 
880
(
0.3733250556165154
0.3733250556165154
0.3733250556166941
0.3733266528030472
0.3733250556165154
0.3733250556165154
0.3733250556217392
0.3733303957709993
0.3733250556165154
0.3733250556165153
0.3733250556564777
0.3733553661090008
0.3733250556165154
0.3733250556165154
0.3733250565255616
0.3734126036833033
0.3733250556165154
0.3733250556165155
0.3733250556165152
0.3733250556103641
0.3733250556165154
0.3733250556165154
0.3733250556165151
0.3733250556165154
0.3733250437677132
0.3733250425966543
0.3734306201361851
0.3731729696504415
0.3769693412336127
0.3857546944570328
0.3920261482188398
0.3948288406809495
0.3733250768438978
0.3733251953399651
0.3733252395078281
0.3733251874368168
0.3733255022748271
0.3733261431301005
0.3733288410745164
0.3733282742039719
0.3735135539899559
0.3737448545843842
0.3741294907873998
0.3742401323604861
0.3978149879031487
0.4019266036427205
0.4061149795608447
0.4119676747189712
0.4106619775956742
0.4020868851059224
0.3958353021944949
0.3932125510642774
0.3749477301986169
0.3766473531013649
0.3773338958465792
0.377167920993168
0.3733338716739192
0.3733529306147647
0.3733820499261184
0.3733951795467209
0.3733254981797904
0.3733262466302396
0.373327612310438
0.3733279481227005
0.3733274219077534
0.3733263312664313
0.3733254158099784
0.373325089145807
0.3733891764899536
0.373373511755893
0.3733496636117508
0.3733311648306213
0.3766618930071459
0.3759522368194397
0.3750127383758374
0.3740268060626025
0.3904975904509235
0.3872052346463757
0.3836328795047077
0.3800051212446567
0.376669749011016
0.37347279369188
0.3733256370523989
0.3733250560619825
0.3743620937902902
0.3733409802008363
0.3733250947255492
0.3733250557947203
0.3734207452966447
0.3733244784991385
0.3733250053705116
0.3733250566278999
0.3809831528891311
0.3733778690238623
0.3733244371561295
0.373324999064372
0.3733249039716878
0.3733247195316293
0.3736273682266162
0.4280364947834764
0.3733250293489681
0.3733294815213424
0.3749362292808214
0.4698205313317771
0.3733255123205341
0.3733353250129149
0.3763353985541237
0.4908209084112213
0.3733266095724042
0.3733563371234881
0.3785620619539446
0.5073901589177028
0.5195769027153079
0.3807589966881537
0.3733707073598726
0.3733274875239295
0.5374785349873235
0.3840254841191952
0.373415927129374
0.3733297679855601
0.5539859229344671
0.3869104714719867
0.3734367157191006
0.3733303095054712
0.5747433585641882
0.3906072842481417
0.373503763088421
0.3733345221244642
0.3733361241963417
0.3735577028382095
0.3955849837657626
0.5931047056036708
0.3733425551084648
0.373672723029017
0.4007093519808316
0.5957558836459539
0.3733594564797551
0.3738016321684979
0.4012310242493505
0.5658029371412311
0.3733242591346807
0.3735467533697241
0.3909563361964901
0.5026568485589477
0.3733839679608507
0.3744192675432064
0.3900967759427204
0.4090683062199999
0.3734052118952022
0.374376429689949
0.3757379638982765
0.3060409475023229
0.3733519837816328
0.3736315978519869
0.3682026687261503
0.2424465368775472
0.3733248454473652
0.373075103387619
0.3598222845817127
0.2114452639181005
0.2101074052983745
0.3567063356801534
0.3729133624700205
0.3733226341737382
0.2049693676386017
0.3545881935874325
0.3728558543515929
0.3733216825640882
0.2046296143999821
0.3546520378063671
0.3729408341508793
0.3733233511711627
0.1950311834789759
0.3527506979904193
0.3729144517425924
0.3733233679617842
0.2227143423368872
0.3604221221267851
0.3731617383914128
0.3733244396358922
0.2579894080581472
0.3673228014281452
0.3732775657399464
0.3733249027383228
0.2883829189286136
0.3705590989310389
0.3733087325073267
0.3733250099163694
0.3144444609732391
0.3724119297867349
0.3733212281262978
0.3733250369178773
0.3300891652082336
0.3701452904120109
0.373256021938064
0.3733244917749499
0.3335107301972423
0.3703039171491022
0.3732573770309335
0.3733244952032879
0.335328742581154
0.3704331136037243
0.3732584808157239
0.3733244949699405
0.3381937822464075
0.3708200436690443
0.3732680332988026
0.3733245442363999
0.314444460972923
0.3724119297854527
0.3733212281253268
0.373325036918442
0.2883829189271843
0.3705590989297777
0.3733087325026674
0.3733250099160763
0.257989408056746
0.3673228014283642
0.3732775657388693
0.373324902739237
0.2227143423371771
0.3604221221288813
0.3731617383910916
0.3733244396349699
0.3733226341778333
0.3729133624739028
0.3567063356815064
0.2101074052978159
0.3733216825630351
0.3728558543531144
0.3545881935893485
0.2049693676397434
0.3733233511685723
0.3729408341539198
0.3546520378069301
0.2046296144002298
0.3733233679626629
0.3729144517432121
0.3527506979951109
0.1950311834780843
0.21144526391546
0.3598222845788232
0.3730751033861945
0.3733248454473899
0.2424465368743406
0.368202668723679
0.3736315978494252
0.3733519837761558
0.3060409475016152
0.3757379638954279
0.3743764296906554
0.3734052118916248
0.4090683062205105
0.3900967759422943
0.3744192675414079
0.3733839679656124
0.3733361241949948
0.3735577028461963
0.3955849837676872
0.5931047056069085
0.3733425551094228
0.3736727230275211
0.400709351980341
0.5957558836462024
0.3733594564803426
0.3738016321676522
0.4012310242464981
0.5658029371409984
0.3733242591430347
0.373546753369043
0.3909563361947377
0.5026568485586156
0.5747433585676056
0.3906072842389735
0.3735037630896386
0.3733345221244211
0.5539859229408574
0.3869104714831041
0.3734367157229069
0.3733303095066883
0.537478534990951
0.3840254841302114
0.3734159271344941
0.3733297679844303
0.519576902717653
0.3807589966780243
0.3733707073638863
0.3733274875231121
0.3733249039749131
0.373324719534202
0.3736273682275845
0.4280364947795193
0.3733250293470113
0.3733294815172263
0.3749362292795406
0.4698205313328356
0.3733255123182663
0.373335325015959
0.3763353985582488
0.4908209084140195
0.3733266095703052
0.3733563371169534
0.3785620619516094
0.507390158916339
0.3733249990627573
0.373325056629364
0.3733250557948626
0.3733250560617066
0.3733244371522449
0.3733250053708433
0.3733250947293339
0.3733256370502478
0.3733778690249056
0.3733244785003287
0.3733409801982493
0.3734727936905979
0.3809831528900676
0.3734207452975665
0.3743620937886186
0.3766697490114881
0.3733250891428314
0.3733311648310211
0.3740268060636421
0.3800051212458861
0.3733254158090781
0.3733496636106178
0.3750127383805868
0.383632879506006
0.3733263312682603
0.3733735117557099
0.3759522368177491
0.3872052346462725
0.3733274219091755
0.3733891764895881
0.376661893009324
0.3904975904502351
0.3733254981760582
0.3733338716706213
0.3749477301943639
0.410661977595115
0.3733262466272973
0.3733529306153043
0.3766473530993802
0.4020868851032351
0.3733276123095196
0.3733820499301964
0.3773338958469679
0.3958353021935259
0.3733279481218529
0.373395179549414
0.3771679209940104
0.3932125510624224
0.411967674720582
0.374240132362916
0.3733282742016874
0.373325187434885
0.4061149795615299
0.3741294907959516
0.3733288410737536
0.3733252395057605
0.4019266036462477
0.3737448545930745
0.3733261431299041
0.3733251953417472
0.3978149879012058
0.3735135539873831
0.3733255022743301
0.3733250768447831
0.3948288406801586
0.3731729696445841
0.3733250556165154
0.3733250556110772
0.3920261482176779
0.3734306201314667
0.3733250556165154
0.3733250556165154
0.3857546944576721
0.3733250425959908
0.3733250556165154
0.3733250556165153
0.3769693412333267
0.3733250437663014
0.3733250556165154
0.3733250556165151
0.3733250556165154
0.3733250556165154
0.3733250556167188
0.3733266528074579
0.3733250556165152
0.3733250556165155
0.3733250556219407
0.3733303957602669
0.3733250556165154
0.3733250556165154
0.3733250556565692
0.3733553660952054
0.3733250556165154
0.3733250556165154
0.3733250565236954
0.3734126036827537
0.373328562954318
0.373338165793105
0.3733865521785059
0.3741545959155406
0.3733381658622004
0.3733427720799765
0.3733881608753492
0.376403712599325
0.3733865521144856
0.373388160665134
0.3745613752650624
0.3914924449218214
0.3741545958370868
0.3764037125332458
0.3914924451765114
0.4453622938491293
0.5273637929216659
0.4704328289166451
0.4400695068772113
0.4060951430515661
0.5128208122686662
0.5019987595419509
0.4993848493859255
0.4748260879116493
0.5067408915958285
0.5036146972399345
0.5050655982949714
0.4941336565138467
0.5067501086472289
0.5055486490317386
0.5070143486199897
0.4988556198195691
0.5026786908569136
0.5028429554680872
0.5049309392737007
0.5099842112417136
0.5079782317493238
0.5076238805052098
0.5100389700666321
0.5157315922836659
0.5098416623818812
0.5098532607444495
0.5120245639989633
0.5169383645650409
0.5117750051391337
0.5106570976969803
0.5120940556036093
0.5150920243877628
0.4493916038992531
0.3844112413393798
0.3667124612512621
0.3724748295068757
0.4206446697311069
0.3599804175607573
0.3592991451544207
0.3699522961065652
0.3926856947636116
0.3510106386068056
0.3621072413496754
0.3726385307533472
0.3364025778714644
0.3359441027483689
0.3575507571383137
0.3697674848107192
0.3768928983797468
0.3786261348860138
0.3791541708323322
0.3796230788826663
0.375500589086289
0.377012133300651
0.3783116572241938
0.3793423142204418
0.37640742662793
0.3772520112072459
0.3788325737512164
0.3799376515774581
0.3738391633278091
0.3751450060863786
0.3769176770437038
0.3791161519399436
0.3786362687620575
0.3761383542595243
0.3739460793518233
0.4531140123030934
0.3782723241949872
0.3760427602975439
0.3739697937813476
0.4866036790914717
0.378841082347085
0.3764649303875862
0.3748546767972696
0.5007857767589879
0.3780243029081372
0.3754930009212304
0.3758543325201346
0.5089124820963833
0.6859933188299927
0.7108630339682591
0.7084180334988374
0.6985532720294036
0.7321885672309582
0.7301227895989968
0.7200732798404108
0.7090859476732996
0.7182184484345029
0.7164248953728949
0.721604306409986
0.7170992340373747
0.7395825039314512
0.7279412623975842
0.7252177935068121
0.7206137234978073
0.6845348433109782
0.6873175456987284
0.693268358250372
0.7061180414899836
0.695006034407869
0.6972651630710767
0.7012651186493317
0.7132434725425135
0.7033716280531961
0.7065433108540524
0.7115481115645763
0.7234406040437165
0.7081233623735191
0.7103251796380867
0.7149719409952835
0.7271927305019262
0.7107548147833235
0.6952423574933414
0.6574880816160099
0.5717403736142986
0.7171806239574259
0.7032189200395833
0.6618687912537611
0.5823140786206655
0.7278482038992649
0.7144735455602161
0.6670940400748095
0.5996952546101977
0.732297767113577
0.7218494069692266
0.6724808174469573
0.6957516168095712
0.3771905806330109
0.09164570056349125
0.03250581096358673
0.04497660666981965
0.303541831660316
0.06048115751306059
0.04168093354135685
0.05455141722655613
0.2290558479060276
0.03966696765968206
0.04049500270810281
0.06514418025638308
0.1657606947376408
0.02491119880110344
0.04532513212817496
0.06896860861455427
0.05868619149967149
0.06470853122167748
0.06785151134833062
0.06290498178857823
0.06878953996861061
0.07314557211825301
0.07047533741910188
0.06186310342231809
0.08242127015401432
0.08577709634578613
0.07726063766122261
0.06404195470243719
0.08693457719544366
0.09006311750543888
0.07957371412133135
0.07033794936093478
0.1060066095398964
0.1475488465382288
0.184384978762329
0.2287201147923384
0.09769020194254753
0.1368741307110967
0.1689845774954344
0.2140176947889168
0.08983960389900686
0.1250437232779912
0.1556364763726306
0.1930753614542626
0.07951530699793337
0.109752439919762
0.1373398535675539
0.1754855039253388
0.1755349174883165
0.1253009308207437
0.06998153941841977
0.07653674838771764
0.155429250970574
0.1036992543546154
0.06660005268857405
0.08751816334231993
0.1246201005574978
0.07233621619265455
0.08257454497503909
0.1024566341806868
0.08970874347614782
0.06762579364067135
0.112909390452987
0.1270012589946805
0.1336609083665866
0.1229763792284767
0.1115437050098369
0.1070665826249832
0.1126396107672011
0.1060326392450913
0.09993188823431984
0.09682258340005735
0.1021313332496374
0.09968073818374544
0.1027550827017317
0.1058339487893539
0.102741561201387
0.1215441948425266
0.1276999470075224
0.1315119156933825
0.1070665826249716
0.09682258340008959
0.1058339487894715
0.1315119156934342
0.1115437050097693
0.09993188823446733
0.1027550827020315
0.1276999470076097
0.1229763792283367
0.1060326392452928
0.09968073818393307
0.1215441948423736
0.1336609083664876
0.1126396107672694
0.1021313332495866
0.1027415612010443
0.07653674838737229
0.06998153941816831
0.1253009308202728
0.1755349174873844
0.08751816334212813
0.06660005268848011
0.1036992543543872
0.1554292509700185
0.1024566341805134
0.08257454497505788
0.07233621619246182
0.1246201005572838
0.127001258994588
0.1129093904529975
0.0676257936407085
0.08970874347594204
0.1754855039249751
0.1373398535669687
0.1097524399185729
0.07951530699703016
0.1930753614539689
0.1556364763723552
0.1250437232770166
0.08983960389805222
0.2140176947885433
0.1689845774952477
0.1368741307104058
0.09769020194163007
0.2287201147919369
0.1843849787619655
0.1475488465375773
0.1060066095390339
0.06290498178784669
0.06785151134842814
0.06470853122168974
0.05868619149926504
0.06186310342203296
0.07047533741906453
0.07314557211819617
0.06878953996824717
0.06404195470220531
0.07726063766127307
0.08577709634564912
0.08242127015359804
0.07033794936054215
0.07957371412129596
0.09006311750545197
0.08693457719498378
0.04497660666916981
0.03250581096295337
0.09164570056252616
0.3771905806322233
0.05455141722604998
0.04168093354072408
0.06048115751254282
0.3035418316590854
0.06514418025570354
0.04049500270754233
0.03966696765936817
0.2290558479053081
0.06896860861385018
0.04532513212760435
0.02491119880068111
0.165760694737414
0.5717403736131653
0.6574880816161862
0.6952423574945635
0.7107548147866191
0.5823140786197581
0.6618687912540536
0.7032189200411278
0.7171806239606285
0.5996952546094663
0.6670940400752811
0.714473545562015
0.7278482039020144
0.6957516168097204
0.672480817448074
0.7218494069709014
0.7322977671164337
0.7061180414939264
0.6932683582532582
0.6873175456980498
0.684534843316989
0.7132434725459975
0.7012651186514677
0.6972651630714976
0.6950060344136954
0.7234406040461088
0.7115481115664206
0.7065433108552825
0.7033716280580311
0.7271927305044419
0.7149719409968348
0.7103251796399139
0.7081233623788183
0.6985532720323802
0.7084180334954067
0.710863033970164
0.6859933188228178
0.7090859476760919
0.7200732798364635
0.7301227895998704
0.732188567224191
0.7170992340389808
0.7216043064043403
0.7164248953711825
0.7182184484270263
0.7206137234970424
0.725217793501757
0.7279412623959518
0.7395825039234507
0.4531140123006828
0.373946079346009
0.3761383542599266
0.3786362687624737
0.4866036790838462
0.3739697937727998
0.3760427603022788
0.3782723241938319
0.5007857767494586
0.3748546767927214
0.3764649303953859
0.378841082344584
0.5089124820846284
0.3758543325163767
0.3754930009302329
0.3780243029050063
0.3796230788837358
0.3791541708330048
0.3786261348858162
0.3768928983794828
0.3793423142216101
0.3783116572243911
0.377012133300735
0.3755005890859429
0.3799376515784481
0.3788325737508507
0.3772520112078538
0.3764074266271217
0.3791161519420045
0.37691767704378
0.3751450060872125
0.3738391633266696
0.3724748295046984
0.3667124612509668
0.3844112413380865
0.4493916038997859
0.3699522961043387
0.3592991451540387
0.3599804175593013
0.4206446697317919
0.3726385307513649
0.3621072413493494
0.3510106386050039
0.3926856947642504
0.369767484808611
0.3575507571382622
0.3359441027463425
0.3364025778697242
0.5099842112410194
0.5049309392693231
0.5028429554694022
0.5026786908618883
0.5157315922810815
0.5100389700641466
0.5076238805101959
0.5079782317533192
0.5169383645619944
0.5120245639972897
0.5098532607497215
0.5098416623847636
0.5150920243863157
0.5120940556025203
0.5106570977013347
0.511775005140284
0.4988556198209386
0.4941336565061639
0.474826087902405
0.4060951430749414
0.5070143486170989
0.5050655982877332
0.4993848493837654
0.4400695068671482
0.5055486490292666
0.503614697236627
0.5019987595404644
0.470432828881369
0.5067501086452487
0.5067408915921052
0.5128208122521565
0.5273637929148959
0.3282556213153136
0.3720222968760335
0.3733126132772013
0.3733250008505426
0.3300761590216867
0.371851920752037
0.37330738874505
0.3733249522108176
0.3314594341516684
0.3716499240905425
0.3732995722194804
0.3733248776491604
0.3316223397477307
0.3712332916925734
0.3732853335623791
0.373324718064406
0.3733244917758231
0.3732560219398887
0.370145290408732
0.3300891652013648
0.3733244952043676
0.3732573770331853
0.3703039171464938
0.3335107301956249
0.3733244949681841
0.3732584808163477
0.3704331136040234
0.3353287425807736
0.373324544231256
0.3732680333006065
0.3708200436667153
0.3381937822454946
0.3733247180618682
0.373324877647393
0.3733249522052162
0.3733250008441789
0.3732853335635902
0.3732995722194036
0.373307388744345
0.3733126132754381
0.3712332916910399
0.3716499240871439
0.3718519207543132
0.3720222968756678
0.3316223397473843
0.331459434149138
0.3300761590194329
0.3282556213175926
)
;

boundaryField
{
    back
    {
        type            empty;
    }
    inlet
    {
        type            calculated;
        value           nonuniform List<scalar> 
16
(
0.3733250556165154
0.3733250556165154
0.3733250556165154
0.3733250556165154
0.3733250556165154
0.3733250556165155
0.3733250556165152
0.3733250556103641
0.3733250556110772
0.3733250556165154
0.3733250556165154
0.3733250556165151
0.3733250556165154
0.3733250556165152
0.3733250556165154
0.3733250556165154
)
;
    }
    front
    {
        type            empty;
    }
    top
    {
        type            calculated;
        value           nonuniform List<scalar> 
40
(
0.3733250768438978
0.3733251953399651
0.3733252395078281
0.3733251874368168
0.3733254981797904
0.3733262466302396
0.373327612310438
0.3733279481227005
0.3733274219077534
0.3733263312664313
0.3733254158099784
0.373325089145807
0.3733250560619825
0.3733250557947203
0.3733250566278999
0.373324999064372
0.3733249039716878
0.3733250293489681
0.3733255123205341
0.3733266095724042
0.3733274875239295
0.3733297679855601
0.3733303095054712
0.3733345221244642
0.3733361241963417
0.3733425551084648
0.3733594564797551
0.3733242591346807
0.3733839679608508
0.3734052118952022
0.3733519837816329
0.3733248454473652
0.3733226341737382
0.3733216825640882
0.3733233511711627
0.3733233679617842
0.3733244396358922
0.3733249027383228
0.3733250099163694
0.3733250369178773
)
;
    }
    outlet
    {
        type            calculated;
        value           uniform 0.3733250556165154;
    }
    bottom
    {
        type            calculated;
        value           nonuniform List<scalar> 
40
(
0.373325036918442
0.3733250099160763
0.373324902739237
0.3733244396349699
0.3733226341778333
0.3733216825630352
0.3733233511685723
0.3733233679626629
0.3733248454473899
0.3733519837761558
0.3734052118916248
0.3733839679656124
0.3733361241949948
0.3733425551094228
0.3733594564803426
0.3733242591430347
0.3733345221244211
0.3733303095066883
0.3733297679844303
0.3733274875231121
0.3733249039749131
0.3733250293470113
0.3733255123182663
0.3733266095703052
0.3733249990627573
0.373325056629364
0.3733250557948626
0.3733250560617066
0.3733250891428314
0.3733254158090781
0.3733263312682603
0.3733274219091755
0.3733254981760581
0.3733262466272973
0.3733276123095196
0.3733279481218528
0.373325187434885
0.3733252395057605
0.3733251953417472
0.3733250768447832
)
;
    }
    wall
    {
        type            calculated;
        value           nonuniform List<scalar> 
104
(
0.5273637929216659
0.5128208122686662
0.5067408915958285
0.5067501086472289
0.5117750051391337
0.5106570976969803
0.5120940556036093
0.5150920243877628
0.3364025778714644
0.3359441027483689
0.3575507571383137
0.3697674848107192
0.3738391633278091
0.3751450060863786
0.3769176770437038
0.3791161519399436
0.3780243029081372
0.3754930009212304
0.3758543325201346
0.5089124820963833
0.7395825039314512
0.7279412623975842
0.7252177935068121
0.7206137234978073
0.7081233623735191
0.7103251796380867
0.7149719409952835
0.7271927305019262
0.732297767113577
0.7218494069692266
0.6724808174469573
0.6957516168095712
0.1657606947376408
0.02491119880110344
0.04532513212817495
0.06896860861455427
0.08693457719544366
0.09006311750543888
0.07957371412133135
0.07033794936093478
0.07951530699793337
0.109752439919762
0.1373398535675539
0.1754855039253388
0.08970874347614782
0.06762579364067135
0.112909390452987
0.1270012589946805
0.1336609083665866
0.1229763792284767
0.1115437050098369
0.1070665826249832
0.1070665826249716
0.1115437050097693
0.1229763792283367
0.1336609083664876
0.127001258994588
0.1129093904529975
0.0676257936407085
0.08970874347594204
0.1754855039249751
0.1373398535669687
0.1097524399185729
0.07951530699703016
0.07033794936054215
0.07957371412129596
0.09006311750545197
0.08693457719498378
0.06896860861385018
0.04532513212760435
0.02491119880068111
0.165760694737414
0.6957516168097204
0.672480817448074
0.7218494069709014
0.7322977671164337
0.7271927305044419
0.7149719409968348
0.7103251796399139
0.7081233623788183
0.7206137234970424
0.725217793501757
0.7279412623959518
0.7395825039234507
0.5089124820846284
0.3758543325163767
0.3754930009302329
0.3780243029050063
0.3791161519420045
0.37691767704378
0.3751450060872126
0.3738391633266696
0.369767484808611
0.3575507571382622
0.3359441027463425
0.3364025778697242
0.5150920243863157
0.5120940556025203
0.5106570977013347
0.511775005140284
0.5067501086452487
0.5067408915921052
0.5128208122521565
0.5273637929148959
)
;
    }
}


// ************************************************************************* //
