/*--------------------------------*- C++ -*----------------------------------*\
  =========                 |
  \\      /  F ield         | OpenFOAM: The Open Source CFD Toolbox
   \\    /   O peration     | Website:  https://openfoam.org
    \\  /    A nd           | Version:  11
     \\/     M anipulation  |
\*---------------------------------------------------------------------------*/
FoamFile
{
    format      ascii;
    class       volScalarField;
    location    "15.2";
    object      p;
}
// * * * * * * * * * * * * * * * * * * * * * * * * * * * * * * * * * * * * * //

dimensions      [0 2 -2 0 0 0 0];

internalField   nonuniform List<scalar> 
5472
(
109.92433
108.20871
106.52266
104.83054
103.17625
101.57228
100.00546
98.547719
97.140817
95.837992
94.669337
93.587105
92.627505
91.823244
91.150586
90.676747
90.274663
90.021195
89.907658
110.29127
108.74135
107.17529
105.59087
104.05192
102.5179
101.01593
99.601897
98.233106
96.950491
95.775183
94.719086
93.753109
92.927887
92.238122
91.680395
91.23537
90.966408
90.855135
110.61418
109.21844
107.77699
106.32212
104.8676
103.41891
102.0021
100.60431
99.275426
98.034737
96.858468
95.810805
94.847953
94.002681
93.285655
92.70161
92.243282
91.926154
91.796497
110.88957
109.6122
108.29393
106.96985
105.64231
104.29216
102.92516
101.56899
100.29302
99.059624
97.906727
96.864224
95.891176
95.043775
94.30508
93.710367
93.228253
92.907636
92.722202
111.07846
109.89632
108.7266
107.5478
106.31952
105.04877
103.76213
102.4847
101.23522
100.03564
98.916959
97.878418
96.915816
96.047659
95.309597
94.684208
94.187038
93.845833
93.622569
111.21418
110.1583
109.10644
108.04864
106.91146
105.73025
104.53141
103.30813
102.12642
100.9755
99.871012
98.842187
97.896161
97.033474
96.276511
95.641158
95.170165
94.763096
94.526318
111.2747
110.35493
109.43071
108.45236
107.42453
106.34616
105.2124
104.08149
102.94179
101.82164
100.76617
99.758078
98.826483
97.957005
97.205543
96.556631
96.024231
95.653762
95.391089
111.32501
110.50838
109.66468
108.78818
107.86462
106.88245
105.85509
104.77768
103.68077
102.6371
101.61547
100.63318
99.714214
98.853077
98.110847
97.455827
96.943325
96.522659
96.227758
111.33588
110.60219
109.86218
109.07389
108.231
107.33676
106.37975
105.38244
104.37703
103.37807
102.38432
101.43513
100.52913
99.699027
98.947697
98.301866
97.774071
97.347112
97.052223
111.32313
110.65259
109.97922
109.29595
108.55725
107.74046
106.85716
105.93707
104.99255
104.04924
103.11852
102.21442
101.32594
100.50793
99.759035
99.121703
98.582406
98.15858
97.835883
111.24994
110.66218
110.08123
109.47058
108.80272
108.07048
107.26869
106.41611
105.53774
104.6513
103.77237
102.90012
102.0516
101.25794
100.52973
99.898303
99.356007
98.931319
98.584962
111.16493
110.66151
110.16295
109.60921
109.00838
108.34846
107.62734
106.86288
106.05333
105.21922
104.38475
103.54519
102.72215
101.94367
101.24036
100.61644
100.08873
99.652256
99.299024
111.07979
110.64638
110.19745
109.70869
109.17339
108.57019
107.9078
107.20194
106.47305
105.70834
104.93029
104.14323
103.35953
102.61128
101.91915
101.29058
100.77504
100.32859
99.976476
110.97322
110.60246
110.20569
109.78636
109.31956
108.78593
108.1855
107.53753
106.85638
106.1335
105.40295
104.6555
103.90993
103.20369
102.54486
101.94282
101.42703
100.97544
100.61696
110.85724
110.52812
110.18866
109.81833
109.39515
108.91968
108.38581
107.81206
107.19928
106.54288
105.85838
105.14582
104.43277
103.75325
103.10897
102.52515
102.02204
101.57333
101.21188
110.77247
110.49073
110.20132
109.87523
109.49121
109.05447
108.55428
108.0213
107.46273
106.872
106.23877
105.57259
104.90091
104.25862
103.63865
103.07534
102.57659
102.13213
101.76948
110.63238
110.38952
110.14419
109.87483
109.55225
109.16509
108.72319
108.24096
107.72224
107.16968
106.57123
105.94702
105.31345
104.70751
104.12316
103.5759
103.08432
102.64815
102.28755
110.55834
110.3481
110.13011
109.87513
109.57404
109.2251
108.83596
108.40693
107.94594
107.43758
106.8836
106.29445
105.68927
105.10062
104.53555
104.01815
103.53912
103.11402
102.75458
110.45961
110.29347
110.11096
109.89327
109.62621
109.30316
108.93629
108.54173
108.11819
107.65181
107.14395
106.5965
106.04
105.491
104.94602
104.43477
103.96351
103.54743
103.18994
110.38433
110.23687
110.07569
109.88625
109.65428
109.36648
109.03936
108.68298
108.28532
107.84907
107.36741
106.85272
106.31626
105.77479
105.27241
104.78557
104.32891
103.92438
103.57079
110.36145
110.22704
110.07753
109.89753
109.67725
109.41132
109.11546
108.79471
108.43697
108.0369
107.58714
107.10863
106.61887
106.11351
105.6067
105.12596
104.67619
104.27608
103.92932
110.30973
110.2007
110.07778
109.92259
109.72497
109.48062
109.20125
108.89332
108.55851
108.18375
107.75637
107.29162
106.80266
106.32439
105.85138
105.38588
104.94894
104.55423
104.20467
110.30345
110.19838
110.08272
109.9436
109.76578
109.54698
109.29701
109.01338
108.69555
108.34426
107.96037
107.548
107.09743
106.61516
106.14133
105.67684
105.24089
104.84467
104.49348
110.30065
110.21447
110.11279
109.9847
109.82165
109.61813
109.38221
109.11207
108.80539
108.4534
108.05117
107.61889
107.17739
106.73453
106.28175
105.83742
105.41401
105.02024
104.67752
110.31217
110.23619
110.14698
110.03902
109.90047
109.72365
109.51032
109.26817
109.00052
108.6962
108.35054
107.95317
107.50431
107.0311
106.55254
106.08927
105.64849
105.24413
104.88348
110.33509
110.27414
110.19094
110.08926
109.95863
109.79216
109.58295
109.33203
109.04103
108.71177
108.34695
107.94972
107.52825
107.07467
106.612
106.1589
105.72681
105.33489
104.97837
110.35685
110.33435
110.28638
110.21296
110.11735
109.9939
109.83349
109.63219
109.38546
109.0941
108.75845
108.36757
107.90703
107.39834
106.87118
106.35989
105.90114
105.47353
105.08628
89.92937
90.122344
90.406376
90.809251
91.287196
91.854724
92.500012
93.159247
93.833165
94.567081
95.272167
96.019331
96.725454
97.420726
98.034206
98.566577
98.993505
99.259107
99.307368
90.856637
91.026514
91.30163
91.696326
92.179262
92.764464
93.434389
94.091544
94.810755
95.519773
96.197153
96.891006
97.476188
98.026674
98.464724
98.800591
98.973598
98.966496
98.768597
91.765007
91.906994
92.166795
92.561521
93.061937
93.665548
94.332953
95.018441
95.757058
96.426673
97.106499
97.713417
98.214339
98.646636
98.944233
99.108569
99.114476
98.884593
98.48573
92.667279
92.770285
93.011975
93.411921
93.916571
94.525454
95.184637
95.883075
96.592248
97.225374
97.856943
98.35851
98.782497
99.101294
99.278767
99.333985
99.195052
98.85334
98.383442
93.544197
93.596453
93.858164
94.244522
94.754277
95.356241
96.006823
96.686068
97.337537
97.919387
98.459885
98.88019
99.22855
99.44904
99.536471
99.51597
99.325669
99.011457
98.62919
94.397049
94.442791
94.686709
95.050587
95.564409
96.148039
96.778922
97.42151
98.015911
98.547912
99.021588
99.380485
99.652707
99.816394
99.856672
99.827601
99.691609
99.4873
99.283859
95.224927
95.274916
95.470488
95.832991
96.327777
96.892275
97.508174
98.10176
98.646613
99.142685
99.545829
99.8604
100.09681
100.23558
100.30868
100.32799
100.31288
100.29185
100.27953
96.043701
96.061023
96.228802
96.594544
97.054738
97.616123
98.186469
98.740509
99.255167
99.708016
100.07334
100.36514
100.59096
100.75823
100.88709
101.01149
101.15163
101.29358
101.47151
96.835023
96.826791
96.970646
97.312652
97.749662
98.295323
98.820225
99.360141
99.833545
100.25171
100.59765
100.89386
101.13679
101.35556
101.582
101.81525
102.07818
102.36809
102.67523
97.596188
97.547853
97.669722
97.999244
98.423396
98.937074
99.440656
99.943342
100.39004
100.7943
101.13312
101.45755
101.7345
102.03098
102.33702
102.65979
103.03078
103.4002
103.75236
98.33836
98.226175
98.353361
98.651191
99.065388
99.545858
100.02634
100.5024
100.9329
101.33386
101.69243
102.04636
102.37507
102.7325
103.088
103.49809
103.90417
104.29353
104.65489
99.02573
98.889614
99.02621
99.271734
99.680453
100.1186
100.58311
101.04494
101.47029
101.8791
102.25833
102.63575
103.01234
103.41802
103.82021
104.25571
104.652
105.0409
105.37045
99.668594
99.538283
99.633379
99.855759
100.25841
100.65461
101.12205
101.56704
101.99599
102.40967
102.81026
103.22062
103.62905
104.05139
104.47466
104.8925
105.26476
105.59617
105.83772
100.28853
100.15716
100.20008
100.4263
100.78526
101.17074
101.6395
102.06404
102.5098
102.92788
103.34737
103.77199
104.1833
104.61097
105.02261
105.39687
105.70428
105.93957
106.08772
100.87339
100.7221
100.7313
100.96114
101.27688
101.67616
102.11889
102.54317
102.9951
103.40555
103.84475
104.26643
104.68137
105.08297
105.44607
105.7521
105.98493
106.17226
106.27314
101.42214
101.23998
101.23383
101.44825
101.73824
102.14826
102.56693
103.00169
103.43328
103.8528
104.29243
104.68554
105.08809
105.44066
105.73734
105.96916
106.15289
106.30469
106.40507
101.93545
101.72607
101.71317
101.89754
102.18323
102.58379
102.97735
103.41683
103.84307
104.26634
104.66612
105.04084
105.41114
105.69132
105.93347
106.09952
106.23848
106.355
106.41568
102.39485
102.16376
102.14301
102.306
102.59745
102.9716
103.35247
103.78018
104.1822
104.58912
104.96308
105.31462
105.6092
105.82927
106.01692
106.11674
106.19435
106.21296
106.1554
102.82418
102.58328
102.55715
102.6852
102.96838
103.31455
103.71253
104.12674
104.50362
104.87753
105.21079
105.51016
105.72591
105.88941
105.98572
106.00085
105.96622
105.80603
105.60165
103.18987
102.94518
102.89305
103.01292
103.28647
103.61456
103.99165
104.35996
104.72858
105.07111
105.35632
105.58478
105.72483
105.81246
105.79978
105.71171
105.53734
105.278
104.98262
103.54723
103.28517
103.20507
103.32583
103.58301
103.91449
104.28691
104.62687
104.95668
105.22159
105.44229
105.59447
105.65519
105.64409
105.52869
105.3437
105.09051
104.82967
104.57214
103.82322
103.52852
103.46335
103.56898
103.80206
104.10941
104.42857
104.7479
105.03909
105.26916
105.4385
105.51279
105.49768
105.3945
105.21941
104.9937
104.75382
104.55028
104.36107
104.08993
103.79801
103.70481
103.80396
104.05003
104.36391
104.67397
104.93694
105.14992
105.30965
105.39906
105.38889
105.2972
105.12078
104.9093
104.6931
104.48879
104.30309
104.10313
104.28595
103.97341
103.86217
103.94854
104.16586
104.43409
104.70709
104.95792
105.15622
105.27803
105.30066
105.24243
105.1054
104.91581
104.72196
104.51661
104.29243
104.075
103.83243
104.45734
104.13377
104.01651
104.13305
104.38152
104.66729
104.90982
105.09241
105.20089
105.23584
105.17568
105.02091
104.8042
104.57037
104.3432
104.10834
103.87377
103.60936
103.26577
104.56827
104.2073
104.07109
104.17686
104.4083
104.65931
104.88014
105.04914
105.15228
105.16348
105.08808
104.94589
104.74558
104.54346
104.3031
103.99602
103.60621
103.1212
102.54784
104.62008
104.23662
104.1364
104.328
104.61427
104.85416
105.03359
105.13115
105.13059
105.02518
104.81955
104.54553
104.23008
103.85963
103.43757
102.96301
102.43395
101.88597
101.35619
99.204278
98.839485
98.093271
96.934064
95.126732
92.48279
88.773747
83.487942
76.757454
68.189437
57.794949
46.059719
32.767834
19.726589
10.209742
5.2837387
6.374906
13.853269
25.645785
98.402858
97.708051
96.698937
95.266013
93.221208
90.467331
86.690383
81.898897
75.695764
68.108623
59.206473
49.122082
38.436431
28.277378
20.388855
15.974213
16.188141
20.985059
29.11218
97.854092
96.967135
95.807546
94.280391
92.269385
89.685877
86.442482
82.507852
77.614807
71.896555
65.241289
57.993606
50.519854
43.411393
37.828142
34.600793
34.521473
37.680539
43.66828
97.6888
96.815259
95.744499
94.405045
92.657398
90.536384
88.044477
85.014911
81.575094
77.617495
73.225612
68.499189
63.649619
59.269623
55.737824
53.661472
53.306908
55.011491
58.783311
98.051451
97.359678
96.576602
95.512033
94.16489
92.615902
90.767795
88.619404
86.330944
83.697303
80.863897
77.897195
75.099383
72.455675
70.298662
68.821819
68.222958
69.123328
71.435945
98.941693
98.533219
97.988654
97.182388
96.217546
95.109868
93.807463
92.406354
90.880767
89.211701
87.459035
85.516025
83.562137
81.738175
80.191698
79.144095
78.993814
79.440637
80.491687
100.19225
100.0251
99.651967
99.071583
98.398795
97.641366
96.748416
95.870169
94.849505
93.722574
92.373104
90.881912
89.582199
88.247881
86.914314
85.914906
85.305561
85.419656
86.359198
101.62652
101.59463
101.33397
100.90971
100.4516
99.896657
99.324955
98.704423
97.889323
97.037231
95.949655
94.810725
93.588751
92.206865
90.994947
89.996975
89.005346
88.185094
87.848451
102.93548
102.97666
102.80725
102.49264
102.16631
101.80307
101.42927
100.93925
100.3617
99.608346
98.588531
97.486333
96.18874
94.823132
93.316298
91.480325
89.519155
88.002086
86.97555
104.0374
104.14238
104.02175
103.83032
103.62815
103.39759
103.15926
102.81095
102.27895
101.55456
100.70305
99.55739
98.139578
96.450102
94.223714
91.432484
88.611975
86.168021
83.85648
104.96576
105.0837
105.01049
104.90291
104.77198
104.65922
104.47155
104.14717
103.68444
103.08634
102.14648
100.69712
98.947262
96.593241
93.3126
89.286396
85.058904
80.546201
75.779293
105.64264
105.7247
105.68075
105.6022
105.4995
105.38322
105.1685
104.84712
104.38446
103.59707
102.40844
100.6765
98.490728
95.341439
90.805254
85.030125
78.096001
69.611264
59.953631
106.03538
106.08475
106.05959
105.9746
105.8589
105.70245
105.43873
105.03386
104.45245
103.59696
102.39043
100.68273
98.534172
95.419746
90.889708
84.942968
77.495346
68.234491
57.104736
106.25225
106.33009
106.32565
106.24736
106.16879
106.02982
105.77737
105.42356
104.99279
104.46465
103.26854
101.75872
100.21024
97.693861
94.039457
89.176882
83.087572
75.847961
67.832964
106.47686
106.59082
106.60528
106.59468
106.59662
106.5254
106.40601
106.29813
105.89
105.05679
104.37098
103.26689
101.52716
99.228644
96.223844
92.551475
88.29323
83.725199
79.231143
106.60196
106.70025
106.72897
106.78358
106.78371
106.68175
106.45017
105.92746
105.56115
105.43111
104.39238
102.59096
100.45559
98.001439
95.441262
92.797888
90.201693
87.837851
86.052913
106.5333
106.59211
106.67289
106.74487
106.72061
106.60105
106.16468
105.61209
104.20183
102.39317
100.47092
98.203181
95.804042
93.440912
91.33325
89.62743
88.419841
87.603641
87.33398
106.0918
106.12147
106.25168
106.31019
106.26959
106.10221
105.57776
104.87162
102.8564
99.012338
94.635192
90.582193
87.234956
84.878675
83.37325
82.860099
83.41183
84.679191
86.173272
105.31793
105.33409
105.38376
105.36767
105.229
105.01024
104.63802
103.92665
102.31723
99.527653
95.270558
89.311145
82.7678
76.502121
71.356287
67.891508
67.181131
69.719168
74.411704
104.62552
104.56726
104.4973
104.33166
103.99238
103.51854
102.81855
101.75317
99.932135
96.871907
92.263919
86.433544
80.071501
74.236755
70.009697
68.014833
68.321287
70.782343
75.390781
104.3543
104.29355
104.24466
104.09568
103.84934
103.53681
103.08529
102.44299
101.44419
99.952491
97.754165
94.884585
91.528824
87.952885
84.631736
82.18867
80.983966
81.171173
82.776154
104.28655
104.30496
104.34161
104.31218
104.28148
104.2656
104.19483
104.06344
103.78703
103.40546
102.72983
101.66765
100.1661
98.300075
96.423126
94.717328
92.923385
91.328681
90.703884
104.08598
104.16664
104.23834
104.31609
104.40557
104.49797
104.59867
104.71848
104.80737
104.76305
104.66784
104.18618
103.15194
102.0044
100.70995
98.976494
96.957909
95.084657
93.357797
103.74426
103.77273
103.86196
103.96802
104.07204
104.15787
104.3048
104.34538
104.41722
104.25876
103.63626
102.99222
102.65267
101.90151
100.40626
98.292783
95.942138
93.563646
91.178673
102.9648
103.02663
103.20409
103.31524
103.41265
103.50846
103.58209
103.68906
103.65351
103.82079
103.19739
102.17278
102.07951
101.38884
100.34761
98.964727
97.387578
95.714958
94.034342
101.98628
102.00946
102.13731
102.207
102.27007
102.32314
102.34754
102.38012
102.19415
102.62658
103.18238
102.30785
100.56748
99.169235
98.317382
97.854846
97.642905
97.575103
97.669718
100.84687
100.88968
100.92029
100.93476
100.97278
101.04235
101.162
101.31996
101.44301
101.13877
100.5242
100.44666
100.69615
100.87924
100.75542
100.47317
100.02908
99.676279
99.480346
38.102648
50.065033
62.306188
72.840526
80.696853
87.072805
91.660981
94.275374
95.435217
95.611009
95.226802
94.303567
93.087045
91.603034
90.023909
88.345432
86.712884
85.040194
83.33097
39.423232
51.689809
64.49407
75.964443
85.114883
91.760296
96.532466
99.611634
101.1727
101.56571
101.02165
99.928135
98.617443
96.985613
95.340564
93.590318
91.843207
90.185913
88.345228
51.993628
61.770268
71.831688
80.997868
89.643913
95.654803
100.30757
103.81059
105.67133
106.23242
105.89347
104.8394
103.4422
101.85896
100.05982
98.36521
96.584616
94.894736
93.04144
64.315823
71.032216
78.326239
85.483903
92.131534
97.766822
102.17005
106.01423
108.59214
109.37626
109.09419
108.2634
106.95065
105.47565
103.78376
102.08312
100.42605
98.757895
96.96476
74.950355
79.450024
84.660327
90.098775
95.380601
100.20765
104.20896
107.6176
109.92576
110.64491
110.57665
109.92887
108.87039
107.5237
106.04723
104.48248
103.00662
101.54487
99.911793
82.682354
85.898613
89.701636
93.857732
98.184298
102.35894
105.86643
108.61279
110.1989
110.64161
110.50358
110.01509
109.28811
108.24469
107.06023
105.75731
104.50319
103.28651
101.91694
87.758087
89.631901
92.168928
95.454442
99.135027
102.64689
105.67592
108.01702
109.38932
109.79384
109.61787
109.23886
108.7686
108.03511
107.19076
106.19624
105.20831
104.23347
103.13263
88.22157
89.453684
91.524242
94.206969
97.104723
100.072
103.10647
105.65628
107.49329
108.36689
108.71285
108.43945
108.05316
107.51827
106.92588
106.20048
105.41865
104.6814
103.80666
86.558515
86.766253
87.49985
88.999363
91.331785
94.474789
97.891856
101.19652
103.99079
105.89021
106.76981
106.95384
106.99737
106.83442
106.48901
106.01221
105.39362
104.81773
104.15761
81.606751
79.926765
79.161705
79.689916
81.516635
84.581055
88.655075
93.201351
97.311193
100.57036
102.89631
104.36681
105.04143
105.78023
105.89188
105.68284
105.26384
104.77902
104.2916
71.187202
67.608682
65.463897
65.023174
66.364068
69.762026
75.152347
81.416218
87.60487
93.13125
97.966535
101.51347
103.56026
104.77072
105.21934
105.21059
104.93987
104.52619
104.14566
50.363935
42.440398
37.195979
36.284347
40.18278
47.474083
56.865242
67.384636
78.176393
87.995282
95.594077
100.29198
102.20291
103.50049
104.07131
104.23792
104.12922
103.84156
103.58442
45.608462
34.340412
25.873282
23.981962
28.451459
37.934839
50.337713
63.238029
74.715303
84.122628
91.580694
96.381934
99.182931
100.97248
102.05717
102.59706
102.79691
102.74398
102.71401
59.756258
52.695227
48.383052
47.808098
50.83446
56.791715
64.724793
72.888152
80.558507
87.032934
91.996054
95.471414
97.910695
99.561397
100.7245
101.42436
101.76253
101.88394
101.971
75.065457
71.990629
70.808207
71.88166
74.485407
77.898014
82.099732
86.329004
90.160565
93.470634
95.97636
97.820678
99.222722
100.2018
100.91076
101.44196
101.69699
101.79864
101.82688
84.93063
84.384208
84.307611
85.055835
86.63029
88.854972
91.335987
93.815943
95.898194
97.650567
99.050339
100.04426
100.78616
101.31435
101.6676
101.96131
102.12395
102.16761
102.13133
87.82273
88.586758
89.525896
90.954381
92.805717
94.597953
96.186983
97.738416
99.064137
100.08294
100.91642
101.50502
101.93491
102.22522
102.39541
102.55541
102.61662
102.63166
102.55934
88.002801
89.872492
91.686464
93.638987
95.657424
97.473668
98.906838
100.0823
101.09587
101.8478
102.38977
102.76522
102.9946
103.11813
103.15082
103.16693
103.16544
103.09092
102.93942
79.827082
85.242053
89.845327
93.335148
96.146177
98.503084
100.34584
101.84175
102.89978
103.38595
103.65437
103.84817
103.94416
103.92693
103.82879
103.70147
103.64493
103.53938
103.32868
80.558192
85.744493
90.777214
94.839803
98.005375
100.35172
101.63479
101.90312
102.02664
102.88817
104.0247
104.40531
104.4161
104.40133
104.23541
104.06883
103.89636
103.76406
103.57583
85.417442
88.601184
91.86491
94.853222
97.322295
99.304109
100.79826
101.79634
102.4445
103.84873
104.42548
104.3436
104.47878
104.41159
104.27273
104.08922
103.86567
103.69239
103.52558
91.0083
91.979742
93.388657
94.999071
96.591845
98.090601
99.406339
100.1344
101.01403
102.68345
103.81215
103.92989
104.16216
104.0186
103.89729
103.72224
103.51872
103.30185
103.15561
91.702012
90.300674
89.544891
89.563844
90.29681
91.983625
94.894293
98.409533
101.19399
102.73989
103.17906
103.22667
103.24235
103.12343
103.03958
102.90996
102.77156
102.60942
102.50193
89.216666
87.9273
87.672843
88.676434
90.48395
92.6092
94.302422
95.939887
98.01188
99.919222
100.98924
101.46666
101.74656
101.88473
101.95962
101.98534
101.93799
101.88943
101.89956
92.561624
91.517001
91.13477
91.709815
93.301185
95.352432
97.387073
98.88935
99.93052
100.55651
100.77424
100.88686
101.03724
101.1602
101.24072
101.34316
101.39714
101.42669
101.47656
97.933317
98.35517
98.823418
99.191106
99.202597
98.749985
98.650127
99.237727
99.779514
100.16483
100.53239
100.79376
100.9421
101.01156
101.04943
101.06305
101.04494
100.99463
100.97543
99.355746
99.247409
99.267764
99.487917
99.97076
100.61579
101.00915
101.08627
101.04427
100.91756
100.84787
100.78345
100.72854
100.71734
100.72381
100.7494
100.74035
100.69154
100.62347
81.638118
79.939548
78.294245
76.661656
75.099328
73.567644
72.178493
70.872347
69.704749
68.654008
67.667598
66.888644
66.116838
65.564966
65.13502
64.829237
64.733044
64.756288
65.17483
86.492109
84.575475
82.709375
80.859895
79.065958
77.325559
75.658966
74.131078
72.663032
71.400324
70.167885
69.148752
68.233622
67.483468
66.978022
66.554717
66.41287
66.373994
66.67689
90.987154
88.916991
86.831713
84.816427
82.808107
80.903587
79.029832
77.280462
75.613911
74.0962
72.711988
71.442663
70.38767
69.458963
68.810358
68.307975
68.078191
68.040093
68.271412
94.855264
92.715287
90.519433
88.382666
86.261113
84.199405
82.218879
80.283245
78.476582
76.750033
75.200347
73.759048
72.515665
71.46173
70.640583
70.057685
69.73329
69.672722
69.875709
97.932076
95.851595
93.695345
91.527836
89.373461
87.231526
85.153538
83.122108
81.173002
79.322378
77.604718
76.041642
74.639397
73.446953
72.491392
71.798204
71.391658
71.284929
71.461683
100.21687
98.351794
96.339411
94.261425
92.136027
90.006011
87.870998
85.792713
83.750571
81.795755
79.955798
78.249513
76.726803
75.403981
74.325098
73.535433
73.04493
72.889239
73.047856
101.76222
100.17095
98.408836
96.525136
94.513203
92.457838
90.344462
88.242404
86.159838
84.128526
82.200299
80.398822
78.761446
77.333572
76.137019
75.234918
74.674218
74.466806
74.599166
102.73554
101.44972
99.947043
98.306669
96.490514
94.563871
92.547635
90.486493
88.401618
86.344183
84.348074
82.459502
80.726396
79.189534
77.924233
76.925031
76.286863
76.024979
76.138602
103.30095
102.29171
101.06275
99.658044
98.062603
96.318206
94.431729
92.460763
90.43324
88.37152
86.362818
84.412654
82.624527
80.995548
79.648009
78.571971
77.849508
77.547398
77.635837
103.60832
102.81081
101.82635
100.65623
99.284257
97.7387
96.033368
94.174581
92.254693
90.241485
88.244937
86.268876
84.428527
82.736785
81.304325
80.182283
79.398024
79.032803
79.098575
103.69531
103.09476
102.31279
101.34572
100.20342
98.850808
97.346131
95.638312
93.828135
91.908066
89.954918
87.995319
86.119663
84.396684
82.893603
81.715828
80.897338
80.472318
80.515689
103.40901
103.07038
102.53826
101.77016
100.85457
99.706175
98.390526
96.865723
95.192808
93.385711
91.497796
89.5891
87.715306
85.974583
84.42032
83.180031
82.334269
81.892061
81.878163
102.81689
102.72362
102.46733
101.94152
101.25119
100.32054
99.19482
97.860154
96.343406
94.670207
92.873872
91.035399
89.182537
87.44168
85.873839
84.583349
83.676428
83.231882
83.192048
102.23403
102.28016
102.19343
101.89776
101.41458
100.71018
99.782033
98.636959
97.287138
95.764114
94.080237
92.330201
90.534914
88.809878
87.237248
85.931047
84.978707
84.508163
84.462513
101.95011
101.96884
101.91987
101.76502
101.43463
100.91442
100.18493
99.234663
98.053291
96.687342
95.135555
93.480482
91.757575
90.062487
88.501929
87.191022
86.206958
85.69707
85.656032
102.06339
101.91792
101.809
101.68011
101.42152
101.01747
100.44418
99.670999
98.654388
97.439102
96.031981
94.481766
92.847849
91.207545
89.667428
88.366434
87.399533
86.836916
86.789163
102.34456
102.10075
101.90416
101.72043
101.4578
101.10878
100.63697
100.00545
99.144208
98.071687
96.807461
95.369825
93.82541
92.252565
90.748841
89.434238
88.484412
87.915505
87.833483
102.66221
102.4037
102.14412
101.88823
101.58148
101.23454
100.80191
100.26525
99.530401
98.589294
97.449444
96.126319
94.675
93.17137
91.730742
90.42618
89.461533
88.922721
88.826883
102.9671
102.72579
102.44806
102.15505
101.80805
101.43766
101.01534
100.51444
99.868414
99.047192
98.016866
96.804077
95.452261
94.01188
92.620997
91.383388
90.391848
89.839169
89.738145
103.23666
103.01642
102.73227
102.42834
102.07519
101.69496
101.26841
100.75297
100.17024
99.420214
98.494067
97.370169
96.109212
94.741129
93.371061
92.148407
91.19437
90.648143
90.564464
103.33558
103.20503
102.96923
102.67565
102.35755
101.98963
101.57377
101.05941
100.48819
99.799312
98.944159
97.89706
96.713391
95.442282
94.146256
92.96616
92.033606
91.461596
91.350875
103.1823
103.18746
103.07429
102.87093
102.60575
102.25466
101.85876
101.37915
100.81083
100.14744
99.311046
98.337882
97.21013
95.972604
94.702426
93.506911
92.581108
92.052858
91.969034
102.70549
102.85741
102.92387
102.85751
102.70532
102.45987
102.11179
101.68749
101.15936
100.5301
99.7467
98.826698
97.759395
96.580269
95.388564
94.272068
93.341764
92.770851
92.637148
102.16811
102.41953
102.64977
102.76707
102.73869
102.6037
102.34323
101.96813
101.484
100.86906
100.11649
99.212862
98.155451
96.967843
95.714744
94.557288
93.643595
93.111567
93.030875
101.70144
101.96122
102.18749
102.39808
102.51646
102.51609
102.39704
102.14607
101.7631
101.24093
100.57331
99.741401
98.738364
97.610854
96.429936
95.280015
94.323379
93.700048
93.545768
101.23376
101.59825
101.93752
102.21814
102.43394
102.54672
102.51891
102.34248
102.0108
101.51976
100.86683
100.04487
99.02453
97.818889
96.543616
95.369392
94.414639
93.834621
93.71354
100.80783
101.03344
101.32098
101.62658
101.92235
102.1752
102.34893
102.3897
102.24534
101.93007
101.44111
100.7572
99.846602
98.7072
97.387565
96.04836
94.912916
94.166998
93.958242
65.650254
66.208813
66.945697
67.891541
69.039257
70.324503
71.817652
73.405958
75.155546
77.017902
79.002215
81.079006
83.237346
85.493556
87.809268
90.167048
92.554063
94.944455
97.336693
67.104979
67.751225
68.576572
69.532273
70.682216
71.962221
73.447274
75.0388
76.774125
78.624496
80.568626
82.5962
84.700891
86.870376
89.09005
91.335594
93.589513
95.834151
98.05387
68.74814
69.346477
70.174993
71.146186
72.304568
73.594083
75.060725
76.65816
78.375214
80.212522
82.126791
84.109592
86.154054
88.238377
90.351663
92.479911
94.595397
96.695331
98.733472
70.354707
70.959837
71.774542
72.750843
73.905615
75.204391
76.651136
78.242367
79.952919
81.760188
83.640249
85.565142
87.530974
89.531501
91.541502
93.54583
95.520932
97.480174
99.353926
71.915636
72.537576
73.354575
74.324467
75.468223
76.767454
78.212476
79.781983
81.470149
83.24712
85.07765
86.946268
88.823585
90.726051
92.639898
94.538791
96.384305
98.179121
99.904821
73.520319
74.117378
74.920126
75.887044
77.029482
78.313736
79.735526
81.284185
82.944159
84.68478
86.450972
88.264738
90.069968
91.874031
93.66719
95.426492
97.150269
98.811547
100.40401
75.049684
75.659447
76.452867
77.409199
78.53475
79.802052
81.198613
82.728096
84.342872
86.039954
87.7665
89.510245
91.224538
92.919419
94.593851
96.236541
97.85554
99.377387
100.81494
76.588252
77.171706
77.954746
78.901032
80.003421
81.265497
82.635307
84.132714
85.709578
87.350977
89.010207
90.658986
92.28814
93.889064
95.462857
96.98216
98.465991
99.864217
101.1871
78.071551
78.647112
79.411476
80.35942
81.434238
82.671972
84.016419
85.463214
86.99084
88.570985
90.163357
91.731583
93.284746
94.780444
96.240615
97.659674
99.033381
100.31334
101.50045
79.51455
80.090072
80.833468
81.757938
82.815937
84.010364
85.324796
86.731815
88.214628
89.731248
91.26756
92.756936
94.197987
95.58261
96.954922
98.275052
99.516486
100.69258
101.79499
80.928618
81.481772
82.2073
83.095364
84.143702
85.31113
86.595278
87.949153
89.372634
90.818366
92.263497
93.664245
95.025236
96.33768
97.596122
98.812837
99.964516
101.05616
102.04907
82.283017
82.811359
83.52184
84.392238
85.421521
86.54685
87.784095
89.086648
90.43805
91.820256
93.19381
94.529269
95.802494
97.024902
98.179424
99.299949
100.35789
101.34197
102.25314
83.588164
84.099966
84.792474
85.639431
86.621766
87.713394
88.897768
90.153954
91.451692
92.773067
94.064034
95.312685
96.503938
97.645562
98.719566
99.742021
100.71004
101.61993
102.44782
84.836635
85.338071
85.99224
86.803153
87.751137
88.813455
89.955786
91.167325
92.399819
93.64767
94.856078
96.021579
97.138045
98.192515
99.187282
100.13172
101.02345
101.84135
102.59821
86.009691
86.476514
87.117883
87.915585
88.840069
89.86618
90.962252
92.105617
93.264813
94.430805
95.572976
96.672805
97.726807
98.704752
99.62537
100.49374
101.31622
102.06399
102.73781
87.135969
87.592975
88.204958
88.967303
89.849955
90.829263
91.874496
92.953651
94.054894
95.1548
96.243931
97.28044
98.26446
99.166144
100.00634
100.80533
101.55792
102.24371
102.85039
88.17929
88.613971
89.206635
89.931108
90.78603
91.721181
92.729036
93.761829
94.806955
95.843401
96.863823
97.829583
98.733012
99.570382
100.35345
101.09491
101.78592
102.41732
102.97908
89.161656
89.5772
90.154515
90.847542
91.662183
92.56215
93.524078
94.504887
95.482998
96.451121
97.404255
98.311992
99.159705
99.950216
100.68189
101.36511
101.99864
102.57673
103.08797
90.059276
90.460832
91.003607
91.675074
92.453264
93.318274
94.233582
95.162495
96.092811
97.010107
97.909804
98.769998
99.56682
100.30554
100.9801
101.60525
102.19143
102.73104
103.20233
90.882773
91.270862
91.790771
92.440315
93.19559
94.024349
94.894938
95.777223
96.660914
97.53418
98.381364
99.187831
99.933055
100.61812
101.24738
101.83302
102.37864
102.87452
103.30423
91.643654
92.017108
92.529372
93.158414
93.869968
94.647801
95.476268
96.326191
97.165816
98.000356
98.80232
99.560961
100.2642
100.90789
101.50513
102.06348
102.57387
103.02227
103.41337
92.262903
92.632402
93.118034
93.69804