/*--------------------------------*- C++ -*----------------------------------*\
  =========                 |
  \\      /  F ield         | OpenFOAM: The Open Source CFD Toolbox
   \\    /   O peration     | Website:  https://openfoam.org
    \\  /    A nd           | Version:  11
     \\/     M anipulation  |
\*---------------------------------------------------------------------------*/
FoamFile
{
    format      ascii;
    class       volScalarField;
    location    "7.2";
    object      p;
}
// * * * * * * * * * * * * * * * * * * * * * * * * * * * * * * * * * * * * * //

dimensions      [0 2 -2 0 0 0 0];

internalField   nonuniform List<scalar> 
4455
(
5756.5725
5766.6001
5787.474
5818.5241
5861.3488
5916.2166
5994.0092
6095.6362
6243.5911
5723.4758
5737.1074
5760.8621
5795.3727
5840.6545
5897.0929
5980.1779
6089.8124
6283.9931
5686.6721
5703.6846
5731.6217
5769.6701
5816.3682
5873.9065
5959.5028
6073.4461
6308.0275
5646.6767
5668.0081
5700.5996
5741.2559
5788.3688
5847.6754
5934.018
6053.4224
6329.9945
5604.6794
5631.4423
5667.5506
5710.2746
5758.1251
5818.2098
5904.529
6028.8237
6355.4713
5562.316
5593.7731
5633.0253
5677.791
5725.7374
5786.7716
5872.6439
5997.1143
6379.3573
5520.2124
5555.8254
5598.0245
5643.726
5691.546
5753.7436
5838.7379
5959.4014
6399.4398
5479.4266
5518.2704
5562.7041
5608.7113
5656.4436
5719.9212
5803.1965
5913.7065
6414.1234
5440.6536
5481.7504
5527.1612
5573.5365
5621.2378
5685.2568
5767.8702
5861.8569
6413.4831
5404.2876
5370.8812
5341.0552
5314.9753
5292.4273
5273.5682
5258.3351
5247.2612
5241.503
5446.4776
5412.6022
5380.6778
5351.0212
5324.2121
5300.3034
5279.3816
5261.0511
5244.8009
5491.6671
5456.4176
5422.5443
5390.6298
5360.506
5331.9342
5305.8418
5282.4746
5262.4408
5537.6498
5500.9399
5464.9881
5430.1774
5396.267
5363.5176
5331.6162
5299.7055
5265.7801
5584.4353
5545.635
5507.2025
5469.376
5432.8009
5397.6206
5365.9346
5339.0643
5315.1554
5647.9718
5606.7216
5564.5723
5521.7749
5478.2668
5434.2029
5388.8116
5342.4748
5290.2771
5730.241
5688.0671
5645.6231
5603.666
5563.6382
5527.5297
5494.3418
5464.5714
5433.339
5799.1877
5720.8891
5638.9642
5557.5962
5477.8861
5401.0868
5331.3496
5268.5757
5208.0204
6389.6606
6262.1914
6045.5729
5871.8137
5721.3858
5573.5624
5427.0957
5287.7903
5162.6084
5241.5547
5239.7613
5235.0379
5228.8351
5220.8663
5211.9811
5200.8442
5188.6529
5173.8397
5234.2525
5225.7444
5216.1318
5204.6484
5190.7515
5174.7305
5156.6812
5136.8974
5115.3163
5250.9615
5239.416
5225.1924
5209.343
5192.549
5174.7743
5155.5478
5134.5734
5111.6147
5241.3788
5224.4853
5208.6088
5191.8864
5173.3766
5152.9796
5130.8467
5107.3231
5082.5495
5298.504
5280.5605
5258.5067
5234.1248
5209.3217
5184.6709
5158.9926
5132.1351
5103.8333
5251.522
5225.3982
5203.428
5181.2521
5156.8424
5130.9006
5103.6519
5074.7785
5044.9253
5399.7462
5363.1781
5321.7854
5279.5421
5239.2974
5200.8794
5163.2946
5126.9268
5092.9391
5159.8604
5117.0816
5070.39
5021.6892
4972.219
4922.5157
4875.2785
4832.0773
4794.8285
5054.9938
4968.8793
4891.6072
4825.1201
4775.3512
4735.196
4690.3494
4642.9832
4611.5419
4608.6608
4603.9641
4615.9627
4660.5865
4737.3892
4837.6287
4948.8219
5072.4954
5201.1637
4766.9404
4743.0574
4721.8528
4705.6122
4700.0759
4705.4059
4722.8852
4753.286
4792.0804
5062.1994
5033.9879
5008.2113
4985.7834
4967.2826
4952.9552
4942.3255
4935.57
4933.4548
5015.7773
4986.5375
4956.0407
4925.1012
4894.299
4864.7878
4837.4034
4812.0706
4788.8503
5073.8047
5043.8576
5013.272
4982.6122
4951.3564
4919.2392
4887.3609
4854.8561
4822.2744
5056.759
5028.933
4999.3386
4968.2331
4934.5674
4900.304
4865.3144
4828.973
4791.3314
5087.0857
5061.247
5033.9186
5005.0744
4974.306
4941.5204
4907.321
4871.2703
4832.5214
5092.0416
5066.8143
5039.5753
5010.1916
4978.624
4944.8755
4909.2261
4871.0953
4830.3927
5154.6238
5130.5582
5106.053
5081.3068
5055.9964
5028.8439
4999.0458
4966.191
4929.9362
4890.2754
4847.1303
4801.158
4751.3775
4698.6573
4641.8587
4580.4648
4514.4481
4443.1701
4787.9357
4741.6586
4693.1456
4641.8605
4587.0231
4529.2702
4467.3812
4401.7173
4331.9067
4793.4056
4751.0777
4705.5519
4659.3753
4608.7423
4555.6514
4500.8354
4440.7777
4378.5496
4751.8196
4711.6482
4668.7502
4625.1466
4578.8849
4530.6152
4480.4575
4427.1518
4370.2258
4790.3293
4757.738
4724.7587
4692.164
4657.7797
4622.9625
4587.6863
4549.8711
4510.9524
4768.5338
4750.7896
4734.5937
4718.798
4703.3964
4688.1747
4673.6712
4658.9793
4643.2114
4935.5061
4940.6364
4948.8837
4959.7439
4972.7766
4988.3337
5006.7347
5027.4201
5048.656
4839.8124
4895.2246
4956.0424
5021.1849
5090.7282
5165.3034
5242.7313
5319.2896
5395.6826
5327.3823
5454.8915
5584.1817
5717.1255
5853.1353
5989.2191
6128.4779
6269.8072
6413.8379
6559.5197
5472.3918
5067.6456
4624.8879
4470.3588
4310.5198
4311.5798
4257.0527
4366.5523
6705.8147
5548.5606
5084.1694
4602.1896
4424.4135
4245.7594
4239.0259
4177.4336
4284.0024
6851.2051
5621.5943
5097.5759
4576.7295
4375.8383
4175.7967
4164.0715
4092.2114
4195.063
6997.6704
5689.6683
5106.7734
4544.4164
4322.5158
4102.4488
4081.7937
4000.8509
4099.0928
7137.4611
5750.3434
5109.1076
4503.9713
4262.2706
4020.3811
3992.5976
3902.9695
3995.7514
7267.2292
5801.7858
5103.581
4457.0464
4196.1978
3929.311
3897.8188
3798.4872
3884.5744
7381.5224
5840.0906
5087.7753
4398.8638
4121.873
3832.1432
3796.1868
3686.6421
3765.7058
7476.1997
5861.3241
5059.5262
4328.6855
4039.6375
3725.5947
3685.0647
3567.0977
3638.3267
7518.9831
5859.4561
5014.2889
4245.7547
3946.1836
3609.5318
3567.1289
3439.8793
3502.7421
3362.3771
3305.1706
3435.7453
3482.0178
3836.302
4144.244
4942.8792
5821.9239
7482.7258
3221.8146
3160.6935
3290.1959
3343.9783
3703.4078
4016.3439
4823.7732
5708.9084
7247.176
3066.8323
3007.3495
3132.3594
3191.8585
3548.913
3859.8277
4657.2711
5527.3427
6957.379
2888.2247
2842.8676
2961.1134
3027.527
3374.7023
3679.8705
4461.5812
5313.2396
6685.6874
2688.7214
2666.9284
2778.1553
2847.063
3182.0065
3480.3786
4244.3314
5083.6061
6418.0807
2480.1436
2480.76
2585.4676
2654.475
2976.2293
3265.3065
4011.061
4841.9776
6147.7197
2264.8186
2283.4197
2382.4133
2448.57
2751.8599
3034.8702
3761.2884
4584.665
5869.1988
2045.2628
2078.1406
2167.336
2232.2087
2516.7437
2789.3875
3494.8304
4310.6168
5579.4623
1817.7523
1865.0976
1944.9952
2005.699
2264.945
2526.1965
3208.4639
4017.667
5285.5823
4979.6146
3705.5229
2902.5806
2248.362
2003.1269
1767.8305
1715.0098
1645.4058
1585.4441
4669.6492
3373.2861
2574.976
1952.0366
1727.1744
1522.1277
1476.9505
1420.7824
1348.6541
4346.3984
3020.6968
2229.3463
1642.4151
1439.9224
1267.7489
1233.2799
1191.6674
1111.6581
4018.1686
2646.4791
1863.4557
1316.0515
1146.9558
1006.6654
989.34598
959.87126
871.27918
3670.2918
2249.5814
1479.589
978.56127
842.60093
742.05717
742.50603
728.44191
631.10773
3312.1858
1827.3536
1076.8731
627.80202
535.29539
474.97966
496.24078
499.52225
397.18035
2925.1824
1377.7604
659.70286
269.32481
225.19006
210.87656
255.53965
276.58616
174.58286
2520.4275
900.83172
224.74117
-92.913384
-82.840015
-51.945042
21.365152
61.420991
-33.670546
2082.6224
393.44421
-220.00199
-453.94635
-385.01141
-304.63939
-201.77605
-142.87872
-225.9095
-396.74399
-332.33446
-415.36247
-551.52696
-689.19515
-825.31872
-698.55804
-180.26991
1573.6601
-547.10943
-504.61676
-612.2267
-786.54626
-982.80598
-1197.3018
-1198.8681
-839.17797
927.93792
-669.91283
-656.92755
-787.28741
-999.71513
-1258.81
-1550.6761
-1690.173
-1531.5612
210.11008
-759.02099
-783.4094
-936.20263
-1187.4229
-1504.7371
-1877.1377
-2154.7754
-2230.7246
-594.00383
-820.80997
-876.29723
-1058.1923
-1344.9084
-1720.5952
-2171.2427
-2582.1509
-2920.623
-1490.6051
-848.7902
-943.86853
-1149.9098
-1469.4585
-1896.2976
-2424.9263
-2959.1362
-3563.1906
-2502.4176
-845.13523
-991.18661
-1210.6653
-1564.1928
-2031.0793
-2630.9345
-3270.8546
-4123.5414
-3663.6535
-816.69984
-1018.3725
-1237.8542
-1630.4646
-2127.2279
-2785.7066
-3498.4036
-4542.2598
-5003.306
-763.66389
-1025.7224
-1239.0225
-1673.9758
-2186.6944
-2894.5322
-3646.5042
-4770.4729
-6257.689
-708.32394
-1015.6157
-1214.2938
-1709.5211
-2241.9193
-3025.7692
-3892.8436
-5018.8027
-7492.6063
-645.36276
-998.16749
-1186.4101
-1760.1402
-2346.1822
-3248.618
-4330.7094
-5613.9339
-8420.8852
-558.39258
-976.02514
-1165.0318
-1836.8356
-2492.2221
-3548.328
-4929.8735
-6386.8569
-8605.4957
-447.03658
-944.71258
-1143.689
-1912.8946
-2654.133
-3888.6608
-5580.8163
-7294.2638
-7267.8384
-328.12585
-898.57024
-1113.7522
-1981.1312
-2808.4132
-4222.1964
-6228.0155
-8328.0095
-6162.879
-200.10784
-834.30006
-1066.318
-2033.9549
-2958.5436
-4546.9018
-6889.9223
-9441.2124
-7646.809
-71.879782
-754.13223
-1002.7119
-2061.1328
-3082.5236
-4870.7742
-7589.2144
-10220.845
-8203.7679
61.555552
-662.32359
-928.40219
-2069.3858
-3202.6462
-5183.1529
-8302.5491
-10350.704
-8231.4702
216.47648
-557.78684
-842.68931
-2052.6996
-3308.8853
-5460.8751
-8992.7108
-10845.484
-8570.7798
-8806.4933
-11376.273
-9492.0087
-5670.6226
-3392.6709
-2016.755
-754.71964
-443.58176
389.12616
-8975.0082
-11764.153
-9854.2529
-5807.1172
-3439.3074
-1954.7105
-662.80544
-319.40584
550.38254
-9134.3533
-12117.819
-10159.09
-5903.2966
-3456.0238
-1866.7668
-560.54642
-186.3116
691.02415
-9303.3194
-12433.249
-10408.269
-5975.6998
-3446.9615
-1758.5171
-451.2124
-51.497201
810.53261
-9477.4984
-12741.339
-10613.062
-6036.2718
-3416.3107
-1640.2386
-336.58195
80.774429
920.08979
-9670.2969
-12966.048
-10771.614
-6094.236
-3376.3801
-1516.8042
-222.6574
208.15192
1023.7484
-9907.5824
-13181.671
-10882.634
-6141.0153
-3315.6042
-1390.8101
-110.6498
330.43466
1122.8042
-10261.216
-13303.145
-10939.738
-6171.8952
-3242.7292
-1262.4219
-0.9805411
449.67365
1212.4715
-10469.487
-13450.812
-10955.417
-6168.6284
-3150.283
-1127.8889
106.01904
567.62762
1293.816
-10485.151
-13458.102
-10624.165
-6011.6459
-2910.0278
-863.02704
292.45252
762.91068
1416.9397
-10520.484
-13908.678
-10316.089
-5696.0248
-2488.9241
-490.38795
534.07099
998.55107
1559.3576
-10376.184
-13914.076
-9934.1214
-5255.6767
-1984.5489
-105.13991
755.87112
1227.0361
1662.1364
-10023.281
-13938.138
-9498.1215
-4709.9345
-1453.0853
242.75832
950.49442
1427.6521
1750.2632
-9598.57
-13942.906
-9038.2195
-4108.2337
-939.18032
535.91989
1078.0388
1597.2447
1825.1628
-9384.4631
-13885.839
-8581.0037
-3447.0745
-493.19655
734.44242
1155.918
1752.1131
1912.5035
-9386.8284
-13663.584
-8138.1206
-2756.3594
-144.13914
853.80911
1277.552
1950.6369
1958.0313
-9390.6797
-13299.559
-7708.9804
-2059.6462
123.82387
994.34529
1440.2749
2020.882
1977.2045
-9329.0053
-12799.423
-7274.6602
-1407.3199
285.18737
1066.7984
1606.0997
2059.8581
1866.2669
-9931.6106
-9198.803
-8367.9077
-4896.2383
-3900.6065
-3587.0641
-3309.4759
-2268.0893
-210.23652
-9935.8663
-9433.5178
-8513.6805
-4950.1053
-3601.4053
-3213.282
-2832.5254
-1998.149
-51.530746
-9936.1656
-9654.2144
-8634.8757
-4974.4863
-3279.3575
-2846.3538
-2363.7656
-1710.6216
123.5933
-9933.0751
-9858.6235
-8722.5123
-4965.1213
-2944.6452
-2488.1047
-1919.638
-1415.2921
311.22449
-9926.9844
-10049.994
-8780.2507
-4913.2755
-2606.1701
-2145.7318
-1502.3836
-1120.5474
514.26677
-9917.7469
-10227.312
-8814.4972
-4811.3997
-2265.6695
-1811.4625
-1111.8053
-823.84808
732.16743
-9906.8084
-10400.185
-8817.7104
-4665.3632
-1924.4318
-1477.5996
-738.49464
-515.43497
968.95184
-9894.0003
-10562.669
-8790.9823
-4473.0104
-1587.7912
-1148.472
-376.97326
-199.0531
1215.6947
-9882.2657
-10710.583
-8753.2957
-4238.1888
-1262.7577
-837.15818
-37.252201
109.40033
1473.3302
-8975.9145
-3283.0995
220.122
1115.8312
-2084.0193
-3823.71
-1779.1037
-737.97918
-378.88326
-9090.1807
-3658.022
674.07231
1253.7043
-1429.1529
-3352.5325
-1994.6704
-955.42015
-448.6731
-9269.7808
-4108.5072
1150.8585
1622.5813
-707.82803
-2733.1681
-2045.6805
-1185.1719
-558.48682
-9535.2991
-4641.1802
1550.8665
2162.4072
-75.91478
-2051.3405
-1919.1576
-1348.1674
-691.37152
-9895.4238
-5163.7023
1661.6617
2662.1589
532.50794
-1337.5615
-1645.0559
-1394.1775
-859.63253
-10202.062
-5637.5923
1560.9456
3137.0575
1065.529
-639.02572
-1249.9893
-1302.0054
-981.15203
-10392.675
-6188.2252
1157.1404
3525.2613
1573.4692
37.472166
-781.28355
-1076.2603
-973.11107
-11225.548
-6831.3704
309.81935
3610.48
2033.4845
641.11368
-262.67802
-745.10188
-886.21535
-11841.238
-7571.263
-749.51268
3392.1876
2284.5324
1132.1344
200.05881
-354.29187
-708.61636
564.13041
1126.051
1322.0044
1740.8251
1780.5691
1669.673
-1722.3814
-8199.9397
-13245.616
427.5193
1017.9671
1272.2871
1741.9118
1886.0876
1881.0379
-1744.0416
-8087.9755
-13158.267
286.17555
893.55382
1211.2359
1732.9661
1980.3495
2108.8654
-1697.3919
-8048.071
-13009.955
141.76202
755.6238
1132.9828
1710.6949
2064.4751
2330.6286
-1633.4911
-8080.7039
-12893.612
-3.6717365
605.57962
1037.2845
1674.5062
2141.0479
2540.9688
-1574.5153
-8119.8883
-12752.69
-144.9224
445.63449
925.33178
1623.131
2202.9228
2728.8783
-1492.8925
-8113.1052
-12613.09
-281.86284
279.70599
797.87418
1551.0903
2247.8681
2908.584
-1388.7149
-8104.4546
-12502.009
-410.41428
111.02046
655.13448
1465.2156
2279.6935
3051.7529
-1290.5704
-8074.2524
-12336.85
-529.82586
-59.893892
497.72757
1355.8322
2293.6946
3153.2063
-1186.0572
-8023.8993
-12039.831
-13379.579
-8315.8214
-1544.7454
1448.563
1674.3524
1722.0099
1365.8251
1218.8311
699.09207
-12946.276
-7892.6489
-1266.6755
1229.0112
1582.0249
1685.0725
1401.4525
1295.9904
826.23139
-12120.213
-6997.956
-1032.7564
1047.3465
1501.097
1645.3382
1426.5793
1357.9288
943.70899
-11151.689
-5906.5785
-901.03683
916.32383
1430.0638
1603.6699
1446.1979
1406.6124
1048.0029
-11922.914
-4731.1505
-792.25577
838.69794
1377.3661
1566.3965
1460.6991
1444.6981
1139.047
-14768.673
-3581.2458
-614.19489
785.79785
1336.927
1533.9801
1477.4824
1476.4124
1212.3484
-14742.024
-2624.2952
-376.19967
768.48618
1305.2889
1506.481
1498.3071
1503.8931
1274.5871
-12177.032
-1688.6367
-139.48694
780.61857
1279.9929
1481.4107
1520.1143
1528.6739
1333.2375
-10287.915
-1061.9901
-33.09873
761.72134
1245.0339
1450.5653
1530.1102
1542.4902
1407.7263
1769.5885
1769.2725
1645.2819
1400.8388
1022.4907
457.41594
-151.23081
-655.95939
959.74369
1714.7043
1708.8705
1584.3328
1336.352
933.08177
311.22401
-459.6217
-1306.1843
126.04691
1664.5397
1662.204
1541.1134
1297.3192
879.91418
215.26055
-696.67188
-1933.723
-849.21617
1630.2262
1630.8522
1514.1552
1280.2232
863.86002
171.6528
-847.09943
-2486.8664
-2010.6894
1598.7779
1605.088
1500.5847
1284.0921
879.36868
182.47049
-886.72994
-2889.8235
-3426.782
1578.9122
1588.9334
1497.0644
1306.5147
924.6487
246.0827
-800.83054
-3086.9965
-5083.4405
1555.5866
1577.7747
1502.9917
1339.9244
995.84009
348.9415
-624.01679
-3018.6243
-6931.0878
1541.8618
1565.0106
1512.6462
1377.2309
1083.5723
481.63056
-387.29418
-2638.0828
-8437.7632
1485.8595
1554.4135
1526.0526
1415.9455
1175.5013
632.50656
-162.47638
-1874.5153
-9369.8156
1609.2528
-55.917214
195.99199
644.4405
1144.4486
1488.6371
1722.5097
1841.1371
1842.1135
2151.5666
487.02118
546.59261
854.07287
1290.2048
1593.8189
1814.3008
1926.8074
1921.7421
2645.1544
1008.006
913.5861
1084.379
1455.4453
1717.6732
1918.2638
2024.0585
2019.3226
3107.1722
1502.63
1281.5065
1335.8781
1635.0414
1855.6103
2037.4373
2131.9999
2123.6778
3533.5065
1968.9133
1650.6328
1598.4857
1832.3141
2006.3522
2167.0325
2250.4947
2243.1452
3936.7439
2412.3142
2009.6321
1866.1371
2036.6458
2166.6757
2306.5616
2378.2826
2369.0143
4317.4645
2825.5657
2360.5171
2136.0264
2244.1133
2334.0712
2452.4748
2511.403
2505.5297
4684.7272
3209.9999
2696.0871
2403.4609
2457.7545
2507.7694
2604.1987
2649.2958
2645.7356
5036.2387
3568.5226
3016.4335
2665.768
2670.6834
2681.7208
2759.0863
2791.7362
2793.6081
4065.0188
4012.2276
4066.4205
4095.876
4274.4011
4491.9151
5005.2742
5602.756
6586.4705
3955.4515
3893.4671
3942.9265
3966.8914
4139.1239
4351.1139
4875.4027
5498.4642
6707.4103
3825.1321
3769.5403
3811.2618
3828.8177
3990.5219
4190.3209
4714.919
5361.1507
6737.6781
3684.2736
3639.9662
3673.3907
3682.3876
3829.815
4012.1363
4532.9983
5188.4967
6658.778
3538.027
3505.3493
3530.369
3527.9991
3657.5885
3818.2741
4331.1506
4983.7976
6493.5207
3392.4884
3367.1822
3381.9975
3367.4076
3475.3832
3610.4535
4107.6461
4748.1894
6272.93
3242.221
3224.6453
3229.0906
3200.9817
3284.3969
3392.0104
3863.7131
4495.1316
6001.3375
3092.9977
3080.7194
3073.542
3030.702
3084.0422
3159.9443
3598.9095
4213.3041
5700.505
2941.8135
2936.6807
2915.9657
2857.42
2878.9481
2917.3801
3317.5256
3904.6174
5376.4051
4175.4476
4287.8323
4396.7746
4501.1839
4600.3148
4693.9479
4782.318
4864.7022
4942.1208
4126.2383
4234.8026
4338.506
4437.1049
4530.8627
4619.9451
4704.5634
4783.6408
4858.5956
4182.8455
4292.0244
4394.349
4489.6005
4581.2825
4668.7421
4748.8877
4823.048
4895.6624
4215.8486
4327.0423
4430.8151
4527.5583
4618.2142
4702.9428
4781.7932
4855.4488
4924.3001
4394.6164
4501.3967
4599.5293
4689.6608
4772.7201
4849.3189
4920.0539
4985.7175
5046.7372
4612.6285
4718.5515
4814.5326
4899.8262
4976.2442
5044.6189
5105.5016
5160.4019
5210.3479
5106.5552
5193.9464
5270.1966
5333.2428
5385.7869
5430.2751
5466.999
5498.0463
5523.8973
5680.611
5779.9322
5873.964
5940.2558
5971.3659
5986.4628
5992.3781
5983.9547
5966.2682
6448.3426
6596.6175
6704.952
6819.6941
6876.8509
6862.5146
6823.2695
6774.3332
6705.7633
5013.856
4929.9151
4963.1632
4989.0147
5103.8793
5256.4145
5546.1049
5949.464
6628.846
5081.0372
4996.3342
5025.8768
5049.5244
5157.2174
5298.6914
5566.0754
5929.4707
6559.1163
5143.6676
5058.4488
5086.276
5106.4838
5207.3486
5338.3177
5583.8296
5906.452
6483.7894
5202.1741
5117.8324
5141.7439
5159.8932
5254.3643
5375.6812
5600.7224
5886.6953
6405.7045
5256.2361
5173.2526
5194.441
5210.3782
5298.814
5411.6494
5618.1733
5867.8936
6337.7532
5306.4883
5224.7752
5244.2469
5258.233
5340.9383
5446.6308
5634.2272
5849.6571
6266.2843
5352.3334
5272.9526
5289.976
5303.4743
5381.0656
5480.9646
5650.9402
5836.2794
6195.5028
5394.0897
5318.3214
5332.2728
5345.8395
5419.3177
5514.4804
5669.1637
5826.9732
6133.1244
5432.7002
5359.6414
5372.7656
5385.6627
5455.8537
5547.1211
5689.2237
5821.3445
6067.3776
5655.5009
5615.7525
5619.8332
5640.1312
5697.5801
5794.8723
5920.5265
6018.3478
5891.1555
5639.4469
5596.2037
5601.3245
5619.4788
5677.7329
5771.8273
5892.2135
5974.0691
5839.4586
5621.6242
5574.8361
5581.0385
5597.3938
5656.5033
5747.8311
5864.7495
5935.0606
5803.9259
5602.1371
5551.2613
5558.4579
5573.8147
5633.9282
5722.8599
5837.8338
5901.6035
5792.9081
5580.5616
5525.5184
5533.7344
5548.1476
5609.6768
5696.7321
5811.249
5873.9871
5810.6091
5556.6064
5497.8382
5506.6106
5520.264
5583.2828
5669.2253
5785.1968
5852.3655
5847.0976
5529.9388
5467.6866
5477.1359
5490.2557
5554.5109
5640.1351
5759.7559
5837.0325
5894.1505
5500.3762
5434.5748
5444.6574
5457.783
5523.6729
5610.0217
5735.0195
5826.5147
5949.7816
5468.136
5398.514
5410.1315
5422.8119
5490.6841
5578.9628
5711.386
5820.9941
6005.666
5949.2528
6069.6839
5950.2407
5817.981
5716.3869
5658.1714
5636.7512
5633.5585
5669.4526
6026.0652
6126.9207
5979.0467
5839.8514
5733.5969
5674.7634
5652.1336
5649.5164
5680.3489
6111.8182
6184.7974
6005.2413
5859.1119
5748.4485
5689.3848
5665.8863
5663.841
5689.7358
6203.9128
6240.4464
6027.767
5874.9146
5760.5041
5701.4091
5678.3245
5676.2769
5697.7558
6299.4334
6291.0186
6045.1776
5886.6441
5769.6163
5711.9916
5689.2665
5687.0118
5704.4188
6393.9724
6335.52
6056.946
5894.648
5775.6837
5720.5711
5698.6808
5696.3844
5710.0585
6486.455
6374.6998
6063.3854
5899.5245
5779.3714
5727.4525
5706.7787
5704.7485
5714.5617
6576.6005
6410.4858
6067.623
5903.6642
5783.0474
5734.29
5714.1786
5711.9116
5717.993
6665.7637
6447.1239
6077.2429
5911.773
5790.6148
5743.1183
5721.9312
5717.7791
5719.8912
6768.3482
6491.6467
6105.3557
5933.0496
5810.5505
5758.5477
5732.9485
5724.0087
5720.7898
6884.5886
6537.866
6140.347
5959.4872
5835.8172
5778.1011
5747.7044
5733.9252
5725.0833
6992.0639
6579.1766
6172.479
5985.5595
5860.5615
5798.2445
5763.6446
5745.0934
5731.8841
7086.2458
6613.0225
6198.9318
6010.0279
5884.0051
5818.5465
5780.4049
5757.5003
5740.9369
7161.1768
6635.4146
6217.485
6031.2744
5905.4595
5838.1655
5797.279
5770.8676
5751.911
7214.5285
6642.4106
6228.0461
6048.2984
5924.7712
5856.9116
5814.0339
5784.8756
5764.3895
7207.1815
6628.8588
6230.2631
6060.337
5941.0997
5873.7483
5829.8712
5799.1123
5777.8633
7074.8727
6595.943
6228.1116
6067.3988
5953.8217
5887.8316
5844.231
5813.23
5791.6581
6876.5759
6541.3925
6223.8478
6070.3441
5962.671
5898.5756
5856.3533
5826.4075
5805.4745
5784.5948
5792.7416
5810.8805
5839.2912
5881.3141
5936.86
6012.7029
6115.0224
6264.2534
5807.2811
5814.5974
5832.1078
5861.3368
5905.069
5967.2073
6052.8872
6169.5689
6333.1126
5824.8117
5831.4065
5848.9931
5879.2217
5925.3405
5991.8951
6082.3553
6205.7075
6368.7957
5836.5187
5843.4751
5861.2746
5892.9226
5941.5918
6013.8555
6110.4455
6249.0968
6423.8977
5842.8429
5850.6909
5869.5434
5902.2392
5954.3027
6033.0473
6138.0855
6295.0229
6477.9842
5843.6196
5853.3296
5873.9912
5907.7413
5963.2648
6048.5642
6164.8709
6341.0393
6537.6665
5839.0058
5851.8008
5874.5287
5910.13
5968.7294
6059.5666
6187.2809
6387.1461
6598.4991
5830.2072
5846.4021
5871.6216
5909.5248
5970.4233
6066.3845
6204.1687
6434.3479
6666.3121
5818.7495
5837.6268
5865.4765
5905.6754
5968.0678
6069.4502
6215.2899
6483.023
6748.4157
6487.9937
6548.0242
6604.4941
6679.696
6764.2071
6868.1127
7019.2204
7236.4807
7539.8784
6523.1903
6578.7935
6640.8027
6719.8315
6808.647
6917.6014
7075.4026
7297.9446
7601.7012
6556.8901
6609.368
6672.0353
6753.2937
6850.113
6968.9989
7135.9452
7369.99
7683.802
6589.8643
6641.0835
6704.1095
6785.7798
6887.2005
7015.3684
7192.3663
7443.7575
7775.5126
6621.6315
6670.9095
6733.1354
6814.8886
6918.351
7052.8723
7235.5462
7510.3301
7859.9899
6640.7484
6687.4048
6748
6826.3389
6926.6805
7063.7984
7246.8213
7557.3187
7926.9879
6631.1355
6672.8911
6730.6078
6807.3351
6903.4156
7030.9773
7195.7789
7568.5512
7952.0022
6578.131
6612.5198
6656.2125
6714.9112
6796.3001
6921.806
7045.4052
7487.813
7882.3937
6443.8328
6470.7879
6497.9469
6536.9586
6584.8325
6708.7555
6765.3413
7288.2838
7522.9758
2016.6494
4783.446
4779.8146
5537.5826
5763.2571
5941.9733
6056.0622
6109.7916
6111.0688
4145.7921
4268.6383
4218.0399
4624.9914
4692.9291
4952.5173
5091.9363
5230.5401
5339.8897
4656.1325
4667.3891
4559.9326
4679.6406
4616.4657
4751.6145
4765.4372
4874.4409
4940.7128
4649.7465
4706.4457
4655.6997
4747.8663
4670.8003
4761.9795
4703.3032
4785.9169
4743.5952
4630.3548
4660.4126
4623.8707
4714.8072
4648.9972
4737.8934
4666.2025
4745.5805
4677.772
4629.0398
4645.9644
4610.291
4677.5119
4618.3376
4701.8636
4632.4008
4702.8013
4641.4697
4645.1941
4654.2237
4633.9268
4673.1181
4625.7957
4687.0775
4630.2716
4691.144
4635.3731
4673.2078
4682.183
4672.5559
4692.253
4677.5638
4707.6083
4684.8063
4719.8872
4694.2335
4703.3056
4705.6489
4706.6109
4721.0808
4720.4622
4739.0202
4745.1286
4765.9019
4772.9331
4817.5694
4773.4372
4687.0128
4572.2619
4391.3784
4127.5304
3828.0371
3554.9222
3382.3174
4807.4981
4769.6099
4682.6431
4565.4254
4385.2415
4124.1185
3811.966
3519.7137
3309.5361
4781.5228
4747.0557
4659.7339
4539.9914
4361.2898
4099.4623
3781.5399
3459.8261
3208.9289
4770.8201
4736.2915
4649.7152
4526.8192
4349.517
4083.4814
3758.7038
3395.4098
3083.1365
4750.5555
4720.18
4636.5516
4514.0626
4336.433
4072.8435
3735.1005
3333.6922
2944.622
4748.5832
4714.0165
4634.5788
4508.2138
4334.2898
4070.6881
3719.6914
3283.5032
2815.1179
4727.7773
4702.7409
4624.4544
4504.8017
4325.9176
4074.1762
3708.4725
3252.473
2717.9641
4730.5479
4699.8253
4626.9287
4504.6626
4333.638
4075.0847
3712.4594
3219.3602
2712.7758
4719.9798
4701.2988
4631.7405
4516.2474
4349.158
4104.6228
3729.736
3251.9711
2589.3689
3400.8563
3594.0976
3945.9448
4268.1262
4500.4532
4684.6958
4856.2427
5034.187
5206.1443
3286.266
3487.0408
3895.7898
4245.2145
4483.7328
4669.5295
4845.7984
5027.0754
5203.9179
3145.725
3380.7209
3862.6898
4232.002
4468.598
4657.2832
4838.9272
5020.9512
5199.6416
2980.358
3274.9291
3828.2032
4211.1947
4449.3819
4647.4518
4837.6292
5023.8503
5206.0682
2774.1017
3174.592
3796.3882
4183.8458
4416.5166
4619.3148
4816.0102
5008.0279
5193.4236
2476.0519
3094.3561
3804.7867
4189.7436
4423.9171
4631.9179
4831.0842
5022.5202
5207.7355
2053.8009
2947.8858
3749.439
4130.7123
4375.8087
4595.129
4805.4144
5004.7681
5193.1423
1572.4419
2966.6665
3794.1667
4139.4245
4387.8034
4610.4382
4818.525
5015.2998
5204.5182
697.0789
2837.2136
3769.3077
4107.2161
4368.9356
4598.208
4809.8662
5009.2375
5197.2607
5370.2333
5529.6561
5692.18
5857.1488
6032.4717
6213.126
6385.2541
6558.9562
6737.8309
5370.7317
5532.2618
5696.1812
5861.8863
6036.4835
6217.8761
6391.812
6567.7203
6749.3555
5370.1116
5534.7546
5699.5427
5866.055
6039.4527
6221.7375
6398.9843
6577.9915
6760.5871
5375.4566
5541.5191
5706.0285
5873.9142
6046.7603
6228.4372
6405.6177
6586.8295
6770.5076
5368.5122
5536.5036
5701.7671
5870.719
6046.1003
6228.9974
6409.2292
6590.6607
6778.0426
5380.2187
5548.9167
5714.4377
5880.5467
6053.3179
6235.4961
6416.6186
6599.4224
6786.9509
5368.4232
5539.5252
5706.9512
5874.4441
6048.5941
6231.5244
6412.9607
6597.9541
6786.6547
5376.7241
5548.7103
5714.8906
5879.4782
6052.1935
6234.7444
6417.5621
6603.1874
6792.7957
5371.862
5545.1706
5712.6301
5877.9722
6051.1815
6233.8416
6416.5346
6602.2506
6792.2892
6923.6926
7124.545
7347.0877
7580.8553
7829.5355
8085.5267
8340.1037
8641.3434
8753.013
6938.3686
7141.5691
7366.7883
7608.2308
7865.1708
8128.2953
8396.9629
8711.7339
8844.9121
6953.1687
7159.4974
7385.6635
7633.4279
7898.9142
8169.7814
8453.7984
8780.7413
8935.2762
6965.5256
7173.6698
7403.818
7656.261
7928.1356
8206.4721
8506.1188
8842.4645
9023.4067
6975.0202
7184.1307
7416.9818
7675.5248
7953.3776
8238.9824
8553.5367
8895.5365
9110.4208
6985.9418
7197.4054
7429.967
7691.5054
7975.4707
8269.8062
8600.1914
8942.8622
9187.5493
6987.915
7199.2998
7436.4438
7698.6207
7988.1649
8288.7825
8637.1654
8981.6769
9255.2264
6994.8788
7207.6541
7443.4877
7708.9042
8001.7986
8306.021
8666.248
9016.6577
9336.5977
6995.1706
7207.8221
7445.7751
7710.8135
8005.4331
8311.4522
8682.6369
9033.674
9351.1459
8944.1825
8361.6489
7978.8625
7643.1678
7290.9444
6943.312
6594.1955
6255.4075
5920.5085
9051.9521
8435.8698
8056.8126
7716.6101
7356.9819
7002.0586
6647.817
6306.3742
5967.9116
9139.2224
8500.5059
8130.8692
7784.0197
7418.9446
7057.8784
6701.5344
6358.5909
6017.0897
9223.0365
8562.4833
8203.9565
7849.3719
7480.5062
7111.7081
6752.3844
6404.4767
6061.0305
9310.0895
8623.7182
8273.2765
7913.9504
7543.9198
7175.5168
6810.9586
6459.5145
6111.2787
9399.4572
8688.0335
8337.8742
7964.3078
7593.489
7215.4163
6853.5058
6496.3467
6148.5343
9480.1948
8757.6423
8410.4784
8037.3541
7663.8418
7285.403
6916.3167
6560.7066
6209.4796
9548.7742
8798.0234
8448.2996
8065.7224
7695.065
7309.2828
6942.8914
6579.221
6227.2424
9643.2949
8905.5776
8532.5756
8148.6885
7776.0598
7390.594
7022.9572
6658.6075
6305.0762
5589.2134
5262.3854
4925.5382
4592.3937
4240.4833
3884.7351
3509.4704
3122.4952
2722.168
5634.7174
5302.9382
4967.0816
4629.6831
4280.6456
3922.0784
3549.9743
3161.3778
2760.4825
5682.4708
5347.1441
5012.5859
4672.8549
4326.5779
3967.7629
3598.8203
3211.8857
2813.1286
5726.3898
5387.8944
5055.2503
4712.0152
4369.4952
4007.6186
3642.74
3255.2124
2859.1268
5775.688
5435.696
5101.4665
4759.54
4415.9656
4057.0536
3691.3381
3307.0955
2911.4785
5810.6729
5467.4311
5135.4296
4788.5363
4450.106
4087.0625
3726.3219
3341.7155
2948.4594
5871.9589
5528.432
5195.2559
4850.0041
4509.8422
4151.231
3788.0556
3409.4805
3012.9667
5888.0021
5542.3215
5210.1063
4862.1073
4525.1674
4164.1043
3804.1287
3425.7709
3031.0607
5964.0612
5618.427
5285.283
4938.1959
4601.0151
4243.3857
3882.7071
3511.2498
3112.7604
2255.7885
1708.9188
1116.1405
478.6339
-218.85113
-943.05333
-1708.8434
-2529.5001
-3704.6861
2294.6052
1769.1696
1180.7658
574.02628
-114.7789
-787.71219
-1528.0479
-2289.3052
-3387.4691
2352.8142
1844.9156
1268.9946
683.87136
14.282979
-641.44699
-1369.2123
-2145.3124
-3137.5295
2405.6698
1914.8935
1355.695
786.73778
141.77935
-508.23441
-1190.2857
-1909.2866
-2799.1366
2464.0851
1984.7922
1446.2869
886.47483
268.39019
-378.16299
-1002.7496
-1656.928
-2305.6117
2511.8737
2045.3526
1530.1604
980.48862
384.08145
-257.20832
-860.01774
-1398.7962
-1802.23
2586.2418
2125.6774
1643.8451
1106.1905
540.07875
-106.22235
-678.23102
-1325.1855
-524.96323
2615.9571
2163.0055
1695.1862
1172.7944
610.2704
-21.638032
-705.66718
-1156.4886
-1369.1856
2712.1352
2278.052
1847.9319
1353.6645
845.15047
251.85783
-363.68364
-1611.5642
2267.8935
-5854.9949
-7585.9754
-8063.9917
-7986.9842
-8226.5586
-8672.625
-8097.3622
-7912.5053
-7851.4052
-5677.0412
-7611.8809
-7957.3539
-7892.5817
-8109.8826
-8354.9568
-8064.63
-7879.5037
-7796.5714
-5613.8628
-7746.3663
-7841.8732
-7878.6025
-8199.5183
-8390.4642
-8029.3773
-7838.8372
-7739.0999
-5716.7776
-7911.1067
-7729.7023
-7884.885
-8106.669
-8205.3042
-7984.2013
-7795.09
-7677.325
-5942.1761
-7969.3959
-7483.232
-7898.667
-8180.8637
-8196.347
-7930.7664
-7752.1741
-7612.3235
-5777.6155
-7767.498
-7439.4187
-7976.1603
-8130.5886
-8123.0324
-7871.3621
-7713.031
-7550.9576
-4885.531
-7406.8079
-7625.865
-7999.4424
-8135.1061
-8069.3438
-7814.8554
-7676.3471
-7492.1312
-5339.0859
-8329.6159
-7575.499
-8075.4021
-8130.5653
-8025.8659
-7772.5506
-7644.3469
-7449.5456
-14457.775
-6495.5369
-7907.2396
-8094.7273
-8094.9505
-7962.3139
-7726.6783
-7619.2764
-7421.8015
-7867.6874
-8023.0078
-8288.39
-8799.0069
-9616.3366
-10675.524
-12027.909
-15293.571
-14675.791
-7798.7291
-7936.5536
-8185.8714
-8712.3247
-9588.3969
-10732.546
-12190.308
-15549.471
-14554.239
-7755.7846
-7884.9356
-8153.3096
-8740.9923
-9686.3067
-11030.564
-12752.637
-15295.602
-14633.482
-7700.5281
-7831.5051
-8129.3063
-8777.6429
-9823.8735
-11304.264
-13256.877
-15515.968
-14385.688
-7635.8453
-7773.4712
-8094.0625
-8813.8726
-9939.6511
-11531.814
-13563.58
-15323.219
-13865.683
-7573.1654
-7720.6494
-8062.4848
-8847.2694
-10050.763
-11729.048
-13643.453
-14739.222
-13186.075
-7520.5335
-7679.322
-8044.7235
-8895.2187
-10178.791
-11915.556
-13614.631
-14263.75
-12471.162
-7483.8575