/*--------------------------------*- C++ -*----------------------------------*\
  =========                 |
  \\      /  F ield         | OpenFOAM: The Open Source CFD Toolbox
   \\    /   O peration     | Website:  https://openfoam.org
    \\  /    A nd           | Version:  11
     \\/     M anipulation  |
\*---------------------------------------------------------------------------*/
FoamFile
{
    format      ascii;
    class       volVectorField;
    location    "7.2";
    object      U;
}
// * * * * * * * * * * * * * * * * * * * * * * * * * * * * * * * * * * * * * //

dimensions      [0 1 -1 0 0 0 0];

internalField   nonuniform List<vector> 
4455
(
(9.9985144 0.0031309254 0)
(9.9891553 0.0037907351 -1.4505795e-19)
(9.9695017 0.010498667 4.9791288e-19)
(9.9426865 0.0076727103 1.0070916e-21)
(9.8946537 0.019843735 4.6712346e-19)
(9.8458377 0.014893488 -1.7557964e-18)
(9.7539872 0.040338911 7.7996017e-19)
(9.6624573 0.017864517 0)
(9.513635 0.073277843 -4.6867794e-18)
(10.000724 0.0067009567 -9.482003e-19)
(9.9907037 0.013472663 9.2377546e-19)
(9.9684773 0.02427728 -1.1354925e-18)
(9.940876 0.024006486 1.8898308e-18)
(9.8907532 0.035864244 -3.6184447e-18)
(9.8378741 0.027415153 3.9391559e-18)
(9.7355799 0.040698289 -3.7361331e-19)
(9.6472486 0.01477703 5.4526402e-19)
(9.4702704 -0.002786497 2.0333709e-17)
(10.001381 0.010527649 -9.925907e-19)
(9.9923045 0.02271411 1.253622e-18)
(9.9687082 0.039111472 1.1112475e-18)
(9.9405531 0.041937749 -1.1047392e-18)
(9.8889424 0.058948385 4.8278372e-18)
(9.8348238 0.053622883 -2.7143072e-18)
(9.734113 0.074562483 3.5070509e-19)
(9.6265339 0.020266607 -7.674811e-18)
(9.4524993 0.061118178 -1.4373243e-17)
(10.00196 0.013988445 2.4022893e-21)
(9.9937921 0.030446491 -1.3901249e-19)
(9.9697745 0.0540792 2.6381491e-18)
(9.9405149 0.05874344 3.5991175e-19)
(9.8919995 0.084459588 4.5799907e-23)
(9.8307026 0.076726493 -5.2224419e-19)
(9.7260556 0.11929608 5.760564e-18)
(9.6076569 0.047422653 1.5343386e-17)
(9.4143723 0.11090755 1.1924207e-17)
(10.004417 0.018340139 1.9199063e-18)
(9.9944898 0.036108979 -2.1465934e-18)
(9.9724077 0.068314349 2.7313574e-18)
(9.9412885 0.074960419 1.1193018e-21)
(9.8955847 0.10950689 -3.3112939e-18)
(9.830453 0.099629495 -1.0116933e-18)
(9.7196379 0.14330051 -4.540082e-18)
(9.5909271 0.067066351 -7.2185252e-18)
(9.3665251 0.14645937 -3.5174353e-17)
(10.00534 0.020409225 0)
(9.9968024 0.042861424 0)
(9.9752177 0.079669108 -4.7611082e-18)
(9.9443501 0.091299593 -5.469918e-18)
(9.9011377 0.13255675 0)
(9.8334781 0.13099009 -7.3266373e-18)
(9.7130091 0.18595985 -6.1934315e-19)
(9.565752 0.10205959 -4.2933206e-19)
(9.3208161 0.19743453 4.341777e-17)
(10.008515 0.022888314 0)
(9.996552 0.046808579 -1.2918005e-19)
(9.9801123 0.091168045 1.4539767e-19)
(9.948145 0.10472426 5.3463007e-18)
(9.9062464 0.1513371 -3.9258896e-19)
(9.8370596 0.1505958 1.5604149e-17)
(9.7171271 0.21308008 0)
(9.5523938 0.12977739 0)
(9.2648063 0.25710898 1.9895349e-17)
(10.010208 0.023798083 3.6360892e-18)
(9.9989492 0.050707172 0)
(9.9826086 0.099372611 0)
(9.9560877 0.12155007 0)
(9.9152144 0.17491175 0)
(9.8423293 0.18304349 -7.7905154e-18)
(9.7120994 0.25582757 -8.3132139e-18)
(9.5336642 0.17116338 1.1912346e-17)
(9.2167953 0.31779964 1.1592016e-19)
(10.01229 0.024325786 -3.5804566e-18)
(10.000676 0.052604898 -1.2440251e-19)
(9.9867836 0.10445519 -1.4026573e-19)
(9.9598438 0.12884266 3.1809576e-19)
(9.9256812 0.18823196 1.2230175e-17)
(9.85296 0.20006851 1.3749203e-17)
(9.7239693 0.28552329 2.6490363e-17)
(9.5185266 0.20886381 -1.1700352e-17)
(9.1565779 0.39025407 -3.4279667e-17)
(10.013066 0.023765743 0)
(10.01406 0.022822983 6.6602945e-18)
(10.013984 0.021318652 -6.6062386e-18)
(10.013358 0.018986233 6.3340862e-18)
(10.013109 0.016447963 -6.1912134e-18)
(10.011227 0.013066463 1.2370211e-17)
(10.009956 0.010213249 -1.2009033e-17)
(10.007684 0.0058569945 0)
(10.00357 0.0022745125 0)
(10.003699 0.055064121 0)
(10.005328 0.054515357 1.1521294e-19)
(10.008506 0.053535165 0)
(10.009949 0.051435728 3.2779325e-19)
(10.012059 0.048711203 6.6967671e-18)
(10.014739 0.044582931 -2.000799e-17)
(10.014724 0.039884069 1.2954812e-17)
(10.018878 0.034842427 -1.9752749e-19)
(10.015535 0.023302337 1.2520584e-17)
(9.9919982 0.11184453 8.3535075e-18)
(9.9973459 0.11629175 -1.6464812e-17)
(10.002799 0.11844238 1.5728196e-17)
(10.009803 0.11771614 -4.9092052e-19)
(10.013571 0.1152978 -7.4263695e-18)
(10.02214 0.11203076 -2.2578917e-19)
(10.024004 0.10454744 0)
(10.033818 0.099424156 4.272097e-19)
(10.03319 0.081594309 -2.0795379e-19)
(9.9688889 0.1423759 8.7046248e-18)
(9.9775997 0.15272634 -1.7686066e-17)
(9.9858844 0.15999234 1.6835292e-17)
(9.9981873 0.16545937 -8.1592098e-18)
(10.00539 0.16611725 -5.1063899e-19)
(10.019568 0.16874466 2.4678326e-19)
(10.026138 0.16386089 0)
(10.042829 0.16275579 -2.3254693e-19)
(10.045046 0.14662424 1.4015572e-17)
(9.9330834 0.20950028 -9.8217375e-18)
(9.9504297 0.22927805 0)
(9.9578092 0.24369549 -9.0971738e-18)
(9.9777857 0.25826217 9.3807629e-18)
(9.9863327 0.26565961 -8.4779167e-18)
(10.007902 0.2755233 8.760963e-18)
(10.017735 0.27618004 0)
(10.041265 0.28269421 0)
(10.048575 0.2681808 4.9577444e-19)
(9.8591372 0.22896385 -1.1994736e-17)
(9.8768053 0.26169964 -1.1476384e-17)
(9.8860667 0.28476169 1.1032102e-17)
(9.9072071 0.31506837 1.0580163e-17)
(9.9215243 0.33025917 -1.0200006e-17)
(9.9457664 0.35798638 0)
(9.9649156 0.36328953 1.8898212e-17)
(9.9915222 0.38949669 -4.4602151e-20)
(10.00958 0.37916123 -3.5285925e-17)
(9.721729 0.32269774 -1.4034815e-17)
(9.7416246 0.38129533 0)
(9.7511364 0.40751416 0)
(9.7777725 0.46080189 3.8465586e-19)
(9.7995783 0.47979076 0)
(9.8318224 0.53299602 0)
(9.8614668 0.54408345 0)
(9.8968821 0.59362117 0)
(9.9247531 0.59148607 0)
(9.5066972 0.25619334 5.3731925e-19)
(9.488674 0.35334816 0)
(9.4971086 0.41390682 4.81925e-19)
(9.4981861 0.51803933 -9.0389971e-19)
(9.5355785 0.56697724 -1.369779e-17)
(9.5596414 0.65989681 -1.2999403e-17)
(9.6122297 0.69186637 2.4955556e-17)
(9.6514151 0.77481399 2.4129093e-17)
(9.7076146 0.78282562 -2.2826564e-17)
(9.0910981 0.46888095 6.4236916e-17)
(9.0119766 0.6856495 -3.9819154e-17)
(9.01919 0.81499775 3.698382e-17)
(9.0527024 1.0370178 -3.4928164e-17)
(9.136066 1.1287085 -4.9692947e-17)
(9.2168034 1.3067383 9.3533397e-17)
(9.3170419 1.3575752 -5.909131e-17)
(9.4106072 1.4999845 -2.8176269e-17)
(9.5040459 1.5072116 2.6489121e-17)
(10.005056 0.00276781 -1.6506647e-20)
(10.008131 0.003965689 1.6951289e-17)
(10.012974 0.0058898617 -6.0519136e-21)
(10.019236 0.0080567844 -1.7076059e-17)
(10.026795 0.010303473 1.671252e-20)
(10.035864 0.01261041 1.7179966e-17)
(10.046512 0.015038993 -1.7263812e-17)
(10.058915 0.017526662 -1.686055e-20)
(10.074234 0.02097344 -8.6836746e-18)
(10.023033 0.026447211 -1.7965727e-17)
(10.027672 0.036702635 1.807893e-17)
(10.039664 0.037870393 -1.8083951e-17)
(10.047245 0.051086869 0)
(10.063109 0.05109824 1.8240586e-17)
(10.073815 0.066847772 1.5232302e-20)
(10.093308 0.065350373 3.0778611e-20)
(10.107419 0.083406018 -1.8352933e-17)
(10.131181 0.079997246 9.2330052e-18)
(10.045643 0.088507328 1.9160643e-17)
(10.049362 0.10481998 -1.9219117e-17)
(10.065289 0.10957555 -1.9349846e-17)
(10.070435 0.12752599 1.9395714e-17)
(10.089038 0.13207081 -1.955796e-17)
(10.096285 0.15285923 1.9491642e-17)
(10.118696 0.15713583 -1.9685086e-17)
(10.128567 0.18147933 -1.1545454e-20)
(10.155406 0.18488179 1.9718145e-17)
(10.064269 0.15881507 -2.0475594e-17)
(10.067149 0.18319053 -8.0553521e-20)
(10.087912 0.19283472 8.1026742e-20)
(10.09093 0.21780769 0)
(10.114197 0.22735252 -1.6218842e-22)
(10.11958 0.25581737 -2.0838521e-17)
(10.147215 0.26519696 2.1183877e-17)
(10.155575 0.29792166 8.2458138e-20)
(10.188211 0.3061613 8.272087e-20)
(10.071225 0.28559722 -8.6457896e-20)
(10.072441 0.31564283 -2.226065e-17)
(10.094103 0.32990679 -6.8007791e-20)
(10.093597 0.35857061 2.2463123e-17)
(10.117963 0.37252412 2.2618331e-17)
(10.120264 0.4052856 -2.2733564e-17)
(10.14973 0.41908072 -8.8595001e-20)
(10.155185 0.4564719 -8.8913545e-20)
(10.190017 0.46884367 -8.923177e-20)
(10.041155 0.40586164 2.4125887e-17)
(10.040148 0.44685248 0)
(10.067668 0.46795418 0)
(10.064122 0.5064954 2.4319358e-17)
(10.094856 0.52654896 -2.4644987e-17)
(10.095208 0.56937482 -2.4711719e-17)
(10.131659 0.58868395 4.9462075e-17)
(10.135812 0.63571529 -4.5128097e-20)
(10.177507 0.65267121 -4.9840257e-17)
(9.958874 0.63368784 -1.0422086e-19)
(9.9630783 0.67995083 0)
(9.9874972 0.70815422 1.0499548e-19)
(9.9907821 0.7469693 2.6971558e-17)
(10.020147 0.77349165 -2.7134581e-17)
(10.030182 0.81100159 2.7203516e-17)
(10.065378 0.83574838 -2.7262524e-17)
(10.080288 0.87025305 -1.0675059e-19)
(10.117976 0.89137099 2.743031e-17)
(9.7526252 0.84967817 -2.9324226e-17)
(9.7953967 0.9039494 2.9731839e-17)
(9.8360194 0.95102118 -2.9846691e-17)
(9.8820051 0.99466396 2.9693555e-17)
(9.9273014 1.0338662 -2.9560066e-17)
(9.9776743 1.070294 -3.1227875e-21)
(10.026657 1.1014559 2.9960364e-17)
(10.078186 1.1288767 2.3477918e-19)
(10.123807 1.1494695 1.4961745e-17)
(9.5977992 1.6162138 0)
(9.655058 1.6431486 -3.2910593e-17)
(9.7462416 1.725837 1.9041702e-19)
(9.8051538 1.7275927 3.1497552e-19)
(9.8982147 1.7785909 6.6066971e-17)
(9.9585717 1.7441599 -3.305618e-17)
(10.057078 1.7441559 -3.3072674e-17)
(10.130668 1.6372499 3.3197439e-17)
(10.227793 1.5722242 1.667049e-17)
(10.295705 1.3978126 -1.9486323e-17)
(10.317412 1.3110919 0)
(10.348531 1.1938585 1.9395143e-17)
(10.310702 1.1485139 -1.9393152e-17)
(10.280533 1.0413502 0)
(10.195985 1.0058567 0)
(10.137776 0.90825194 0)
(10.037618 0.89287454 -1.989317e-17)
(9.9686669 0.81492233 1.9893218e-17)
(10.164859 1.1639167 -1.7043684e-17)
(10.197198 1.1832582 0)
(10.228127 1.1850229 0)
(10.246517 1.1888827 0)
(10.262198 1.1857188 0)
(10.265685 1.1896465 0)
(10.26142 1.1904887 0)
(10.252411 1.1984082 1.687333e-17)
(10.229061 1.2000875 -3.3823602e-17)
(10.133043 0.91981113 -5.7271489e-20)
(10.166854 0.94646649 -3.0113377e-17)
(10.179125 0.96921981 0)
(10.211165 0.9939647 -1.4978682e-17)
(10.219374 1.0151555 1.4978678e-17)
(10.247312 1.0373396 0)
(10.249687 1.0575393 0)
(10.272762 1.079864 0)
(10.267434 1.1017851 0)
(10.180889 0.69914846 2.6797052e-17)
(10.224099 0.7233687 0)
(10.227917 0.76824971 1.332236e-17)
(10.271325 0.79151727 -2.6619143e-17)
(10.275106 0.83613904 1.3296518e-17)
(10.318589 0.85950529 0)
(10.321301 0.90454447 0)
(10.364945 0.92946587 0)
(10.365201 0.97588929 1.3170299e-17)
(10.196003 0.50941103 0)
(10.234085 0.52463967 2.4080883e-17)
(10.241072 0.56727594 -3.6099297e-17)
(10.281902 0.58246948 1.2018154e-17)
(10.289969 0.62702169 1.1970182e-17)
(10.333614 0.64277953 -2.5405602e-20)
(10.342339 0.6897508 -2.3862938e-17)
(10.389154 0.70684968 2.380925e-17)
(10.397915 0.75678707 -1.189082e-17)
(10.198154 0.34269318 0)
(10.235144 0.35246987 1.0953959e-17)
(10.247247 0.39221819 -1.0954104e-17)
(10.288355 0.40153654 0)
(10.302673 0.44426969 -2.1765659e-17)
(10.34784 0.45337542 2.1765703e-17)
(10.364253 0.49937957 1.0828011e-17)
(10.413824 0.50860772 -2.1626376e-17)
(10.432152 0.55833448 1.079828e-17)
(10.167217 0.21286003 0)
(10.198411 0.21694436 0)
(10.212805 0.24855651 0)
(10.248651 0.25208531 -1.0042844e-17)
(10.26591 0.28742303 2.0063484e-17)
(10.306667 0.29036893 -2.0017518e-17)
(10.326949 0.32969126 9.9968283e-18)
(10.373103 0.33215819 -9.9438267e-18)
(10.396551 0.37596675 1.98582e-17)
(10.148018 0.10071072 -1.8712753e-17)
(10.176489 0.096779955 1.7225789e-20)
(10.196781 0.12128258 9.3314523e-18)
(10.229547 0.1159085 -9.2928189e-18)
(10.253636 0.1433705 9.2927686e-18)
(10.29095 0.13604323 0)
(10.319115 0.16664725 9.2223635e-18)
(10.36195 0.15742518 -1.8417868e-17)
(10.394493 0.19171123 9.1953139e-18)
(10.083709 0.026205021 1.218889e-20)
(10.106901 0.026051443 8.7390649e-18)
(10.121967 0.037937592 8.7136732e-18)
(10.152009 0.037683491 -8.7136741e-18)
(10.169482 0.049223654 0)
(10.204054 0.047299324 0)
(10.225661 0.05934956 -8.6426491e-18)
(10.265573 0.060710526 1.7262877e-17)
(10.293354 0.072052692 -8.6202249e-18)
(10.341528 0.072057979 0)
(10.374649 0.085910641 -8.539356e-18)
(10.428078 0.088781117 3.1872446e-20)
(10.470354 0.10147832 3.4598725e-20)
(10.532355 0.10329769 3.7412366e-20)
(10.580425 0.11827901 8.4354722e-18)
(10.650788 0.12402949 8.3508911e-18)
(10.709365 0.13860708 -8.3508917e-18)
(10.789539 0.1433363 0)
(10.443351 0.18056229 0)
(10.480853 0.21951428 0)
(10.53675 0.20643988 -9.0649937e-18)
(10.579121 0.25023698 3.8490192e-20)
(10.642192 0.2353262 4.1208863e-20)
(10.690301 0.28505728 8.9850769e-18)
(10.762239 0.2682706 8.8935651e-18)
(10.816133 0.32447395 -8.8935075e-18)
(10.897167 0.3058248 0)
(10.448695 0.3780569 -9.9144273e-18)
(10.475424 0.4269194 0)
(10.534189 0.42895218 0)
(10.564356 0.48364518 -9.7755658e-18)
(10.630444 0.48571915 1.9510324e-17)
(10.664346 0.54705278 -4.3493607e-20)
(10.738757 0.54950775 -4.6467786e-20)
(10.776939 0.61871939 -9.6447686e-18)
(10.860781 0.62138087 0)
(10.486538 0.56813843 -1.073407e-17)
(10.506531 0.62217034 1.0734011e-17)
(10.566217 0.63314986 0)
(10.587662 0.69232847 0)
(10.653286 0.70511329 1.0584143e-17)
(10.676149 0.77058554 -1.058407e-17)
(10.748705 0.78578001 1.0496331e-17)
(10.773267 0.85909719 -5.2720425e-18)
(10.854064 0.87707048 -5.2241734e-18)
(10.448139 0.77619079 -1.1833264e-17)
(10.45624 0.8298619 1.1833153e-17)
(10.51018 0.85268177 0)
(10.517011 0.91127736 0)
(10.575288 0.9385992 0)
(10.580539 1.0038833 0)
(10.644332 1.0366381 0)
(10.648081 1.1108029 0)
(10.719106 1.1495996 0)
(10.408931 1.004138 -1.3170294e-17)
(10.40537 1.0528389 1.3123183e-17)
(10.449318 1.0864915 -1.3122835e-17)
(10.440936 1.139048 1.3078476e-17)
(10.485773 1.1798099 -1.3077854e-17)
(10.47198 1.2387699 0)
(10.51954 1.2876471 0)
(10.500317 1.356092 0)
(10.553308 1.4139586 0)
(10.285303 1.1290364 0)
(10.270296 1.154298 -1.4890564e-17)
(10.284742 1.1895683 1.4889069e-17)
(10.260084 1.2200148 0)
(10.273552 1.2663255 1.4898731e-17)
(10.237155 1.3057894 -1.4899231e-17)
(10.252872 1.3654683 0)
(10.20451 1.4175398 7.46243e-18)
(10.225655 1.491792 -1.4929324e-17)
(10.211778 1.2180984 1.6933364e-17)
(10.167337 1.2304313 1.7013563e-17)
(10.142984 1.257832 -1.7015941e-17)
(10.079281 1.2846618 1.7122155e-17)
(10.049594 1.322229 -3.4306804e-17)
(9.9695433 1.3653485 3.443351e-17)
(9.9360555 1.4149471 -3.4568694e-17)
(9.8410516 1.477623 1.7318859e-17)
(9.8056337 1.5415472 0)
(9.8592177 0.82026667 -2.0155855e-17)
(9.7824788 0.76010499 2.0155899e-17)
(9.6649325 0.78448892 0)
(9.5805551 0.74126329 0)
(9.4540395 0.78338833 0)
(9.360949 0.75819432 0)
(9.2229795 0.81991984 0)
(9.1210832 0.81465212 -1.0594475e-17)
(8.9691706 0.90102214 1.0594409e-17)
(8.85907 0.92045443 1.0759439e-17)
(9.6970846 1.6273969 0)
(10.166428 1.5614534 7.4677573e-18)
(10.529237 1.4950732 0)
(10.721918 1.2349993 0)
(10.881003 0.95998314 0)
(10.904033 0.6995045 4.742343e-18)
(10.9581 0.36998194 4.3651565e-18)
(10.8585 0.15899961 4.0978749e-18)
(8.6910106 1.0399312 -1.0759345e-17)
(9.6625034 1.7080294 0)
(10.194808 1.6481047 0)
(10.590741 1.562405 6.4537499e-18)
(10.802325 1.280081 0)
(10.971797 0.98083901 -5.1421987e-18)
(10.998833 0.70243873 -9.453939e-18)
(11.050884 0.34931572 -8.6991521e-18)
(10.949694 0.16725291 -8.1654509e-18)
(8.5737891 1.0911106 0)
(9.5426931 1.8214004 0)
(10.129026 1.7446358 7.4735911e-18)
(10.563159 1.6594584 -6.4538287e-18)
(10.805287 1.3791111 0)
(11.002248 1.0752994 5.1421926e-18)
(11.048298 0.7911418 4.7116243e-18)
(11.119642 0.42261663 4.3339504e-18)
(11.030243 0.18416671 4.067575e-18)
(8.3870822 1.2569116 1.1014132e-17)
(9.5129359 1.9212351 0)
(10.165003 1.8421869 -1.4945046e-17)
(10.636566 1.7361209 0)
(10.897467 1.4302185 0)
(11.104959 1.0987038 -5.0767293e-18)
(11.155246 0.79362469 -4.6431051e-18)
(11.224342 0.39969838 0)
(11.134668 0.19444999 -3.9990807e-18)
(8.2668147 1.3504492 -1.1013893e-17)
(9.3855707 2.0677452 -8.8996563e-18)
(10.096654 1.9687259 7.4713626e-18)
(10.607865 1.8525577 0)
(10.902343 1.5451983 0)
(11.140522 1.206495 5.0767178e-18)
(11.212468 0.89367886 4.64309e-18)
(11.301865 0.48311229 0)
(11.229433 0.21222346 3.9990802e-18)
(8.0603623 1.5815844 0)
(9.3670175 2.1894375 8.8996218e-18)
(10.143878 2.0774825 -7.4556174e-18)
(10.694757 1.935323 0)
(11.008739 1.6012755 0)
(11.257306 1.2316278 -4.9999342e-18)
(11.333359 0.8948292 -4.5634513e-18)
(11.420947 0.45748592 0)
(11.348206 0.22371024 -3.9187034e-18)
(7.9509454 1.733092 0)
(9.238036 2.3758442 0)
(10.078457 2.2380878 7.4556133e-18)
(10.673134 2.0777275 -3.168353e-18)
(11.018302 1.7344922 -2.7858926e-18)
(11.300057 1.3543341 7.4782128e-18)
(11.400184 1.0074796 6.8229391e-18)
(11.509145 0.55278784 0)
(11.458391 0.24212035 5.8555305e-18)
(7.7434937 2.0505107 0)
(9.2414743 2.5197683 -4.4696104e-18)
(10.142015 2.3564244 0)
(10.772866 2.1636501 3.167844e-18)
(11.140221 1.7927456 2.7853712e-18)
(11.432814 1.3798473 -2.360688e-20)
(11.535878 1.0059605 -4.4943526e-18)
(11.642964 0.52361904 0)
(11.591967 0.25594905 -1.9368275e-18)
(7.6709647 2.3013076 -5.6504896e-18)
(9.119698 2.7614259 4.4691788e-18)
(10.086131 2.5657113 0)
(10.764828 2.3434445 0)
(11.162943 1.9584071 0)
(11.488247 1.5266482 -4.882916e-18)
(11.618668 1.1374043 2.6152865e-20)
(11.745054 0.6325734 0)
(11.716246 0.27460637 0)
(11.882874 0.29189293 0)
(11.889222 0.59237604 0)
(11.766414 1.1195891 -1.0826861e-19)
(11.631371 1.533853 2.5483987e-18)
(11.300335 1.993746 0)
(10.885332 2.4117205 -3.9013108e-19)
(10.185897 2.6695241 -2.720904e-20)
(9.1824242 2.9101048 -3.7080584e-18)
(7.515852 2.7122096 1.0530181e-17)
(12.040828 0.3031838 -9.2694741e-19)
(12.008113 0.69998971 -1.2575531e-19)
(11.87359 1.2499894 1.1110112e-18)
(11.713675 1.6761788 -3.4048066e-21)
(11.362814 2.1579947 -1.167616e-18)
(10.917894 2.5973953 1.5157699e-18)
(10.191015 2.9010424 -4.626434e-19)
(9.1625614 3.2083423 4.8241229e-18)
(7.7064947 3.0930404 -5.3593058e-18)
(12.203297 0.31262648 1.8566869e-18)
(12.179662 0.65531148 0)
(12.04449 1.221136 2.170742e-18)
(11.877657 1.6746924 -1.1840166e-18)
(11.533251 2.1809102 1.1814495e-18)
(11.08649 2.6514522 -2.8725588e-18)
(10.378645 2.9870416 -2.2509662e-18)
(9.3809821 3.329155 1.0856548e-18)
(7.9245715 3.3608679 6.4841216e-20)
(12.377669 0.3222089 -9.3027129e-19)
(12.30185 0.75603456 -1.2455404e-19)
(12.169933 1.3610959 -9.5595336e-19)
(11.982344 1.8305564 1.3516069e-18)
(11.623706 2.3610069 5.0056002e-19)
(11.151338 2.8526397 1.5453091e-18)
(10.425051 3.2288872 1.8188041e-18)
(9.4144139 3.6155372 5.661415e-19)
(8.0471373 3.6844805 -6.4816905e-19)
(12.564641 0.33219734 2.2525617e-19)
(12.506019 0.71839324 -2.4306868e-19)
(12.365724 1.3241961 -1.3553418e-19)
(12.167227 1.8156771 4.4098613e-19)
(11.81958 2.3684659 -5.0502329e-19)
(11.349149 2.8910982 -5.691787e-19)
(10.643354 3.2979343 -4.6875705e-19)
(9.6514042 3.7162747 5.2929252e-19)
(8.2302224 3.8983431 -7.1284781e-19)
(12.762402 0.34250292 -2.2783033e-19)
(12.637092 0.81522402 2.4599946e-19)
(12.502044 1.4620318 -1.3462755e-19)
(12.293632 1.9809966 -1.6757776e-21)
(11.93233 2.5571254 -1.6436196e-19)
(11.436471 3.1006529 3.8723583e-19)
(10.712741 3.5445291 -4.7002161e-19)
(9.7065931 3.9990816 5.3201936e-19)
(8.3854696 4.1741973 0)
(12.969403 0.35179726 -2.1887609e-19)
(12.868899 0.78229976 -1.2134542e-19)
(12.727707 1.4262286 -1.2984484e-19)
(12.495846 1.9517441 -1.4926066e-19)
(12.143855 2.5493215 -1.6546065e-19)
(11.649909 3.1229431 3.9509274e-19)
(10.942165 3.5945836 -9.1287253e-19)
(9.9557114 4.0743115 1.108903e-18)
(8.5877857 4.3462992 -6.6421954e-19)
(13.185681 0.35983012 6.51467e-19)
(13.011692 0.87437292 4.6953834e-19)
(12.874987 1.5550656 6.4791392e-19)
(12.644266 2.1238537 7.1900239e-19)
(12.280433 2.7432817 5.033033e-19)
(11.763478 3.3382799 -1.8727472e-19)
(11.040359 3.8430504 -4.7108723e-19)
(10.042729 4.3526032 -4.0772884e-20)
(8.7662381 4.5890397 -7.0660371e-19)
(13.411237 0.36563741 -1.2778818e-18)
(13.264538 0.84284736 -4.7539309e-19)
(13.123582 1.5163032 -1.6698353e-18)
(12.861314 2.0785051 -4.4122344e-19)
(12.505763 2.7172313 1.1281246e-18)
(11.993697 3.3406696 5.7903728e-19)
(11.284983 3.8705791 -2.7078208e-18)
(10.307932 4.4041706 5.3721303e-19)
(8.9653575 4.7333138 1.4126074e-18)
(9.1564509 4.9530975 -1.4127051e-18)
(10.42218 4.6788263 5.8043015e-19)
(11.413353 4.1183491 4.062118e-18)
(12.135995 3.5589483 -5.7568987e-19)
(12.669538 2.9134771 2.9125367e-19)
(13.032591 2.2546609 8.3784006e-19)
(13.28763 1.6348633 1.1593524e-18)
(13.422866 0.93580302 -5.7139144e-20)
(13.646619 0.37036146 1.7290641e-18)
(9.3562571 5.0777141 5.6255758e-18)
(10.69957 4.7088624 5.3775059e-19)
(11.672113 4.1218409 -5.8569046e-18)
(12.382087 3.5386911 -1.8350114e-19)
(12.908145 2.8653039 -1.1391262e-18)
(13.262045 2.1914061 -1.0020882e-18)
(13.557331 1.5895803 -2.0886071e-18)
(13.687868 0.89678236 0)
(13.891242 0.37299543 -8.3320861e-19)
(9.560343 5.2796841 -7.2215206e-18)
(10.840594 4.9808113 5.5127888e-18)
(11.8301 4.3665493 3.171395e-18)
(12.552941 3.7564914 -1.8156712e-19)
(13.100471 3.0599083 2.5020484e-18)
(13.458337 2.3687468 4.931314e-21)
(13.737703 1.6910528 3.1555055e-19)
(13.865225 0.9819868 1.6295825e-18)
(14.144022 0.3740788 1.5566663e-18)
(9.7629751 5.3882245 -1.4414827e-18)
(11.127225 4.9891439 9.9532743e-19)
(12.09928 4.3445876 -4.6358358e-19)
(12.811399 3.7120923 0)
(13.349532 2.9872533 -2.5382344e-18)
(13.693155 2.286418 0)
(14.022973 1.6418712 1.8284898e-18)
(14.143357 0.94591044 -3.3526425e-18)
(14.403549 0.37184439 -6.9975561e-20)
(9.9827741 5.5751864 -6.9388805e-19)
(11.300462 5.2582991 -4.4449436e-18)
(12.287747 4.5830518 4.600302e-19)
(13.010628 3.925852 0)
(13.570205 3.1761009 -2.5542402e-18)
(13.916732 2.451252 2.0915843e-18)
(14.220455 1.7242125 1.1881394e-19)
(14.33331 1.0213753 3.369999e-18)
(14.6692 0.36715438 -1.5239726e-18)
(10.194145 5.6701186 -6.5427456e-18)
(11.59371 5.2442648 -3.805452e-18)
(12.564209 4.5332372 -3.3425152e-20)
(13.277745 3.8557745 -3.7020828e-19)
(13.825805 3.0771862 -5.0128002e-20)
(14.163432 2.3647769 -4.1486035e-18)
(14.51499 1.6662221 1.156438e-19)
(14.623911 0.98229827 -1.6721115e-18)
(14.93961 0.35898284 0)
(10.436181 5.8436589 4.5041087e-18)
(11.802558 5.5076651 5.5620624e-18)
(12.784121 4.7611292 -3.41304e-20)
(13.505416 4.0615177 -3.6393863e-19)
(14.07072 3.2541125 2.2493974e-18)
(14.400598 2.5067353 2.1966378e-18)
(14.722502 1.7271978 1.0868858e-19)
(14.82288 1.0442426 -9.959241e-20)
(15.213229 0.34845091 0)
(10.663366 5.9262032 0)
(12.101513 5.4682663 -5.2118415e-19)
(13.067105 4.6802312 4.443392e-19)
(13.78063 3.9629698 -5.1961813e-18)
(14.335131 3.1291545 -1.4732407e-19)
(14.660665 2.4098425 3.7093423e-18)
(15.02436 1.6575141 -3.1798528e-18)
(15.122988 1.0049465 2.9676689e-18)
(15.487084 0.33381615 2.5280951e-18)
(10.932566 6.0821832 1.1004044e-17)
(12.349662 5.721599 9.4983158e-18)
(13.314207 4.89474 -4.3715077e-19)
(14.031481 4.1581608 5.4765411e-18)
(14.588688 3.2876676 -1.3536212e-19)
(14.910673 2.526019 -3.7723284e-18)
(15.236041 1.6964668 3.4395489e-18)
(15.32706 1.0549506 -3.1014232e-18)
(15.758955 0.31779951 -1.6309558e-19)
(16.048105 0.29576709 -2.3806155e-18)
(15.631749 1.0037362 2.6335012e-18)
(15.542037 1.6137186 0)
(15.183312 2.4125018 -2.2504489e-19)
(14.876194 3.1397018 4.1748054e-18)
(14.324553 4.0227331 4.6859974e-18)
(13.614401 4.7718944 0)
(12.671778 5.6454233 -3.8413383e-19)
(11.207421 6.1589164 -1.0752941e-17)
(16.310664 0.26550333 0)
(15.844032 1.0316651 -2.7240428e-18)
(15.757069 1.6223177 0)
(15.454414 2.4889737 -2.1623567e-19)
(15.157304 3.2572394 -7.557285e-18)
(14.620187 4.1905815 -5.1181404e-18)
(13.921853 4.9617581 5.951087e-18)
(13.013003 5.8923163 -7.4349421e-18)
(11.593837 6.3085219 8.9377774e-18)
(16.556907 0.22828072 0)
(16.148666 0.95866696 0)
(16.062088 1.5227223 -2.6671176e-18)
(15.738008 2.350439 0)
(15.45875 3.0803176 3.8664777e-18)
(14.946622 4.0204959 -4.3445099e-18)
(14.259495 4.7954864 -5.4132157e-18)
(13.3853 5.7712123 -4.2311377e-19)
(11.967197 6.3591537 -1.2040994e-18)
(16.799658 0.18556225 0)
(16.359662 0.97435817 0)
(16.269921 1.5069362 2.7224785e-18)
(16.010796 2.3941202 2.7569177e-18)
(15.745954 3.1598701 3.4180395e-18)
(15.250744 4.1501919 4.7271151e-18)
(14.576951 4.9392366 0)
(13.745825 5.9587952 6.640501e-18)
(12.421739 6.461925 -1.0508766e-17)
(17.028521 0.14234568 3.0014087e-20)
(16.65061 0.88924643 -3.2708105e-20)
(16.564728 1.3908946 0)
(16.287897 2.2323719 -2.3615792e-19)
(16.044029 2.9576177 -6.988421e-18)
(15.583682 3.9522874 2.4738008e-19)
(14.919305 4.7403272 5.0657516e-18)
(14.108057 5.7973519 -7.3497121e-18)
(12.860785 6.4689453 1.0104826e-17)
(17.23947 0.098480386 -2.7901529e-20)
(16.849223 0.89288564 3.0454744e-20)
(16.761315 1.3543426 0)
(16.551812 2.2431672 -3.0278603e-18)
(16.326673 2.9986486 3.7364034e-18)
(15.889677 4.0422145 -2.3423127e-19)
(15.233039 4.8457944 -5.2395321e-18)
(14.458344 5.9173908 0)
(13.411515 6.4932911 -9.9937781e-18)
(17.431018 0.054893142 2.5813e-20)
(17.121483 0.79657398 1.809819e-18)
(17.037213 1.2258503 -7.0126063e-20)
(16.81297 2.0597523 2.3546659e-18)
(16.611245 2.768782 3.0425347e-18)
(16.221713 3.816801 0)
(15.569081 4.6253293 0)
(14.776114 5.7104152 -6.1409229e-18)
(13.950992 6.4332382 0)
(17.613883 0.0035930547 0)
(17.294918 0.78457142 -1.8759737e-18)
(17.21381 1.1731809 0)
(17.056971 2.0421988 -2.6549731e-18)
(16.879401 2.7713469 -2.7678612e-18)
(16.525653 3.8640525 3.2139656e-18)
(15.868037 4.7126115 0)
(15.067388 5.7567483 6.7930981e-18)
(14.617262 6.352775 -7.4586545e-18)
(17.710005 -0.045251508 0)
(17.540749 0.67922336 0)
(17.461979 1.035858 -6.0308128e-20)
(17.293815 1.8404118 -7.4555991e-20)
(17.158782 2.4933146 1.5881026e-19)
(16.859808 3.6008739 -3.3188959e-18)
(16.252242 4.4569469 0)
(15.312814 5.4693631 0)
(15.196556 6.1858901 7.3692196e-18)
(17.874156 -0.058276884 -3.8801292e-20)
(17.674747 0.66575381 -4.1995202e-21)
(17.61503 0.97142072 1.582323e-18)
(17.513824 1.8022084 0)
(17.361465 2.5067762 0)
(17.14192 3.618121 -1.7205956e-19)
(16.473958 4.6658106 -3.1298827e-18)
(15.412547 5.5673289 1.4041789e-19)
(15.612227 6.1075356 0)
(18.014679 -0.10808383 -3.3822638e-20)
(17.888382 0.62465418 -3.5371543e-21)
(17.838575 0.95702543 -1.4340347e-18)
(17.726294 1.8192106 0)
(17.604671 2.5513739 0)
(17.404489 3.7720528 1.4386552e-19)
(16.613768 4.8368965 8.4141273e-18)
(15.343497 5.7435607 -1.2520393e-19)
(14.869533 5.9633635 7.8047729e-18)
(18.100905 -0.09797099 0)
(17.990062 0.59764777 2.0724359e-18)
(17.958634 0.88589838 0)
(17.934344 1.762309 8.5999933e-20)
(17.787124 2.572948 -9.3894596e-20)
(17.597026 3.8161371 -1.2151451e-19)
(16.801095 5.0925301 -9.8010075e-18)
(14.9874 5.842526 1.1179837e-19)
(13.112372 5.9050529 -7.3314764e-18)
(18.177251 -0.13362362 1.5214788e-18)
(18.176293 0.53006433 -1.9793232e-18)
(18.154316 0.85840463 1.9423396e-18)
(18.145572 1.7581562 2.0115197e-18)
(18.007159 2.6107497 -2.410461e-18)
(17.844025 4.0063892 2.3481772e-18)
(16.796255 5.2890739 4.6549929e-18)
(14.591112 5.8545218 7.4730813e-18)
(10.680947 7.0188307 0)
(18.221403 -0.13093753 -2.9371718e-18)
(18.256494 0.48241173 1.5377652e-18)
(18.238293 0.7849343 -1.8789604e-18)
(18.353936 1.6702964 -3.7744238e-19)
(18.191084 2.6373477 2.3038217e-18)
(18.034849 4.0270245 -6.6913485e-19)
(16.795225 5.5200691 0)
(13.871838 6.1796687 -7.1781562e-18)
(7.370085 7.0282113 0)
(18.255252 -0.16980854 2.7205033e-18)
(18.41723 0.386082 -1.4700424e-18)
(18.405949 0.74211746 1.4711655e-18)
(18.570896 1.6352408 -1.5562904e-18)
(18.410396 2.6439532 -4.2784887e-20)
(18.30595 4.1919028 -1.5495696e-18)
(16.578037 5.7718972 2.7985497e-18)
(12.513676 5.6618745 6.190691e-18)
(1.3716576 1.4855008 -6.94664e-18)
(18.251495 -0.19227846 -1.3303928e-18)
(18.475866 0.32097431 3.9088027e-20)
(18.459898 0.66056704 -1.4046725e-18)
(18.77114 1.5119605 3.0345243e-20)
(18.610672 2.6532518 -3.2735803e-20)
(18.452007 4.1971801 -3.227502e-19)
(16.13907 5.7882043 -5.1366463e-18)
(9.7232932 4.8957678 -5.8370157e-18)
(-0.63608557 1.397149 6.5859393e-18)
(18.228951 -0.21764683 -1.7386386e-20)
(18.609284 0.19652415 1.8587281e-20)
(18.603911 0.59706903 1.0492124e-18)
(18.979099 1.4483923 4.0881987e-19)
(18.820699 2.6207751 -4.3637859e-19)
(18.616309 4.3080403 1.5373906e-20)
(15.447802 5.9401957 4.3158551e-18)
(7.2543625 4.1314703 5.1141307e-18)
(-0.66929802 2.1790592 -5.9339193e-18)
(18.18516 -0.24160891 1.2969554e-18)
(18.63653 0.12709786 -1.3924937e-20)
(18.632944 0.50337818 -1.0260504e-19)
(19.154078 1.2946835 -3.9631161e-19)
(19.009533 2.6071153 4.2731099e-19)
(18.57665 4.3450811 2.5968974e-19)
(14.230473 5.8750575 -1.9712141e-18)
(3.9923871 2.1487532 -4.8447375e-18)
(-1.2845118 2.5243042 5.654199e-18)
(-1.4251497 2.4988097 9.25038e-18)
(2.0181832 1.295087 5.5608809e-20)
(13.010099 5.7335284 -5.7387247e-21)
(18.547541 4.311632 4.8516008e-21)
(19.162145 2.550261 0)
(19.326621 1.2165907 -7.4289865e-21)
(18.748853 0.42260441 -1.7968208e-18)
(18.724885 -0.0083793124 -8.2043662e-19)
(18.120248 -0.26585773 -2.6423645e-18)
(-1.5292537 2.5758908 -8.9584517e-18)
(1.262123 1.2763598 0)
(11.916287 5.5901265 0)
(18.497556 4.2564327 4.384889e-18)
(19.331615 2.3851985 0)
(19.450464 0.98192248 -8.0588308e-19)
(18.749414 0.28620085 2.4167149e-18)
(18.708257 -0.08781371 7.756311e-19)
(18.03441 -0.28634788 -1.5341121e-18)
(-1.5730626 2.5853681 -6.3473161e-20)
(1.5864684 2.3897279 5.1131328e-20)
(10.843294 5.1823509 0)
(18.404832 4.1771998 -4.302068e-18)
(19.434215 2.3155444 0)
(19.5777 0.8929115 7.8754821e-19)
(18.829901 0.19776547 -1.5163558e-18)
(18.749777 -0.22516619 -2.0047884e-20)
(17.929533 -0.30338306 2.8480193e-18)
(-1.649224 2.7415429 -1.6099887e-17)
(2.1439043 3.6711271 1.1148247e-17)
(10.122066 5.2178786 -4.3961042e-20)
(18.265849 4.0822835 0)
(19.559316 2.1212275 -2.8711795e-18)
(19.661776 0.64963684 0)
(18.798545 0.062673797 1.1590609e-20)
(18.694502 -0.30365171 -2.0114557e-20)
(17.80718 -0.31746323 8.7143747e-21)
(-1.6817928 2.8456534 1.5478541e-17)
(2.4234693 4.4743088 -5.1780205e-19)
(9.3636742 4.968358 1.7378052e-19)
(18.070517 4.0252527 -2.4589457e-20)
(19.621773 2.0313503 -6.6311847e-19)
(19.757662 0.54245347 0)
(18.847622 -0.035609744 1.3370971e-18)
(18.696711 -0.44094741 0)
(17.669262 -0.32877238 0)
(-1.7343768 3.0521702 -5.1347807e-20)