/*--------------------------------*- C++ -*----------------------------------*\
  =========                 |
  \\      /  F ield         | OpenFOAM: The Open Source CFD Toolbox
   \\    /   O peration     | Website:  https://openfoam.org
    \\  /    A nd           | Version:  11
     \\/     M anipulation  |
\*---------------------------------------------------------------------------*/
FoamFile
{
    format      ascii;
    class       volScalarField;
    location    "0.0775";
    object      p;
}
// * * * * * * * * * * * * * * * * * * * * * * * * * * * * * * * * * * * * * //

dimensions      [0 2 -2 0 0 0 0];

internalField   nonuniform List<scalar> 
880
(
80
80
80
80.00002172162473
80
80
79.99999999999991
80.00029076828156
80
79.99999999999999
79.99999999991361
80.00173847057836
80
80
80.00000000150725
80.00094289057012
80
80.00000000000001
79.99999999999994
80.00000000008801
79.99999999999999
80
79.99999999999983
80
79.99999996217439
80.00000003318874
80.0077886781108
79.97911557580335
80.4967021669584
82.2673677262155
83.91594367345337
84.81244897206551
80.0000010818234
80.00000190701405
80.00000222360561
80.00000092359382
80.00003557309869
80.00006946722797
80.00009809735707
80.00004864084161
80.03295015176401
80.04520339205698
80.05730620622133
80.04754096525356
85.61547099044105
86.48213959189454
87.25534419819762
87.76915809686372
87.06081683740373
85.36601964085877
83.86938220839092
82.59959653850582
80.09679090495038
80.16346620096816
80.18366557876089
80.12238531698409
80.0002264737827
80.00042363068452
80.0005346224398
80.0003753279404
80.00000672089176
80.00000942036334
80.00000966145795
80.00000572062439
80.00000144948086
80.00000011842882
80.0000000017928
80.00000000002559
80.00013639228141
80.00002137990484
80.00000101016052
80.00000000553732
80.04775002959782
80.00987813194477
80.00070876117876
80.00001125749006
81.40977634243106
80.47881167430229
80.07135329951593
80.00308490781879
80.00002156273537
79.99999983746648
79.99999999518704
80
80.00000330171159
79.9999998124548
79.9999999830377
79.99999999915714
79.99893458671822
79.99999743168628
80.00000230117917
80.00000026683415
80.74778316520626
79.99704690437366
79.99959880285338
79.99999739514055
79.99999252877141
79.99985203034758
80.01675626961935
89.8394818916736
79.99999975272729
80.00008019281061
80.1003431022708
98.893343699036
80.00001168322412
80.00042251409585
80.22524973401926
104.5588495611984
80.00001937842039
80.00075577159654
80.35711728454406
110.2435786291235
113.7649866835933
80.42788875391936
80.00093297490503
80.0000249565512
117.0242982839238
80.54805846833047
80.00135589618081
80.00003507074045
118.8841432406299
80.61145369084105
80.00153287208366
80.00004240744616
121.7531131526363
80.79925514602935
80.00246810245736
80.00006950517029
80.00006831240189
80.00241766479782
80.90068469754848
125.6418862049481
80.00009059518189
80.00324026516681
81.11072993648214
127.8529585089866
80.00012587813413
80.00423382249822
81.21990790764053
124.3078191903971
80.00003369944247
80.00109707418997
80.60478691112598
108.8682883177534
80.00010745964278
80.01290432024908
80.98780458333127
90.45542087743722
79.99980961326723
80.00046705290551
80.24170657787829
72.41248075503037
79.99983925804396
79.98703268619161
79.30447760648393
61.48462419530036
79.99993779971881
79.97324696002194
78.23659516041816
53.42036137303734
51.176990837102
78.27496229004399
79.98524842883909
79.99996383880467
49.53959279586503
78.26933803696711
79.98683422923665
79.99997038068686
50.81985456087038
78.77486602231765
79.99343053803828
79.99998679154967
50.52235882587323
78.71717264483767
79.99280744966089
79.99998554127072
59.13908126751225
79.50574246161874
79.99797528706816
79.99999571323808
67.72783534897927
79.86477893747278
79.99961653034759
79.99999933195281
73.5456839907873
79.95939666017084
79.99990257922911
79.99999985734159
77.21535321001841
79.98242153630882
79.99994821430332
79.99999985287774
74.47098006102134
79.84178024168042
79.99857868236047
79.99999436479807
74.57677455192839
79.84396654207856
79.99858338164643
79.99999436315227
74.79003258816715
79.84536834874599
79.99858309057868
79.99999433469172
75.40930555832304
79.85287377140666
79.99861013212076
79.99999441778866
77.21535320979167
79.98242153602861
79.99994821388134
79.99999985326747
73.54568399039452
79.95939665977765
79.99990257821416
79.9999998574776
67.72783534878243
79.8647789376699
79.99961653033317
79.99999933204896
59.13908126771267
79.50574246245172
79.99797528712288
79.9999957129736
79.99996383920111
79.98524843000737
78.2749622900063
51.1769908369455
79.99997038130827
79.98683422959716
78.2693380371214
49.53959279589234
79.99998679097622
79.99343053867365
78.77486602227638
50.81985456133606
79.99998554140582
79.99280744983666
78.71717264590879
50.52235882561001
53.4203613724425
78.2365951601288
79.97324695917668
79.99993779956955
61.48462419457918
79.30447760588605
79.98703268523381
79.99983925645977
72.41248075486277
80.24170657716073
80.00046705301955
79.99980961300901
90.45542087763542
80.987804583143
80.01290431990792
80.00010746093646
80.00006831207315
80.00241766560238
80.9006846981096
125.641886205717
80.00009059534365
80.00324026543859
81.11072993648253
127.8529585089176
80.00012587877848
80.00423382251323
81.21990790705546
124.3078191903529
80.00003370065809
80.00109707417778
80.60478691070296
108.8682883176081
121.7531131540596
80.79925514519454
80.00246810353838
80.00006950502571
118.8841432420132
80.61145369226476
80.00153287228717
80.00004240769039
117.0242982835208
80.54805846976569
80.00135589709581
80.00003507051466
113.7649866833711
80.42788875260115
80.00093297497017
80.00002495631895
79.99999252936358
79.99985203094562
80.01675626968965
89.83948189078826
79.9999997521864
80.00008019211985
80.10034310227465
98.89334369914251
80.00001168286734
80.00042251406578
80.22524973489423
104.5588495611524
80.00001937799684
80.0007557717426
80.35711728365096
110.2435786305227
79.99999739502671
80.00000026709725
79.99999999914638
80
79.99959880208877
80.00000230110557
79.99999998366717
79.99999999500841
79.9970469045568
79.99999743198632
79.99999981206498
79.99999983723797
80.74778316523449
79.99893458682628
80.00000330173398
80.00002156272463
79.99999999973818
80.00000000553442
80.00001125772779
80.00308490805232
80.00000000169518
80.00000100996094
80.00070876250669
80.07135329955594
80.00000011869126
80.0000213799172
80.00987813117924
80.47881167438278
80.00000144967245
80.0001363921416
80.04775003028728
81.4097763421474
80.00000672009637
80.00022647303723
80.09679090469594
87.06081683716822
80.00000941968158
80.00042363084181
80.16346620104036
85.36601964022771
80.00000966120521
80.00053462330091
80.18366557864141
83.86938220818752
80.00000572039866
80.00037532847327
80.12238531692046
82.59959653812614
87.76915809705314
80.04754096648406
80.0000486403349
80.00000092321224
87.25534419823526
80.05730620756191
80.00009809718817
80.00000222375294
86.48213959283048
80.04520339130632
80.00006946755835
80.00000190678259
85.61547099026832
80.03295014938391
80.0000355727317
80.00000108207348
84.81244897234906
79.97911557846636
80
80.00000000009106
83.91594367308977
80.00778867554514
80
79.99999999999999
82.26736772647736
80.0000000330374
80
79.99999999999999
80.4967021669332
79.9999999619681
80
79.99999999999989
80
79.99999999999997
80
80.00002172578259
80.00000000000003
80.00000000000001
79.99999999999999
80.00029076275761
80
80
79.99999999994301
80.00173846893598
80
80
80.00000000129585
80.00094289079935
80.00001951075197
80.00023571621874
80.00212275988541
80.12299269701981
80.00023572970871
80.00000372485994
79.99989903468676
80.513810732682
80.00212273289037
79.99989899793607
80.18132646945543
83.96159595101054
80.12299270373511
80.51381073159047
83.96159598059816
100.6992997652666
130.80539334973
109.2358107652855
98.05609125311484
87.69065386344606
126.8759412161607
121.6643459222093
118.5027704414852
108.8501404127063
124.594145144076
122.8209023578224
121.8271796664301
117.7823169205758
123.9793467004678
123.1532608490492
123.159183528704
120.9888902145301
123.5521142216795
125.0310418320875
125.7134479085707
128.2285348805642
124.5779035913748
125.9906180258974
126.9206746140897
130.7796012179389
124.4702826874538
126.044386080969
127.1080267224922
130.1686990207029
124.6650499383074
126.400358313265
127.8099344403808
129.2880187649315
107.8636607949703
87.9746762913226
82.46776366375255
82.25756092817487
98.40477331085343
81.69027765552998
80.84465076129048
81.91030053597245
88.90717527345519
79.46070644479309
81.16883638501643
82.41858327183702
70.38432286269531
73.26199145964226
79.78505341081573
81.89351484521937
82.04821480330078
81.05014602484452
80.26395744100047
80.02597691768031
81.91164335784958
81.10455073278253
80.33695068439816
80.04145160099688
82.38331276762632
81.45507385998845
80.48007016785391
80.06422426903096
82.11413424621757
81.03332758008375
80.17052724277436
79.99461764461908
80.00066247543018
79.9999986594522
79.99996878515429
96.05834876122402
80.00131119363806
80.00000099851886
80.00007647721515
106.430820950926
80.00217146703534
79.99999877695106
80.00013515413831
112.8246187645354
79.99811458084699
79.99993712844122
80.00016436441508
114.24375410273
183.7432716008809
194.5554669092998
200.182920027044
207.745890661688
210.1521624038562
207.6203472648913
207.4167319315937
213.7834572734341
211.3855932185753
203.4108172691028
207.5169265219963
212.627312866036
225.8104353122731
210.4214778179784
207.6554994581809
211.9196057332325
213.2276046706255
216.9558781116878
217.4191090920253
218.1399993899283
218.4385440109826
222.0827101072151
222.6890831078233
222.8199404741067
218.3013389235228
222.513467536127
223.4346331590827
223.4514082817456
218.2846850789478
222.9372009268023
224.1321781328589
224.1996418434319
218.0327265014367
214.1641034535226
198.7161329011913
163.5760143832715
221.8911232756162
217.9322849277617
202.8666541125874
177.7783579382591
223.0006055354558
218.9036913490816
204.4249894358127
190.9504563368951
223.5400983180754
219.9227222233994
206.0807063416324
213.7088917258838
101.1739077397438
26.07931692459459
9.428102397211319
7.485453754921026
80.19047419493374
15.37154441722722
8.595707813623079
7.417601362340609
53.34207460959534
9.96504699270832
7.979746853442815
8.335849889383047
30.75255520713351
5.332962900467098
9.482659598780455
9.464827612828756
8.420379949098562
8.96478060451572
9.547311081310522
7.885683791356679
7.504610137255161
7.991590525311504
7.90675465704007
5.873840304460229
8.306136803954425
8.726222204116533
8.17859228418973
6.764739466031606
9.505631994198772
9.858501360473529
8.574856256277657
7.763032182319067
23.97353512397517
39.98988710579362
48.67491946030562
58.39258428460693
20.29553181458955
34.50158371188711
42.25212019251383
54.7640580299221
19.45083792190615
34.66466699264776
43.09601738586785
54.33730029363335
14.67867129293895
28.30622727189792
40.33882684871931
50.9401952187167
42.33661832469962
23.42270680796164
16.7888873824421
23.1105512497229
35.29926273490356
19.26370221129666
7.422067404047668
6.44324932369161
28.92101316420367
12.31892431131001
3.97009073558682
4.021172601124526
17.50669310185641
5.832584118891782
1.841158444505459
2.935727514629542
5.301066230493807
8.679247947897474
16.28446677038165
23.91563324574569
5.564584863928167
9.122656948692478
19.92326172744283
31.45436262622771
10.23512762481035
14.5353807877633
24.94090450693789
39.21144938265493
26.46359933828741
26.13192452738325
31.5991983105804
40.71848668044474
23.91563324574767
31.45436262623485
39.21144938267243
40.71848668047666
16.28446677037897
19.92326172742309
24.94090450699998
31.59919831061913
8.679247947881152
9.122656948669718
14.53538078769205
26.13192452727439
5.301066230498338
5.564584863934759
10.23512762476171
26.46359933810291
23.11055124948835
16.78888738231283
23.42270680788679
42.33661832435627
6.443249323663893
7.422067404040925
19.26370221127893
35.29926273478915
4.021172601135999
3.970090735581197
12.31892431126871
28.9210131641591
2.935727514637785
1.841158444507724
5.83258411889279
17.50669310184694
50.94019521871176
40.33882684882435
28.30622727198476
14.67867129284229
54.33730029358637
43.09601738591306
34.66466699271697
19.4508379218012
54.76405802985395
42.25212019241624
34.50158371190508
20.29553181456653
58.39258428445457
48.67491946012252
39.98988710573977
23.97353512389417
7.885683791229622
9.547311081451799
8.964780604538804
8.420379949008877
5.873840304407726
7.906754657109538
7.99159052535081
7.504610137242964
6.764739466010133
8.178592284245331
8.726222204160408
8.306136803951354
7.763032182306541
8.574856256310333
9.858501360507075
9.505631994187107
7.485453754759825
9.428102396914214
26.07931692445634
101.1739077397062
7.417601362257881
8.595707813542655
15.37154441712283
80.19047419437558
8.335849889284553
7.97974685336535
9.965046992713308
53.342074609454
9.464827612725157
9.48265959865704
5.332962900452467
30.75255520710808
163.576014382986
198.7161329016826
214.1641034535838
218.0327265018849
177.7783579379394
202.8666541129794
217.9322849280559
221.8911232764362
190.9504563366706
204.4249894357965
218.9036913496386
223.0006055362045
213.7088917259032
206.0807063410741
219.9227222238662
223.5400983189686
218.1399993909654
217.4191090929644
216.9558781113159
213.2276046693306
222.8199404752052
222.6890831086403
222.0827101067421
218.4385440097452
223.4514082822517
223.4346331597578
222.5134675359093
218.3013389230439
224.1996418440333
224.1321781334695
222.9372009266502
218.2846850787323
207.7458906644501
200.1829200260944
194.5554669096196
183.7432716003823
213.7834572763939
207.4167319304466
207.6203472654033
210.1521624034515
212.6273128683822
207.5169265208311
203.4108172692918
211.385593217972
211.9196057347843
207.6554994569976
210.4214778182616
225.8104353115588
96.0583487609663
79.99996878422475
79.99999865939817
80.0006624754796
106.4308209504561
80.00007647646413
80.00000099849603
80.0013111938302
112.8246187639013
80.00013515358842
79.99999877690755
80.00217146735712
114.2437541025369
80.00016436460245
79.99993712833074
79.99811458140684
80.02597691774491
80.26395744086935
81.05014602512733
82.04821480274097
80.04145160089135
80.33695068437595
81.10455073284226
81.91164335724459
80.06422426875753
80.48007016809755
81.45507385977562
82.38331276718611
79.99461764421353
80.17052724306721
81.03332757983533
82.11413424564243
82.25756092798444
82.46776366363606
87.97467629111401
107.8636607950059
81.91030053575628
80.84465076119008
81.69027765536185
98.4047733109438
82.41858327157095
81.16883638487145
79.46070644454552
88.90717527366112
81.89351484482653
79.78505341054097
73.26199145914133
70.38432286287878
128.228534880072
125.7134479077442
125.031041832499
123.5521142226808
130.7796012174472
126.9206746138014
125.9906180263066
124.5779035924269
130.1686990202345
127.1080267223294
126.0443860813728
124.4702826883214
129.2880187646704
127.8099344402246
126.4003583135114
124.6650499388457
120.9888902148061
117.7823169202575
108.8501404136143
87.69065386361964
123.1591835288375
121.8271796662743
118.5027704423456
98.05609125381476
123.1532608492215
122.8209023577716
121.6643459236879
109.2358107645264
123.9793467005952
124.5941451438786
126.8759412165708
130.8053933533505
77.54220403107425
79.97157747096868
79.99984429175652
79.99999952899424
76.69050856770275
79.95081553992287
79.99966089418766
79.99999877730498
76.51393563400453
79.92174361118558
79.9993404754896
79.99999742533271
75.36109160647118
79.86725187719607
79.99879693241489
79.99999527139363
79.99999436522747
79.99857868231527
79.84178024138561
74.47098006044224
79.9999943634422
79.99858338210198
79.84396654141258
74.57677455188647
79.99999433424918
79.99858309104336
79.84536834850289
74.79003258769731
79.99999441649372
79.99861013271136
79.85287376992549
75.40930555791792
79.99999527108241
79.99999742500663
79.99999877583205
79.99999952743913
79.99879693257884
79.99934047546974
79.99966089396641
79.99984429113563
79.86725187731903
79.92174361064906
79.9508155404838
79.97157747056353
75.36109160619139
76.51393563336671
76.69050856758521
77.54220403129945
)
;

boundaryField
{
    back
    {
        type            empty;
    }
    inlet
    {
        type            zeroGradient;
    }
    front
    {
        type            empty;
    }
    top
    {
        type            zeroGradient;
    }
    outlet
    {
        type            fixedValue;
        value           uniform 80;
    }
    bottom
    {
        type            zeroGradient;
    }
    wall
    {
        type            zeroGradient;
    }
}


// ************************************************************************* //
