/*--------------------------------*- C++ -*----------------------------------*\
  =========                 |
  \\      /  F ield         | OpenFOAM: The Open Source CFD Toolbox
   \\    /   O peration     | Website:  https://openfoam.org
    \\  /    A nd           | Version:  11
     \\/     M anipulation  |
\*---------------------------------------------------------------------------*/
FoamFile
{
    format      ascii;
    class       volScalarField;
    location    "0.225";
    object      p;
}
// * * * * * * * * * * * * * * * * * * * * * * * * * * * * * * * * * * * * * //

dimensions      [0 2 -2 0 0 0 0];

internalField   nonuniform List<scalar> 
880
(
79.99999999999999
80.00000001946826
80.00109654984021
80.48240785371617
80.00000000000001
80.00000000465117
80.00216871714066
80.88230326688722
80.00000000000003
80.00000007708367
80.00562338816755
81.57488562066878
80.00000000015326
80.00000006165388
80.01566041529134
82.70957545958723
79.99999999613411
79.99999999536702
79.99999978966366
80.0000232003388
80.00000064147758
80.00000972745509
80.00026483857056
80.00016735996124
80.04417847907521
80.0825351000143
80.16436690780455
80.11952881803269
85.22681386717271
87.89682971145059
90.03758011297467
91.012363065966
80.00007519387535
80.00039532306681
80.00110098709935
80.00394367989341
80.00367760060686
80.01066983711503
80.02401977250803
80.04166397133305
80.53452732037188
80.91284290630591
81.30767986693671
81.81082512006681
92.22294853936026
93.89069147013254
94.87216823724222
95.05182365803618
89.9979760941231
87.51514236080031
86.63456013682193
85.96350425568069
83.30225502117261
83.86289504023547
84.27842147285997
84.42634728281024
80.15831144953108
80.30008673426099
80.45389673211001
80.60200153514812
80.01441739067654
80.03845934877219
80.0780253705819
80.12715744475882
80.16243768946106
80.17791340768154
80.16860541613107
80.1414676925049
80.72217592394576
80.82796533555248
80.89819669988593
80.85511756438662
84.37530167748352
84.22478353897358
84.06815510237097
83.77734396906999
85.46765664003136
85.01404629446895
84.68658004357741
84.65549051785285
84.92053407364232
83.52911876686848
80.77014841836295
80.10650704708704
84.86410483797738
83.1278679540203
80.65728423504106
80.0730300352122
89.96643993790035
82.81534608243432
80.46239892651467
80.03370473204076
114.7015504723295
83.81591575492683
80.3314620643835
80.01103406583887
80.00368106037219
80.22431703013488
86.59823052759027
146.8427356277146
80.0113487619776
80.25512783482242
89.55197572343089
150.8764789868298
80.03377472540039
80.51035563984792
94.65476358499718
156.9624991448522
80.09054046811887
81.08869571334829
101.0740762180032
159.7236086422942
161.4572176318658
109.1956026303893
82.18653371967973
80.20327717323897
161.775731208267
117.964638646633
84.06275022982626
80.42510045514992
160.9093127920559
126.7229891924279
86.83309839360254
80.79068079654074
158.1949899054303
131.1559533090251
90.53679670797511
81.39714128857032
82.29740553851566
93.98532386661799
131.2183023787402
148.4511685178522
82.85795021575861
93.00173544675953
119.6124870432475
134.1489445686268
82.89816267117406
89.82484727271813
108.0965136523021
117.6763884719843
82.01568034684064
86.31031381534969
96.86309820420716
98.40684472067095
82.10693118083239
85.4166806803087
87.52487914305608
75.38990947396465
81.58937775546119
82.82516232008304
80.69662124459462
50.01804993769364
80.91710308928593
81.60648639915567
77.92907576993107
37.19458370371085
80.44598416537738
80.94125091890348
75.54937890615803
35.78533455571335
39.58396610068571
73.67692127657556
80.2526808725747
80.08522411730414
39.09839189060346
72.64673286968717
79.80133593871746
79.96379320135348
39.55190013789189
72.2765572392607
79.35822172446703
79.94980369217141
37.81545335830258
70.52980969294985
78.88734097776484
79.92934050523549
42.37007513376829
70.99265522180656
78.7996632497411
79.94378537467981
46.46072700115375
72.00609612994177
79.11605642559371
79.9733472575582
49.40605484462708
73.01488991740376
79.40296891940444
79.9883023448748
53.38610280528874
74.7505341244935
79.74601973656186
79.99543921113572
51.17508906709824
74.48621615360356
79.43638943768636
79.97716330189037
52.51235510014969
74.01621126389043
79.41760702290499
79.97932145583219
53.39896411022004
73.43502155594324
79.37991775149986
79.98111175336905
53.92420915136569
72.9543393728926
79.34783213955708
79.9823891978769
53.38610280520785
74.75053412441716
79.74601973667373
79.99543921078595
49.40605484463144
73.01488991727172
79.40296891923408
79.98830234458795
46.46072700107599
72.00609612980901
79.11605642536367
79.97334725730772
42.37007513374279
70.99265522157522
78.79966324967842
79.94378537463452
80.08522411749104
80.25268087262836
73.67692127661566
39.58396610049325
79.96379320135223
79.80133593874972
72.64673286963664
39.09839189046339
79.94980369232943
79.35822172457142
72.27655723888891
39.55190013776253
79.92934050533843
78.88734097806972
70.52980969272501
37.81545335828243
35.78533455560819
75.54937890612243
80.9412509187555
80.44598416556506
37.19458370361849
77.92907576991652
81.6064863991128
80.91710308930401
50.01804993755753
80.69662124467079
82.82516232015557
81.58937775527474
75.38990947401778
87.52487914295249
85.41668067990129
82.10693118050285
82.29740553836452
93.98532386728061
131.2183023795424
148.4511685180317
82.8579502156596
93.0017354466239
119.6124870435205
134.1489445688308
82.89816267116771
89.82484727305069
108.0965136522778
117.6763884720638
82.01568034673743
86.31031381501501
96.86309820426351
98.40684472076502
158.1949899054713
131.1559533094322
90.53679670845007
81.39714128914358
160.9093127920714
126.7229891927518
86.83309839432309
80.79068079643154
161.7757312082261
117.9646386465372
84.06275022914269
80.42510045541604
161.4572176321175
109.1956026303691
82.18653372001077
80.2032771732522
80.00368106043059
80.22431703004118
86.59823052748405
146.842735627444
80.01134876235862
80.25512783532379
89.55197572352083
150.876478986773
80.03377472593246
80.51035563982734
94.65476358461576
156.962499144382
80.09054046825717
81.08869571356263
101.0740762183618
159.7236086422301
80.0110340658298
80.0337047319946
80.07303003544678
80.10650704710208
80.33146206393641
80.46239892635967
80.65728423496726
80.77014841825853
83.81591575474351
82.81534608247888
83.12786795381417
83.52911876670804
114.7015504721225
89.96643993791605
84.86410483800051
84.92053407364801
80.14146769262148
80.85511756457061
83.77734396927227
84.65549051800593
80.16860541603808
80.89819670007641
84.06815510254074
84.68658004355979
80.17791340767356
80.82796533563571
84.22478353894661
85.014046294159
80.16243768929337
80.722175923835
84.37530167763258
85.4676566399843
80.01441739063591
80.15831144923253
83.30225502127625
89.9979760942451
80.03845934846488
80.30008673426507
83.86289504042968
87.51514236076802
80.0780253707081
80.45389673189999
84.27842147272844
86.63456013654961
80.12715744462547
80.60200153503668
84.42634728299916
85.96350425536842
95.05182365788359
81.81082512003155
80.04166397111439
80.00394368011773
94.87216823717729
81.30767986705376
80.02401977220917
80.00110098702352
93.89069147024038
80.91284290643421
80.01066983662234
80.00039532287198
92.22294853933174
80.5345273202887
80.00367760047166
80.00007519422259
91.0123630659223
80.11952881815415
80.00016736000558
80.00002320064476
90.03758011294235
80.16436690774718
80.0002648383746
79.99999978969971
87.89682971141633
80.08253509993962
80.00000972731939
79.99999999535429
85.22681386710705
80.04417847896673
80.00000064141761
79.99999999640207
79.99999999999999
80.00000001950971
80.00109654988373
80.48240785290122
80
80.00000000449354
80.00216871711876
80.88230326684074
80.00000000000668
80.00000007697165
80.00562338811032
81.57488562057696
80.00000000016911
80.0000000614439
80.01566041521509
82.70957545946116
81.00527125257851
81.79607482384803
83.24686080567963
87.17989480445765
81.79607482397422
82.85749456320525
85.73617790463636
92.19018344874645
83.24686080574577
85.73617790458498
91.18192820232603
100.0757021803661
87.17989480445871
92.19018344874191
100.075702180502
110.8272372293766
122.4375376703044
112.8634839048592
108.4662315873231
100.1341652221646
120.0866103093846
117.3604698150182
117.3202975512244
112.8745841526291
120.3889736612331
119.4924904386804
119.0987136912015
117.3099222997052
118.9536984368246
118.6132978169987
118.5137568602967
117.3688454610978
115.5488602997272
114.9289749523466
113.2514294200539
110.1269866198632
116.2923177947853
115.0622944734553
113.2954455833233
110.3847786473889
116.4912166143365
115.1852883763344
113.4245061532509
110.6992836140261
116.833764615956
115.2810817170124
113.459537595114
108.2745534649167
84.46140662622796
74.41226606706381
74.31896775256081
75.38331856554507
77.18183325403585
71.65440236721312
73.63160407904596
74.96107444160181
70.9601925699731
71.57354840942915
74.19185429447003
75.49412997564636
61.67337382465069
69.28048159487213
73.24297871447027
74.65591752539174
76.24881478560668
77.19984756495784
78.18627774672342
79.29787633566536
75.85631171219245
76.94260139411634
78.02374979811735
79.24117429238184
76.20920694174127
77.16862026891199
77.84946046479423
79.19702782358488
75.54662224643963
76.71042463844556
77.91007670748935
79.24055940442797
80.36825697013393
84.58535470176793
117.5829350583304
158.731707031924
80.45294565113828
86.85176851807803
125.1173055150544
154.8345784493882
80.46130469502229
88.30135679411076
129.6187146284555
150.5396404751613
80.42834413679125
89.18660026081338
134.3386899464706
152.2877054922554
206.9295372803107
195.6252562773367
190.8768696070006
187.3151842344712
208.3178787710928
198.1825730062211
192.4367611735304
188.1251060252598
208.182976965752
200.1027349265438
193.66717571576
188.1172661400389
204.8997663486305
201.9731460682838
195.4374180766269
188.7737532790041
188.9957384159287
185.4681909892172
178.9193329082087
172.8936852880641
189.6402579056286
187.1241550982154
180.0993890558643
172.6900235334889
189.8989312129405
187.6324954097509
181.8545634114162
173.4641433540913
190.481213474402
188.8106925490108
182.2241775822908
173.763367861589
157.6502558294351
142.5601229449161
126.9209937085235
108.5045031454282
158.6906456149061
143.5249343658437
127.0543342530467
116.0379349760911
160.1504066569316
146.1311910598149
129.550600091689
120.2269360921673
161.4533389917334
149.889046463626
133.5028084917433
134.2234134744287
64.99237770680622
15.15815422571657
3.78696818356021
3.958190767987523
50.01521125552075
9.865267158675335
3.784961306163324
4.004946496258503
35.1468333831811
6.238174387103782
3.886560610334754
4.557401898890688
19.72067999076751
3.452840917797327
3.939263954819188
4.667540859818891
6.673287039299955
9.94286960220937
13.41573942160276
17.28421590396779
6.770031257948652
10.58406647444921
14.30242374096323
18.5758141275959
7.182500814430407
10.94146649493156
14.74990317242337
19.80752581680868
7.571441794010484
11.69921304050041
16.36996052301009
21.70183674200391
26.72763435044819
30.92561888607928
32.45499072877293
34.44763969328618
25.82797420546519
31.01478444508552
33.25804709325521
35.74387896920114
24.75703355364945
30.29068189858073
33.07114614340653
36.48942063192619
22.81211008747011
28.51181159159706
32.00933981989036
38.52572522865427
31.19130227620109
30.61830540824946
31.93285167726433
31.30499334682962
26.5413285539309
24.7968208406237
27.37223423007785
27.43246322006017
23.15175890859303
21.31573384599232
24.3052714893195
24.66415182622769
17.44259701045312
18.25184333987987
21.18855999860982
22.44737266214513
23.79821451098508
24.82660260100907
25.6223621896115
25.97370376611092
25.25751077448014
25.7189622698533
26.14815581325124
26.57755607813914
27.3921287714324
27.10367536655229
26.88359955602597
26.79881631221353
30.24278294676376
28.4686391285218
27.05518133814649
26.21667740333439
25.97370376611332
26.57755607813569
26.79881631220973
26.21667740333572
25.62236218961314
26.148155813244
26.88359955600838
27.05518133812518
24.82660260100793
25.71896226984195
27.10367536652335
28.4686391284837
23.79821451097711
25.25751077446591
27.39212877139671
30.24278294673909
31.30499334682813
31.93285167725432
30.61830540821633
31.19130227615961
27.43246322003132
27.37223423005504
24.79682084060004
26.54132855391065
24.66415182621607
24.30527148930659
21.3157338459753
23.15175890857468
22.44737266213872
21.18855999860454
18.25184333987655
17.44259701043606
38.52572522862611
32.00933981986043
28.51181159156637
22.81211008752187
36.48942063189978
33.07114614338355
30.29068189853749
24.75703355366824
35.74387896917757
33.25804709324311
31.01478444504296
25.82797420547177
34.44763969326105
32.45499072876842
30.92561888603601
26.72763435043332
17.28421590409001
13.41573942168795
9.942869602240018
6.673287039303401
18.57581412771007
14.30242374106575
10.58406647451734
6.770031257975849
19.80752581691748
14.74990317252785
10.94146649500617
7.182500814460075
21.70183674208651
16.36996052312381
11.69921304060091
7.571441794053203
3.958190768000076
3.786968183533006
15.15815422562146
64.99237770679498
4.004946496275341
3.784961306159713
9.865267158657408
50.01521125555027
4.55740189890823
3.886560610336085
6.238174387109986
35.14683338322185
4.667540859837937
3.93926395482629
3.452840917802672
19.7206799908111
108.5045031455228
126.9209937086707
142.5601229450579
157.6502558294836
116.0379349762305
127.0543342532997
143.5249343660179
158.6906456149676
120.2269360923499
129.5506000919402
146.1311910599655
160.1504066569562
134.2234134746906
133.5028084920293
149.8890464637913
161.4533389918014
172.8936852880194
178.9193329081288
185.4681909889661
188.9957384158098
172.6900235335211
180.0993890557628
187.124155097865
189.6402579054866
173.4641433539709
181.8545634111988
187.632495409302
189.89893121267
173.7633678615181
182.2241775819999
188.8106925484597
190.4812134739933
187.3151842338943
190.8768696068628
195.625256276929
206.9295372799732
188.1251060246604
192.4367611734093
198.1825730057615
208.3178787708114
188.1172661394793
193.6671757156733
200.102734926069
208.1829769654947
188.7737532784994
195.4374180765257
201.9731460678042
204.8997663484187
158.731707031733
117.5829350582326
84.58535470178371
80.36825697020302
154.8345784492366
125.1173055149658
86.85176851807111
80.45294565122461
150.5396404750315
129.6187146283594
88.30135679408698
80.46130469510244
152.2877054921382
134.3386899463826
89.18660026078533
80.42834413686811
79.2978763358615
78.18627774667677
77.19984756467299
76.24881478557589
79.2411742926044
78.02374979804229
76.94260139382976
75.85631171216284
79.19702782381984
77.84946046472488
77.16862026862449
76.20920694171519
79.24055940467247
77.91007670740754
76.71042463814486
75.5466222464139
75.38331856527921
74.31896775229166
74.41226606715036
84.46140662635028
74.96107444130143
73.63160407882441
71.65440236731784
77.18183325414499
75.49412997534881
74.1918542942813
71.57354840955976
70.96019257005382
74.65591752508246
73.24297871426236
69.2804815950132
61.6733738247327
110.126986619837
113.2514294200763
114.9289749525679
115.5488602997705
110.3847786473518
113.2954455834044
115.0622944736737
116.2923177948062
110.6992836139684
113.4245061533223
115.1852883765311
116.4912166143546
108.2745534649145
113.4595375952028
115.2810817172041
116.8337646159779
117.3688454609654
117.3099222996217
112.8745841526253
100.1341652222415
118.5137568602098
119.0987136911292
117.320297551164
108.4662315873102
118.613297816918
119.4924904385803
117.360469814955
112.8634839047484
118.9536984367617
120.3889736611224
120.0866103092942
122.4375376701017
55.74710867629131
74.79052182415984
79.62129351661459
79.9929039369119
53.55736829547715
73.93194853837093
79.47016885732198
79.98795020928013
53.33080870575369
73.29177106976663
79.37956519957469
79.98489176205258
53.12991477167793
72.8020998168667
79.34527230492654
79.98353476876827
79.97716330192171
79.43638943777341
74.48621615357345
51.1750890671293
79.97932145583574
79.41760702283274
74.01621126387469
52.51235510010037
79.98111175349487
79.37991775136136
73.43502155590149
53.39896411016179
79.98238919792742
79.34783213946042
72.95433937284203
53.92420915140582
79.98353476861692
79.98489176199936
79.98795020927982
79.99290393674549
79.34527230475693
79.37956519946077
79.47016885713923
79.62129351662871
72.80209981686609
73.29177106979114
73.9319485384505
74.79052182418496
53.1299147716669
53.33080870570301
53.55736829540247
55.74710867619031
)
;

boundaryField
{
    back
    {
        type            empty;
    }
    inlet
    {
        type            zeroGradient;
    }
    front
    {
        type            empty;
    }
    top
    {
        type            zeroGradient;
    }
    outlet
    {
        type            fixedValue;
        value           uniform 80;
    }
    bottom
    {
        type            zeroGradient;
    }
    wall
    {
        type            zeroGradient;
    }
}


// ************************************************************************* //
