/*--------------------------------*- C++ -*----------------------------------*\
  =========                 |
  \\      /  F ield         | OpenFOAM: The Open Source CFD Toolbox
   \\    /   O peration     | Website:  https://openfoam.org
    \\  /    A nd           | Version:  11
     \\/     M anipulation  |
\*---------------------------------------------------------------------------*/
FoamFile
{
    format      ascii;
    class       volScalarField;
    location    "0.225";
    object      T;
}
// * * * * * * * * * * * * * * * * * * * * * * * * * * * * * * * * * * * * * //

dimensions      [0 0 0 1 0 0 0];

internalField   nonuniform List<scalar> 
880
(
500
500.0000000347698
500.0019609577112
500.8613209953152
500.0000000000001
500.0000000082321
500.0038832914454
501.5712954915077
500.0000000000002
500.0000001376842
500.0100965550046
502.7868417984027
500.0000000003617
500.0000001081289
500.0282996734373
504.7559034565872
499.9999999932927
499.9999999982883
499.9999994034004
500.0000305232339
500.000001078971
500.0000151462478
500.0004067253939
500.0006220916162
500.0813131341945
500.1573636045876
500.3367357858533
500.1937608065797
509.5169699279121
515.0112827215135
519.6751757168026
521.9103701900458
500.0001366617004
500.0007117614854
500.0019752363498
500.0070559996177
500.0065536716819
500.019569565874
500.0460832204103
500.0795109863565
501.0302540109058
501.8221711488978
502.6487008957805
503.6176252656192
524.3774618597668
527.3342778169284
529.0173939877791
529.1581794793784
520.9511758945534
517.1387019326588
515.9005619565543
514.7778716810255
506.6801265851951
507.9839054185613
508.9685940807579
509.1626769883985
500.3006630468272
500.571215199928
500.8714114933227
501.1372023586222
500.0257896668337
500.0687022131159
500.1393096917783
500.2266866617805
500.288597653109
500.3149792264315
500.2981289237705
500.2500069232235
501.3341282178308
501.5011097997729
501.614852245769
501.5338710154269
508.9925221283901
508.5542706047565
508.0354272673139
507.2398833625883
513.7812482532573
512.6678376498456
511.3412901544457
510.5016187381406
510.1628660836517
506.5529420881056
501.374611325476
500.188245421177
509.2129424613192
505.6228258427376
501.1713936963445
500.1292704171663
518.0903793267839
504.9801261647361
500.8230653225025
500.0596779718962
557.7050510518623
506.7905958861273
500.5911401311537
500.0195036214915
500.0065294445885
500.4058065381637
511.8985874939403
600.2338989158682
500.0202372217155
500.47010542349
517.5832761740367
607.3473028115224
500.0602770503586
500.9628682834511
527.0063022550322
615.9149251627218
500.1616409772134
502.0848502365667
538.3369656574012
620.4855500889255
623.9698091231018
551.8775274924863
504.2364043132437
500.3627096814919
626.6356535208805
565.9911841452904
507.9369667382917
500.7577516269757
627.8675001757798
579.2105794571212
513.3931106978021
501.4061100688359
626.3643549619037
586.1686051367867
520.4531211370859
502.4750436582672
504.0732336583567
527.2855697481212
587.4874088547386
616.904097497353
505.0096902937074
525.4194690568256
572.0984517475663
600.2843373533775
505.066531137897
519.6595201007178
555.0429310524048
577.9636695116743
503.5077885505556
512.5548247124306
535.652825478643
547.3309575267714
503.7015896240379
511.5538219750308
520.5358343301752
514.9409778578912
502.8196124335178
506.6571494486433
506.8171030934205
473.9179666268302
501.6122064420265
504.40224206333
506.4045843110293
467.1981217280506
500.8082550283601
503.7282391426177
509.6088244347243
500.2533446586905
549.1137719404489
509.4410099457198
502.0632446149772
500.1748264977813
548.7216617691887
510.1577209599121
500.9094027346845
499.9212245462905
543.4276633827329
509.7679316914171
499.8797481760652
499.8461349957055
531.1022204117386
505.3685009150768
498.8224664261008
499.7672452485688
512.1494066479426
498.6619795319313
498.3642920729512
499.835823983353
489.3253160913374
494.7542984077922
498.7674940029224
499.9473914242404
473.2854495388351
492.9801506622446
499.1529207238356
499.9806531566855
470.4847082583075
493.6018598701278
499.6338085820956
499.992467960735
465.4588112687795
493.6917072615473
498.9877305773713
499.9473576645625
468.2144927186147
492.7761541880969
499.007110199446
499.9565372862101
468.7326734430503
491.6122072916079
498.9957750968949
499.9643441315643
467.5220864169033
490.2646854192672
498.9431976617064
499.968042728734
470.4847082581074
493.6018598701904
499.6338085827624
499.9924679603913
473.2854495391519
492.9801506622215
499.1529207236798
499.980653156238
489.3253160911978
494.7542984075526
498.7674940024328
499.9473914237574
512.1494066476519
498.661979531263
498.3642920725841
499.8358239832335
500.1748264979935
502.0632446151849
509.441009946112
549.1137719403863
499.9212245463288
500.9094027348272
510.1577209599309
548.7216617690682
499.8461349959949
499.879748176322
509.7679316907933
543.4276633822627
499.7672452486945
498.8224664265343
505.3685009143916
531.1022204114621
500.2533446592751
509.6088244350096
503.7282391423893
500.8082550286684
467.1981217281495
506.4045843111234
504.4022420633048
501.6122064420021
473.9179666265862
506.8171030937187
506.6571494488747
502.8196124331752
514.9409778581153
520.5358343299738
511.5538219743641
503.7015896234558
504.0732336579713
527.285569749102
587.4874088557598
616.9040974977495
505.0096902933798
525.4194690565774
572.0984517478131
600.2843373537977
505.0665311378315
519.6595201011269
555.0429310522776
577.9636695119643
503.5077885503393
512.5548247117465
535.6528254786049
547.330957527026
626.3643549621565
586.1686051375361
520.4531211378708
502.4750436591336
627.8675001761248
579.2105794575143
513.3931106988878
501.4061100684865
626.635653521071
565.9911841451762
507.9369667370468
500.7577516272573
623.969809123629
551.8775274924633
504.2364043137173
500.3627096812971
500.0065294446348
500.4058065380827
511.8985874938338
600.2338989156652
500.0202372222995
500.4701054244491
517.5832761743009
607.3473028116464
500.0602770511253
500.9628682834751
527.0063022545474
615.9149251624198
500.1616409772736
502.0848502369691
538.3369656580155
620.4855500891013
500.0195036214201
500.0596779717127
500.1292704175069
500.1882454212281
500.591140130476
500.8230653221747
501.171393696184
501.3746113252595
506.7905958858641
504.9801261648217
505.6228258423983
506.5529420878163
557.7050510516101
518.0903793268326
509.2129424613889
510.1628660837415
500.2500069234543
501.533871015728
507.2398833629481
510.501618738479
500.2981289236956
501.6148522460961
508.0354272676323
511.3412901543906
500.3149792264955
501.5011097999744
508.5542706047606
512.6678376494552
500.2885976529167
501.3341282177507
508.9925221287367
513.7812482531336
500.0257896666475
500.300663046588
506.6801265853982
520.9511758948046
500.06870221254
500.571215200183
507.9839054189412
517.1387019326061
500.1393096920019
500.8714114931344
508.9685940803324
515.9005619560367
500.2266866615699
501.1372023585648
509.1626769888183
514.7778716805458
529.1581794791953
503.6176252655285
500.079510986217
500.0070559999094
529.0173939877852
502.6487008959322
500.0460832201038
500.001975236115
527.3342778171841
501.8221711491062
500.0195695651064
500.000711761023
524.3774618598458
501.0302540107799
500.0065536714292
500.0001366622168
521.9103701900789
500.1937608068051
500.0006220916167
500.0000305237688
519.6751757168703
500.3367357859337
500.0004067252518
499.9999994034309
515.0112827215638
500.1573636045219
500.0000151460286
499.9999999982688
509.5169699278718
500.0813131340673
500.0000010788792
499.9999999935359
500.0000000000001
500.000000034824
500.0019609577487
500.8613209938655
500
500.0000000080198
500.0038832914173
501.5712954914175
500.0000000000417
500.0000001375207
500.0100965549252
502.7868417982344
500.0000000003944
500.0000001078852
500.0282996733606
504.7559034563996
501.7911264375279
503.1833571621852
505.7109442335827
512.5507758491018
503.1833571624104
505.0245270612078
509.9595553173534
520.9682131953928
505.7109442337098
509.9595553172817
519.0718596699812
533.9781555953221
512.5507758490969
520.9682131953995
533.9781555955495
551.5508746502666
570.5682924329421
556.0697673135152
547.9272317196255
534.6472476023586
567.8191686009501
563.3922014042716
561.7286281898718
555.0215715259403
568.4134626608142
566.8898554897659
565.680952393903
562.9298388870707
566.5519256646263
565.9241447897899
565.4472298453563
564.0509228658065
562.0592831813734
561.4697040025304
559.1039456628695
554.532894133385
562.9689992909143
561.2786111323061
558.6774503615097
554.5085604757377
563.2070353472677
561.2473827491851
558.560074320797
554.7175534125038
563.6683890946381
561.3073407355291
558.5636608325249
549.9012336738506
514.9213055726819
496.724667438935
495.7568569801599
497.2099894868857
503.6111313104859
492.4846801299615
495.8767604383842
497.7394672463086
491.8630043133376
492.4323592979267
497.0324227234676
499.18718758149
469.9749611413058
487.330338377308
495.3652506868713
497.7289299249821
498.3583209880168
499.611933086755
500.5783358926147
501.670990876056
498.8571228105963
500.315786748747
501.5254340095883
502.7487186460927
500.0913695930419
501.3964238172266
502.1507880602244
503.6936201187303
499.0233154433021
500.7342074286118
502.5804217793283
504.0760204705207
502.7474377309604
509.3877967513183
563.3271049351096
625.0741232256642
503.965798281311
514.7231648168361
577.9338185892308
628.6853417328714
504.9652253801749
519.0529671874314
588.9804914652053
627.5334485797356
505.2112903679277
521.6024883503426
597.3965605468971
630.7564620859384
673.6200096559587
663.2844482840219
659.8263708592586
657.7752199095794
682.2485175496257
670.2148652308102
663.8697764849993
660.0963251470218
688.5739680297736
677.3957282050332
668.2821215758672
661.4448202850316
687.7761746900234
681.5915719006267
671.6760730837017
662.7968414591071
660.1993333461315
657.8243647392155
652.7169176761165
647.6087901875786
662.117395883259
660.2973422787722
654.3493318299221
647.432360931254
663.3056783541648
661.4397249425826
656.2459950634709
648.0972054671915
664.3206402140745
662.9093441866179
656.5942916566263
648.2625631423076
632.1636003092074
615.0237992344123
595.0786388784011
571.0951899003761
632.798057948947
614.6510120281157
594.4852530979149
597.5768781215385
633.5377453341263
617.0150026334757
603.9815435485345
624.8675480625799
634.4485576090526
622.3393333864223
619.469157277052
609.7164794156935
529.1728653558621
454.1517232684787
336.0505773584802
319.5515502291723
514.5615402124961
412.429208392329
276.8402736996002
253.1636742048662
474.9764338344987
354.2492424489482
249.2487972849422
236.9511398867699
374.9018425923904
277.8437556067938
238.1846808816601
232.5830575508932
379.928784754955
424.3794442923791
454.1463709244463
470.1796616670834
315.1860490586099
374.9468517047769
416.715711384105
446.2747915827512
288.027788923763
344.4671000725069
388.9965327028694
428.7218788295112
285.4744249319014
343.5226512767618
393.5467507239966
431.8462053033579
507.882926151221
483.6163165584762
454.4315082040411
438.7032021581447
483.1343741164828
481.3577416524998
463.1907429474028
450.066852495723
454.5672569095763
472.4472254146499
469.4831970545748
473.7087144261484
434.7694540745454
460.2202791210003
471.437965300332
500.4577820385128
423.8800602679328
427.8227135671894
438.3508373172956
435.6174738492543
416.7043959048343
422.3458519266951
439.9165100172442
435.1707212926593
421.6833326133346
422.5015717231364
437.1733108303445
425.2165739570789
403.4309871420785
407.3296023642595
416.7213635538743
404.2841121449538
389.737452064735
382.7484758965375
382.1150641348533
382.6718401937963
407.7661151207693
395.0965394689692
390.6207491465395
391.0547745328333
424.8109809107001
412.3544410122373
403.8100188403566
401.1870237731565
429.9064003344124
419.1814050164413
409.1895717067074
403.5802091412168
382.6718401937928
391.0547745328211
401.1870237731729
403.5802091412711
382.1150641348156
390.6207491464796
403.8100188403386
409.1895717068123
382.7484758964321
395.0965394688257
412.3544410121346
419.1814050165621
389.7374520645513
407.7661151205861
424.8109809105075
429.9064003344242
435.6174738491921
438.3508373171734
427.822713566972
423.8800602676781
435.1707212924735
439.9165100171147
422.3458519265847
416.7043959047407
425.2165739569339
437.173310830256
422.5015717230352
421.6833326132448
404.2841121447995
416.7213635537782
407.3296023642124
403.430987141958
500.4577820383955
471.4379653001492
460.2202791207565
434.7694540747869
473.7087144260628
469.4831970544873
472.4472254143522
454.5672569095216
450.0668524956473
463.1907429474629
481.3577416522282
483.1343741160647
438.7032021580346
454.4315082042179
483.6163165582806
507.8829261504546
470.1796616675967
454.1463709251218
424.3794442929974
379.9287847551253
446.2747915833278
416.7157113851296
374.9468517057485
315.1860490590349
428.7218788301288
388.9965327039109
344.4671000734525
288.0277889242834
431.8462053038337
393.5467507250132
343.5226512779623
285.4744249326116
319.551550229363
336.0505773574713
454.1517232684703
529.1728653560784
253.1636742050009
276.8402736991252
412.4292083923486
514.5615402127263
236.9511398869633
249.2487972847787
354.2492424492359
474.976433834838
232.5830575511402
238.1846808816623
277.8437556071019
374.9018425928931
571.095189900808
595.0786388789189
615.023799234843
632.163600309474
597.576878121969
594.4852530984402
614.6510120285119
632.7980579491573
624.8675480629307
603.9815435489435
617.0150026337401
633.5377453341962
609.7164794161375
619.4691572774259
622.3393333866557
634.448557609148
647.6087901877455
652.7169176762989
657.8243647391763
660.1993333462573
647.4323609314159
654.3493318299464
660.29734227853
662.1173958832389
648.097205467144
656.2459950633651
661.4397249422552
663.3056783538923
648.2625631423191
656.5942916564509
662.9093441862012
664.3206402136137
657.7752199092515
659.8263708593157
663.2844482837572
673.6200096557507
660.0963251465541
663.8697764849582
670.214865230406
682.2485175493812
661.4448202844427
668.2821215757971
677.3957282045086
688.5739680294164
662.7968414585398
671.6760730835779
681.5915719000694
687.7761746896614
625.074123225438
563.3271049349509
509.3877967514006
502.7474377311661
628.6853417326433
577.933818589044
514.7231648168705
503.9657982815562
627.5334485794735
588.9804914650072
519.0529671874217
504.9652253804196
630.7564620856658
597.3965605467239
521.6024883503197
505.2112903681697
501.6709908764498
500.5783358925391
499.6119330862282
498.3583209879359
502.7487186465502
501.5254340094406
500.3157867481323
498.8571228104719
503.6936201192354
502.1507880600511
501.3964238165636
500.091369592881
504.076020471049
502.5804217791099
500.7342074279247
499.0233154431246
497.2099894864041
495.7568569793714
496.7246674393438
514.9213055729773
497.7394672456988
495.8767604379635
492.4846801302812
503.6111313107882
499.1871875808275
497.0324227232547
492.4323592981835
491.863004313567
497.72892992427
495.3652506865955
487.3303383775376
469.9749611415378
554.532894133496
559.1039456631152
561.4697040030045
562.0592831816036
554.5085604758066
558.6774503617428
561.2786111327396
562.9689992910675
554.7175534125259
558.5600743209691
561.2473827495646
563.2070353473898
549.9012336739372
558.5636608327191
561.307340735896
563.668389094766
564.0509228657202
562.929838887028
555.0215715260707
534.6472476025345
565.4472298453007
565.6809523938704
561.7286281898965
547.9272317196479
565.9241447897637
566.889855489699
563.3922014041667
556.0697673133842
566.5519256646198
568.41346266072
567.8191686008045
570.568292432668
468.9654230419283
492.8715157024041
499.3998640237149
499.9876769170797
460.328316119762
490.5178364463065
499.1114016166584
499.978829144298
460.1323582107863
489.3973498348201
498.9581185888949
499.9734317377257
462.5796262052756
489.2164821427498
498.9190956530566
499.9707548181321
499.947357664453
498.9877305775159
493.6917072614817
465.4588112688708
499.95653728613
499.0071101993501
492.7761541879751
468.2144927186631
499.964344131804
498.995775096929
491.6122072913728
468.7326734431867
499.9680427288908
498.9431976617562
490.2646854190198
467.5220864171303
499.9707548178981
499.9734317375219
499.9788291444682
499.987676917206
498.9190956529054
498.958118588653
499.1114016161614
499.3998640238289
489.2164821427546
489.3973498349612
490.5178364466686
492.871515702685
462.5796262051847
460.1323582105696
460.3283161195151
468.9654230416908
)
;

boundaryField
{
    back
    {
        type            empty;
    }
    inlet
    {
        type            zeroGradient;
    }
    front
    {
        type            empty;
    }
    top
    {
        type            zeroGradient;
    }
    outlet
    {
        type            fixedValue;
        value           uniform 500;
    }
    bottom
    {
        type            zeroGradient;
    }
    wall
    {
        type            zeroGradient;
    }
}


// ************************************************************************* //
