/*--------------------------------*- C++ -*----------------------------------*\
  =========                 |
  \\      /  F ield         | OpenFOAM: The Open Source CFD Toolbox
   \\    /   O peration     | Website:  https://openfoam.org
    \\  /    A nd           | Version:  11
     \\/     M anipulation  |
\*---------------------------------------------------------------------------*/
FoamFile
{
    format      ascii;
    class       volScalarField;
    location    "0.05";
    object      p;
}
// * * * * * * * * * * * * * * * * * * * * * * * * * * * * * * * * * * * * * //

dimensions      [0 2 -2 0 0 0 0];

internalField   nonuniform List<scalar> 
880
(
79.99999999999999
80
80.00000002366781
80.00000204705989
80.00000000000001
80
80.00000024607479
80.000060407975
80
80.00000000000001
80.00000706483841
80.00427116645268
79.99999999999996
79.99999999999999
79.99999324016697
80.05458276757803
80
80
80
80.00000000561091
80.00000000000524
79.99999999986497
80.00000000228439
80.00000010010987
80.00039870772655
80.00113304516331
80.0033496140293
79.99571631889449
80.56375062774781
81.78457730165829
82.77322882774654
83.26568920196166
80.00000029592989
80.00000044500496
80.00000047529259
80.00000041594811
80.00001356371106
80.00002310671644
80.00002495133231
80.00001728275474
80.01532867840803
80.01889774057648
80.01927771541501
80.01795862064118
83.5442625989503
83.98007173801359
84.00198639410509
84.37198971552796
83.34107207293526
82.38657882436657
81.46697828131124
80.61611867101807
80.03424115406041
80.03399667090315
80.02219177477375
80.00807251877991
80.00006239287671
80.00006128809558
80.00004077703423
80.00001396871293
80.00000121643463
80.00000107788466
80.00000057378341
80.00000013587591
80.00000000969855
80.00000000012109
79.99999999999886
80
80.00000174806715
80.00000005168218
80.00000000015109
79.99999999998801
80.00118242709105
80.00004411068907
80.00000026190357
79.9999999934366
80.12362950314669
80.00770354529389
80.00009304996188
79.99999984466956
79.99999983000269
79.9999999985278
79.99999999999996
80
79.99999835429941
79.99999976352056
79.99999999668697
79.99999999999999
80.00185246699964
80.0000128864836
80.00000011729337
80.00000000815518
80.7701144540768
79.99897505497948
79.99982490280912
79.99999888251838
79.99999934985127
79.99998462602234
80.02239650854082
88.05476121277216
80.00000183320692
80.00009238831159
80.06888455122358
92.05567247592938
80.00000342964306
80.00017346324812
80.11385565098834
95.55489915744991
80.0000045310541
80.0002271688134
80.14121886575639
97.65711147212166
98.71705230680428
80.16446504343114
80.00028545455149
80.00000586712129
100.0257794453947
80.19839972095916
80.0003757815752
80.00000781646843
101.0757524478434
80.23051259336455
80.00046880431654
80.0000101600168
102.5895031814169
80.28883449292236
80.00067076327311
80.00001492185577
80.00001482814734
80.00066556472417
80.32404045199438
104.7190614833792
80.00001934697963
80.00085787607209
80.3783537021787
105.4442028801853
80.00002427231134
80.00098322139486
80.37472489455519
101.926112894634
80.00001404168843
80.00053759426626
80.18990569321953
91.38480024614104
79.99999598707103
80.00125719549153
80.14634907856103
82.003244748738
79.99998723859262
79.99707178784693
79.83438998323868
73.69578615901477
79.99999476143216
79.99710733359657
79.53002785319403
65.52503101885841
79.99999452768381
79.99577621213909
79.14343292642032
58.53009826195716
59.3501475077336
79.44948129260936
79.99788655734891
79.99999608736418
59.77830577041927
79.50491291062532
79.99818681247969
79.99999692932438
62.92538107549657
79.67948067252115
79.99899046675972
79.99999835590532
61.99917511904068
79.63258957577095
79.9988739460691
79.99999829091487
68.78044828319048
79.87925892688061
79.99967681790571
79.99999945997081
75.31473552245332
79.9774922582707
79.99995621309141
79.99999994256883
78.34568432808949
79.99301940323144
79.99998502270411
79.99999997871136
78.85486825973292
79.99319196673248
79.99998168326579
79.99999996568991
77.20074240515784
79.95940755138915
79.99979359025581
79.99999948342371
77.24045256420949
79.95953014728053
79.99979389650744
79.99999948405211
77.28669711835178
79.95964456297763
79.99979457721875
79.99999948534747
77.47298897508789
79.9606539029953
79.99979795447079
79.99999949399256
78.8548682597329
79.99319196668496
79.99998168321261
79.99999996561658
78.34568432810779
79.99301940313775
79.99998502259949
79.99999997869013
75.31473552240438
79.97749225820257
79.99995621307518
79.99999994254979
68.7804482832383
79.87925892680758
79.99967681793638
79.99999945997554
79.99999608740714
79.99788655738732
79.44948129262188
59.3501475075058
79.99999692931364
79.99818681248016
79.50491291074417
59.77830577027642
79.99999835592152
79.99899046673929
79.6794806724301
62.92538107538638
79.99999829092584
79.9988739461478
79.63258957577534
61.99917511906767
58.53009826189685
79.14343292640206
79.99577621209036
79.99999452770552
65.52503101881003
79.53002785318928
79.99710733364182
79.99999476141446
73.69578615896201
79.8343899832638
79.99707178782812
79.99998723863683
82.00324474872929
80.14634907848406
80.00125719541228
79.99999598713114
80.0000148281211
80.00066556477137
80.32404045211418
104.7190614834211
80.00001934699372
80.00085787605828
80.37835370222587
105.4442028803513
80.00002427224901
80.00098322142439
80.3747248945532
101.9261128946264
80.00001404171354
80.00053759422885
80.18990569322196
91.38480024612787
102.5895031814925
80.2888344928359
80.00067076329979
80.00001492197181
101.0757524479327
80.2305125933395
80.00046880432481
80.00001016002062
100.0257794453995
80.19839972104094
80.00037578157888
80.00000781647266
98.71705230671795
80.16446504339402
80.00028545456838
80.00000586714427
79.99999934986921
79.99998462604952
80.02239650848998
88.05476121273691
80.00000183328373
80.0000923884037
80.06888455125411
92.0556724760057
80.00000342972299
80.00017346325494
80.11385565088284
95.55489915729328
80.00000453104305
80.00022716881607
80.14121886589503
97.65711147222419
79.99999888252849
80.00000000814653
79.99999999999999
80
79.99982490271056
80.00000011725578
79.99999999665917
79.99999999999994
79.99897505491855
80.00001288651474
79.9999997634916
79.9999999985132
80.77011445404351
80.00185246700883
79.99999835435602
79.99999983000085
79.99999999999999
79.9999999999894
79.99999999345172
79.99999984468768
79.9999999999977
80.00000000016676
80.00000026191556
80.00009304998702
80.00000000012122
80.00000005169736
80.00004411064691
80.00770354523809
80.00000000967981
80.00000174805876
80.00118242710819
80.12362950312689
80.00000121644456
80.00006239280555
80.03424115406914
83.34107207299125
80.00000107780882
80.00006128814125
80.03399667093748
82.38657882437326
80.00000057381051
80.00004077698226
80.02219177473305
81.4669782812494
80.00000013585914
80.00001396870064
80.00807251881241
80.61611867096157
84.37198971549225
80.0179586206163
80.00001728271019
80.00000041601186
84.00198639405218
80.01927771548664
80.00002495124043
80.00000047530145
83.98007173804912
80.01889774064455
80.00002310661465
80.00000044493885
83.5442625989011
80.01532867831006
80.00001356367069
80.00000029601497
83.26568920193253
79.99571631898884
80.00000010011556
80.0000000056405
82.77322882773173
80.00334961397765
80.00000000221976
80
81.78457730163332
80.0011330451474
79.99999999986485
79.99999999999997
80.56375062771527
80.00039870769049
80.00000000000463
80.00000000000001
79.99999999999999
80
80.00000002369578
80.00000204705754
80
80
80.0000002460722
80.00006040799408
80
80
80.00000706483942
80.00427116645483
80
79.99999999999974
79.99999324014458
80.05458276750822
80.00000611215678
80.00014104459687
80.02052920774079
80.48695937941199
80.00014104454765
80.0031184239444
80.14541463991395
82.13534063505412
80.02052920775186
80.1454146399434
81.49176302386465
87.34197210657916
80.48695937949952
82.13534063513681
87.34197210666491
99.21282809164225
113.9172241666416
101.9866916762502
96.24378033475976
88.45604219052515
111.9469038739046
108.812029404173
107.9575371451124
102.417821321053
111.5325373773258
110.8181981982261
111.0844117195396
109.1363104960432
113.1895440756689
112.7195409601173
113.4333394428379
113.0039426500557
114.5658429022921
114.8337924832614
114.8566023808443
115.7262725906
115.1122252662573
115.5739854803674
115.5718848780532
117.0213621504936
114.1171746241075
114.5799087095745
114.5572573349783
116.0907882155697
114.8235202523894
115.3825668523881
115.3829838517516
114.4033780954638
95.36815055078742
85.66547307625503
83.37722944008473
81.7170056621118
87.28221948200752
81.9913682658206
82.23181320920034
81.46986403556524
80.64980361628157
81.90791272019619
82.82008019492878
81.9060368403005
70.72832627097313
79.27307626091516
81.70380225463613
81.23614963016202
80.45395348555436
80.04587021836753
80.00118453651768
80.00000303272205
80.51662237920456
80.06631394360377
80.00195593531102
80.00000659521747
80.67605586094442
80.08911395847569
80.00270371992764
80.00000967631181
80.28477727596169
80.02023520907827
80.00033425071223
79.99999856882366
79.99999908891168
79.99999616753399
80.05985076019169
96.86685760746191
79.99999945009826
79.99999736991039
80.16386639755559
103.9321363885665
79.99999925571842
79.9999988160705
80.32571356390336
106.7011956381971
79.9999987272204
79.9999996327445
80.75728544789595
107.2414277264019
154.5856037378129
158.7098221343475
167.1322400866626
172.3500217963687
169.3757962038513
165.7364458793187
170.3246927319419
176.1171554272242
170.119601299627
164.1327391235533
169.713037054135
176.0469489278055
179.7094429350651
168.5282563324668
169.9227047707727
176.1018853175093
173.7096641653199
174.3254811699089
174.5013829832997
174.8302282032114
178.2086561056742
178.7359645717097
178.7841430398732
178.7700230269458
178.6052257025908
179.1413437509873
179.1444522496552
179.0829842990658
179.4047036425625
180.1135966347957
180.1054989001721
179.9687259006634
174.8454771144426
172.4120582077832
159.2400671981718
127.5884190577293
178.6833018250461
175.8012198543006
163.3741072986671
138.2254130413751
178.8591932424468
175.9126625487521
163.721850334954
147.7064705143704
180.1215763999819
178.1031760939427
166.0722665728974
169.2689334815455
85.34046052580416
39.62981156986425
20.30273685545469
15.24252439009023
76.61823779709125
25.71789773634377
16.71604391915085
13.67606646598276
48.87624822425169
19.72085425662247
15.84952836590909
14.20359738070629
27.20950209184406
13.24891660199024
15.68375272218021
15.11044048684178
15.85233291222864
16.17538827719854
17.18383874213089
14.79331771130901
13.36748681962604
13.95890115960615
14.62272242463489
12.06348518503314
13.80769436996424
14.66807269803246
15.16747579818115
13.29791044154553
14.83791527832684
15.8296957408497
15.26629890501116
12.81760376479246
35.62411188688765
53.166235831937
60.15269721930405
62.74885745099441
28.54549576444202
45.48551684126658
52.72697266767868
58.94665176898508
24.94334214905106
42.85199799216498
50.19375614870346
59.22679956301505
18.46719239231055
32.77482078811212
44.6481272924873
55.59800259722548
57.05610297978584
50.90078418616195
49.61458876634676
43.8740960660007
39.52671263705172
26.23074523876252
33.69035001269034
34.68596544679152
31.83868132697259
12.18980756907822
12.63906381567263
17.37722727563029
18.68963035748376
5.83930734100618
9.871944939511392
13.14110061064797
15.41051201870473
18.12563194785789
21.2828933818322
27.86705680094502
22.7497040396911
25.95247116663719
27.83500749826456
34.08225622029362
32.9653671605948
29.98543840258666
25.99597332701769
23.06669901529965
38.53407576959389
34.11315781239672
28.94703139182074
24.94576426169076
27.86705680093953
34.08225622028736
23.06669901530092
24.94576426169182
21.28289338182311
27.83500749825907
25.99597332702103
28.94703139182682
18.12563194785695
25.95247116664306
29.98543840258987
34.11315781239328
15.41051201871179
22.74970403969303
32.96536716059099
38.53407576958996
43.87409606600693
49.61458876637639
50.90078418619185
57.05610297978748
34.68596544679605
33.69035001269648
26.23074523875576
39.52671263704268
17.37722727564072
12.63906381567759
12.1898075690851
31.83868132697012
13.1411006106591
9.871944939521446
5.839307341011731
18.68963035748223
55.59800259721978
44.6481272924857
32.77482078812088
18.46719239233255
59.22679956300973
50.19375614869993
42.85199799216051
24.94334214907364
58.94665176897802
52.72697266767953
45.48551684125819
28.54549576445582
62.74885745098818
60.1526972193055
53.16623583191323
35.62411188690273
14.79331771131111
17.1838387421139
16.17538827713954
15.85233291219051
12.06348518503464
14.62272242463259
13.95890115960614
13.3674868196353
13.29791044154778
15.16747579817757
14.66807269803854
13.80769436997606
12.81760376479765
15.26629890500522
15.82969574085928
14.83791527833724
15.242524390108
20.30273685537687
39.62981156974066
85.34046052576821
13.67606646600178
16.7160439191538
25.71789773633267
76.61823779703279
14.20359738072859
15.84952836591883
19.7208542566088
48.87624822423535
15.11044048686625
15.68375272219774
13.24891660199135
27.20950209184056
127.5884190576722
159.2400671981226
172.4120582078
174.845477114363
138.225413041352
163.3741072986485
175.8012198542711
178.6833018249956
147.7064705143513
163.7218503349436
175.9126625487155
178.8591932424547
169.2689334815341
166.0722665728799
178.1031760939031
180.1215763999815
174.8302282032223
174.501382983367
174.3254811698553
173.7096641652105
178.7700230269708
178.7841430399477
178.7359645716783
178.2086561055913
179.0829842990961
179.144452249709
179.1413437509451
178.6052257024971
179.9687259006849
180.1054989002196
180.113596634761
179.4047036424655
172.3500217964919
167.1322400864824
158.7098221344395
154.5856037377854
176.1171554273151
170.3246927317758
165.7364458794043
169.3757962038187
176.0469489279117
169.713037053995
164.1327391236304
170.1196012996169
176.1018853176046
169.9227047706442
168.5282563325391
179.7094429350332
96.86685760740507
80.05985076010475
79.99999616727123
79.99999908894424
103.9321363884935
80.163866397444
79.99999736957383
79.99999945015512
106.7011956381443
80.32571356378418
79.99999881583045
79.99999925577941
107.2414277263417
80.75728544774758
79.99999963263238
79.99999872729892
80.00000303272097
80.00118453653565
80.04587021831905
80.45395348555972
80.00000659520913
80.0019559353256
80.06631394352291
80.51662237922189
80.00000967630147
80.00270371994446
80.08911395838288
80.6760558609775
79.99999856879901
80.00033425075571
80.02023520895352
80.28477727600423
81.71700566203994
83.37722944003474
85.66547307626601
95.3681505508516
81.46986403548705
82.23181320916346
81.99136826583597
87.28221948204325
81.90603684022756
82.82008019491384
81.9079127202104
80.649803616284
81.23614963006759
81.70380225461709
79.27307626094084
70.72832627098624
115.726272590572
114.8566023808234
114.8337924833157
114.5658429022934
117.0213621504425
115.5718848780719
115.5739854804287
115.1122252662457
116.090788215504
114.5572573350017
114.5799087096236
114.1171746241125
114.4033780954028
115.3829838517727
115.3825668524375
114.823520252393
113.0039426500324
109.1363104960472
102.4178213210654
88.45604219053047
113.4333394428361
111.0844117195416
107.9575371450974
96.24378033473205
112.7195409601143
110.8181981982258
108.8120294041541
101.986691676172
113.1895440756666
111.5325373773371
111.9469038738745
113.9172241665933
79.33269620145694
79.99315211998595
79.99997296059648
79.99999994335451
78.70794371327204
79.98631926414697
79.99993977756026
79.99999985693387
78.16628488494186
79.97517639207359
79.99988092665707
79.99999970816175
77.09727400771077
79.95814934779781
79.99980157432324
79.99999952782423
79.99999948349638
79.99979359026133
79.95940755138962
77.20074240509761
79.99999948401472
79.99979389653912
79.95953014729764
77.2404525641936
79.99999948535202
79.9997945771688
79.95964456298252
77.28669711831249
79.99999949401806
79.99979795444867
79.96065390303276
77.4729889750506
79.99999952775006
79.99999970819655
79.99999985696422
79.99999994329788
79.99980157425783
79.99988092664674
79.99993977757394
79.99997296063175
79.95814934777944
79.97517639206146
79.98631926419665
79.99315211996434
77.09727400767257
78.16628488491136
78.70794371330859
79.33269620147846
)
;

boundaryField
{
    back
    {
        type            empty;
    }
    inlet
    {
        type            zeroGradient;
    }
    front
    {
        type            empty;
    }
    top
    {
        type            zeroGradient;
    }
    outlet
    {
        type            fixedValue;
        value           uniform 80;
    }
    bottom
    {
        type            zeroGradient;
    }
    wall
    {
        type            zeroGradient;
    }
}


// ************************************************************************* //
