/*--------------------------------*- C++ -*----------------------------------*\
  =========                 |
  \\      /  F ield         | OpenFOAM: The Open Source CFD Toolbox
   \\    /   O peration     | Website:  https://openfoam.org
    \\  /    A nd           | Version:  11
     \\/     M anipulation  |
\*---------------------------------------------------------------------------*/
FoamFile
{
    format      ascii;
    class       volScalarField;
    location    "0.2";
    object      p;
}
// * * * * * * * * * * * * * * * * * * * * * * * * * * * * * * * * * * * * * //

dimensions      [0 2 -2 0 0 0 0];

internalField   nonuniform List<scalar> 
4455
(
158.48013
157.62928
157.91613
158.57499
158.89245
159.69117
160.41715
161.51709
161.39203
158.43722
157.53216
157.84313
158.42982
158.7435
159.44489
160.20777
161.26575
161.70979
158.40823
157.48139
157.85646
158.55582
158.91804
159.78416
160.64389
161.68276
162.32661
158.30616
157.33803
157.72317
158.41478
158.77425
159.62636
160.5444
161.64151
162.60983
158.18164
157.18426
157.57922
158.30068
158.68564
159.586
160.56926
161.7688
163.05413
158.04109
157.00296
157.44553
158.17971
158.59271
159.55361
160.55091
161.96493
163.58095
157.89572
156.80694
157.28749
158.01575
158.45386
159.4486
160.43606
162.12687
164.03692
157.75467
156.59456
157.1255
157.83696
158.29699
159.31016
160.30929
162.28856
164.60293
157.62477
156.35671
156.95326
157.62674
158.10789
159.14855
160.1353
162.41583
165.12461
157.53901
157.50443
157.55554
157.71275
158.01597
158.48578
159.11997
160.06456
161.41298
156.11423
155.82622
155.50792
155.1469
154.77711
154.38437
153.96183
153.41721
152.79277
156.80128
156.68768
156.66324
156.68853
156.75298
156.87637
157.10782
157.47337
157.94712
157.40758
157.16124
156.82321
156.44722
156.08473
155.71305
155.28263
154.80853
154.25477
157.91284
157.72089
157.4935
157.24409
157.01701
156.82448
156.59979
156.36833
156.14266
158.98048
158.79516
158.56658
158.30403
158.03648
157.75915
157.4608
157.20727
156.95573
159.94322
159.74979
159.49343
159.17396
158.80342
158.40583
157.93184
157.47743
157.03332
162.54071
162.55162
162.42237
162.1668
161.78899
161.34714
160.85333
160.367
159.8636
165.88191
166.49041
166.64044
166.33013
165.80597
165.32745
164.46995
163.52702
162.48492
161.97359
160.79863
159.73663
159.0124
158.42504
157.82458
157.15023
156.53988
156.03747
152.67197
152.52205
152.35146
152.30428
152.32093
152.24487
152.15271
152.11036
152.03809
158.33886
158.41901
158.27902
158.10733
157.96618
157.77245
157.52435
157.28268
156.97487
153.95209
153.65203
153.26484
152.90978
152.65735
152.41206
152.13876
151.91775
151.69782
155.98961
156.04267
156.14132
156.1842
156.17046
156.13993
156.0634
155.99405
155.88081
156.68877
156.45714
156.16574
155.7971
155.47098
155.17521
154.82823
154.48145
154.14724
156.69599
156.57022
156.53011
156.41353
156.18939
155.99047
155.77837
155.53858
155.30785
159.31495
158.81103
158.29538
157.7197
157.10069
156.58899
156.09915
155.55959
155.10751
161.28207
160.27473
159.56828
158.90158
158.11562
157.2157
156.3363
155.42808
154.51752
153.81342
153.18901
152.85461
152.89981
153.30558
153.91781
154.59583
155.29646
156.05045
154.74551
154.44584
154.27871
154.15153
154.03551
154.01834
154.09105
154.21703
154.39831
155.04386
154.78463
154.55218
154.30965
154.08545
153.90975
153.75653
153.61675
153.50142
153.7919
153.45956
153.13223
152.77228
152.43677
152.1432
151.85743
151.57821
151.31797
155.70756
155.55604
155.36479
155.10982
154.84336
154.55684
154.23167
153.87787
153.50404
151.44869
151.21055
150.96629
150.72559
150.50751
150.30314
150.0863
149.83942
149.55197
156.6421
156.3003
155.90302
155.47216
155.03124
154.57604
154.10541
153.6217
153.12649
151.94192
151.84432
151.73069
151.59049
151.41549
151.21176
150.98008
150.71652
150.42025
155.5887
155.15997
154.74786
154.3745
154.02411
153.67584
153.32464
152.96596
152.59279
152.19964
151.78228
151.33692
150.86004
150.34836
149.79869
149.20792
148.57258
147.88964
150.0914
149.72947
149.33363
148.90302
148.43689
147.93413
147.39391
146.81407
146.1947
152.61902
152.0965
151.5595
151.00745
150.43735
149.84525
149.22841
148.58155
147.90369
149.24839
148.94961
148.64098
148.30817
147.94908
147.56366
147.15046
146.70461
146.22587
153.11183
152.70394
152.28001
151.83927
151.38183
150.90778
150.41498
149.90067
149.36046
151.0768
150.85147
150.63916
150.43802
150.24266
150.05091
149.85423
149.65129
149.4284
153.41085
153.33953
153.28264
153.23933
153.20263
153.1727
153.13717
153.10133
153.03814
154.63956
154.93219
155.26728
155.64389
156.05246
156.50213
156.96902
157.47939
157.98946
156.86245
157.70753
158.57627
159.47245
160.4045
161.38953
162.40709
163.47417
164.57394
165.72253
158.52621
152.97106
149.18756
148.79005
145.70531
147.1841
145.53103
147.15472
166.91259
159.03803
152.86746
148.90645
148.18153
145.14765
146.42857
144.82666
146.36515
168.11524
159.4944
152.75519
148.58647
147.53098
144.53762
145.61607
144.07187
145.51513
169.39047
159.94645
152.61521
148.20666
146.82291
143.87976
144.76115
143.27437
144.60219
170.58389
160.31176
152.38411
147.7552
146.05899
143.17196
143.84112
142.42665
143.62145
171.76771
160.70053
152.12858
147.2435
145.20965
142.38121
142.85175
141.52189
142.56788
172.76354
160.95568
151.7251
146.61815
144.29202
141.56943
141.81744
140.58856
141.44952
173.47062
161.0969
151.22045
145.93141
143.26038
140.64813
140.67077
139.5788
140.26506
173.82142
161.06512
150.57619
145.10488
142.13086
139.66375
139.47723
138.5399
139.05999
137.90183
137.46523
138.20765
138.63747
140.94386
144.05433
149.57584
160.51792
173.60033
136.73051
136.23729
136.80241
137.37737
139.53165
142.79332
148.07721
158.97272
170.53661
135.30595
134.9029
135.36605
135.97269
137.9052
141.2871
146.1752
156.82628
167.81194
133.74368
133.51344
133.9038
134.5272
136.16511
139.5469
143.96978
154.42283
165.23609
132.13871
132.06772
132.34982
133.00499
134.3193
137.67466
141.61711
151.90274
162.59092
130.50523
130.57729
130.70322
131.39097
132.36959
135.70365
139.2244
149.36266
159.8673
128.8362
129.05495
128.99705
129.71681
130.32604
133.58133
136.66974
146.55512
156.98452
127.13616
127.50489
127.26469
127.99003
128.20949
131.3
133.87526
143.52649
154.04027
125.42179
125.94864
125.49639
126.21169
126.00787
128.86758
130.84661
140.24211
150.96134
147.78074
136.73
127.68068
126.35596
123.75423
124.42317
123.69706
124.40191
123.71019
144.43561
133.01182
124.37531
123.75051
121.44394
122.63178
121.88079
122.87167
122.01928
140.84257
128.92041
120.875
121.07408
119.13218
120.86473
120.09959
121.36592
120.36576
137.15406
124.57904
117.3065
118.37712
116.84428
119.14048
118.35084
119.91438
118.76902
133.10213
119.92515
113.54348
115.6405
114.58496
117.47701
116.66623
118.51751
117.24966
128.65946
114.92939
109.77038
112.99354
112.44608
115.93709
115.06638
117.22346
115.81956
123.9265
109.73093
105.99088
110.42483
110.40426
114.49307
113.53804
116.02471
114.47037
118.94897
104.09685
102.25855
107.98764
108.51579
113.21644
112.14933
114.94641
113.23231
113.18547
98.175052
98.725736
105.81298
106.85769
112.11473
110.89942
113.98836
112.17687
111.24438
113.14164
109.73838
111.17809
105.32615
103.82076
95.238275
91.455609
106.05725
110.44665
112.47182
108.75932
110.54523
104.03881
102.1671
92.193333
84.166838
97.134656
109.72713
111.95361
107.84292
110.20082
103.05043
101.12326
89.654458
77.286105
85.932159
109.13644
111.53692
106.97568
110.02608
102.24848
100.41632
88.168971
70.953788
72.382932
108.63922
111.24253
106.23827
110.1022
101.72346
100.22438
87.725862
66.550479
55.028811
108.20945
111.02247
105.52396
110.33242
101.44402
100.50486
88.211219
64.69813
33.091493
107.87863
110.93169
104.78925
110.72359
101.22165
101.28923
89.433303
66.074808
6.989371
107.48887
110.95213
104.0065
111.25402
101.10211
102.41144
90.951032
71.911853
-12.773769
107.09312
111.08332
103.07657
111.80393
100.795
104.08624
91.626981
82.157314
-22.747416
106.60685
111.3983
101.92795
112.59106
100.02975
105.74854
91.408395
93.660492
-32.221818
106.09123
111.64007
100.92915
112.98345
98.88991
105.48311
90.27299
81.346113
-59.054381
105.72958
111.56752
100.47778
112.99395
98.110518
104.49889
88.782951
66.152938
-97.020207
105.46682
111.4348
100.05065
112.95619
97.705841
103.82291
86.769661
52.682431
-113.247
105.1668
111.4074
99.576705
112.98466
97.203441
103.22581
84.569881
37.364564
-81.212793
104.87458
111.32214
99.241479
113.03474
96.897308
102.81093
84.069502
23.130116
-70.044931
104.53457
111.21621
98.851817
113.04095
96.603814
102.6841
83.888315
12.607863
-81.27702
104.26884
111.10502
98.606378
113.03015
96.438659
103.05102
82.723861
10.456565
-73.334507
103.95291
110.97956
98.312558
112.94893
96.479763
104.20997
80.589818
18.212536
-72.429945
-60.91816
27.458391
80.117977
104.84741
96.645434
112.66115
98.215664
110.77397
103.72146
-51.063231
33.715128
81.301169
104.78666
97.190315
112.01837
98.440582
110.30272
103.56976
-42.608192
39.2984
83.298264
104.50527
97.845897
111.42039
98.671461
109.92543
103.43473
-31.223736
44.776464
85.649895
104.21457
98.39214
110.87994
98.827304
109.58935
103.309
-23.748652
49.647494
87.788597
103.84819
98.867657
110.37276
99.003432
109.24654
103.16345
-15.527934
53.57455
89.483028
103.55496
99.324208
109.86297
99.183525
108.91372
103.04467
-9.9170365
56.977436
90.99239
103.25978
99.767154
109.38051
99.395623
108.55912
102.92134
-4.0268428
60.296102
92.344657
103.0045
100.15107
108.89728
99.603649
108.22381
102.83052
-0.39234154
62.375534
93.397163
102.76184
100.52401
108.44213
99.836554
107.89556
102.75168
5.2775897
69.385767
96.052236
102.57442
101.21417
107.75977
100.27324
107.27318
102.61671
14.677035
78.225344
98.333594
102.71566
102.02712
106.92492
101.01883
106.29171
102.58319
22.579118
85.632056
99.703701
102.88466
102.61625
106.24565
101.69668
105.39206
102.81053
30.142611
91.512529
100.37533
103.04145
103.05402
105.74695
102.37687
104.69049
103.26527
37.587906
96.481397
100.69164
103.26579
103.42273
105.3057
102.90182
104.32904
103.7679
44.224954
100.28949
100.66852
103.49879
103.56629
104.98683
103.10193
104.28387
104.50681
50.854428
103.44456
100.41609
103.76075
103.58134
104.75235
103.24951
104.07149
105.51999
56.941489
105.88428
100.06642
104.064
103.52943
104.57909
103.23636
104.20137
106.95015
62.707058
107.58941
99.612263
104.41061
103.4524
104.50702
103.3215
105.24203
107.58658
67.580716
105.51431
97.872095
103.428
102.32101
102.35271
101.97062
101.36552
100.69739
67.567134
105.52172
97.881096
103.4437
102.32083
102.36527
101.982
101.37811
100.73114
67.53897
105.53679
97.898753
103.47495
102.32009
102.39024
102.0051
101.40366
100.80153
67.495976
105.56027
97.925367
103.52062
102.31898
102.42756
102.03967
101.44342
100.91392
67.44753
105.59246
97.962288
103.57988
102.31848
102.47687
102.08689
101.49777
101.07149
67.377591
105.6302
98.00693
103.64808
102.31958
102.53727
102.15012
101.56543
101.27703
67.266459
105.67969
98.065009
103.72694
102.3234
102.60301
102.23409
101.64247
101.53269
67.13826
105.73915
98.128373
103.81694
102.34297
102.68333
102.3414
101.72711
101.85482
67.253014
105.83949
98.188318
103.88409
102.35213
102.74141
102.46827
101.81044
102.22226
62.697794
107.59716
99.604606
104.41246
103.44854
104.50497
103.32125
105.24012
107.58659
56.931612
105.89226
100.05932
104.06531
103.52638
104.57672
103.23591
104.19958
106.94974
50.843986
103.45263
100.40991
103.7617
103.57896
104.74994
103.24886
104.06977
105.51941
44.214645
100.29713
100.66307
103.49912
103.56449
104.98444
103.10113
104.28235
104.50599
37.577604
96.488021
100.68641
103.26536
103.4211
105.30322
102.90096
104.32758
103.76698
30.134655
91.519591
100.37168
103.04073
103.05265
105.74461
102.37582
104.68911
103.26401
22.579133
85.638012
99.700464
102.88434
102.61583
106.24359
101.69524
105.39082
102.80911
14.667525
78.229375
98.330195
102.71526
102.02749
106.92347
101.01732
106.29052
102.58195
5.2695678
69.390924
96.051503
102.57317
101.21395
107.75881
100.27169
107.27198
102.6155
103.71997
110.77307
98.214216
112.66128
96.645314
104.84583
80.117161
27.46595
-60.925216
103.56835
110.30183
98.439165
112.01844
97.189851
104.7863
81.298515
33.722383
-51.07092
103.43335
109.92448
98.670114
111.42043
97.845713
104.50487
83.293651
39.305592
-42.612876
103.30763
109.58833
98.825867
110.87973
98.391771
104.2137
85.645372
44.783046
-31.223594
103.16211
109.24551
99.002014
110.37257
98.867231
103.84832
87.784261
49.653636
-23.749419
103.04337
108.91265
99.182112
109.86269
99.323914
103.55522
89.479071
53.581821
-15.529887
102.92008
108.55802
99.394163
109.38002
99.766877
103.25893
90.990043
56.985327
-9.9204399
102.82927
108.22271
99.60214
108.89668
100.15108
103.00354
92.343898
60.303643
-4.0307532
102.75044
107.89444
99.835038
108.44139
100.52387
102.76071
93.398123
62.384173
-0.39450046
-72.440775
18.220366
80.589454
104.20855
96.479797
112.94917
98.311238
110.97871
103.95138
-73.343204
10.464338
82.722933
103.05014
96.438411
113.03038
98.605032
111.1043
104.26725
-81.287273
12.616149
83.887517
102.68366
96.604051
113.04137
98.850457
111.21563
104.5329
-70.052626
23.139196
84.067961
102.81151
96.897374
113.03529
99.240114
111.32161
104.8728
-81.222929
37.37351
84.567407
103.22694
97.203629
112.98534
99.575389
111.40702
105.16498
-113.2611
52.691567
86.767734
103.82388
97.705875
112.95724
100.04943
111.43459
105.46488
-97.034744
66.160897
88.782856
104.49982
98.110269
112.99487
100.47664
111.56754
105.727
-59.063022
81.355604
90.273117
105.48443
98.89026
112.98454
100.92822
111.64025
106.08754
-32.229649
93.670391
91.406879
105.74989
100.03014
112.59242
101.92752
111.39937
106.60393
111.24493
113.14126
109.74011
111.17769
105.32679
103.81905
95.239456
91.454369
106.05368
110.4472
112.47148
108.76085
110.54518
104.03909
102.16555
92.194091
84.166311
97.128356
109.72775
111.95336
107.84397
110.20102
103.05087
101.12185
89.653969
77.287765
85.929334
109.13732
111.53669
106.97612
110.02649
102.24862
100.4149
88.169263
70.955952
72.381494
108.64033
111.24259
106.23831
110.10292
101.72384
100.22342
87.726629
66.551301
55.024808
108.21108
111.02285
105.52397
110.3332
101.44451
100.50399
88.211703
64.700072
33.087475
107.88118
110.93237
104.78931
110.72462
101.22221
101.28893
89.433771
66.078478
6.987807
107.49146
110.95298
104.0064
111.25513
101.10284
102.41171
90.95073
71.916911
-12.777301
107.09345
111.08447
103.0763
111.80501
100.79539
104.08708
91.624936
82.164934
-22.755164
113.18569
98.17215
98.725943
105.81125
106.85926
112.11419
110.90195
113.98812
112.17736
118.94669
104.09399
102.25902
107.98535
108.51746
113.21577
112.15188
114.94622
113.23275
123.92076
109.72768
105.99179
110.42279
110.40663
114.49227
113.53977
116.02448
114.47062
128.65414
114.92555
109.77098
112.99137
112.44913
115.93632
115.06756
117.22297
115.81969
133.09506
119.92106
113.54404
115.63808
114.58782
117.47608
116.66695
118.51672
117.24959
137.14742
124.57428
117.30721
118.3749
116.84669
119.13921
118.35131
119.91327
118.76873
140.83637
128.91551
120.87601
121.072
119.13371
120.86294
120.0998
121.36444
120.36523
144.42729
133.00636
124.37691
123.74885
121.44476
122.62919
121.88078
122.86985
122.01852
147.77289
136.72339
127.68265
126.35413
123.75412
124.41927
123.69652
124.39968
123.70915
137.90131
137.4645
138.20755
138.63481
140.94206
144.04704
149.57212
160.50451
173.59118
136.72956
136.23538
136.80048
137.37255
139.52856
142.78438
148.07279
158.95942
170.52629
135.30479
134.90026
135.3632
135.96664
137.90122
141.27758
146.17146
156.81454
167.80113
133.74227
133.51055
133.90124
134.5212
136.16144
139.5363
143.96337
154.41179
165.22596
132.13714
132.06469
132.34756
132.99911
134.31601
137.66174
141.60627
151.89344
162.5816
130.50357
130.574
130.70095
131.38474
132.36593
135.68954
139.21463
149.35498
159.85913
128.83461
129.0515
128.99469
129.70981
130.32229
133.56857
136.66442
146.54751
156.97613
127.13469
127.50165
127.26235
127.98289
128.20656
131.29149
133.8743
143.51882
154.03159
125.42051
125.9459
125.4949
126.20588
126.00657
128.86332
130.84808
140.23507
150.95388
139.06016
140.26574
141.45043
142.56906
143.62291
144.60392
145.51711
146.36734
147.15706
138.53972
139.57912
140.58909
141.52276
142.42773
143.27569
144.07336
144.82827
145.53274
139.47778
140.67216
141.81954
142.85435
143.84404
144.7643
145.61934
146.43188
147.18746
139.66199
140.64776
141.56956
142.38193
143.17305
143.88118
144.53914
145.14925
145.70694
142.13019
143.26093
144.29377
145.21252
146.06247
146.82698
147.53536
148.18615
148.7948
145.09917
145.927
146.61585
147.24268
147.75569
148.20828
148.58861
148.90895
149.19019
150.57445
151.21943
151.72642
152.13141
152.38867
152.62125
152.76228
152.87589
152.97967
161.05252
161.08278
160.94729
160.69769
160.31235
159.94877
159.4981
159.04126
158.52861
173.81038
173.46383
172.77191
171.77504
170.59314
169.4038
168.12872
166.92487
165.73576
147.89207
146.19647
147.90705
146.22748
149.36531
149.43104
153.04667
157.99134
164.58604
148.57507
146.81591
148.58495
146.7062
149.90556
149.65374
153.10957
157.48031
163.48669
149.21045
147.39579
149.23183
147.152
150.4199
149.85651
153.14542
156.96909
162.41919
149.80125
147.93605
149.84869
147.56516
150.9127
150.05295
153.18081
156.5009
161.40258
150.35094
148.43883
150.4408
147.95051
151.38678
150.24438
153.21127
156.05059
160.41734
150.86263
148.90497
151.01095
148.30951
151.84427
150.43936
153.2481
155.64181
159.47927
151.33951
149.33559
151.56303
148.64222
152.28498
150.64024
153.29083
155.26539
158.5826
151.78484
149.73143
152.10002
148.95077
152.70891
150.85227
153.34795
154.92977
157.71475
152.2022
150.09334
152.62262
149.24946
153.11691
151.07728
153.41978
154.63749
156.86784
155.59121
151.94333
156.64614
151.44886
155.71305
153.7915
155.0505
154.74891
153.82282
155.16244
151.84582
156.30432
151.21078
155.56168
153.45977
154.79181
154.44905
153.19835
154.75036
151.73226
155.90697
150.96663
155.37057
153.13317
154.56047
154.285
152.86604
154.37701
151.59215
155.47604
150.72603
155.11536
152.77242
154.31756
154.15858
152.90996
154.02661
151.41723
155.03504
150.5081
154.84871
152.43561
154.091
154.0362
153.31316
153.67838
151.21356
154.57981
150.30385
154.56216
152.1423
153.91564
154.01633
153.92613
153.32718
150.98193
154.10914
150.08708
154.23693
151.85717
153.76455
154.09078
154.60751
152.9685
150.71841
153.62535
149.84034
153.88298
151.57822
153.62495
154.21721
155.30837
152.59537
150.42217
153.13014
149.55298
153.50915
151.31817
153.50958
154.39744
156.057
154.5285
155.11047
155.31423
154.14634
155.88659
151.69792
156.97896
152.03939
156.04001
155.43825
155.5601
155.5446
154.48015
155.99973
151.91755
157.28686
152.11157
156.54244
156.34585
156.0998
155.78444
154.8267
156.06898
152.13857
157.52853
152.15382
157.15281
157.22548
156.59011
155.99731
155.17383
156.14622
152.41244
157.77677
152.24582
157.82721
158.12662
157.1006
156.19582
155.46981
156.17705
152.6578
157.9706
152.32167
158.42772
158.91319
157.71934
156.4195
155.79559
156.19072
152.90962
158.11171
152.30489
159.01518
159.57912
158.2944
156.53662
156.16425
156.14828
153.26404
158.28345
152.35197
159.73955
160.28454
158.80884
156.57714
156.45534
156.04971
153.65087
158.42372
152.52232
160.8018
161.2919
159.31226
156.70333
156.68694
155.99616
153.95062
158.34368
152.67199
161.97708
162.49491
159.86067
157.04072
156.95437
156.14865
154.25375
157.9515
152.79296
161.41622
163.5345
160.36397
157.48452
157.20657
156.37385
154.8083
157.47693
153.41802
160.06724
164.47665
160.85086
157.93834
157.4616
156.60415
155.28317
157.1109
153.96304
159.12229
165.33485
161.34547
158.4113
157.76095
156.82714
155.71385
156.87892
154.38576
158.48788
165.81218
161.78805
158.80797
158.03766
157.01861
156.08549
156.75505
154.77856
158.01791
166.33627
162.16627
159.17756
158.30456
157.24505
156.44797
156.69013
155.14834
157.71455
166.64651
162.42222
159.4963
158.56676
157.4946
156.82409
156.66448
155.50927
157.55721
166.49497
162.55167
159.75211
158.79543
157.72232
157.16208
156.68883
155.82746
157.50597
165.88624
162.54088
159.94518
158.98106
157.91423
157.40838
156.80241
156.11535
157.5404
158.4802
157.62934
157.91621
158.57501
158.89257
159.69123
160.41725
161.51692
161.39246
158.43743
157.53234
157.8433
158.42992
158.7436
159.44505
160.20757
161.26589
161.71061
158.4086
157.48169
157.85673
158.55599
158.91823
159.78439
160.64367
161.68331
162.32772
158.30667
157.33845
157.72354
158.415
158.77459
159.62666
160.54442
161.64207
162.61151
158.1823
157.18481
157.57971
158.30101
158.68605
159.58637
160.56959
161.76914
163.05623
158.04191
157.00363
157.44615
158.18018
158.59326
159.55409
160.5516
161.96514
163.58359
157.89669
156.80773
157.28823
158.01633
158.45453
159.44917
160.43707
162.12705
164.04016
157.75577
156.59547
157.12632
157.83761
158.2978
159.31082
160.31064
162.28865
164.60644
157.62601
156.35773
156.95423
157.62748
158.10896
159.14934
160.13706
162.41593
165.12864
164.30406
165.12977
166.08821
167.0629
168.17825
169.41974
170.7514
172.16047
173.5523
165.12952
165.93696
166.89872
167.92459
169.05487
170.29284
171.6177
172.99871
174.35668
166.08773
166.89862
167.84283
168.8909
170.01574
171.23899
172.56337
173.90177
175.23478
167.06253
167.92442
168.89082
169.94533
171.0586
172.26557
173.56237
174.85548
176.21101
168.17767
169.05444
170.0156
171.05854
172.15894
173.34763
174.58436
175.86974
177.27278
169.41906
170.29268
171.23901
172.26545
173.34754
174.52236
175.73739
177.03963
178.46348
170.75114
171.61789
172.56313
173.56219
174.58464
175.73777
176.99051
178.35081
179.82068
172.16019
172.99847
173.90099
174.85508
175.86898
177.03835
178.3508
179.78392
181.25704
173.5518
174.35581
175.23345
176.20951
177.27004
178.46066
179.81922
181.25626
183.2034
187.74456
184.17001
182.93321
180.99119
179.54127
178.17348
177.00183
175.95026
175.05924
177.51709
178.62504
178.56143
178.55788
178.20732
177.68921
177.11031
176.39982
175.57224
173.4958
174.14745
174.27605
174.60814
174.69006
174.70233
174.6498
174.53241
174.1725
170.94492
171.32001
171.36354
171.63375
171.7086
171.89401
171.92436
172.01827
171.8435
168.47955
168.77517
168.73839
168.97425
168.9324
169.13898
169.15807
169.48319
169.23994
166.08795
166.28485
166.18728
166.39679
166.23896
166.44162
166.09775
166.16156
166.04448
164.01353
164.10295
164.00085
164.11591
163.94999
164.07391
163.87586
163.8988
163.63576
162.16447
162.12399
162.05931
162.07381
161.95011
162.00441
161.82944
161.92489
161.67468
160.32867
160.27721
160.12863
160.06099
159.90704
159.8635
159.64514
159.65857
159.40462
157.74797
156.58925
154.80034
152.47287
149.89265
146.96302
143.97658
140.73206
138.59817
158.0527
156.77593
154.9047
152.59308
149.98724
147.01418
143.82674
140.61347
137.80613
157.98959
156.68666
154.83691
152.60011
149.98818
147.02809
143.73068
140.35415
137.08445
158.33159
156.78914
154.91151
152.66165
150.0798
147.06861
143.64743
139.91854
136.27672
158.21308
156.74284
154.90747
152.72198
150.1343
147.12229
143.56723
139.59118
135.43434
158.53636
156.88112
155.03961
152.79369
150.23035
147.14534
143.56423
139.15659
134.62727
158.42272
156.91772
155.06733
152.89079
150.32426
147.32515
143.62261
139.10326
133.82896
158.65451
157.02436
155.17653
152.95486
150.43085
147.31795
143.66833
138.81751
135.12328
158.73223
157.14276
155.32335
153.17644
150.64295
147.70501
143.87992
139.17897
132.64469
139.97008
142.96274
146.16715
148.2886
149.6942
151.01847
152.34851
153.63081
154.83423
138.74095
142.10609
145.75518
148.02824
149.53626
150.95092
152.34872
153.67921
154.8978
137.39836
141.36034
145.43565
147.78157
149.31905
150.77323
152.20771
153.56977
154.81865
135.60758
140.51427
145.14392
147.57901
149.22284
150.76573
152.25136
153.63073
154.87365
133.44669
139.49405
144.65157
147.16079
148.91283
150.546
152.09603
153.5216
154.79604
130.98344
139.39199
144.8111
147.17709
148.97499
150.6376
152.18107
153.58725
154.84625
126.01661
137.76783
144.20385
146.64618
148.62576
150.4193
152.04414
153.49788
154.78778
122.30975
138.17576
144.58153
146.78465
148.74687
150.53555
152.12683
153.54635
154.81906
112.32301
136.77713
144.21461
146.48392
148.56473
150.43351
152.06531
153.50729
154.79563
156.00942
157.19181
158.37513
159.62079
160.93007
162.21347
163.58254
165.04713
166.64763
156.06256
157.22927
158.40813
159.65221
160.96338
162.26128
163.64746
165.13202
166.75269
156.00725
157.20135
158.41026
159.66934
160.98378
162.30468
163.70874
165.21348
166.85574
156.05304
157.23372
158.43572
159.69007
161.00431
162.33835
163.75552
165.27499
166.93618
156.00253
157.2102
158.43625
159.70264
161.02137
162.37025
163.80071
165.33366
167.00946
156.03942
157.23504
158.45371
159.71738
161.03637
162.39389
163.83181
165.37569
167.06105
156.00283
157.2186
158.45354
159.72373
161.04641
162.41173
163.85871
165.41064
167.10647
156.02485
157.23239
158.46255
159.73112
161.054
162.42255
163.87201
165.42901
167.12681
156.01112
157.22654
158.46248
159.73333
161.05764
162.42953
163.8825
165.44219
167.14431
168.39698
170.33022
172.44771
174.73069
177.30714
180.07078
183.02612
186.10024
188.49428
168.52709
170.48545
172.65336
174.97857
177.63946
180.50229
183.5809
186.85066
189.47246
168.65549
170.63884
172.85587
175.22541
177.96246
180.92248
184.14281
187.59446
190.48358
168.75961
170.76367
173.02227
175.42021
178.23556
181.26093
184.65554
188.26758
191.52845
168.85152
170.8727
173.16415
175.59754
178.4768
181.57403
185.15401
188.9408
192.60552
168.92199
170.95433
173.27763
175.73372
178.67322
181.82214
185.57294
189.54049
193.67241
168.97661
171.0241
173.36176
175.8444
178.81832
182.01403
185.92171
190.06589
194.8204
169.00944
171.05797
173.41888
175.91096
178.92977
182.13901
186.21655
190.439
196.0723
169.02868
171.08413
173.44757
175.94816
178.97584
182.20928
186.36579
190.71579
196.34273
189.25257
181.439
177.61291
174.31909
170.83074
167.32627
163.91713
160.71111
157.46555
190.57906
182.3189
178.32455
174.93663
171.37634
167.83068
164.38336
161.14276
157.86365
191.9503
183.18252
179.03994
175.55431
171.92427
168.3385
164.85793
161.59
158.3052
193.33413
183.96968
179.67476
176.1056
172.41519
168.79679
165.27717
161.98357
158.66899
194.91322
184.91153
180.41543
176.77294
173.03059
169.37047
165.83469
162.51896
159.20538
196.33061
185.57147
180.86771
177.14519
173.36977
169.69086
166.11217
162.77012
159.42907
198.30617
187.03095
181.9164
178.01087
174.14584
170.41896
166.81586
163.44785
160.09919
199.09689
187.178
182.01817
178.13135
174.27548
170.54191
166.91386
163.53062
160.16983
202.82091
189.34373
183.26982
179.11588
175.17519
171.40227
167.73422
164.31717
160.9372
154.25255
150.93914
147.49996
143.91465
140.10277
136.09346
131.73165
127.24751
122.23826
154.63472
151.28608
147.87048
144.23893
140.4867
136.42848
132.10457
127.61837
122.60782
155.0732
151.73686
148.33459
144.74072
141.00291
137.00559
132.7012
128.26858
123.32126
155.43241
152.07043
148.70655
145.05932
141.41437
137.36426
133.13086
128.6912
123.82295
155.9632
152.61123
149.24887
145.65354
141.9788
138.00619
133.76621
129.3964
124.49672
156.18387
152.8129
149.48733
145.84126
142.26472
138.24423
134.07395
129.66291
124.92169
156.84828
153.48334
150.16697
146.56082
142.98333
139.02237
134.86757
130.54396
125.75833
156.91734
153.54476
150.24521
146.61973
143.08422
139.10864
134.98713
130.61988
125.97805
157.68236
154.30951
151.03586
147.43213
143.93146
140.01123
135.93034
131.63175
127.02044
116.33258
109.69963
101.95858
95.403068
89.343803
85.14741
77.166166
47.239563
-1.7855777
116.75956
110.31072
102.75106
96.151114
90.404992
87.042026
82.258809
54.345051
4.8818691
117.6154
111.38073
104.16297
97.329269
90.96618
85.929638
82.800673
59.023899
16.360113
118.19164
112.19108
105.28294
98.342691
91.853546
86.767209
83.524156
63.112392
31.46189
119.01883
113.09627
106.55763
99.621942
93.156489
87.78696
84.666448
67.593695
49.178808
119.46148
113.8186
107.53343
100.68234
94.037095
88.51965
84.434266
72.62761
68.283414
120.47811
114.92812
109.10372
102.3164
96.043654
89.767245
86.669627
70.971899
97.054144
120.68426
115.32986
109.6135
103.03724
96.547583
90.617095
84.421071
75.49136
90.515967
121.90971
116.77925
111.58934
105.27365
99.403213
92.821565
92.261015
56.567905
170.14074
-43.488198
-86.914676
-141.91783
-162.13805
-167.10068
-152.53605
-137.11407
-97.602847
-37.386085
-43.686301
-92.577109
-145.96033
-164.4747
-163.53987
-147.73113
-128.95221
-93.837209
-37.387644
-45.810986
-99.298184
-146.1019
-163.00758
-163.70497
-145.38288
-122.85487
-90.223618
-35.864602
-50.440004
-105.81658
-143.50442
-160.59499
-160.39629
-141.33644
-118.59606
-88.560558
-33.529507
-57.794266
-112.05943
-138.74493
-157.74857
-158.51171
-136.81589
-113.62681
-85.052932
-30.543062
-59.838188
-111.53644
-139.70661
-156.74306
-153.45481
-132.39367
-109.22649
-80.491318
-26.664936
-48.531004
-105.65015
-136.02135
-154.16509
-146.46502
-127.28364
-103.85888
-75.772898
-22.068228
-43.91971
-117.94416
-139.30508
-154.96282
-144.83577
-123.54813
-101.29837
-72.084129
-18.199161
-238.98609
-88.992236
-150.77341
-150.91134
-138.06335
-117.08931
-95.862855
-67.091844
-15.073982
15.109157
30.887217
38.135725
26.134776
28.685683
29.816538
27.56762
26.743213
26.914237
13.600452
32.84453
42.45426
29.449157
30.163071
29.458872
27.249063
26.734821
26.784753
13.625082
34.343441
42.832228
33.536415
32.25732
30.292992
28.046149
27.366084
27.336909
14.722683
35.55255
42.99702
34.151957
31.870991
29.744653
27.989956
27.485994
27.356864
16.080273
36.141166
42.717034
34.427512
32.573817
30.183699
28.356215
27.727077
27.546679
17.397465
36.7622
42.005234
34.233595
32.350162
29.736472
28.211559
27.76219
27.576232
18.748281
37.417381
41.45587
34.060697
32.331069
29.800218
28.390359
27.863323
27.603587
19.569898
37.849191
41.020905
33.934045
32.246786
29.544453
28.253055
27.813859
27.596184
20.110574
38.346133
40.584809
33.429668
31.836558
29.234906
28.167568
27.790357
27.578513
26.838637
25.26915
25.928952
27.702795
30.357078
33.158048
36.378812
39.442877
42.812388
26.701542
25.681832
26.026977
27.556859
29.973231
32.72259
35.773191
38.60284
41.641724
27.155511
26.044021
26.146305
27.380357
29.619646
32.204102
35.267449
37.977744
40.633722
27.233482
26.372652
26.261805
27.228952
29.164066
31.638705
34.628458
37.303622