/*--------------------------------*- C++ -*----------------------------------*\
  =========                 |
  \\      /  F ield         | OpenFOAM: The Open Source CFD Toolbox
   \\    /   O peration     | Website:  https://openfoam.org
    \\  /    A nd           | Version:  11
     \\/     M anipulation  |
\*---------------------------------------------------------------------------*/
FoamFile
{
    format      ascii;
    class       volScalarField;
    location    "0.009";
    object      p;
}
// * * * * * * * * * * * * * * * * * * * * * * * * * * * * * * * * * * * * * //

dimensions      [0 2 -2 0 0 0 0];

internalField   nonuniform List<scalar> 
880
(
80
80
80
80
80
80
79.99999999999991
80.00000000000257
80
79.99999999999999
80
79.9999999995226
80
80
80
79.9999998263512
80
80.00000000000001
79.99999999999994
80
79.99999999999999
80
79.99999999999983
80
80
80
80
79.99999999997375
80.00001382786454
80.00002165597682
80.00002006872582
80.00001810085917
80
80
79.99999999999996
80
80
79.99999999999997
80
79.99999999999999
80.00000000181095
80.00000000176294
80.00000000185905
80.00000000009692
80.00001694802967
80.00001736092916
80.00001763610189
80.00000958740618
80.00013554554835
80.00004577805689
80.00000226292605
80.0000000102939
80.00000002994784
80.00000001148295
80.00000000073236
80
80
80
80.00000000000001
80
80
80.00000000000001
80
80
79.99999999999996
79.99999999999997
80
80.00000000000001
80
80.00000000000001
80.00000000000001
80.00000000000001
79.99999999999989
80
79.99999999999989
80
80.00000000000129
80
79.99999999999996
80
80
80
79.99999999999999
80
80
80
80
79.99999999999999
80.00000000725329
79.99999999999783
80
79.99999999999999
79.99997524975193
79.99999999553916
80.00000000000001
79.99999999999999
79.99999999999991
79.99999999999999
79.99999999999982
80.00000007137763
80
80
79.99999999999984
80.00000022146311
80
80
80.00000000000185
80.0000002355229
80
80
80.00000000000465
80.00000024722999
80.00000026009042
80.00000000001032
80
80
80.00000027432246
79.9999999999979
80
80
80.00000029019655
80.00000000000131
79.99999999999997
79.99999999999999
80.0000003120896
80.00000000002559
80
80
79.99999999999993
80
80.00000000003902
80.00000045295781
80
80
80.00000000004586
80.00000041692635
80
80
80.00000000005588
80.00000034617915
80
79.9999999998341
79.99999996386501
79.99998011363908
80.00000000068448
80.00000070348139
80.00015904643017
79.99099307387857
80.00000000122829
80.00000108065308
80.00018247172038
79.96972229601624
80.00000000087222
80.00000083630472
80.00015095256136
79.96975551530754
80.00000000058058
80.00000063939342
80.000123104032
79.97190436956069
79.98961671487723
80.00013405883121
80.00000025923262
80.0000000001741
79.99262262393164
80.00012901296759
80.00000020033069
80.00000000012029
79.99261981779452
80.00011279825725
80.00000017170007
80.00000000012689
79.96781577002793
80.00007997768202
80.00000030005306
80.00000000028236
80.00146423266727
80.00000406638047
80.00000000114554
79.99999999999983
80.00010610221017
80.00000001532119
80.00000000000048
80
80.00000031354155
79.99999999895606
80
80
79.99997390890194
79.99999998996654
80
80
80.00252841020787
80.00000317953985
80.00000000159091
79.99999999999993
80.00252785596143
80.00000317925681
80.00000000156855
80
80.00248710357981
80.00000314436996
80.00000000150648
80
80.00217867644248
80.00000281567107
80.00000000135726
80
79.99997390884832
79.99999998993209
79.99999999999999
80
80.00000031347901
79.99999999892438
79.99999999999993
80
80.00010610218591
80.00000001532641
80.00000000000048
80
80.00146423275132
80.00000406647825
80.00000000114471
79.99999999999812
80.00000000021599
80.00000025932783
80.00013405887942
79.98961671490287
80.00000000015682
80.00000020034244
80.00012901300556
79.99262262397092
80.00000000008762
80.00000017176143
80.00011279825419
79.99261981792924
80.00000000028241
80.00000030006767
80.00007997779291
79.96781576994435
79.97190436949472
80.00012310398508
80.00000063936314
80.00000000057817
79.96975551520153
80.00015095249466
80.00000083621437
80.00000000083526
79.9697222959873
80.00018247162517
80.00000108065035
80.00000000119698
79.99099307391108
80.00015904639594
80.00000070344808
80.0000000007322
79.99999999999991
80.00000000000004
80.0000000000736
80.00000045302879
80.00000000000001
80
80.00000000004626
80.00000041689734
80.00000000000003
80
80.00000000004846
80.00000034616401
80
79.99999999982484
79.99999996383279
79.99998011364173
80.00000031222244
80.00000000001647
80
80
80.00000029030765
80.00000000001957
80
80
80.00000027431921
80.00000000001098
80
79.99999999999999
80.0000002601485
79.99999999999761
80
80
80
80
80
80.00000007127502
80
80
79.99999999999859
80.00000022147951
80
80
80.00000000000207
80.00000023556387
79.99999999999999
80
80.00000000000276
80.00000024724662
80
80
80
80
79.99999999999997
80
80
80.00000000000001
79.99999999554271
80.00000000001224
80
80
79.9999752497498
80.00000000725329
80
80
79.99999999999991
80
79.99999999999989
80
80
79.99999999999999
80
79.99999999999999
79.99999999999999
80
80
80
80
79.99999999999999
79.99999999999999
80.00000000000124
80
79.99999999999997
80.00000002989553
80.00013554553034
80.00000000000001
80
80.00000001149078
80.00004577797421
79.99999999999999
80
80.00000000070683
80.00000226291961
80
79.99999999999999
80
80.00000001025798
80.0000095874384
80.00000000011021
79.99999999999999
79.99999999999999
80.0000176360733
80.00000000195172
80
79.99999999999999
80.0000173610007
80.00000000181146
80.00000000000003
79.99999999999993
80.00001694800505
80.00000000170296
80
80
80.00001810091536
79.99999999997597
80
80
80.00002006869857
80.00000000000001
80
79.99999999999999
80.00002165603325
80.00000000000001
80
79.99999999999999
80.00001382785204
80
80
79.99999999999989
80
79.99999999999997
80
80
80.00000000000003
80.00000000000001
79.99999999999999
80.00000000000026
80
80
80
79.99999999949893
80
80
79.99999999999989
79.9999998263052
80
79.99999999587757
79.9999989322386
79.99998779824274
79.99999999581632
79.99999981357848
79.99993888609352
79.99831924997719
79.99999893224111
79.9999388860969
80.00004621395142
80.09589092171413
79.99998779828303
79.99831925000578
80.09589092169051
84.31861980943118
113.1799366747463
86.56920627535868
80.45323944171115
80.00408215784199
120.6770610253905
89.65134048215445
80.76526831681797
80.0075955557308
120.9847956511462
89.77081520844585
80.77903123042415
80.00776222205053
121.0034243882993
89.75753672623756
80.77376243031267
80.00767497657064
80.00757839194429
80.00768762663346
80.00769291285322
80.00539216385121
80.84302411918615
80.85608515265336
80.85638546418048
80.85067703864121
90.20506355894724
90.28350932286769
90.28673338827342
91.26378775233452
122.400692630126
122.7356895142386
122.7534901696319
129.2003629117265
80.03030639212699
80.00790491321624
80.00022834253049
80.00000066470898
80.5341527672287
80.03963406649635
79.99997797294419
79.99999880680625
81.5951693873381
80.00692421533121
79.99782029556647
79.99999753644784
81.877992198127
79.93297533770918
79.97818802502225
79.99963904368703
80.00000000061809
79.99999999999996
79.99999999999999
79.99999999999997
80.00000004964745
80.00000000042721
80.00000000000267
80
80.00000055573072
80.00000004200119
80.00000000045507
80
80.00000138631142
80.00000033139021
80.0000000052439
80.00000000003179
79.99999999999997
79.99999999999997
80.0000000000276
79.99321471464296
80
80
79.99999999999989
79.49130636532831
80
80
79.99999999999996
74.40976476979684
79.99999999999989
80
79.99999999999996
63.55038537299392
80.00020473483718
80.00029474546552
80.00029967480081
80.0002997115717
80.3846418917739
80.49656168985827
80.49985047738636
80.49972799131282
102.105810730304
104.9939742703791
104.8924179253235
104.8775759770264
209.9197911172863
218.0631760036212
216.5002107226906
216.3726467773747
80.00029973302773
80.00029976597826
80.0002998037106
80.00030785753172
80.49972074415999
80.49972076797016
80.49972077207512
80.50828103103154
104.8775674287062
104.8775799662653
104.8775803784725
104.9206161623865
216.3727426584668
216.3728448050965
216.3728505297671
216.3663049876567
80.00033785469745
80.00028416086975
80.00025351267873
80.00101982515011
80.38685560014483
80.34253225678755
80.3064156268842
80.18684567224561
102.4630006816624
101.3275887530966
100.0879118546131
99.50866081298139
208.8226400061105
205.7595440273431
202.6782854345061
233.0925397424502
78.65624717486706
76.49410185544929
76.22804328593372
76.26644001264469
66.76863434251338
54.64171059312238
53.41628625857118
53.39455341632891
42.00011237059794
20.38215328974729
19.10827711678593
18.99426551471233
29.94079193455694
4.959309846483428
4.395333465777453
4.345939711099382
76.022280191972
76.05492771086074
76.00645238774869
73.15690850501825
51.60921568444863
51.55568396542256
51.49427457440245
42.2964321358002
17.2216276385587
17.10843802548863
17.18288630924149
9.242447105479327
4.237669850468747
4.214131150478135
4.211080126586603
0.937630490671593
79.96269737768208
80.00933544756209
80.0006244762138
79.99281480874568
78.7307101709165
80.01053542137883
79.99554637532918
79.92282760064528
73.50628896774731
79.97321704841967
79.92668531186251
79.47425981107696
61.76727074605874
79.18680845546909
79.63787424719631
80.51404047268846
80.06973775071967
80.15242278690258
80.16604296241447
80.20876529323716
79.66652567154294
79.80455184823811
79.78386476597558
79.87715947473352
65.05856601791426
61.28180332742155
59.86651955220293
59.50880465984182
33.13477736438298
17.15145706490257
13.99048508486199
13.34147869164212
12.33430657257966
11.96632318370348
11.891897982327
11.88835333027091
56.89285892394352
56.59594072167027
56.49870753462652
56.489833972693
80.09499834756996
80.23171600260835
80.25153313010749
80.25154342964439
80.37001192659793
80.44582316782449
80.45708066995343
80.45728378745845
11.88835333027018
56.48983397267391
80.25154342966323
80.45728378745898
11.89189798235873
56.49870753456763
80.25153313021977
80.45708066995242
11.96632318369247
56.59594072170496
80.2317160025022
80.44582316778579
12.33430657258166
56.89285892400239
80.09499834752626
80.37001192653292
80.20876529319412
80.16604296239552
80.15242278686095
80.06973775060086
79.87715947464255
79.78386476597936
79.80455184835452
79.66652567142988
59.50880465986203
59.86651955223063
61.28180332740489
65.05856601792379
13.3414786916374
13.99048508486288
17.15145706490937
33.13477736438825
80.5140404726905
79.63787424719347
79.1868084554666
61.76727074603934
79.47425981106824
79.92668531184599
79.97321704841768
73.50628896773685
79.92282760063813
79.99554637522456
80.01053542137331
78.73071017090555
79.9928148087353
80.00062447618718
80.00933544754645
79.96269737769154
73.15690850499391
76.00645238769813
76.0549277108248
76.02228019189992
42.29643213580055
51.49427457444429
51.55568396549831
51.60921568450668
9.242447105519936
17.18288630923762
17.10843802549254
17.2216276385655
0.9376304906686574
4.211080126587051
4.214131150474882
4.23766985047291
76.26644001249598
76.22804328601015
76.49410185554775
78.65624717490878
53.39455341644896
53.41628625857294
54.64171059312808
66.76863434244578
18.99426551470466
19.10827711675543
20.38215328977645
42.00011237052048
4.345939711119145
4.395333465758015
4.959309846460202
29.9407919345439
80.00101982516257
80.00025351271734
80.00028416082893
80.00033785474953
80.18684567215568
80.30641562692863
80.34253225680301
80.38685560021919
99.5086608128515
100.0879118545812
101.327588753099
102.4630006815921
233.0925397423472
202.6782854344254
205.7595440272536
208.822640005963
80.00030785753719
80.00029980380287
80.00029976597042
80.00029973311253
80.50828103100191
80.49972077217301
80.4997207680844
80.49972074412172
104.9206161622317
104.877580378479
104.8775799662789
104.8775674286435
216.3663049873983
216.3728505296644
216.3728448050515
216.3727426584061
80.00029971146652
80.00029967485227
80.00029474548727
80.0002047348507
80.49972799132678
80.49985047745623
80.49656168971251
80.38464189191002
104.8775759769876
104.8924179253675
104.9939742703207
102.105810730378
216.3726467773168
216.5002107227062
218.0631760035004
209.9197911173827
79.99321471463931
80.0000000000276
79.99999999999997
79.99999999999997
79.49130636531658
79.99999999999989
80
80
74.40976476980556
79.99999999999996
80
80
63.55038537301557
79.99999999999996
80
79.99999999999989
79.99999999999997
80
79.99999999999996
80.00000000062779
80
79.99999999999959
80.00000000042758
80.00000004964531
80
80.00000000047325
80.00000004200221
80.00000055572447
80.00000000003158
80.00000000525006
80.00000033139369
80.00000138628779
80.00000066470207
80.00022834252981
80.00790491320095
80.03030639211876
79.99999880680566
79.99997797294232
80.03963406649524
80.5341527672107
79.99999753644795
79.99782029556545
80.00692421532965
81.59516938733479
79.99963904368619
79.97818802502226
79.93297533770652
81.87799219812268
80.00539216394266
80.00769291280898
80.00768762659557
80.00757839204051
80.85067703852908
80.85638546414981
80.85608515270398
80.84302411925142
91.26378775223898
90.28673338822004
90.28350932275249
90.20506355899404
129.2003629116424
122.753490169545
122.7356895140956
122.4006926301426
80.00767497663382
80.00776222203547
80.00759555577569
80.00408215791616
80.77376243024192
80.7790312304931
80.76526831673841
80.45323944168574
89.75753672624134
89.77081520831946
89.65134048208917
86.569206275295
121.003424388271
120.9847956508424
120.6770610252933
113.1799366746885
80.00088879607964
80.00000114824526
80.00000000060272
80
80.00163754515931
80.00000184616569
80.00000000086601
80.00000000000004
80.00172536787728
80.0000019028665
80.00000000088252
79.99999999999991
80.00195729076455
80.00000208088836
80.0000000009679
80
80
80.00000000157588
80.00000317956585
80.00252841021707
80
80.00000000159986
80.00000317916637
80.0025278560299
80
80.0000000015625
80.00000314440955
80.00248710347262
79.99999999999996
80.00000000141762
80.00000281544098
80.00217867641382
80
79.99999999999999
80
79.99999999999987
80.00000000097057
80.00000000088274
80.00000000085619
80.00000000058337
80.00000208095801
80.0000019027438
80.00000184629445
80.00000114816756
80.00195729069944
80.00172536774065
80.00163754521809
80.00088879609929
)
;

boundaryField
{
    back
    {
        type            empty;
    }
    inlet
    {
        type            zeroGradient;
    }
    front
    {
        type            empty;
    }
    top
    {
        type            zeroGradient;
    }
    outlet
    {
        type            fixedValue;
        value           uniform 80;
    }
    bottom
    {
        type            zeroGradient;
    }
    wall
    {
        type            zeroGradient;
    }
}


// ************************************************************************* //
