/*--------------------------------*- C++ -*----------------------------------*\
  =========                 |
  \\      /  F ield         | OpenFOAM: The Open Source CFD Toolbox
   \\    /   O peration     | Website:  https://openfoam.org
    \\  /    A nd           | Version:  11
     \\/     M anipulation  |
\*---------------------------------------------------------------------------*/
FoamFile
{
    format      ascii;
    class       volScalarField;
    location    "0.115";
    object      Ma;
}
// * * * * * * * * * * * * * * * * * * * * * * * * * * * * * * * * * * * * * //

dimensions      [0 0 0 0 0 0 0];

internalField   nonuniform List<scalar> 
880
(
1.443353270571932
1.443353270571932
1.443353270571683
1.443352161353403
1.443353270571932
1.443353270571932
1.44335327057706
1.443342755549385
1.443353270571932
1.443353270571933
1.443353270636331
1.44333287422256
1.443353270571932
1.443353270571932
1.443353273022173
1.443248398530872
1.443353270571932
1.443353270571932
1.443353270571933
1.443353270548921
1.443353270571932
1.443353270571932
1.443353270571935
1.443353270571932
1.443353516647966
1.443352192535724
1.443303896396426
1.443609630201385
1.433041910836141
1.406203754908643
1.389768088828677
1.385359620211331
1.443353235139297
1.443353135500474
1.443352793224966
1.44335295273012
1.443351823254021
1.443349974586646
1.443349119810986
1.443349892406147
1.442473852277404
1.442116157320585
1.441996771556904
1.441844143412553
1.382589703980062
1.376437954156285
1.380892416919119
1.369098054022465
1.394836585270547
1.42353655984996
1.44658437024683
1.458450650334419
1.440917688774522
1.437805771641245
1.440019947601541
1.44228742997253
1.443342671833974
1.443315593361334
1.443297064273571
1.4433218837453
1.443352410369633
1.443351264315508
1.443348783669602
1.443347892179276
1.443348570177424
1.443350630988757
1.443352520452994
1.443353179295972
1.443343906200118
1.443359999733687
1.443358801151642
1.443354323231354
1.443890960217874
1.444466487837011
1.444083049369821
1.443594129772614
1.460955411283434
1.458921589151235
1.454697515714098
1.44962209460805
1.445534317238345
1.443385227535189
1.443353327704809
1.443353266594238
1.443694271362332
1.443355081822399
1.443353273951818
1.44335327022112
1.443396221027785
1.443355267818867
1.443353302182821
1.443353267135824
1.423222246240832
1.443267967185223
1.443355668794763
1.443353575889891
1.443353373794761
1.443354293754202
1.442565217868512
1.270012805681178
1.443353203685997
1.443344922069221
1.439259683565994
1.167332524098803
1.443352603397916
1.443324434173761
1.434607426756191
1.117853323589672
1.443350051214773
1.443307314494471
1.43033328460236
1.104074779699104
1.099969217295436
1.425336416312569
1.443273895832211
1.443349169825778
1.10665489504017
1.421807116218163
1.443256901000826
1.443344338182251
1.105629279315096
1.416504487036831
1.443208730451419
1.443344272308753
1.10340464842694
1.410579462666482
1.443159030402076
1.443335850625435
1.44333350390301
1.443107571592732
1.402109401018818
1.083322369240853
1.443324981702361
1.442936491218643
1.391422570551875
1.10156746806669
1.443313384004649
1.44288667668574
1.394973625811423
1.146335244911215
1.443329858160377
1.442899006698726
1.408559035928317
1.24870216598136
1.443265549599301
1.443070170067247
1.437740986598466
1.42968502463301
1.443204263116978
1.444495303912319
1.455825725429896
1.558381492593036
1.443349139586909
1.444160829401999
1.450775703339676
1.497006322048351
1.443362978412854
1.443298054364918
1.430737630228527
1.308051056021998
1.178452574967153
1.422406132912669
1.443194027635639
1.443355290723629
1.113182249610533
1.414843695984716
1.442887784056369
1.443351450547169
1.097574070880427
1.413766141077197
1.442985662937762
1.443352907144145
1.045511678725769
1.40848773368725
1.442884106834361
1.443352429352225
1.141033981457561
1.421392522366884
1.443139572104424
1.443352873397032
1.264381052432082
1.433388782870765
1.443294497288515
1.443353173912457
1.357712621785828
1.439611004501419
1.443339461365179
1.443353256330195
1.421131585995892
1.44294987326635
1.443356400259616
1.443353273710705
1.364440020412378
1.438867036039222
1.44327054320242
1.443352699963264
1.367020618558715
1.439013073423135
1.443272289718319
1.443352704893261
1.363707097016551
1.438892505453056
1.443273399907844
1.443352707435757
1.359296683248867
1.439003402941236
1.443284329382368
1.443352749545922
1.421131586003009
1.442949873271661
1.443356400268613
1.443353273697083
1.357712621789605
1.439611004507703
1.443339461383336
1.443353256328832
1.264381052430062
1.433388782864393
1.443294497286733
1.443353173911603
1.141033981450079
1.421392522350476
1.443139572101901
1.443352873402167
1.443355290710095
1.443194027619719
1.422406132909118
1.178452574965056
1.443351450530922
1.442887784046968
1.414843695981747
1.113182249607455
1.443352907154837
1.442985662925361
1.413766141077624
1.097574070873392
1.443352429351578
1.442884106829444
1.408487733671733
1.045511678727169
1.308051056030808
1.430737630239729
1.443298054386146
1.443362978426238
1.497006322062464
1.450775703350717
1.44416082941609
1.443349139610635
1.558381492592277
1.455825725441646
1.444495303911761
1.443204263123879
1.429685024631087
1.437740986603605
1.443070170074908
1.443265549570719
1.443333503910341
1.443107571582267
1.402109401014889
1.083322369233135
1.443324981702528
1.442936491203849
1.391422570545033
1.101567468065731
1.443313383988035
1.442886676684201
1.394973625818843
1.146335244911334
1.443329858145709
1.442899006696744
1.408559035934018
1.248702165982533
1.103404648413437
1.410579462661254
1.443159030376455
1.443335850624349
1.105629279301656
1.416504487003007
1.443208730454256
1.443344272304654
1.106654895041187
1.42180711622622
1.443256900974614
1.443344338188758
1.099969217292376
1.425336416334964
1.443273895852579
1.443349169830026
1.443353373784049
1.443354293745168
1.442565217873063
1.27001280568616
1.443353203692588
1.443344922080608
1.43925968355177
1.167332524111689
1.443352603407456
1.443324434181758
1.434607426755519
1.117853323576171
1.443350051226532
1.443307314472401
1.430333284597559
1.104074779701277
1.443353575890329
1.443353267129726
1.443353270220229
1.443353266595872
1.443355668806264
1.443353302180414
1.443353273939274
1.443353327712306
1.443267967182055
1.443355267815708
1.443355081832403
1.443385227538479
1.423222246240488
1.443396221028279
1.443694271358213
1.44553431723905
1.443353179306591
1.443354323231322
1.443594129760438
1.449622094604009
1.443352520457657
1.443358801155507
1.444083049350088
1.454697515713854
1.44335063097821
1.443359999734138
1.444466487846517
1.458921589153156
1.443348570175043
1.44334390619971
1.443890960209123
1.460955411289638
1.443352410385088
1.443342671845188
1.440917688763449
1.394836585270192
1.443351264331033
1.44331559336388
1.437805771640823
1.423536559857314
1.443348783676297
1.443297064259421
1.440019947605268
1.446584370252779
1.443347892185039
1.443321883734137
1.442287429975157
1.458450650340452
1.369098054020162
1.441844143387222
1.443349892415071
1.443352952737086
1.380892416914589
1.441996771532797
1.443349119814006
1.443352793219592
1.376437954146549
1.442116157343255
1.443349974583443
1.443353135505741
1.382589703981076
1.442473852330062
1.443351823257559
1.443353235134677
1.385359620206309
1.443609630162035
1.443353270571932
1.443353270546538
1.389768088830615
1.443303896429261
1.443353270571932
1.443353270571933
1.406203754902867
1.443352192539727
1.443353270571932
1.443353270571933
1.433041910834219
1.443353516651323
1.443353270571932
1.443353270571934
1.443353270571932
1.443353270571933
1.443353270571743
1.44335216141881
1.443353270571931
1.443353270571932
1.443353270577024
1.443342755620303
1.443353270571932
1.443353270571932
1.443353270635315
1.443332874228513
1.443353270571932
1.443353270571932
1.443353273029646
1.443248398533791
1.443350670281609
1.443340855342702
1.443276832354234
1.441520189953178
1.443340855136675
1.443339243221953
1.443265924128395
1.434318089868078
1.443276832351749
1.443265924074469
1.439568876771658
1.385357320919721
1.441520189956859
1.434318089895234
1.38535732113431
1.203526553540352
1.035636869069151
1.125087873027779
1.279298862296773
1.370348881500696
1.086251424445069
1.109048538413885
1.169792671254745
1.244328729598448
1.133957104228005
1.160217441281084
1.202706836937765
1.252863695940857
1.176499563199117
1.19972141696826
1.234091151874633
1.268411586961568
1.274699793020141
1.279666031699532
1.28729905295929
1.284071420865068
1.262563935222471
1.277465021475868
1.285379263068771
1.310727551323353
1.240863539635552
1.270693308984545
1.280415550727217
1.396869925583532
1.173631199666783
1.191336630133439
1.202044028160016
1.516225875923765
1.408261902757487
1.544701704857184
1.534649335700803
1.502935814998874
1.501786613355694
1.63698555392057
1.591264436085357
1.541252237611952
1.682850131826115
1.735220478435118
1.624463621118379
1.554301581286889
1.274780999948299
1.296015353459876
1.264877916237166
1.278290079137578
1.48375501954888
1.470579137109307
1.464134174585536
1.458625665899675
1.509299347945119
1.488364057286583
1.475888282169182
1.467339401839092
1.520783219040123
1.500505596783661
1.485533883404925
1.474294800214171
1.320726770986122
1.36968488280413
1.407384501843741
1.422658735563252
1.450770737660038
1.445391666541744
1.443620492217991
1.24855928622949
1.456417796558011
1.447462246939388
1.444003241630031
1.099101697188589
1.461371838170572
1.44967800352293
1.444273934329219
0.9531719433461406
1.4331062165754
1.439954466681142
1.441727187365482
0.6955659984377867
0.8519821607585397
0.8576444891814414
0.8854490640051138
0.9239043408678477
0.7410094361443613
0.8152440569439815
0.8788534048538418
0.9245346843064343
0.6104953696684021
0.7391243696915598
0.8462784076486304
0.9128062580172294
0.4005027465127561
0.5713893697718738
0.697822485201932
0.8073266701985924
0.9497990384377593
0.9623453375957227
0.9729098080988674
0.9774765330641417
0.951912557381716
0.9641195532665889
0.9768222437240947
0.9833362186858599
0.9483508138658509
0.9638323239913817
0.9794224314552794
0.9872452220312389
0.8793934200405336
0.9103316048902098
0.9276066725750033
0.9316530814252697
0.9812844269189035
1.006366076075891
1.057884537474481
1.159721992879603
0.9873067342384818
1.009984316676965
1.066525613166174
1.216630775924644
0.9921721525568664
1.008737275185411
1.094088432839049
1.537565838508874
0.9507324934807643
0.9716815670545386
1.107567943483101
2.134153012241812
1.393108698654199
1.70257417540546
0.6671354664870429
0.3671389396762461
1.476346165083444
1.509075134406716
0.4975565749459561
0.1780711703269715
1.528023962014574
1.178613441171072
0.2569994789641255
0.1007228090820711
1.203469612126505
0.6417663969416693
0.05109055767753178
0.05766327439351259
0.1909705437275354
0.09164787559296728
0.03799728332891917
0.09706134091970069
0.0842966431382655
0.08526626569480464
0.1114994980846054
0.2010355253771159
0.05516573344551581
0.1129585294334047
0.1983848714390983
0.3278080353094421
0.02488532669099332
0.1123454920331827
0.2793415964678693
0.3640357171716205
0.6023283956071187
1.060615123453984
1.326951825747018
1.458971469268583
0.2862769859640687
0.7864755905164734
1.151606825394167
1.360321681197663
0.06666491017071229
0.3733722832768122
0.8251791841729411
1.255180238668578
0.1651272578756564
0.1398361235192304
0.5853588143853142
1.38478286970008
1.653411356430077
1.902939226436278
2.606391045529291
2.294816228589222
1.59287917339386
1.877278791158527
2.485929949078271
1.455151923115372
1.571360257914461
2.072593819405375
1.798721050089881
0.6321855916307304
1.373287364138582
1.568588050754694
0.2655130859300578
0.4007143514346595
0.4586467497620689
0.4689552488280553
0.3706324833022189
0.22031803115927
0.3182362098446211
0.34555017630717
0.3123327878025372
0.223788300566497
0.5926009338007814
0.1189357147964258
0.1410149282601618
0.1650340067158066
1.28064525065567
0.6968423988502476
0.4264477947764871
0.3064615458706541
0.2203180311588414
0.2237883005663701
0.1650340067154845
0.3064615458657712
0.3706324833011707
0.312332787803187
0.141014928258764
0.4264477947727022
0.4689552488280633
0.3455501763063527
0.1189357147957472
0.6968423988482068
0.4586467497623513
0.3182362098426451
0.5926009338004941
1.280645250654527
2.294816228589456
2.606391045537924
1.902939226445994
1.653411356439865
1.455151923114292
2.485929949072858
1.877278791160719
1.592879173400794
0.6321855916309838
1.798721050083509
2.072593819410133
1.571360257916312
0.4007143514351174
0.2655130859278567
1.568588050754818
1.373287364139698
1.384782869702945
0.5853588143854049
0.1398361235194426
0.1651272578781522
1.255180238671083
0.8251791841730128
0.3733722832721603
0.066664910168359
1.360321681201547
1.151606825393888
0.7864755905107642
0.2862769859589317
1.458971469273866
1.326951825745628
1.060615123449742
0.602328395601807
0.09706134091528554
0.03799728332518055
0.09164787558671328
0.1909705437238461
0.2010355253773996
0.1114994980814429
0.08526626570019219
0.08429664314597662
0.3278080353072359
0.1983848714339164
0.1129585294389265
0.05516573345112888
0.3640357171698415
0.2793415964634041
0.1123454920379442
0.02488532669334129
0.367138939681014
0.667135466485845
1.702574175405792
1.393108698655196
0.1780711703303376
0.4975565749478766
1.5090751344097
1.47634616508949
0.1007228090816748
0.2569994789647393
1.178613441174447
1.528023962020631
0.05766327438557388
0.05109055767635713
0.6417663969508703
1.20346961213181
1.15972199287986
1.057884537472426
1.006366076073583
0.9812844269126114
1.216630775926149
1.066525613165386
1.009984316675113
0.9873067342335327
1.537565838514061
1.094088432840792
1.0087372751841
0.9921721525537154
2.134153012250633
1.107567943488826
0.9716815670612422
0.9507324934866883
0.9774765330531237
0.9729098080950229
0.9623453376013225
0.9497990384314544
0.9833362186784069
0.9768222437208269
0.9641195532727042
0.9519125573816106
0.9872452220262004
0.9794224314532468
0.9638323239981708
0.9483508138684071
0.9316530814267218
0.9276066725742743
0.9103316048963319
0.8793934200402919
0.9239043408575293
0.885449064004191
0.8576444891889821
0.8519821607589704
0.9245346842963926
0.8788534048521588
0.8152440569472816
0.7410094361435811
0.9128062580088607
0.8462784076470965
0.7391243696904851
0.6104953696676497
0.8073266701813305
0.6978224852039582
0.5713893697707566
0.4005027465068394
1.248559286225774
1.443620492218601
1.445391666544766
1.450770737654809
1.099101697187788
1.444003241641913
1.44746224693754
1.45641779655298
0.9531719433485073
1.444273934351693
1.449678003503377
1.461371838172722
0.6955659984440333
1.44172718738563
1.439954466704815
1.433106216551621
1.458625665902363
1.464134174589234
1.470579137111978
1.483755019553692
1.467339401840034
1.475888282172033
1.488364057288267
1.509299347948208
1.474294800212928
1.485533883407633
1.500505596782187
1.520783219043392
1.42265873556305
1.407384501842764
1.369684882800477
1.320726770983303
1.502935815002832
1.534649335706195
1.544701704863315
1.408261902759211
1.541252237618502
1.591264436089258
1.636985553926099
1.501786613358283
1.554301581295055
1.624463621120688
1.735220478442612
1.682850131830683
1.278290079145063
1.264877916239184
1.296015353463062
1.274780999947598
1.284071420871879
1.28729905296668
1.279666031689776
1.274699793000064
1.31072755133158
1.285379263072126
1.277465021467547
1.262563935211104
1.3968699255948
1.280415550730429
1.270693308981142
1.240863539635757
1.516225875943523
1.20204402817876
1.191336630137852
1.173631199657857
1.26841158696673
1.252863695940871
1.244328729592557
1.370348881523322
1.23409115189048
1.202706836950612
1.169792671219749
1.279298862278303
1.199721416986759
1.160217441292208
1.109048538367636
1.12508787288484
1.176499563190409
1.133957104207508
1.086251424423493
1.035636868987004
1.426733296789431
1.442223058224302
1.443342492629825
1.443353231534553
1.427941566408496
1.442057965799732
1.443336017948254
1.443353175826376
1.399647008549359
1.441131068117706
1.443323677462655
1.44335308782614
1.36281853311022
1.439638822533443
1.443304768184596
1.443352915995516
1.443352699956721
1.44327054320371
1.438867036038647
1.36444002039332
1.443352704885923
1.44327228971017
1.439013073435298
1.367020618562667
1.443352707443704
1.443273399897208
1.438892505464107
1.363707097026664
1.443352749569131
1.443284329370609
1.439003402965678
1.35929668326131
1.443352916001131
1.443353087833811
1.443353175855147
1.443353231561691
1.443304768180779
1.443323677463635
1.443336017954143
1.443342492643547
1.439638822536809
1.441131068123157
1.442057965789846
1.442223058235226
1.362818533118768
1.399647008558736
1.427941566411672
1.42673329678941
)
;

boundaryField
{
    back
    {
        type            empty;
    }
    inlet
    {
        type            calculated;
        value           nonuniform List<scalar> 
16
(
1.443353270571932
1.443353270571932
1.443353270571932
1.443353270571932
1.443353270571932
1.443353270571932
1.443353270571932
1.443353270573638
1.443353270572772
1.443353270571932
1.443353270571932
1.443353270571933
1.443353270571932
1.443353270571932
1.443353270571932
1.443353270571932
)
;
    }
    front
    {
        type            empty;
    }
    top
    {
        type            calculated;
        value           uniform 0;
    }
    outlet
    {
        type            calculated;
        value           nonuniform List<scalar> 
16
(
1.443352482834904
1.44335248563862
1.443352478134098
1.443352472459538
1.443353211886938
1.443353136585336
1.443353012271918
1.443352704968533
1.443352482830729
1.443352485633399
1.443352478138571
1.443352472474048
1.44335270497147
1.44335301227533
1.44335313660225
1.443353211904072
)
;
    }
    bottom
    {
        type            calculated;
        value           uniform 0;
    }
    wall
    {
        type            calculated;
        value           uniform 0;
    }
}


// ************************************************************************* //
