/*--------------------------------*- C++ -*----------------------------------*\
  =========                 |
  \\      /  F ield         | OpenFOAM: The Open Source CFD Toolbox
   \\    /   O peration     | Website:  https://openfoam.org
    \\  /    A nd           | Version:  11
     \\/     M anipulation  |
\*---------------------------------------------------------------------------*/
FoamFile
{
    format      ascii;
    class       volScalarField;
    location    "0.115";
    object      rho;
}
// * * * * * * * * * * * * * * * * * * * * * * * * * * * * * * * * * * * * * //

dimensions      [0 0 0 0 0 0 0];

internalField   nonuniform List<scalar> 
880
(
0.3733250556165154
0.3733250556165154
0.3733250556165156
0.373326170874941
0.3733250556165154
0.3733250556165154
0.3733250556180466
0.3733290827350948
0.3733250556165154
0.3733250556165153
0.3733250556317951
0.3733478809913037
0.3733250556165154
0.3733250556165154
0.3733250559608367
0.3733850548860107
0.3733250556165154
0.3733250556165155
0.3733250556165152
0.3733250556142579
0.3733250556165154
0.3733250556165154
0.3733250556165151
0.3733250556165154
0.3733250511162399
0.3733250373075153
0.373416853384015
0.3731765355908426
0.3764982139238938
0.3846123542157481
0.3906722847605998
0.3934204773818638
0.373325073611449
0.3733251426976378
0.3733251662215226
0.3733251268281693
0.3733254011290931
0.3733259498833703
0.3733277470076504
0.3733271213251249
0.3734893974585672
0.3736896991877368
0.3739919044555857
0.3740332147355284
0.3962258558573601
0.4000911725190719
0.4043184370065125
0.4097554706258597
0.407886804211457
0.3998244741082315
0.3941069858393919
0.3912064160827191
0.3745570496170479
0.3758364697533576
0.3764248105344273
0.376180767030061
0.373330721979522
0.3733418166665571
0.3733594639037388
0.3733645313236775
0.3733253202427105
0.3733257166992592
0.3733263499903817
0.3733264087236525
0.3733260404206576
0.3733254612276841
0.3733251258212047
0.3733250586832667
0.3733589283636063
0.3733464074536045
0.3733323485064697
0.3733260884096967
0.3757137739129743
0.3750287027550492
0.3741613826418622
0.3735409312360711
0.388073780659765
0.3845818122389268
0.3809200287591695
0.3773973573075152
0.3747012306639736
0.3733509649749354
0.3733251097696241
0.3733250556646219
0.3735491579180945
0.3733269778085987
0.3733250601016644
0.3733250556052408
0.3733293145427595
0.3733240672918568
0.3733250296109116
0.3733250567946019
0.3797999036895554
0.3733602231830976
0.3733242869742943
0.3733249853701832
0.3733249291630593
0.3733246864595459
0.3735607084885595
0.4225047761046264
0.3733250259258103
0.3733277408409541
0.3745593432871241
0.4609450769043287
0.3733253665356955
0.3733319651008671
0.3755896262151813
0.4787461032696068
0.3733259986696777
0.3733454638368176
0.3772711133787465
0.4936734519365149
0.5061288394725876
0.3787649857631175
0.3733531820723508
0.3733264345918789
0.52415221934395
0.3811395586928178
0.3733779041105954
0.3733275444499543
0.5387940769755519
0.3827924734385038
0.3733868025045314
0.3733277524142404
0.5563992240584306
0.3854000419408961
0.373425706861451
0.3733299394731796
0.3733305197361414
0.3734468640966163
0.3886372371207369
0.5728912843533794
0.3733334809807369
0.3735062433612162
0.3924307748307917
0.57752160012501
0.3733407853337241
0.373575497594432
0.393272954039224
0.5530966494834204
0.3733246507909357
0.3734316120737013
0.3855907524767634
0.4935652232800714
0.3733537973771472
0.3739446187921578
0.3856968465681713
0.4066930823689347
0.3733624437028202
0.3739251463259649
0.3748252681389868
0.3087483671095003
0.3733314702393411
0.3734831399057114
0.3684636306449123
0.2505124017490349
0.3733236116258258
0.3730906758993219
0.360971941610492
0.2201595808570552
0.2169412313446658
0.3584838361086674
0.3730144903151728
0.3733232840849622
0.2113376146039649
0.3571076537045987
0.3729826427269025
0.3733230631704358
0.2101587780901999
0.3576645138104799
0.3730780816149084
0.3733241870384008
0.1999201915388998
0.3561879328468832
0.3730669391607678
0.3733241868542974
0.2311870047249774
0.3635752432874976
0.3732309017855474
0.3733247475635169
0.2704803016850171
0.3692760065268575
0.3732997245359392
0.3733249834450788
0.3015618248107625
0.3716158576895107
0.3733168127524315
0.3733250350826839
0.3265041463625585
0.3727612490068138
0.3733229304807437
0.373325046389904
0.3335181556730335
0.3709047424595142
0.3732816107845269
0.3733247481901784
0.336270719020807
0.370996362717858
0.3732823279898611
0.3733247503345148
0.3390395835132024
0.371085116202155
0.3732827748894291
0.3733247508597314
0.3423188248652071
0.371380904622761
0.3732876437053571
0.3733247726631893
0.3265041463624044
0.3727612490056514
0.3733229304797409
0.373325046390617
0.3015618248092683
0.3716158576882055
0.3733168127482812
0.3733250350826365
0.2704803016837748
0.3692760065272104
0.3732997245350764
0.3733249834457797
0.2311870047254557
0.3635752432895621
0.3732309017853363
0.3733247475626619
0.3733232840883499
0.3730144903185836
0.3584838361103586
0.2169412313441681
0.3733230631695472
0.3729826427283799
0.3571076537065935
0.2113376146050188
0.3733241870360476
0.3730780816176281
0.3576645138105824
0.2101587780904645
0.3733241868551456
0.3730669391611762
0.356187932850859
0.1999201915379317
0.2201595808545314
0.3609719416078629
0.3730906758979451
0.3733236116261731
0.2505124017459997
0.3684636306426263
0.3734831399031072
0.3733314702343518
0.3087483671087543
0.3748252681362944
0.3739251463264852
0.3733624436999109
0.406693082369403
0.3856968465677316
0.3739446187906975
0.3733537973814758
0.37333051973489
0.3734468641023909
0.3886372371236231
0.5728912843571536
0.3733334809816288
0.3735062433599812
0.3924307748302721
0.5775216001250425
0.3733407853352422
0.373575497593983
0.3932729540366217
0.5530966494830852
0.3733246507971602
0.3734316120734052
0.3855907524751807
0.4935652232797178
0.5563992240625317
0.3854000419322904
0.3734257068640741
0.3733299394730514
0.5387940769798251
0.3827924734454143
0.3733868025066932
0.3733277524153916
0.5241522193459203
0.3811395587053747
0.3733779041147481
0.3733275444488819
0.5061288394761249
0.3787649857545373
0.3733531820768297
0.3733264345910724
0.3733249291659444
0.3733246864621337
0.3735607084897333
0.422504776100643
0.373325025923803
0.3733277408370893
0.3745593432854156
0.4609450769058713
0.3733253665337445
0.3733319651035903
0.3755896262195805
0.4787461032707617
0.3733259986678398
0.373345463831083
0.3772711133750077
0.4936734519362566
0.3733249853689561
0.3733250567958841
0.373325055605444
0.3733250556644874
0.3733242869709375
0.373325029610992
0.3733250601048718
0.373325109767889
0.3733602231840683
0.3733240672929446
0.3733269778064592
0.3733509649737677
0.3797999036905909
0.3733293145438875
0.3735491579163242
0.3747012306644049
0.3733250586805783
0.3733260884100398
0.3735409312368104
0.3773973573085302
0.3733251258205829
0.3733323485054219
0.3741613826465831
0.3809200287602588
0.373325461229176
0.3733464074534718
0.3750287027531479
0.38458181223895
0.3733260404219173
0.3733589283630683
0.3757137739150294
0.388073780659052
0.3733253202393026
0.373330721976478
0.3745570496132934
0.4078868042107388
0.3733257166966198
0.3733418166671282
0.3758364697523509
0.3998244741057402
0.3733263499895564
0.3733594639075356
0.376424810535035
0.3941069858384676
0.3733264087228734
0.3733645313261571
0.3761807670308544
0.3912064160810478
0.4097554706272846
0.3740332147370917
0.3733271213230574
0.373325126826408
0.4043184370069962
0.3739919044604205
0.3733277470071348
0.3733251662206866
0.4000911725224828
0.3736896991949695
0.3733259498832797
0.373325142698287
0.3962258558561421
0.3734893974582977
0.3733254011284165
0.3733250736122658
0.3934204773817039
0.3731765355873954
0.3733250556165154
0.3733250556147448
0.3906722847598232
0.3734168533783884
0.3733250556165154
0.3733250556165154
0.3846123542166203
0.3733250373069116
0.3733250556165154
0.3733250556165153
0.3764982139227401
0.3733250511149517
0.3733250556165154
0.3733250556165151
0.3733250556165154
0.3733250556165154
0.3733250556165705
0.3733261708736182
0.3733250556165152
0.3733250556165155
0.3733250556181573
0.3733290827151458
0.3733250556165154
0.3733250556165154
0.3733250556318958
0.3733478809799806
0.3733250556165154
0.3733250556165154
0.3733250559592408
0.3733850548842888
0.3733272546891888
0.3733335294267282
0.373367866465103
0.3740693980344462
0.3733335295156841
0.3733357613364321
0.3733633093242312
0.3761449620503908
0.3733678664146347
0.3733633092061144
0.3744312292721269
0.3905343874473497
0.3740693979814396
0.3761449620076868
0.390534387599559
0.443845866004059
0.5262670391540465
0.468880696251308
0.4384693736186617
0.4047661668174197
0.5118621610292979
0.500799752386358
0.4976516524873435
0.472691068449052
0.5054828571791291
0.5023489284293734
0.5040613742518024
0.4931848996457112
0.5076311992586398
0.5053485983468196
0.5062123090515961
0.4979730145052363
0.5020546625963304
0.5027125724756286
0.5052489365486915
0.5115940407355744
0.5074509214220587
0.5082345859841407
0.5107745675603528
0.5176714404992245
0.5091655575559347
0.5101082682685664
0.5127075654049773
0.5186787082507041
0.5106116389477516
0.5105384718109127
0.5129999721544033
0.5175806236814442
0.4512266948550806
0.3861314084182637
0.3705923290808242
0.3745546140271573
0.4220475376259157
0.3619320140812991
0.3629482515665052
0.3723422233854684
0.3937455581843504
0.3527725677735178
0.3658726893354396
0.3751928265447789
0.3366204610831178
0.3373660686940438
0.3612050830518461
0.3726246839587321
0.3772875650739942
0.3786853733889963
0.3797717826385674
0.3792631166302028
0.375991126902805
0.3777171342562222
0.3795443351883892
0.3788573596420379
0.3773975939680088
0.3787600324547623
0.3803266877806668
0.3795110987236939
0.3753512637710547
0.3767925207572214
0.3791069917808432
0.3786441100078716
0.3767290703050774
0.3743441846083915
0.3733915508039337
0.4467017490962218
0.3765542247500174
0.3744670210714148
0.3733607816496121
0.4787027589190485
0.377041156302465
0.3747220389076937
0.3735860013314362
0.4923411134515581
0.3760045302506403
0.3740088024926019
0.3738003656984374
0.4996240479957871
0.6779693683213986
0.703157791313245
0.7000250377035854
0.6918383016015135
0.7276864600765389
0.7253664010365651
0.7141878142075164
0.7041959734095429
0.7141099106312669
0.7109145697383147
0.7171678332151542
0.7129451383192996
0.7372978176866404
0.7248229359605883
0.7214695412466844
0.7164785467482904
0.6835882705281536
0.690922569822203
0.6986014638592674
0.710107405841559
0.6952807214095751
0.702123063526978
0.7085359199899701
0.7193317672524249
0.7047917623161611
0.7122151072388687
0.7199140477112499
0.7307255161458227
0.7091398375773352
0.7163134677159927
0.7237785246165017
0.7349778088915806
0.7111170346345618
0.6962622461917946
0.6582867894560267
0.5735850848739383
0.7185647290755648
0.7042656198379575
0.6630496811898794
0.5840754080817929
0.7308822960386898
0.7163356157724696
0.6701937563596693
0.6040050161479849
0.7357576499781521
0.7237821626566384
0.6746315678468343
0.7019093781231187
0.3832362541789235
0.0948545676147385
0.0372932411535897
0.04945939197966742
0.3069663282875073
0.062713210987714
0.0462491285593875
0.05873859079589231
0.231001690608082
0.04183350032333425
0.04497501986843627
0.06982849316998593
0.1677087231078456
0.02759163348314353
0.05088116467871565
0.07421227967292718
0.06164225202537901
0.0668163312118473
0.0683797397640917
0.06169206539193558
0.07138491240166435
0.0740972995143797
0.06947055199282798
0.05854457613378113
0.0847819659133113
0.08512173012809959
0.07484398791341772
0.060437620260393
0.08948511779278023
0.08717002481505355
0.07504296732612135
0.06689478024297134
0.1096311374471187
0.1579949524007424
0.1969420807791323
0.2451948773822653
0.101444665414933
0.1463789910432425
0.1806430133696803
0.2308860587653722
0.09332290211041983
0.1350157777975605
0.1707306209694094
0.211556636613753
0.08094910514643693
0.1172816204624974
0.1507607403905316
0.1914023248032328
0.1882182224443997
0.1353351159863415
0.07569589216998253
0.06566288280452873
0.169039198831452
0.1110459746252667
0.05736634181277957
0.07980901055678008
0.1343095146773593
0.0767331385604756
0.05056630634464403
0.1019881518693568
0.09775638420623946
0.05362445635510567
0.07332267437254084
0.1251647950725149
0.1441512484140042
0.135306779097694
0.1227665765798659
0.1224117697751878
0.1255535401266184
0.1150129278417349
0.1076035608361657
0.1053243868194272
0.108171908430255
0.107239884377002
0.1097412895006806
0.1120291320022663
0.1090022135663921
0.1400779533650889
0.1440484422784206
0.1468975837422369
0.1224117697751661
0.1053243868194212
0.1120291320023651
0.1468975837423549
0.1227665765797574
0.1076035608361825
0.1097412895008745
0.144048442278538
0.1353067790974949
0.1150129278418519
0.1072398843771962
0.140077953364957
0.144151248413887
0.1255535401268794
0.1081719084303479
0.1090022135660723
0.06566288280423282
0.07569589216953447
0.1353351159858742
0.1882182224435361
0.07980901055656084
0.05736634181249441
0.1110459746250922
0.1690391988309604
0.1019881518693346
0.05056630634452513
0.07673313856023918
0.134309514677161
0.1251647950725442
0.07332267437265651
0.05362445635502704
0.09775638420603792
0.1914023248028498
0.1507607403900792
0.1172816204614618
0.08094910514555637
0.2115566366135073
0.1707306209691796
0.1350157777967435
0.09332290210950514
0.2308860587651239
0.1806430133695556
0.1463789910427704
0.1014446654140933
0.2451948773820226
0.1969420807787653
0.157994952400185
0.1096311374463993
0.06169206539130258
0.06837973976429211
0.06681633121192937
0.06164225202503044
0.0585445761335455
0.06947055199295712
0.07409729951433525
0.07138491240137511
0.06043762026020576
0.07484398791364244
0.08512173012808374
0.08478196591284277
0.06689478024265259
0.07504296732627211
0.08717002481517175
0.08948511779216986
0.04945939197909918
0.03729324115294552
0.09485456761379499
0.3832362541783287
0.0587385907954328
0.04624912855875779
0.06271321098725534
0.3069663282864119
0.06982849316925374
0.04497501986785618
0.04183350032308712
0.2310016906073718
0.07421227967197734
0.05088116467796547
0.02759163348272657
0.1677087231075527
0.5735850848730591
0.6582867894564224
0.6962622461929105
0.711117034637882
0.5840754080810128
0.663049681190274
0.7042656198393765
0.7185647290793494
0.6040050161471887
0.6701937563599754
0.7163356157742169
0.7308822960416502
0.7019093781228339
0.674631567847616
0.7237821626583471
0.7357576499808851
0.7101074058461679
0.6986014638609457
0.6909225698195647
0.6835882705342466
0.7193317672555409
0.7085359199905724
0.7021230635255556
0.6952807214150202
0.7307255161474084
0.7199140477114643
0.7122151072388484
0.7047917623212632
0.7349778088932585
0.7237785246163418
0.7163134677161601
0.7091398375832566
0.6918383016083474
0.7000250376984339
0.7031577913162207
0.6779693683157786
0.7041959734163169
0.7141878142012077
0.7253664010386868
0.7276864600719015
0.7129451383243641
0.7171678332065871
0.7109145697379197
0.7141099106242577
0.7164785467515715
0.72146954123885
0.7248229359604512
0.737297817676921
0.4467017490944761
0.3733915507974186
0.3743441846098549
0.3767290703053303
0.4787027589127634
0.3733607816407916
0.3744670210769502
0.3765542247481977
0.4923411134414796
0.3735860013260098
0.3747220389180491
0.3770411562980594
0.4996240479837392
0.3738003656939022
0.3740088025088277
0.3760045302433126
0.3792631166308671
0.379771782638715
0.3786853733884774
0.3772875650738332
0.3788573596427371
0.3795443351878023
0.3777171342559937
0.3759911269024674
0.3795110987249076
0.3803266877798481
0.3787600324553554
0.3773975939672721
0.3786441100094108
0.3791069917795271
0.3767925207589203
0.3753512637699974
0.3745546140252319
0.3705923290803875
0.3861314084167756
0.4512266948559191
0.372342223383368
0.3629482515663456
0.3619320140799634
0.4220475376267126
0.3751928265427885
0.3658726893354233
0.3527725677723563
0.3937455581847775
0.372624683956556
0.3612050830520186
0.3373660686926484
0.3366204610823507
0.5115940407351786
0.5052489365442748
0.502712572475569
0.5020546626013282
0.5176714404968366
0.5107745675573124
0.5082345859876606
0.5074509214269125
0.5186787082476458
0.5127075654029519
0.5101082682724338
0.5091655575595371
0.5175806236796051
0.5129999721528097
0.5105384718142182
0.5106116389491356
0.4979730145069989
0.4931848996417244
0.472691068438559
0.4047661668221395
0.5062123090503371
0.5040613742470941
0.4976516524840564
0.4384693735951149
0.5053485983456952
0.5023489284283259
0.5007997523833316
0.4688806962096534
0.5076311992577671
0.5054828571787121
0.5118621610169668
0.5262670391423701
0.3407373318991415
0.3725470022445722
0.3733184932616536
0.3733250283218985
0.339078742476325
0.3723576228063982
0.3733147227715383
0.3733249998304472
0.3387500722515707
0.3721353325866904
0.3733090165672062
0.3733249539352744
0.3377286678598547
0.3717518014343842
0.3732986273437524
0.373324860678642
0.3733247481912078
0.3732816107858108
0.3709047424569249
0.3335181556686722
0.3733247503355067
0.3732823279918165
0.3709963627152535
0.3362707190201514
0.3733247508581604
0.3732827748902189
0.3710851162021646
0.3390395835122905
0.3733247726584891
0.3732876437070905
0.3713809046203802
0.342318824864136
0.3733248606765818
0.3733249539337796
0.3733249998252899
0.3733250283160424
0.3732986273447337
0.3733090165671211
0.3733147227708487
0.3733184932598607
0.3717518014332339
0.3721353325837754
0.3723576228083312
0.3725470022442985
0.3377286678597436
0.3387500722491487
0.3390787424746314
0.3407373319008002
)
;

boundaryField
{
    back
    {
        type            empty;
    }
    inlet
    {
        type            calculated;
        value           nonuniform List<scalar> 
16
(
0.3733250556165154
0.3733250556165154
0.3733250556165154
0.3733250556165154
0.3733250556165154
0.3733250556165155
0.3733250556165152
0.373325055614258
0.3733250556147448
0.3733250556165154
0.3733250556165154
0.3733250556165151
0.3733250556165154
0.3733250556165152
0.3733250556165154
0.3733250556165154
)
;
    }
    front
    {
        type            empty;
    }
    top
    {
        type            calculated;
        value           nonuniform List<scalar> 
40
(
0.373325073611449
0.3733251426976378
0.3733251662215226
0.3733251268281693
0.3733253202427105
0.3733257166992592
0.3733263499903817
0.3733264087236525
0.3733260404206576
0.3733254612276841
0.3733251258212047
0.3733250586832666
0.3733250556646219
0.3733250556052408
0.3733250567946019
0.3733249853701832
0.3733249291630593
0.3733250259258103
0.3733253665356955
0.3733259986696777
0.3733264345918789
0.3733275444499543
0.3733277524142404
0.3733299394731796
0.3733305197361414
0.3733334809807369
0.3733407853337241
0.3733246507909357
0.3733537973771472
0.3733624437028202
0.3733314702393411
0.3733236116258258
0.3733232840849622
0.3733230631704358
0.3733241870384008
0.3733241868542974
0.3733247475635169
0.3733249834450788
0.3733250350826839
0.373325046389904
)
;
    }
    outlet
    {
        type            calculated;
        value           uniform 0.3733250556165154;
    }
    bottom
    {
        type            calculated;
        value           nonuniform List<scalar> 
40
(
0.373325046390617
0.3733250350826364
0.3733249834457797
0.3733247475626619
0.3733232840883499
0.3733230631695472
0.3733241870360476
0.3733241868551456
0.3733236116261731
0.3733314702343518
0.373362443699911
0.3733537973814758
0.37333051973489
0.3733334809816288
0.3733407853352422
0.3733246507971602
0.3733299394730514
0.3733277524153916
0.3733275444488819
0.3733264345910724
0.3733249291659444
0.373325025923803
0.3733253665337445
0.3733259986678399
0.3733249853689561
0.3733250567958841
0.373325055605444
0.3733250556644874
0.3733250586805784
0.3733251258205829
0.373325461229176
0.3733260404219173
0.3733253202393025
0.3733257166966198
0.3733263499895564
0.3733264087228734
0.373325126826408
0.3733251662206866
0.373325142698287
0.3733250736122658
)
;
    }
    wall
    {
        type            calculated;
        value           nonuniform List<scalar> 
104
(
0.5262670391540465
0.5118621610292979
0.5054828571791291
0.5076311992586398
0.5106116389477516
0.5105384718109127
0.5129999721544033
0.5175806236814442
0.3366204610831178
0.3373660686940438
0.3612050830518461
0.3726246839587321
0.3753512637710548
0.3767925207572214
0.3791069917808432
0.3786441100078716
0.3760045302506403
0.3740088024926019
0.3738003656984374
0.4996240479957871
0.7372978176866404
0.7248229359605883
0.7214695412466844
0.7164785467482904
0.7091398375773352
0.7163134677159927
0.7237785246165017
0.7349778088915806
0.7357576499781521
0.7237821626566384
0.6746315678468343
0.7019093781231187
0.1677087231078456
0.02759163348314353
0.05088116467871565
0.07421227967292718
0.08948511779278023
0.08717002481505355
0.07504296732612135
0.06689478024297134
0.08094910514643693
0.1172816204624974
0.1507607403905316
0.1914023248032327
0.09775638420623946
0.05362445635510567
0.07332267437254084
0.1251647950725149
0.1441512484140042
0.135306779097694
0.1227665765798659
0.1224117697751878
0.1224117697751661
0.1227665765797574
0.1353067790974949
0.144151248413887
0.1251647950725442
0.07332267437265651
0.05362445635502704
0.09775638420603792
0.1914023248028498
0.1507607403900792
0.1172816204614618
0.08094910514555637
0.06689478024265259
0.07504296732627211
0.08717002481517175
0.08948511779216985
0.07421227967197734
0.05088116467796547
0.02759163348272657
0.1677087231075527
0.7019093781228339
0.674631567847616
0.7237821626583471
0.7357576499808851
0.7349778088932585
0.7237785246163418
0.7163134677161601
0.7091398375832566
0.7164785467515715
0.72146954123885
0.7248229359604512
0.737297817676921
0.4996240479837392
0.3738003656939021
0.3740088025088277
0.3760045302433126
0.3786441100094108
0.3791069917795271
0.3767925207589203
0.3753512637699974
0.372624683956556
0.3612050830520186
0.3373660686926484
0.3366204610823507
0.5175806236796051
0.5129999721528097
0.5105384718142182
0.5106116389491356
0.5076311992577671
0.5054828571787121
0.5118621610169668
0.5262670391423701
)
;
    }
}


// ************************************************************************* //
