/*--------------------------------*- C++ -*----------------------------------*\
  =========                 |
  \\      /  F ield         | OpenFOAM: The Open Source CFD Toolbox
   \\    /   O peration     | Website:  https://openfoam.org
    \\  /    A nd           | Version:  11
     \\/     M anipulation  |
\*---------------------------------------------------------------------------*/
FoamFile
{
    format      ascii;
    class       volScalarField;
    location    "0.115";
    object      T;
}
// * * * * * * * * * * * * * * * * * * * * * * * * * * * * * * * * * * * * * //

dimensions      [0 0 0 1 0 0 0];

internalField   nonuniform List<scalar> 
880
(
300
300
300.0000000001042
300.0003519399568
300
300
300.0000000005644
300.0017338788574
300
300
300.0000000151819
300.0083731207223
300.0000000000001
300
300.0000004670329
300.011674887136
300
300
299.9999999999999
299.9999999992907
300
300
299.9999999999997
300
299.9999971799656
300.0000433123033
300.0374746228836
299.9297588000953
301.1094134890699
304.6402265610051
307.7530604138177
308.89401967442
300.0000057833898
300.0000280886034
300.0000357027969
300.0000229704081
300.0001381470306
300.0003860187072
300.0010335152595
300.0007385299784
300.084280356404
300.1794429478208
300.2967812185816
300.302398957105
310.4085889565251
312.2667586645811
313.7815635320101
315.7437238200116
315.0162685949982
312.2373566206929
309.6950108792332
307.6378041655834
300.530938232786
300.9151973300292
301.182251744649
301.0566871759118
300.002203086194
300.0054328832285
300.0107696161341
300.0123477532755
300.0000854332687
300.0002126769498
300.0004150703753
300.0004335891214
300.0003153882283
300.0001298455768
300.000022495581
300.0000009860699
300.0104378734805
300.006466370838
300.0022230117619
300.0003273988091
300.8204831225776
300.5390222869106
300.2480117891903
300.0658849636974
305.6055809807962
303.8460233003431
302.4298291666054
301.2715110691178
300.4306298195946
300.0083846381584
300.0000177703017
300.0000000162863
300.0725170339612
300.0006629222963
300.0000013892165
299.999999996231
299.9995763190325
299.9995998080188
299.9999925278899
300.0000003770836
302.7039761527711
300.013408852259
299.9997613009697
299.9999771932341
299.9999590666957
299.9998885129565
300.0850002835044
321.9293835901532
299.9999902085129
300.0008358718371
300.4795702999896
338.5786452407562
300.0000996662626
300.0024909635576
301.0117986274075
348.813479857104
300.0003050164585
300.0082712850015
301.9156218598216
357.7596524555323
365.3223879082024
302.8008599727137
300.0115351840501
300.0004436388542
372.9798271980463
304.0318053382809
300.0225669473558
300.0008103103995
378.0323882997624
304.8599079446675
300.0249166462955
300.0008646795362
382.7723165083515
306.1440372675793
300.0428338274849
300.0015908517142
300.001756943473
300.0496174338387
307.6428607857233
387.2952528540122
300.0027142760769
300.0774103395518
309.6761544752978
387.6551105423054
300.0051067146775
300.106438237512
310.0239917284273
380.0946163247136
299.9998804523018
300.0406471513526
306.0396564860308
359.2581765476792
300.0093987935855
300.2184451260275
307.2672640831785
338.3563383890925
300.0099832149183
300.3021143304327
304.7634655538415
316.9990007676307
300.0001196342675
300.1511985721778
303.8122368110144
313.2196395753953
299.9950860072201
299.9504825481741
301.8416293635252
315.3240510007872
310.3541147277838
299.456147754915
299.8532373275038
299.9975778743365
302.9294009873242
298.6629090565629
299.859766045818
299.9990419914242
295.0010055279913
298.0114132348581
299.9209064255837
299.999703256635
287.0412724885578
297.8421059906753
299.9387064631411
299.9997394830294
283.9682609762753
298.7307389904506
299.9808017475009
299.9999184117361
282.2591734781754
299.3884470468373
299.9948579930693
299.9999814243565
282.6597203110701
299.6148652441603
299.9978162087825
299.9999939453013
285.8398401881083
299.8116920646307
299.9992354802944
299.999996850144
296.9493310469124
299.643130719637
299.9894205277607
299.9999097400057
297.9326411372551
299.6603054414894
299.9891960081317
299.9999088561141
298.6095782228727
299.6607264634016
299.987966383374
299.9999046795813
299.9768395395627
299.7176642070224
299.9822781392562
299.9998848155352
285.8398401876006
299.8116920638312
299.9992354790837
299.9999968522418
282.659720310634
299.6148652436166
299.9978162063883
299.9999939452546
282.2591734778645
299.3884470480101
299.9948579934812
299.9999814245047
283.9682609767066
298.730738992711
299.9808017476142
299.9999184109896
299.9975778744017
299.8532373290782
299.4561477552425
310.3541147276476
299.9990419934487
299.8597660467242
298.6629090573472
302.9294009878959
299.999703255075
299.9209064275051
298.0114132336971
295.0010055283623
299.999739483588
299.9387064637243
297.8421059926192
287.0412724878211
315.3240509996798
301.8416293617205
299.9504825456051
299.9950860056566
313.2196395732764
303.8122368097813
300.1511985706348
300.00011963158
316.9990007680099
304.7634655526011
300.3021143307113
300.0099832152961
338.3563383893894
307.267264082699
300.2184451251242
300.0093987968381
300.00175694237
300.0496174366259
307.6428607872551
387.2952528547801
300.0027142759402
300.0774103413343
309.6761544764597
387.6551105424313
300.0051067158444
300.106438237609
310.0239917273726
380.0946163247332
299.9998804556796
300.0406471517287
306.0396564851138
359.2581765475214
382.7723165097532
306.1440372677918
300.042833829486
300.0015908520489
378.0323883011291
304.8599079490186
300.024916644694
300.0008646799603
372.9798271976676
304.0318053354217
300.0225669550705
300.0008103094726
365.3223879092859
302.800859971285
300.0115351783194
300.000443638168
299.9999590682634
299.9998885141408
300.0850002836845
321.9293835891644
299.9999902079329
300.0008358707143
300.4795703008194
338.5786452409038
300.0000996652432
300.0024909612395
301.0117986267766
348.8134798571562
300.000305015121
300.0082712891494
301.9156218613401
357.7596524557678
299.9999771927519
300.0000003778347
299.9999999963541
300.0000000159877
299.9997612996215
299.9999925282175
300.0000013908264
300.0000177689538
300.013408852626
299.9995998083799
300.0006629210799
300.0083846381426
302.7039761532279
299.9995763196487
300.0725170335136
300.4306298199357
300.0000009843115
300.0003273991987
300.0658849654349
301.2715110695241
300.0000224953689
300.0022230112198
300.2480117912681
302.4298291665346
300.0001298468511
300.0064663711095
300.5390222857141
303.846023299935
300.0003153884651
300.0104378735563
300.8204831237425
305.6055809801456
300.0000854314381
300.0022030847255
300.5309382330664
315.0162685951034
300.0002126750049
300.0054328830223
300.9151973305006
312.2373566198651
300.000415069302
300.0107696175331
301.1822517447728
309.6950108786303
300.0004335882379
300.0123477544694
301.0566871759119
307.6378041646157
315.7437238209531
300.302398959598
300.0007385291631
300.0000229695894
313.7815635324654
300.296781220095
300.0010335150743
300.0000357027357
312.2667586656477
300.1794429464778
300.0003860189963
300.0000280886325
310.4085889562856
300.0842803547415
300.0001381463867
300.0000057840444
308.8940196748652
299.9297588027222
300
299.999999999651
307.7530604131563
300.0374746176452
300
300.0000000000001
304.6402265607049
300.000043311865
300
300
301.1094134885269
299.9999971794421
300
299.9999999999999
300
299.9999999999999
300.0000000000341
300.0003519393395
300.0000000000002
300
300.0000000005244
300.0017338729684
300
300
300.0000000153366
300.0083731188764
300
300
300.0000004660194
300.0116748874536
300.0007414490673
300.0027742862932
300.0134592527376
300.2406207432058
300.0027743200104
300.0034258388372
300.0112742473656
300.9426253043637
300.0134592382925
300.0112742109518
300.3607252640668
306.0947042192181
300.2406207250534
300.9426252918233
306.0947042635667
325.6645364860758
354.6539623117945
335.5306642272696
322.3390515122888
310.466912289472
350.7286627200331
346.0263033565732
341.6041333301364
332.7317047166023
347.4125676894147
345.3987994414053
343.44750560599
339.307244322993
346.1616662565475
344.9605466176363
344.1393463512634
342.0834948354905
344.1805599958715
344.9647665015041
345.852843472985
348.2328843798905
344.2678659460356
344.5056784807895
345.2075328253545
347.6289076234588
344.4263611519675
343.9501157928113
344.4596923354032
345.9052244634058
344.8040354225384
343.6997920277615
344.2753138010031
342.1483560577789
331.4167883803618
313.8702944190879
305.3697157120646
304.1133085847428
322.36885612422
305.253920927449
303.289841761575
304.7680529704231
311.9749608560075
298.7534415993733
304.1452375354447
306.2627783759606
287.6439769483043
291.4590065198909
303.5156767397719
305.8617100108168
303.2153786279769
302.5935086622397
302.5925375041001
302.0673514267867
304.1276070084882
303.1314711689581
302.7811970183873
301.9492648212172
305.3830488249154
303.9972528745326
303.2162114608678
302.139420415175
304.8797825194246
303.3556989890557
302.7900520101676
301.8546646711164
301.0380886538796
300.3053352878927
300.0214329951569
330.7378016531242
300.9454994286392
300.3272508184214
300.0084260200545
347.2110446563001
301.0734131961967
300.3994236758678
300.0874666969437
356.3414695292275
300.7237235638959
300.1678760457561
300.2110932816696
361.2515011456645
407.1953323077737
418.2387929501608
421.4587860429131
424.5148143219572
421.3344269866647
424.2442549947682
421.9498676873619
421.7764959138761
424.7015721631678
422.1237035585215
420.7264036684135
418.2832896602688
433.5636264379983
426.5393832115235
420.4618732293025
416.7451999055496
426.7542632130031
431.3900943982671
433.8357026524789
435.9676180077882
422.0567923396014
425.5428722968905
427.415552858523
429.604574110715
416.4719375017734
418.708313079276
420.4312909276611
422.6920482971661
414.324839152364
415.931191741742
417.3935799895693
419.7330854430984
435.4744186147197
430.3212987460761
418.7221485878042
400.1795228478207
429.4058118002542
425.1969548708944
415.3703288853841
415.547620591577
422.8619582362248
419.7219693573113
415.0319523673374
427.942933602971
419.7548978065695
417.9973685350988
418.6068571547568
408.8582785641615
362.8746265223147
296.5809356609362
210.3273698825136
210.2615123730178
349.6509441451558
260.8845466067072
193.4104483155577
178.6156561549268
315.419928892223
214.6553783846732
170.1139127030915
159.4166990659672
241.0894252624998
159.0567824412662
169.8874449291066
153.2590688503422
219.3430603695696
223.6911247361624
226.018232447607
224.8046641559147
185.2549031853746
189.9509252029414
197.6106379334147
212.7970109675825
158.9471704687904
161.2558747833006
177.5038789849656
213.6085869553991
148.1973315423011
148.5547576077239
169.8897247361199
220.2648437130101
263.6929360561132
256.7677209641006
254.0235120956107
260.6246269654982
274.5739520330706
269.5461140201763
260.8662221268473
266.3991702189862
267.6284733365349
279.7369948865699
275.2323145068729
281.1516178797356
247.7151897968817
268.9161826264232
274.6352087759383
291.0127898727945
239.3124539868679
215.2327819358788
181.5024319142644
187.5782449911107
242.651957913862
216.1331991943896
171.5940184344066
204.1848613557684
242.8415450709128
186.3355356304871
172.5763041137017
208.156547652777
216.5524293365075
140.4468004705438
179.6023934066962
179.0543277337141
173.3007947956787
173.2169428032862
170.8360616157309
172.162662070668
186.8002890884536
175.6121359158268
174.3921076048546
174.2608560093103
216.080109481572
208.6232976420333
209.0279970618312
209.5635563633876
249.2150291654141
272.303527219401
265.8882433364846
261.4282559454029
172.1626620707368
174.2608560092812
209.5635563633516
261.4282559450471
170.83606161598
174.3921076047976
209.0279970618312
265.8882433362256
173.2169428035004
175.612135915976
208.6232976420364
272.3035272191173
173.3007947958309
186.8002890889009
216.0801094817095
249.2150291652381
187.5782449908968
181.5024319138529
215.2327819352929
239.3124539861275
204.1848613559093
171.59401843453
216.1331991943193
242.6519579131746
208.1565476530741
172.5763041139826
186.3355356301502
242.841545070965
179.054327733721
179.6023934066237
140.4468004703926
216.5524293362825
291.0127898726077
274.6352087757
268.9161826256507
247.7151897954819
281.1516178795661
275.2323145067516
279.7369948860208
267.6284733350018
266.3991702187461
260.8662221267671
269.546114019598
274.5739520317005
260.6246269652058
254.0235120955163
256.7677209634015
263.6929360550403
224.8046641554752
226.0182324481459
223.6911247365962
219.343060369265
212.7970109672282
197.610637934244
189.9509252034979
185.2549031850244
213.6085869550419
177.5038789855816
161.255874783782
158.9471704686958
220.2648437123399
169.8897247363667
148.5547576080959
148.1973315423253
210.2615123714764
210.3273698810435
296.5809356607418
362.8746265224398
178.61565615365
193.4104483142696
260.8845466060833
349.6509441444699
159.4166990650585
170.1139127019551
214.6553783842581
315.419928891847
153.2590688496694
169.8874449268038
159.0567824396414
241.0894252620011
400.1795228478524
418.7221485881479
430.3212987460441
435.4744186147946
415.5476205917508
415.3703288857178
425.1969548710733
429.4058118006802
427.9429336032262
415.0319523676466
419.7219693577846
422.8619582369392
408.8582785641354
418.6068571552383
417.9973685356952
419.7548978073999
435.9676180077329
433.8357026524969
431.390094399428
426.7542632137452
429.6045741108607
427.415552858558
425.542872297526
422.0567923404755
422.6920482975184
420.4312909277584
418.7083130795851
416.4719375027569
419.7330854437274
417.3935799896487
415.9311917419531
414.3248391537518
424.5148143224963
421.4587860415519
418.2387929499039
407.1953323074083
421.7764959145765
421.9498676854207
424.2442549952675
421.3344269854115
418.2832896614199
420.7264036663001
422.1237035584206
424.701572160791
416.7451999069321
420.461873227431
426.5393832112742
433.5636264348441
330.7378016506448
300.02143298813
300.3053352901049
301.0380886536449
347.2110446537828
300.0084260150322
300.3272508211556
300.9454994277878
356.341469526367
300.087466694679
300.3994236793667
301.0734131945229
361.2515011421562
300.2110932811202
300.1678760508473
300.7237235610068
302.0673514266074
302.5925375036805
302.5935086617583
303.2153786276854
301.9492648212525
302.7811970178991
303.1314711685708
304.127607008063
302.1394204155604
303.216211460343
303.9972528743905
305.3830488243364
301.8546646717224
302.7900520094041
303.3556989893681
304.8797825187317
304.1133085836171
305.3697157116464
313.870294417998
331.4167883801674
304.7680529694877
303.2898417613446
305.2539209262814
322.3688561241067
306.2627783751705
304.1452375352316
298.7534415984979
311.974960855768
305.8617100099296
303.5156767397401
291.4590065189803
287.6439769477271
348.2328843793779
345.8528434729759
344.9647665036713
344.1805599978034
347.6289076226611
345.2075328254747
344.505678482762
344.2678659469704
345.9052244625349
344.4596923350202
343.9501157941151
344.4263611527587
342.1483560569728
344.2753138001556
343.6997920287826
344.804035423022
342.0834948342383
339.3072443244894
332.7317047133259
310.4669122890685
344.1393463496316
343.4475056055419
341.6041333300085
322.339051505746
344.960546616761
345.3987994406827
346.0263033559107
335.5306642227177
346.1616662559256
347.4125676879919
350.7286627159061
354.6539623103362
290.3333803093469
299.7875513822714
299.9981190746857
299.999991832513
292.4408820960838
299.7839625938203
299.997269595204
299.9999836875519
296.1622099201158
299.7867015781836
299.995588217977
299.9999685922089
299.9218238187523
299.7762098646007
299.9857288245689
299.9999122763535
299.9999097409905
299.9894205278237
299.6431307188478
296.9493310456249
299.9999088569938
299.9891960092972
299.6603054399314
297.9326411375499
299.9999046781369
299.9879663847959
299.660726462238
298.6095782219111
299.9998848119191
299.9822781407842
299.7176642041758
299.9768395386544
299.9999122752408
299.9999685904389
299.9999836826232
299.9999918283542
299.9857288251196
299.9955882179971
299.9972695947458
299.9981190732215
299.77620986395
299.7867015768539
299.7839625950633
299.787551381402
299.9218238179358
296.1622099183883
292.4408820951951
290.3333803098752
)
;

boundaryField
{
    back
    {
        type            empty;
    }
    inlet
    {
        type            zeroGradient;
    }
    front
    {
        type            empty;
    }
    top
    {
        type            zeroGradient;
    }
    outlet
    {
        type            fixedValue;
        value           uniform 300;
    }
    bottom
    {
        type            zeroGradient;
    }
    wall
    {
        type            zeroGradient;
    }
}


// ************************************************************************* //
