/*--------------------------------*- C++ -*----------------------------------*\
  =========                 |
  \\      /  F ield         | OpenFOAM: The Open Source CFD Toolbox
   \\    /   O peration     | Website:  https://openfoam.org
    \\  /    A nd           | Version:  11
     \\/     M anipulation  |
\*---------------------------------------------------------------------------*/
FoamFile
{
    format      ascii;
    class       volScalarField;
    location    "0.139";
    object      rho;
}
// * * * * * * * * * * * * * * * * * * * * * * * * * * * * * * * * * * * * * //

dimensions      [0 0 0 0 0 0 0];

internalField   nonuniform List<scalar> 
880
(
0.3733250556165154
0.3733250556165154
0.3733250556190234
0.3733272420554205
0.3733250556165154
0.3733250556165154
0.3733250556341909
0.3733326667309722
0.3733250556165154
0.3733250556165153
0.3733250557507866
0.3733680285893787
0.3733250556165154
0.3733250556165154
0.3733250583752901
0.3734507592393945
0.3733250556165154
0.3733250556165155
0.3733250556165152
0.3733250556075423
0.3733250556165154
0.3733250556165154
0.3733250556165151
0.3733250556165154
0.3733250236986832
0.373325070964315
0.3734426185210455
0.3731774905596188
0.3775829630728365
0.3871896781146023
0.3936726753591523
0.3964549514416619
0.3733250795817641
0.373325254014145
0.373325369246473
0.3733253116287237
0.3733256747183292
0.3733265114440196
0.3733303383513242
0.3733301105219525
0.3735605868644676
0.3738263869053465
0.374270710931044
0.3745170418943146
0.3997036887623158
0.4041471784153026
0.4084735751713931
0.4144045414888316
0.4132153219952827
0.4043576991892583
0.3973367494175571
0.3949246800032177
0.3754818094458106
0.3777871192380768
0.3786333541698259
0.3785925960837555
0.3733393450582072
0.3733744985214353
0.373424878144086
0.3734546708753665
0.3733258526639971
0.3733273695852349
0.3733304282102904
0.3733317065922851
0.373330971889908
0.3733290517549813
0.3733267842621054
0.3733254189300841
0.3734513128195088
0.373431944462823
0.3733976576428398
0.3733570545146938
0.3780471741252018
0.3772945322261197
0.37631577435973
0.3751486297611757
0.3930508541142871
0.3902495291387153
0.3869335217472014
0.3833798917412502
0.3798173434635614
0.3740450088916963
0.3733317427644516
0.3733250743902337
0.3766741032180063
0.373476255981733
0.3733256499940482
0.3733250575793208
0.3740804817283713
0.373333858065353
0.373325035091558
0.3733250533479888
0.3827692950473942
0.3734061418157637
0.3733246668151459
0.3733250387105237
0.3733248773575381
0.3733247904686415
0.373731885723987
0.4351779895618773
0.3733250703987575
0.3733323076278301
0.3754670209711163
0.4807516724054083
0.3733257704738898
0.3733418019601212
0.3774903136101697
0.5053185116463393
0.3733277410733836
0.3733763421187273
0.3805783463153316
0.5248097597523587
0.5372664220640146
0.3839456016946613
0.3734056042997845
0.3733296876027555
0.5543088145038342
0.3885236563209474
0.3734902663336539
0.3733346974256279
0.5714019614578634
0.3934959062623096
0.373552286753288
0.3733366655228054
0.5945508110992723
0.3991109729470242
0.3736773968340487
0.3733456770986319
0.3733507375047058
0.3738243405845207
0.4070348639636986
0.6145094724099183
0.3733663173016908
0.3740700901334537
0.4140877547762749
0.6149999578726891
0.3734125598601082
0.3743185729594702
0.4132635673486008
0.5784490257886841
0.3733177324919783
0.3738487786068344
0.3993928206897461
0.5116028753390216
0.373458291237141
0.3753403567867467
0.3957569022797006
0.4114189059730325
0.3735069662703506
0.3752192738969234
0.3769375924178833
0.3031735221167394
0.373399772531774
0.3739539635196653
0.3679292458964874
0.2331535700889956
0.3733270651243185
0.3731490384089075
0.3583576706091244
0.1997341919370979
0.2003949859590154
0.3546028456594882
0.3727863901526479
0.373321710615979
0.1969735350130659
0.3518013737744262
0.3726550422780742
0.3733200015305666
0.1973759483166565
0.3508132436050023
0.3727080846474303
0.3733213218397793
0.1896155066256119
0.3486640828781583
0.372657036071335
0.3733213950990178
0.2154904272799379
0.3562628539365219
0.3730223903290373
0.3733236573247027
0.2455662622974681
0.3642192275314297
0.3732267756876906
0.3733246854963906
0.273225659077787
0.3686402850781765
0.3732890403822878
0.3733249396650869
0.3000636729242434
0.3717675235376737
0.3733176883387987
0.3733250121889401
0.3275861017822822
0.3690386636893023
0.3732067760009166
0.3733239010584504
0.3295843556261991
0.3692845093713924
0.3732101107109831
0.3733239061749913
0.3291430922923051
0.3694394100991729
0.3732133053126882
0.3733239098199796
0.3315582190571693
0.3699233196496024
0.3732322548535511
0.3733240500937269
0.3000636729237995
0.3717675235364561
0.3733176883378887
0.37332501218918
0.2732256590764466
0.3686402850769617
0.3732890403769192
0.3733249396644194
0.2455662622958424
0.364219227531332
0.3732267756862942
0.3733246854976724
0.2154904272800518
0.3562628539388279
0.373022390328602
0.373323657323647
0.3733217106208189
0.3727863901565913
0.3546028456606664
0.2003949859585159
0.373320001529404
0.37265504227993
0.3518013737761584
0.1969735350139765
0.3733213218369252
0.3727080846510495
0.3508132436057183
0.1973759483168575
0.3733213950999384
0.372657036072234
0.3486640828838
0.1896155066249372
0.1997341919342868
0.3583576706060093
0.3731490384074516
0.3733270651242406
0.233153570085595
0.3679292458936881
0.3739539635171853
0.3733997725259034
0.3031735221161335
0.3769375924147956
0.3752192738978658
0.3735069662654754
0.4114189059735698
0.3957569022791099
0.375340356784342
0.3734582912424563
0.3733507375035339
0.3738243405950467
0.407034863963567
0.614509472412067
0.373366317302748
0.3740700901321834
0.4140877547754501
0.6149999578729067
0.3734125598576994
0.3743185729579311
0.4132635673453071
0.5784490257884904
0.373317732505052
0.3738487786056625
0.3993928206877953
0.5116028753388802
0.5945508111030038
0.3991109729398331
0.3736773968330607
0.3733456770984309
0.5714019614678012
0.3934959062793777
0.373552286761209
0.37333666552411
0.5543088145075674
0.3885236563274436
0.3734902663382526
0.3733346974245623
0.5372664220640567
0.3839456016832126
0.3734056043025945
0.3733296876019156
0.3733248773611772
0.3733247904708544
0.3737318857246661
0.4351779895576339
0.3733250703970022
0.3733323076238972
0.3754670209704736
0.4807516724051284
0.373325770471263
0.3733418019633249
0.3774903136138213
0.5053185116513434
0.3733277410709048
0.3733763421120044
0.3805783463150408
0.5248097597511888
0.373325038708301
0.3733250533494776
0.3733250575793148
0.3733250743898036
0.3733246668103859
0.3733250350927064
0.3733256499984511
0.3733317427619571
0.3734061418168443
0.3733338580666752
0.3734762559786568
0.3740450088900684
0.382769295047819
0.3740804817287164
0.3766741032171378
0.3798173434637514
0.3733254189267458
0.3733570545149266
0.3751486297628691
0.3833798917429139
0.3733267842608242
0.3733976576416919
0.3763157743644856
0.386933521748697
0.3733290517573531
0.3734319444626004
0.3772945322245996
0.3902495291385341
0.3733309718914489
0.3734513128192815
0.3780471741274245
0.3930508541136931
0.3733258526598949
0.3733393450545435
0.375481809441847
0.4132153219948141
0.3733273695818813
0.3733744985218856
0.37778711923479
0.4043576991863269
0.3733304282092932
0.3734248781485646
0.3786333541693627
0.3973367494165318
0.3733317065913492
0.3734546708783918
0.3785925960845039
0.394924680001181
0.414404541490583
0.3745170418995699
0.3733301105193192
0.3733253116265703
0.4084735751724128
0.3742707109443351
0.3733303383502146
0.3733253692414208
0.4041471784187021
0.3738263869137711
0.3733265114438427
0.3733252540187264
0.3997036887589349
0.3735605868581464
0.3733256747179917
0.3733250795827608
0.3964549514400246
0.3731774905513634
0.3733250556165154
0.3733250556085493
0.3936726753578472
0.3734426185177827
0.3733250556165154
0.3733250556165154
0.3871896781155342
0.3733250709635269
0.3733250556165154
0.3733250556165153
0.3775829630728554
0.3733250236971959
0.3733250556165154
0.3733250556165151
0.3733250556165154
0.3733250556165154
0.3733250556194471
0.3733272420684643
0.3733250556165152
0.3733250556165155
0.3733250556345021
0.3733326667304765
0.3733250556165154
0.3733250556165154
0.3733250557508437
0.3733680285810275
0.3733250556165154
0.3733250556165154
0.3733250583731009
0.3734507592394498
0.3733304495110721
0.373344971564302
0.3734057798348162
0.374261865459223
0.3733449716143167
0.3733541730126335
0.3734371649003022
0.376714035522869
0.3734057799447432
0.373437164703559
0.3747381504305641
0.392614816470084
0.3742618653075129
0.3767140352574351
0.392614816991293
0.4471480772653131
0.5287693587832472
0.4722560131185295
0.4419090044618877
0.4076153182146485
0.5140805978655879
0.5032611795285618
0.5012686448311107
0.4771227236605109
0.5083953424722416
0.5055189551834592
0.5067902503913378
0.4958696345834919
0.5078034269038806
0.5062412958835545
0.5077784739951823
0.5002993381333208
0.5037167380759026
0.5033020153925802
0.5049559795946611
0.5088353921853231
0.5090875266394814
0.5074921807462267
0.509210816432921
0.5137445420808012
0.5108666765906495
0.5099405442521577
0.5111736257754467
0.5148730833882206
0.5126921426985037
0.5109010760674284
0.5115029371848765
0.5112764785234095
0.4479940087190727
0.3801610596888266
0.3622915932577595
0.3681912880963009
0.419519676820278
0.3563242337042943
0.3554378740186462
0.3656226921362716
0.3910782249133967
0.3498380333158954
0.3578930999942573
0.3681183167284515
0.3357634161330753
0.3357583863567001
0.353640566572169
0.3651451753392033
0.3749135414905069
0.3776779805959359
0.3790441793518025
0.3791980336678293
0.3729730128376131
0.3758112132180033
0.37714101036632
0.3782624738490366
0.3738579261337123
0.3758327429735913
0.376857701516053
0.3785245540160629
0.3711339836234746
0.3738339881810229
0.3751806020641223
0.376936230638783
0.3794744294769395
0.3784546742811435
0.375864586652316
0.4621570599741921
0.3791563549641299
0.3780130277199972
0.3764775093438414
0.4974106025483722
0.3795216281538814
0.378479587598577
0.3784212679869699
0.5115371917535551
0.3788094738180388
0.3778537645465667
0.3803328690680671
0.5201428670971938
0.6965437895632368
0.7195565944531163
0.7172772376569906
0.7083965725667768
0.7389357849563167
0.7353931993573906
0.7255009678073885
0.7165342837258628
0.7246031943029441
0.7230761987011014
0.7252222972619758
0.7232352401561694
0.7437679389112228
0.7325880637743578
0.7287889274293631
0.7263896494253116
0.6898774579130444
0.6865036733843121
0.6876939395995334
0.6990425481690649
0.6984860785579948
0.6945367994759108
0.6944289405321908
0.7048615880269807
0.7060562401936918
0.7027621387702478
0.7033748575415761
0.7128508026529476
0.7116165302422662
0.7066762952456449
0.7067392898049852
0.7159642264091393
0.7071357208788508
0.6931080592491896
0.6570958301488418
0.5709052075526838
0.7124597386297061
0.7012514434232371
0.6601790848776956
0.5818819910720272
0.721123326382902
0.7112748131311605
0.6649589925855138
0.5962554946677979
0.7250235221614477
0.7179288486302838
0.6697555492607593
0.6911711819047621
0.3712500045008396
0.08872891558360381
0.02727664588335579
0.03890356966424703
0.2999645534188193
0.05853433140321002
0.03651914298787597
0.04859020252139484
0.2267385340117013
0.03779219373600595
0.03561910745842013
0.05847190087792155
0.1635478945491881
0.02220970425462164
0.03944180654518527
0.06202433421739448
0.05347367188142825
0.06129154644498335
0.06653356274419668
0.06344619866764351
0.06424830122656501
0.0712270919690163
0.07182425923487309
0.06541860226870891
0.07840128795684335
0.08622658537565704
0.07976253774469988
0.06866546847723574
0.08333920254505746
0.09413807868411826
0.08421255770820857
0.07494920107022469
0.1030133746685129
0.137240152124711
0.1694931609825645
0.2084403357338635
0.09530444805475649
0.127453637202829
0.1545435263924723
0.1938616314522868
0.08775870426202953
0.1159812343995349
0.1400588422827921
0.1720718831399276
0.07937939022238659
0.1029717328383753
0.1241481029843924
0.1601509194449016
0.1597302660769175
0.1103252732671466
0.07699938245293345
0.08029762682550724
0.1419442307683296
0.08921366769839358
0.08800972694621872
0.09181157248955629
0.1136087061524217
0.08162497349622883
0.1044191203941146
0.1004792628331764
0.08514190919157175
0.09763779865180597
0.1187955678101074
0.1213144953409097
0.1174968425338388
0.1098896512017016
0.1066329630666451
0.1032054008187579
0.09611424403847806
0.09543550308207267
0.0951735308655715
0.09426635330301025
0.08361636204964246
0.08792526385648186
0.09409979143479505
0.0963978418711022
0.09791108919402476
0.1093153436963263
0.1116284028513823
0.112501236068659
0.1032054008187736
0.09426635330308224
0.09639784187120265
0.1125012360685989
0.1066329630666458
0.09517353086573194
0.09409979143505047
0.1116284028511666
0.1098896512016431
0.09543550308222871
0.08792526385664053
0.109315343696067
0.1174968425337015
0.09611424403845858
0.08361636204966795
0.09791108919396947
0.0802976268253604
0.07699938245262342
0.1103252732665319
0.1597302660758703
0.09181157248936125
0.08800972694618657
0.08921366769822087
0.1419442307677113
0.1004792628330288
0.1044191203941118
0.08162497349617164
0.1136087061521665
0.1213144953407116
0.1187955678100731
0.09763779865189143
0.0851419091913984
0.1601509194444649
0.1241481029836834
0.1029717328370694
0.07937939022149951
0.1720718831395815
0.1400588422824423
0.115981234398367
0.08775870426101717
0.1938616314518192
0.1545435263922262
0.1274536372018672
0.09530444805374629
0.2084403357332759
0.1694931609821955
0.1372401521238782
0.1030133746674892
0.06344619866681632
0.06653356274414272
0.06129154644497302
0.05347367188108334
0.06541860226822707
0.07182425923458656
0.07122709196887693
0.06424830122623897
0.06866546847688104
0.07976253774444644
0.0862265853753879
0.07840128795658326
0.07494920106970258
0.0842125577079285
0.09413807868390743
0.08333920254477838
0.03890356966368916
0.02727664588265208
0.08872891558255712
0.3712500044997464
0.04859020252097315
0.0365191429871958
0.05853433140264637
0.2999645534174893
0.05847190087738541
0.03561910745782893
0.03779219373567812
0.2267385340110105
0.06202433421695907
0.03944180654483315
0.02220970425425933
0.163547894549
0.5709052075514478
0.657095830150071
0.6931080592509711
0.7071357208823016
0.581881991070999
0.6601790848792816
0.7012514434250885
0.712459738633098
0.5962554946670139
0.6649589925857273
0.7112748131330138
0.7211233263860274
0.69117118190459
0.6697555492612554
0.7179288486320292
0.7250235221646562
0.6990425481745295
0.6876939396036676
0.6865036733845922
0.6898774579171176
0.7048615880320868
0.6944289405356532
0.6945367994770048
0.6984860785617163
0.7128508026577484
0.703374857544697
0.7027621387716877
0.7060562401968593
0.7159642264142047
0.7067392898078557
0.7066762952477053
0.7116165302454576
0.7083965725669705
0.7172772376565861
0.7195565944526806
0.6965437895568044
0.7165342837259913
0.7255009678067337
0.7353931993564948
0.7389357849526782
0.723235240155556
0.7252222972609581
0.723076198699471
0.7246031942997457
0.7263896494229842
0.7287889274300113
0.7325880637729273
0.74376793890631
0.4621570599727229
0.375864586650747
0.37845467428258
0.3794744294780117
0.4974106025433773
0.3764775093408259
0.3780130277219972
0.3791563549655448
0.5115371917437818
0.3784212679817419
0.378479587602115
0.3795216281553286
0.5201428670837736
0.3803328690603913
0.377853764551907
0.3788094738207847
0.3791980336696352
0.3790441793529364
0.3776779805960903
0.3749135414901982
0.3782624738514856
0.3771410103670563
0.3758112132182466
0.3729730128370353
0.3785245540177678
0.3768577015163432
0.3758327429737857
0.373857926132837
0.3769362306392854
0.375180602065222
0.3738339881809041
0.371133983622592
0.3681912880943521
0.3622915932565645
0.3801610596873481
0.4479940087191125
0.3656226921340325
0.3554378740172629
0.3563242337027291
0.4195196768209016
0.368118316726227
0.3578930999931275
0.3498380333136271
0.3910782249147878
0.3651451753367462
0.3536405665707139
0.3357583863530564
0.3357634161340339
0.5088353921842641
0.5049559795907085
0.5033020153955382
0.5037167380791329
0.5137445420786985
0.5092108164310453
0.5074921807514204
0.5090875266411438
0.5148730833861811
0.5111736257748151
0.5099405442573329
0.5108666765922271
0.5112764785245295
0.5115029371844835
0.5109010760705743
0.5126921426994149
0.5002993381336928
0.4958696345745018
0.4771227236583143
0.4076153182627656
0.5077784739913479
0.5067902503826129
0.501268644830428
0.4419090044456306
0.506241295880646
0.5055189551806943
0.5032611795282339
0.4722560130200474
0.5078034269002036
0.5083953424698087
0.5140805978529586
0.5287693587873762
0.3115922948839068
0.3709846447930779
0.3732976165347706
0.373324924922114
0.3149707741200505
0.3708403715317201
0.3732904760460724
0.3733248339756424
0.3203612571440504
0.3707442377366951
0.3732798796058698
0.3733247042792179
0.3231988240799115
0.3703481335823285
0.3732596410764206
0.3733244164219454
0.3733239010590844
0.3732067760035045
0.3690386636850422
0.3275861017743356
0.3733239061760119
0.3732101107136266
0.3692845093688352
0.3295843556228475
0.3733239098180688
0.3732133053131358
0.3694394100999743
0.3291430922916574
0.373324050088038
0.3732322548554751
0.3699233196471581
0.3315582190568883
0.3733244164186953
0.3733247042771094
0.3733248339695322
0.3733249249151355
0.3732596410779318
0.3732798796058014
0.3732904760453535
0.3732976165331441
0.3703481335802765
0.3707442377326794
0.3708403715342386
0.3709846447927163
0.3231988240796561
0.3203612571411755
0.314970774117497
0.3115922948863013
)
;

boundaryField
{
    back
    {
        type            empty;
    }
    inlet
    {
        type            calculated;
        value           nonuniform List<scalar> 
16
(
0.3733250556165154
0.3733250556165154
0.3733250556165154
0.3733250556165154
0.3733250556165154
0.3733250556165155
0.3733250556165152
0.3733250556075423
0.3733250556085493
0.3733250556165154
0.3733250556165154
0.3733250556165151
0.3733250556165154
0.3733250556165152
0.3733250556165154
0.3733250556165154
)
;
    }
    front
    {
        type            empty;
    }
    top
    {
        type            calculated;
        value           nonuniform List<scalar> 
40
(
0.3733250795817641
0.373325254014145
0.373325369246473
0.3733253116287238
0.3733258526639971
0.3733273695852349
0.3733304282102904
0.3733317065922851
0.373330971889908
0.3733290517549813
0.3733267842621054
0.3733254189300841
0.3733250743902337
0.3733250575793208
0.3733250533479888
0.3733250387105237
0.3733248773575381
0.3733250703987575
0.3733257704738898
0.3733277410733836
0.3733296876027555
0.3733346974256279
0.3733366655228054
0.3733456770986319
0.3733507375047058
0.3733663173016908
0.3734125598601082
0.3733177324919783
0.373458291237141
0.3735069662703506
0.373399772531774
0.3733270651243185
0.373321710615979
0.3733200015305666
0.3733213218397793
0.3733213950990178
0.3733236573247027
0.3733246854963906
0.3733249396650869
0.3733250121889401
)
;
    }
    outlet
    {
        type            calculated;
        value           uniform 0.3733250556165154;
    }
    bottom
    {
        type            calculated;
        value           nonuniform List<scalar> 
40
(
0.3733250121891799
0.3733249396644194
0.3733246854976724
0.373323657323647
0.3733217106208189
0.373320001529404
0.3733213218369252
0.3733213950999384
0.3733270651242406
0.3733997725259034
0.3735069662654754
0.3734582912424563
0.3733507375035339
0.3733663173027481
0.3734125598576994
0.373317732505052
0.3733456770984309
0.37333666552411
0.3733346974245623
0.3733296876019156
0.3733248773611772
0.3733250703970022
0.373325770471263
0.3733277410709048
0.373325038708301
0.3733250533494776
0.3733250575793148
0.3733250743898036
0.3733254189267458
0.3733267842608242
0.3733290517573531
0.3733309718914489
0.3733258526598949
0.3733273695818813
0.3733304282092932
0.3733317065913492
0.3733253116265703
0.3733253692414208
0.3733252540187263
0.3733250795827608
)
;
    }
    wall
    {
        type            calculated;
        value           nonuniform List<scalar> 
104
(
0.5287693587832472
0.5140805978655879
0.5083953424722416
0.5078034269038806
0.5126921426985037
0.5109010760674284
0.5115029371848765
0.5112764785234095
0.3357634161330753
0.3357583863567001
0.353640566572169
0.3651451753392033
0.3711339836234746
0.3738339881810229
0.3751806020641223
0.376936230638783
0.3788094738180388
0.3778537645465667
0.3803328690680671
0.5201428670971938
0.7437679389112228
0.7325880637743578
0.7287889274293631
0.7263896494253116
0.7116165302422662
0.7066762952456449
0.7067392898049852
0.7159642264091393
0.7250235221614477
0.7179288486302838
0.6697555492607593
0.6911711819047621
0.1635478945491881
0.02220970425462164
0.03944180654518527
0.06202433421739449
0.08333920254505746
0.09413807868411826
0.08421255770820857
0.07494920107022469
0.07937939022238659
0.1029717328383753
0.1241481029843924
0.1601509194449016
0.08514190919157175
0.09763779865180597
0.1187955678101074
0.1213144953409097
0.1174968425338388
0.1098896512017016
0.1066329630666451
0.1032054008187579
0.1032054008187736
0.1066329630666458
0.1098896512016431
0.1174968425337015
0.1213144953407116
0.118795567810073
0.09763779865189143
0.0851419091913984
0.1601509194444649
0.1241481029836834
0.1029717328370694
0.07937939022149951
0.07494920106970258
0.0842125577079285
0.09413807868390743
0.08333920254477838
0.06202433421695907
0.03944180654483315
0.02220970425425933
0.163547894549
0.69117118190459
0.6697555492612554
0.7179288486320292
0.7250235221646562
0.7159642264142047
0.7067392898078557
0.7066762952477053
0.7116165302454576
0.7263896494229842
0.7287889274300113
0.7325880637729273
0.74376793890631
0.5201428670837736
0.3803328690603913
0.377853764551907
0.3788094738207847
0.3769362306392854
0.375180602065222
0.3738339881809041
0.371133983622592
0.3651451753367462
0.3536405665707139
0.3357583863530564
0.3357634161340339
0.5112764785245295
0.5115029371844835
0.5109010760705743
0.5126921426994149
0.5078034269002036
0.5083953424698087
0.5140805978529586
0.5287693587873762
)
;
    }
}


// ************************************************************************* //
