/*--------------------------------*- C++ -*----------------------------------*\
  =========                 |
  \\      /  F ield         | OpenFOAM: The Open Source CFD Toolbox
   \\    /   O peration     | Website:  https://openfoam.org
    \\  /    A nd           | Version:  11
     \\/     M anipulation  |
\*---------------------------------------------------------------------------*/
FoamFile
{
    format      ascii;
    class       volVectorField;
    location    "0.0185";
    object      U;
}
// * * * * * * * * * * * * * * * * * * * * * * * * * * * * * * * * * * * * * //

dimensions      [0 1 -1 0 0 0 0];

internalField   nonuniform List<vector> 
880
(
(25 -3.913999997785115e-16 0)
(25 -2.661833288448752e-16 0)
(25 1.035846375136229e-15 0)
(25.00000000015347 -6.978669785614107e-11 0)
(25 3.757374737352225e-16 0)
(25 -5.038536609780983e-16 0)
(25.00000000000002 2.445457687928402e-15 0)
(25.00000001066268 9.416261178286543e-10 0)
(25 0 0)
(25.00000000000001 9.210518176303097e-16 0)
(25 -3.824395374973131e-15 0)
(25.0000001753003 -1.698974826295138e-07 0)
(25 0 0)
(25 -8.76417302491697e-16 0)
(25 3.553903047602494e-20 0)
(24.99999702957822 5.014730832748754e-07 0)
(25 -3.056324312768747e-16 0)
(25 -2.543508875986883e-16 0)
(25.00000000000001 1.221164299791446e-15 0)
(25 -8.885930593500829e-16 0)
(25 0 0)
(25 -4.72744968925842e-18 0)
(25.00000000000003 5.385273734498737e-15 0)
(25 2.129206968017562e-14 0)
(25 1.729003881757925e-16 0)
(25 9.255635508134978e-14 0)
(25.00000000064115 1.115673472304561e-09 0)
(24.99999999312553 -2.055909384159979e-08 0)
(24.99989984523837 0.0003500959259772339 0)
(24.99973619136478 0.001047595979120359 0)
(24.99975410103319 0.00117117697521483 0)
(24.99977836434005 0.001050697722454259 0)
(25 -1.604737704739985e-13 0)
(25 -1.748534828056473e-13 0)
(25.00000000000001 -2.113122884703434e-13 0)
(25 -6.612879565781976e-14 0)
(24.99999999999812 4.67770144031063e-11 0)
(25.00000000000077 5.420761177132475e-11 0)
(24.99999999999949 5.869698537259478e-11 0)
(25.00000000000031 7.130174341975454e-12 0)
(24.9999999554179 2.636602982031993e-07 0)
(24.99999995136756 2.86247771932139e-07 0)
(24.99999994975735 3.011666582730622e-07 0)
(24.99999989277167 8.555254057791958e-08 0)
(24.99975571902399 0.001158239485276021 0)
(24.99975234461196 0.001251652853347934 0)
(24.99974996194506 0.001278505594194081 0)
(24.999640777246 0.0008907419607743375 0)
(24.99983107983145 0.003532087687627535 0)
(25.00038817172074 0.001360723707271228 0)
(25.00008742935436 0.0001233390516059531 0)
(25.00000209559273 1.715126774853775e-06 0)
(24.99999994834215 1.79940404334463e-06 0)
(25.0000001470104 8.329326258577442e-07 0)
(25.00000004406953 1.015715911320283e-07 0)
(25.00000000127081 2.269803182764849e-09 0)
(24.99999999997066 5.611833934052591e-10 0)
(25.00000000004556 2.891742356534733e-10 0)
(25.00000000002422 3.803188725023264e-11 0)
(25 7.302862590210756e-13 0)
(25 -2.097641069088902e-12 0)
(25 -1.130609394673652e-12 0)
(25 -1.522492969318675e-13 0)
(25 -6.048724936033437e-16 0)
(25.00000000000001 1.482222551703428e-15 0)
(25.00000000000001 1.881527853494892e-16 0)
(25 -2.470370919500933e-16 0)
(24.99999999999999 -3.412951211979383e-16 0)
(25 -1.969894412600055e-15 0)
(25 -2.022398734564506e-16 0)
(25 -6.626180926938176e-16 0)
(25 -4.356571520323675e-16 0)
(25.00000000000889 -8.864729139016651e-12 0)
(24.9999999999994 -1.83348136710785e-12 0)
(25.00000000000002 -2.039514005362454e-14 0)
(25 -1.703811451550787e-15 0)
(25.00000000556262 -4.550255315198134e-08 0)
(24.99999999787515 -6.258066552101656e-09 0)
(24.99999999994896 -6.341855909661136e-11 0)
(25 8.82930142750973e-14 0)
(25 6.552744700707037e-13 0)
(25 3.201402727811664e-15 0)
(25 3.819198253453824e-16 0)
(25 4.725275453948502e-16 0)
(24.99999999915332 -9.678454051270558e-10 0)
(24.9999999999922 -9.20996361305865e-12 0)
(25 -3.372897289780471e-14 0)
(25 2.981110259003016e-17 0)
(25.00000068467192 1.633270402592536e-06 0)
(25.00000000212203 1.082556395467303e-08 0)
(25.00000000000482 3.097763654040224e-12 0)
(25 -7.0253961428587e-15 0)
(25.00038444582275 -0.002448131698862762 0)
(25.00000008102574 -1.069370106237572e-06 0)
(24.9999999999986 -2.932468218439671e-10 0)
(25.00000000000001 -5.027676508665647e-14 0)
(25.00000000000002 2.159640304873142e-16 0)
(25.00000000000001 1.779960311868664e-13 0)
(24.99999999169434 2.978782665183991e-09 0)
(24.99992135882832 3.981468164706303e-05 0)
(25 -1.093054740196881e-14 0)
(24.99999999999805 4.668695120809915e-12 0)
(24.99999998462491 3.293743174269906e-08 0)
(24.99985681788118 0.0002511429802523166 0)
(25 -1.391857536064315e-14 0)
(24.99999999999789 5.779768693153874e-12 0)
(24.99999998232027 3.824825684327004e-08 0)
(24.99984893548799 0.0002700848678728903 0)
(25 -1.616799909826667e-14 0)
(25.00000000000011 7.078226292933042e-12 0)
(24.99999997975348 4.380068724851255e-08 0)
(24.99984176379508 0.0002831388579983837 0)
(24.99983352016075 0.0002978561881730274 0)
(24.9999999766416 5.05057533553783e-08 0)
(24.99999999999886 8.762055047642958e-12 0)
(25 -1.592755260879321e-14 0)
(24.99982445547231 0.0003141625074927869 0)
(24.99999997290734 5.866932507517366e-08 0)
(24.99999999999952 1.09439279407411e-11 0)
(25 -2.886939466686565e-14 0)
(24.99981387063378 0.0003314145042993474 0)
(24.9999999681627 6.839297421863151e-08 0)
(24.99999999999998 1.37384635922278e-11 0)
(25 -3.374281802524236e-14 0)
(24.9997978107958 0.0003686825333543164 0)
(24.99999996146384 8.508495347953288e-08 0)
(25.00000000000113 1.866121710630669e-11 0)
(25 -5.146499663300019e-14 0)
(25.00000000000001 -3.138038207546897e-14 0)
(24.99999999999718 1.015425386357822e-11 0)
(24.99999997734031 4.875999697602018e-08 0)
(24.99986930977479 0.0002353559015704477 0)
(25 -3.286957553903046e-14 0)
(24.99999999999809 1.092094027918381e-11 0)
(24.9999999785659 4.388312021118975e-08 0)
(24.99989542263194 0.0001819752882644609 0)
(25.00000000019721 3.337177115276073e-11 0)
(25.0000000000071 -1.04498985439489e-11 0)
(24.99999997221635 4.155129366025059e-08 0)
(24.99991505629996 0.000147992561164499 0)
(24.99999999770561 -7.317448835676912e-10 0)
(24.99999999903552 1.736710072236635e-09 0)
(24.99999997752789 2.024163439587061e-07 0)
(24.99995729238195 7.131167285777409e-05 0)
(24.99999999497702 8.738379923254109e-09 0)
(25.00000003150023 8.0618785834335e-08 0)
(24.99960967431936 -0.0002012847436010396 0)
(24.89826110903633 -0.05115182912123827 0)
(24.99999999412195 8.164866521918132e-09 0)
(24.99999994264909 -6.070556455821954e-08 0)
(24.99903528572851 -0.0003217039748786707 0)
(24.64574122073951 -0.04706414279390076 0)
(24.99999999591144 6.122464597544725e-09 0)
(24.99999995566249 -4.61080588537035e-08 0)
(24.99900392551202 -0.0002430103808489278 0)
(24.57230452993882 -0.01308169544757666 0)
(24.99999999699439 4.732518008619318e-09 0)
(25.00000000505531 -4.697781775197404e-09 0)
(24.99918874098672 -0.0001664609427116373 0)
(24.58171277765142 0.005910990394256849 0)
(24.68837024360594 -0.004435768625400549 0)
(24.99943457080439 -0.0002571490847264967 0)
(24.99999996786155 -5.290136299696286e-08 0)
(24.99999999639443 2.655355242922324e-09 0)
(24.7059005906442 7.620426704395118e-05 0)
(24.99953016255504 -0.00020841701637256 0)
(25.00000000426773 1.568121766582327e-09 0)
(24.99999999631302 2.302523563503383e-09 0)
(24.73027519686247 -0.004402453893101908 0)
(24.99962475191403 -0.000176173767606767 0)
(25.00000002796824 1.985014352252823e-08 0)
(24.99999999677332 1.94261862147245e-09 0)
(24.65218734937609 0.02597669236752367 0)
(24.99949066383971 -0.0002017662679747266 0)
(24.99999995847762 -6.840596060021382e-08 0)
(24.99999999812745 1.050926360476506e-09 0)
(24.96654968445062 0.004690306595701763 0)
(24.99997290472838 -1.055076964616998e-05 0)
(25.00000001569377 4.056904446897766e-09 0)
(24.99999999968059 4.930818869433339e-11 0)
(24.99968794162729 2.413293504324145e-05 0)
(25.00000011576284 5.514395598958265e-08 0)
(25.00000000210087 1.919270806568523e-09 0)
(24.99999999999168 -9.013361560729756e-12 0)
(25.0000163253337 -6.525994035085057e-05 0)
(25.00000004413618 -5.162499024874435e-08 0)
(25.00000000001295 -1.716708429593136e-11 0)
(25 -2.819318688682504e-14 0)
(25.00001830267792 -0.0007169178146840769 0)
(25.00000000549052 -5.632584773030445e-07 0)
(25.00000000007228 -6.345396463871901e-11 0)
(25 -3.038603930184086e-14 0)
(24.99851853344125 3.483174523202011e-07 0)
(25.00001498451147 1.247747255453117e-09 0)
(25.00000013242735 4.706921654615644e-12 0)
(25.00000000005707 -2.597967401146568e-14 0)
(24.99851539305174 2.20291254465526e-05 0)
(25.00001490945645 1.111238161249166e-07 0)
(25.00000013262378 4.937799086282768e-10 0)
(25.00000000004813 1.365469667861612e-14 0)
(24.99842000953689 0.0001598011746505029 0)
(25.00001367674938 1.123251417964645e-06 0)
(25.00000013177484 5.759779038109633e-09 0)
(25.00000000004884 1.093336298627931e-12 0)
(24.99810396550986 0.0003297317168578878 0)
(25.00001008054847 2.366626955328723e-06 0)
(25.00000012242218 1.422834005938941e-08 0)
(25.0000000000487 3.23224955671932e-12 0)
(25.00001830269708 0.000716917813036415 0)
(25.00000000550399 5.632586312632846e-07 0)
(25.00000000008707 6.401115783997351e-11 0)
(25 9.215891705064547e-14 0)
(25.00001632535468 6.525994289183401e-05 0)
(25.00000004414984 5.16268623336303e-08 0)
(25.00000000003712 1.794419094896286e-11 0)
(25 1.356846673296657e-14 0)
(24.99968794163526 -2.413293147613983e-05 0)
(25.0000001157599 -5.514203947138461e-08 0)
(25.00000000210108 -1.91894921321265e-09 0)
(24.99999999999118 8.927462265995454e-12 0)
(24.9665496844226 -0.004690306593053739 0)
(24.99997290469536 1.055077107380347e-05 0)
(25.00000001569219 -4.056913528057475e-09 0)
(24.99999999968871 -4.92424803305558e-11 0)
(24.99999999637139 -2.655723040592898e-09 0)
(24.99999996782726 5.289839035700013e-08 0)
(24.99943457078804 0.0002571490852122106 0)
(24.68837024359699 0.004435768627902338 0)
(24.99999999630029 -2.300071931267107e-09 0)
(25.00000000426105 -1.567501395078087e-09 0)
(24.99953016254156 0.0002084170189454141 0)
(24.70590059063172 -7.620427986641303e-05 0)
(24.99999999679326 -1.942364547438131e-09 0)
(25.00000002794758 -1.985173453128588e-08 0)
(24.99962475191329 0.0001761737677499941 0)
(24.73027519681944 0.004402453892665904 0)
(24.99999999812341 -1.052635227958377e-09 0)
(24.99999995847199 6.840786354448346e-08 0)
(24.99949066380486 0.0002017662607864994 0)
(24.65218734939849 -0.0259766923575681 0)
(24.5817127776733 -0.005910990401468025 0)
(24.9991887410036 0.0001664609366752315 0)
(25.00000000506627 4.695523622326694e-09 0)
(24.9999999969985 -4.734593930487778e-09 0)
(24.5723045299691 0.01308169545168715 0)
(24.99900392553504 0.0002430103803172626 0)
(24.99999995569733 4.610970491475334e-08 0)
(24.99999999594165 -6.123625244267323e-09 0)
(24.64574122074558 0.04706414279624806 0)
(24.9990352857585 0.0003217039772166734 0)
(24.99999994265172 6.070617471352399e-08 0)
(24.99999999414764 -8.162165273225372e-09 0)
(24.89826110902496 0.05115182911919709 0)
(24.99960967433016 0.0002012847439724726 0)
(25.00000003151235 -8.061738986505809e-08 0)
(24.99999999494177 -8.737856285492818e-09 0)
(25.00000000000001 3.930112634999328e-14 0)
(24.9999999999915 -1.025360636840023e-11 0)
(24.99999997732574 -4.876174032561543e-08 0)
(24.99986930974799 -0.0002353559013493485 0)
(25 2.692429347152666e-14 0)
(24.99999999999739 -1.078669918056896e-11 0)
(24.99999997856563 -4.388241684421191e-08 0)
(24.99989542263983 -0.0001819752848524734 0)
(25.0000000001856 -3.346999755404921e-11 0)
(25.00000000001313 1.046084103567368e-11 0)
(24.99999997223079 -4.155001921775606e-08 0)
(24.99991505630393 -0.0001479925612167564 0)
(24.9999999976858 7.31740183726637e-10 0)
(24.99999999903683 -1.735877201373117e-09 0)
(24.99999997754068 -2.024158897948791e-07 0)
(24.99995729238244 -7.131167416390394e-05 0)
(24.99979781074301 -0.0003686825364096928 0)
(24.99999996148173 -8.508450185220366e-08 0)
(24.99999999999294 -1.872605231019721e-11 0)
(25 5.593730620903431e-14 0)
(24.99981387059048 -0.0003314145062384264 0)
(24.99999996813664 -6.839236548086225e-08 0)
(24.99999999999785 -1.380566998769922e-11 0)
(25 4.140830291685237e-14 0)
(24.99982445547703 -0.0003141625082588134 0)
(24.99999997287677 -5.867037407601203e-08 0)
(24.99999999999544 -1.098056651170115e-11 0)
(25 3.126036641528362e-14 0)
(24.99983352014156 -0.0002978561889809116 0)
(24.99999997666332 -5.050583090448024e-08 0)
(24.99999999999851 -8.769909773684075e-12 0)
(25 2.372360604193149e-14 0)
(25 2.525299136290256e-16 0)
(25 -1.653406099486719e-13 0)
(24.99999999169624 -2.978623534436318e-09 0)
(24.99992135887192 -3.981467925316789e-05 0)
(25 3.74490162866743e-15 0)
(24.99999999999916 -4.660271778266904e-12 0)
(24.99999998461598 -3.293768290238803e-08 0)
(24.99985681787585 -0.0002511429799328564 0)
(25 1.176936489648994e-14 0)
(24.99999999999783 -5.77655938653287e-12 0)
(24.99999998231752 -3.824836184721471e-08 0)
(24.99984893546916 -0.0002700848686192441 0)
(25 1.572850605752029e-14 0)
(24.99999999999905 -7.079614000662244e-12 0)
(24.99999997976628 -4.380019901501219e-08 0)
(24.99984176378774 -0.000283138858730004 0)
(25 5.962144457690936e-14 0)
(25 4.624943951783301e-15 0)
(25 2.925938149866989e-16 0)
(25 5.252135039325102e-16 0)
(25.00000000001825 2.935302895587357e-10 0)
(25.00000000000056 -3.103178936257876e-12 0)
(25 3.789604785172561e-14 0)
(25 -3.589263197008003e-17 0)
(25.00000008102188 1.069369182191578e-06 0)
(25.00000000210393 -1.082533532793857e-08 0)
(24.99999999999693 9.186114201063759e-12 0)
(25 -2.815558966559039e-15 0)
(25.00038444582162 0.002448131697626336 0)
(25.00000068467174 -1.633270196504369e-06 0)
(24.9999999991522 9.679388172463594e-10 0)
(25 -6.548337156315124e-13 0)
(25.00000000000002 -1.888577622991828e-15 0)
(25 -2.507064436930127e-16 0)
(25.00000000000002 -2.08592530577471e-15 0)
(25 -8.972437052020145e-14 0)
(25 1.617587207943894e-16 0)
(25 -2.088384811458249e-16 0)
(25 2.116476940673478e-14 0)
(24.99999999994898 6.338368457089648e-11 0)
(25 0 0)
(25 5.910563955448816e-16 0)
(25.00000000000001 1.721467369722037e-12 0)
(24.99999999787344 6.258199316965108e-09 0)
(25 2.100172878580149e-16 0)
(25.00000000000001 2.906368273907458e-16 0)
(25.00000000000284 8.817136642565061e-12 0)
(25.00000000556527 4.550261293370939e-08 0)
(25 2.12164973458879e-12 0)
(24.99999999999231 -5.619374174591346e-10 0)
(24.99999994836208 -1.799405250489248e-06 0)
(24.99983107983616 -0.003532087690352844 0)
(25 1.139221908490953e-12 0)
(25.00000000004642 -2.873416673047434e-10 0)
(25.00000014700897 -8.329303342811925e-07 0)
(25.00038817174688 -0.001360723709592219 0)
(25.00000000000001 1.476668559383723e-13 0)
(25.00000000000847 -3.839343634712136e-11 0)
(25.00000004407694 -1.015713016281991e-07 0)
(25.00008742935695 -0.0001233390510879356 0)
(25 4.664313679045543e-16 0)
(25 -8.52785312052033e-13 0)
(25.00000000126757 -2.269606448439024e-09 0)
(25.00000209561149 -1.715124423825167e-06 0)
(24.99964077723457 -0.0008907419568763118 0)
(24.99999989274517 -8.555955862739694e-08 0)
(25.00000000000028 -7.30717294315361e-12 0)
(25 5.972153231250922e-14 0)
(24.99974996195565 -0.001278505592311771 0)
(24.99999994970879 -3.011681959570242e-07 0)
(24.99999999999907 -5.87204162194014e-11 0)
(25 2.118396627102864e-13 0)
(24.99975234458355 -0.001251652861002915 0)
(24.99999995134274 -2.862444617983536e-07 0)
(25.00000000000127 -5.428533409080783e-11 0)
(25.00000000000002 1.718457746632255e-13 0)
(24.99975571903231 -0.001158239483714042 0)
(24.99999995547453 -2.636468389638117e-07 0)
(25.00000000000476 -4.654341559816553e-11 0)
(25 1.741434680462537e-13 0)
(24.99977836432217 -0.001050697724461581 0)
(24.99999999312704 2.055087795598207e-08 0)
(25 -1.350409737605468e-13 0)
(25 0 0)
(24.99975410104256 -0.001171176972021495 0)
(25.00000000066357 -1.114753597050298e-09 0)
(25 3.830794241139836e-16 0)
(25.00000000000001 5.067075720551854e-16 0)
(24.99973619134682 -0.001047595978614415 0)
(25 -1.354860668763786e-13 0)
(25 1.08596563490906e-16 0)
(25.00000000000001 1.913781061680018e-15 0)
(24.99989984524248 -0.0003500959238524199 0)
(25 1.809887450270644e-15 0)
(25 -4.033083666622879e-16 0)
(25.00000000000002 -1.986054915453591e-15 0)
(25 7.825884319887051e-16 0)
(25 5.324242170631304e-16 0)
(25 0 0)
(25.00000000013507 7.378102004922974e-11 0)
(24.99999999999999 -2.843418720158383e-19 0)
(25 7.557260208006849e-16 0)
(25 -1.422460094272691e-16 0)
(25.0000000106525 -9.446706891043476e-10 0)
(25 -7.220917926715555e-16 0)
(25 -4.781673609958459e-16 0)
(25 7.53598033439838e-17 0)
(25.00000017530829 1.69893327247112e-07 0)
(25 -3.24711165551979e-16 0)
(25 -4.277954619151364e-17 0)
(25.00000000000002 -2.129085564902056e-15 0)
(24.99999702959395 -5.014744742601275e-07 0)
(25.00000001294829 6.494057976497755e-12 0)
(25.00000096070115 -1.941800263188945e-07 0)
(25.00002109668837 5.357807359723737e-06 0)
(25.00004559561677 -0.0001670676052401131 0)
(25.00000096071582 1.941844038594824e-07 0)
(25.00000000048747 1.5413966883505e-11 0)
(25.00011293944391 -0.0003171782406032872 0)
(25.00116555148982 -0.005317806993721436 0)
(25.00002109669127 -5.357816885117092e-06 0)
(25.00011293944376 0.0003171782380284833 0)
(24.99934595262353 -4.822727705888069e-12 0)
(24.92910652002874 -0.004117905071278734 0)
(25.0000455956021 0.0001670675961919099 0)
(25.00116555148376 0.005317806986025573 0)
(24.92910652003668 0.004117905064593835 0)
(23.13628533402285 6.222088467865121e-12 0)
(22.77968369292158 1.729266475308207 0)
(23.63212426670689 2.550204100920298 0)
(24.90867349120433 0.6102934229994178 0)
(24.98939889868882 0.0485960779621188 0)
(23.42740279700559 3.650130564725308 0)
(23.48833531259165 4.857908213871122 0)
(24.86990467690241 1.644173386022833 0)
(24.96464176706218 0.1794428729422859 0)
(23.65493621845927 3.951005629462196 0)
(23.63138402263689 5.297657389285891 0)
(24.92403281453937 1.899008894913606 0)
(24.9647926663024 0.2205327894437344 0)
(23.67573756307177 3.969933365653552 0)
(23.64980566758366 5.320069505702661 0)
(24.92643453512327 1.899242325336852 0)
(24.96500191806177 0.2186676670108512 0)
(24.96233152178719 0.2431822514534991 0)
(24.96302968913581 0.2569303137834189 0)
(24.96346854001158 0.2584293300756655 0)
(24.94493460264315 0.2243434120275111 0)
(24.93706963691592 2.006737309768395 0)
(24.96031197822319 2.061317789797941 0)
(24.96497630604128 2.066546454246779 0)
(24.91443931265124 2.171116077102459 0)
(23.55561757128783 5.431326340872097 0)
(23.56617057194511 5.494967100489533 0)
(23.57186364403158 5.505678835944019 0)
(23.80185532217932 6.444758619583454 0)
(23.60772050243905 3.960695740134566 0)
(23.63818787734212 3.991151522785469 0)
(23.65068923960237 3.997526330366824 0)
(25.23174238885649 4.98541690872649 0)
(24.9804292154638 0.3407294947339127 0)
(25.04309186000222 0.09016053322053372 0)
(25.00537752505313 0.00425344765041537 0)
(25.00007438689961 -2.652017474507845e-05 0)
(25.31508336051051 1.149018232906328 0)
(25.14522657988078 0.1547370606297849 0)
(25.00877786905567 0.002879816910771488 0)
(25.00018859057603 -0.0003628941890878745 0)
(25.8061302512489 2.09067112083356 0)
(25.22096304289483 0.1030684365454881 0)
(25.01049916087025 -0.007174368395649528 0)
(25.00138692787435 -0.001376053494541647 0)
(24.55953853249485 0.5349433310382518 0)
(24.93354977895119 -0.02014488644273313 0)
(24.97254811648964 -0.004546748276244412 0)
(24.99524314748435 -0.0009378646670369576 0)
(25.00000033259595 -8.116090815548217e-06 0)
(24.99999963710941 -6.037985578150128e-07 0)
(24.99999999580457 -2.575152233039998e-09 0)
(25.0000000000203 4.695928291170563e-11 0)
(25.00000302489559 -4.527219339177054e-05 0)
(24.99999975965541 -3.925425788802615e-07 0)
(25.0000000001219 1.978149760525024e-09 0)
(25.00000000047591 6.595305082964048e-10 0)
(25.00005334516916 -6.651301577529811e-05 0)
(25.0000002282962 -3.745168700181354e-07 0)
(24.99999999792382 8.933791622836834e-09 0)
(25.00000000197884 2.833160634383547e-09 0)
(24.99977327086202 -4.654560406342734e-05 0)
(24.99999854211438 -2.475282735436281e-07 0)
(25.00000001077262 7.524193874357673e-09 0)
(25.00000000480129 2.066193799487137e-09 0)
(25.00000000000816 3.757119129861848e-12 0)
(25.00000000007489 -6.487251451281231e-12 0)
(24.99999992740246 -4.017209495205462e-08 0)
(25.07473870372363 -0.272394727507417 0)
(25.00000000003518 3.854111144161606e-11 0)
(25.00000000000038 3.477529716954963e-13 0)
(24.9999999937177 -4.192016795800039e-09 0)
(25.19789066299556 -1.381897828320924 0)
(25.00000000020772 1.5709503209294e-10 0)
(25 3.807747183628745e-13 0)
(24.99999999959492 -3.395989806954739e-10 0)
(24.48644252896739 -2.88530505377882 0)
(25.0000000003342 8.811310520011931e-11 0)
(24.99999999999961 2.855758047475473e-13 0)
(24.99999999999235 2.651007420895719e-11 0)
(17.15504367182007 -4.984116365899962 0)
(24.95690854089867 0.06604714929113806 0)
(24.89780805491406 0.2132976670124399 0)
(24.89859923939953 0.221033866911097 0)
(24.89896347227711 0.220644366310141 0)
(23.54002886343974 2.972967259736742 0)
(23.1424761270212 5.043829974368393 0)
(23.19881085917972 5.103467705576802 0)
(23.20250412758804 5.09178044325162 0)
(17.39959641420165 9.641320397226046 0)
(17.00633509399954 11.88182508968949 0)
(17.05180223758433 11.88888643680857 0)
(17.05398696555616 11.85985145790164 0)
(17.56288959572384 8.206732508863778 0)
(17.97204827090236 9.262435498883967 0)
(17.9906318542638 9.246653932368261 0)
(17.97188555777697 9.223746355651068 0)
(24.89893737022156 0.2206520328242266 0)
(24.89890124112163 0.2206625384975847 0)
(24.89886107445594 0.2206692961963096 0)
(24.89772786272425 0.2301296308329013 0)
(23.20173993356886 5.090133245251301 0)
(23.20171262406512 5.090164180344678 0)
(23.20171196121185 5.09021035375833 0)
(23.20676418054525 5.13209192330391 0)
(17.05260869924558 11.85298706771351 0)
(17.0525643639383 11.85283839735083 0)
(17.05257569017156 11.85285823315551 0)
(17.0643103853707 11.85236126559139 0)
(17.96411574907685 9.219252232143814 0)
(17.96380953807435 9.219161811453489 0)
(17.96380051579337 9.219160521560307 0)
(17.96187570471151 9.215485736721361 0)
(24.9377352005267 0.1327784961579917 0)
(24.95358163441222 0.0946037714412002 0)
(24.9656858053151 0.07049224094982597 0)
(24.9827109218987 0.02781142227527248 0)
(23.49458130705654 4.227262511265981 0)
(23.62028262558932 3.701053609444076 0)
(23.78667685069226 3.250908292838705 0)
(24.14277431638011 2.29312501793836 0)
(17.4337865551092 11.51957575538706 0)
(17.594513856291 11.20624069271542 0)
(17.87299635945996 10.92850784259869 0)
(19.87994697964067 12.34120979857113 0)
(18.22990453266747 9.157303879042399 0)
(18.37829847793585 8.992591919630964 0)
(18.6339549972684 8.936704784797302 0)
(25.54890396766294 11.85301159034894 0)
(24.16649276269448 -1.134479675835326 0)
(18.31150574789634 -1.382663032194934 0)
(14.68286873610899 -0.1279810877128966 0)
(14.60242132136068 -0.07024453700068208 0)
(24.56377922716972 -2.226165247454716 0)
(13.62471633408101 -2.939630430883607 0)
(6.53929043134077 -0.2387868053078275 0)
(6.15332083772933 -0.1218201959641123 0)
(23.61072067053172 -0.8100095975692292 0)
(11.24887576788652 -3.711112401578722 0)
(3.170809943565362 -0.2037681611157932 0)
(2.920826193802654 -0.230122267731399 0)
(18.28516108452738 -9.08722293953142 0)
(6.638060655901472 -4.278358334509787 0)
(1.47900429699597 -0.08888516013608855 0)
(1.386278497904055 -0.05584501532219371 0)
(14.16095244301924 -0.08832197692692451 0)
(14.188121549806 -0.006513399231949395 0)
(14.11660973569304 -0.151344931580105 0)
(10.12604304996224 1.761924898188461 0)
(6.202662715769327 -0.1358213418533825 0)
(6.207238834529306 -0.01568830550823356 0)
(6.008829615742339 -0.01197949475631223 0)
(0.8395443398876498 4.774235529621444 0)
(3.285193523479336 -0.2461620151115259 0)
(3.317745348959138 -0.01220282150946441 0)
(3.090069485339296 0.6270546755922657 0)
(2.956054365613432 6.249971171674659 0)
(1.749859751455913 -0.04021498863918756 0)
(1.770125760403312 0.004757375914996083 0)
(1.597828160919965 0.8463169037324881 0)
(0.8577588503428857 6.812731309833501 0)
(23.28861361847702 0.09671327831157596 0)
(24.94986325253172 0.005722922641088343 0)
(25.00049505075065 -0.006012195901388495 0)
(25.00077629266726 -0.08746283758643658 0)
(21.75826346670657 -0.3087403272714823 0)
(24.80522216398935 -0.00166027961023383 0)
(25.00881682815172 -0.05107603275615384 0)
(25.12701540655885 -0.3538699859956776 0)
(20.23347393150285 -0.8313924626931227 0)
(24.80000990460573 -0.4253729862161208 0)
(25.09037584565576 -0.2088856361457188 0)
(27.06434190231401 -0.6791701471844527 0)
(14.92668880417264 5.790610421215283 0)
(22.27221383930302 1.158001451813158 0)
(24.57808977579954 0.09379495722348889 0)
(31.78360613250808 0.1946026509501868 0)
(24.88668924074621 -0.1222175594658945 0)
(24.59133511451728 -0.1495970042790976 0)
(24.33958803840619 -0.0416549496016384 0)
(24.29841328708821 -0.009133824419042929 0)
(24.46786231902939 -1.616881997502997 0)
(22.24421330879852 -1.483203148387483 0)
(20.74229386520004 -0.4276766723378466 0)
(20.43232228696469 -0.2403747957163648 0)
(24.26265212379362 -6.878344998488713 0)
(18.27317575011512 -6.154619844907304 0)
(14.84568716108564 -1.910656498339678 0)
(14.10828798087142 -1.009053560567681 0)
(16.25852700524493 -12.93051995505729 0)
(9.104121761497872 -11.85351309916614 0)
(5.23420219173051 -4.246874978898189 0)
(4.071754456818685 -0.582101722892954 0)
(4.211970015366055 -0.3997332409060099 0)
(4.225084193282606 -0.2242767321327757 0)
(4.20655470355385 -0.06397579915324833 0)
(4.210012457160299 -0.002847891070169889 0)
(13.99386758878485 -0.8782592704679348 0)
(14.13932532554891 -0.3375112129439786 0)
(14.09490776140744 -0.08989976596828879 0)
(14.09148728113325 -0.006277642299599943 0)
(20.22487996254291 -0.2012361855558987 0)
(20.26672019864659 -0.05701579376646063 0)
(20.23501298055552 -0.02250896499328285 0)
(20.22316985070763 -0.002301971537844141 0)
(24.25104114644508 0.00382780229901661 0)
(24.26280386389557 0.009857095757491092 0)
(24.26128789384837 0.002026955628876951 0)
(24.25882256174597 2.175911029025279e-05 0)
(4.210012457162354 0.002847891082607807 0)
(14.09148728113122 0.006277642262535676 0)
(20.22316985070618 0.002301971590057899 0)
(24.25882256176313 -2.17591013004491e-05 0)
(4.206554703552484 0.06397579916961356 0)
(14.09490776142712 0.08989976598253273 0)
(20.23501298055282 0.02250896495323155 0)
(24.26128789384994 -0.002026955641304473 0)
(4.225084193279303 0.2242767321010289 0)
(14.13932532554821 0.337511213000052 0)
(20.26672019866712 0.05701579373898404 0)
(24.26280386390513 -0.009857095771141957 0)
(4.211970015367442 0.3997332408998913 0)
(13.99386758876608 0.8782592704623765 0)
(20.22487996255608 0.2012361855541377 0)
(24.25104114646435 -0.0038278023022041 0)
(24.29841328710095 0.00913382442481616 0)
(24.33958803841032 0.04165494960262656 0)
(24.59133511453653 0.1495970042628993 0)
(24.88668924078161 0.1222175594751774 0)
(20.4323222869887 0.2403747957181537 0)
(20.74229386519107 0.4276766723717877 0)
(22.24421330877007 1.483203148363069 0)
(24.46786231905067 1.616881997499881 0)
(14.10828798086125 1.009053560564843 0)
(14.84568716108184 1.910656498318654 0)
(18.27317575011892 6.154619844911105 0)
(24.26265212379641 6.878344998487165 0)
(4.071754456818256 0.5821017228936702 0)
(5.234202191730861 4.246874978908423 0)
(9.104121761495673 11.85351309916555 0)
(16.25852700524399 12.93051995505575 0)
(31.78360613250058 -0.1946026509532036 0)
(24.57808977579418 -0.09379495721435781 0)
(22.27221383930421 -1.158001451812481 0)
(14.92668880415944 -5.790610421212345 0)
(27.06434190231808 0.6791701471783027 0)
(25.09037584568257 0.2088856361213037 0)
(24.80000990460041 0.4253729862224432 0)
(20.23347393149929 0.8313924626944794 0)
(25.12701540656788 0.35386998598768 0)
(25.00881682818466 0.05107603276630811 0)
(24.80522216398815 0.001660279609019671 0)
(21.75826346670545 0.3087403272771029 0)
(25.00077629267564 0.08746283758260232 0)
(25.00049505076202 0.006012195901886253 0)
(24.94986325253872 -0.005722922640494851 0)
(23.28861361846598 -0.0967132782977264 0)
(10.12604304997075 -1.761924898192659 0)
(14.11660973570885 0.1513449315838542 0)
(14.18812154981267 0.006513399229953003 0)
(14.16095244303853 0.08832197691881444 0)
(0.8395443398902638 -4.774235529617986 0)
(6.008829615737682 0.01197949476772024 0)
(6.207238834516968 0.01568830551085244 0)
(6.202662715763005 0.1358213418602496 0)
(2.956054365598142 -6.249971171688531 0)
(3.090069485327568 -0.6270546756017323 0)
(3.317745348940214 0.01220282151026051 0)
(3.285193523467065 0.2461620151120637 0)
(0.8577588503383841 -6.812731309861559 0)
(1.597828160913728 -0.8463169037415528 0)
(1.770125760401487 -0.004757375913839014 0)
(1.749859751455798 0.04021498864998654 0)
(14.60242132139247 0.07024453700617697 0)
(14.68286873607725 0.1279810877142901 0)
(18.31150574783359 1.382663032185183 0)
(24.16649276267827 1.134479675837786 0)
(6.15332083771322 0.1218201959561455 0)
(6.539290431315162 0.2387868052927426 0)
(13.62471633404046 2.939630430870811 0)
(24.56377922718146 2.226165247463715 0)
(2.920826193792804 0.2301222677269276 0)
(3.170809943550524 0.2037681611121624 0)
(11.24887576783582 3.711112401566546 0)
(23.61072067055482 0.8100095975676497 0)
(1.386278497905862 0.05584501531502489 0)
(1.479004296991439 0.08888516011607872 0)
(6.638060655903165 4.278358334512806 0)
(18.28516108455527 9.08722293952107 0)
(24.98271092189657 -0.0278114222770661 0)
(24.96568580530468 -0.07049224095967299 0)
(24.95358163442351 -0.09460377143595396 0)
(24.93773520050541 -0.1327784961505468 0)
(24.14277431640014 -2.293125017913812 0)
(23.78667685068561 -3.25090829283325 0)
(23.62028262559235 -3.701053609441173 0)
(23.49458130704355 -4.227262511230082 0)
(19.87994697966519 -12.34120979857278 0)
(17.87299635946831 -10.92850784259028 0)
(17.5945138562949 -11.20624069270834 0)
(17.43378655511977 -11.51957575537624 0)
(25.54890396768939 -11.85301159035942 0)
(18.63395499728066 -8.936704784797968 0)
(18.37829847794869 -8.992591919630881 0)
(18.22990453269361 -9.157303879045177 0)