/*--------------------------------*- C++ -*----------------------------------*\
  =========                 |
  \\      /  F ield         | OpenFOAM: The Open Source CFD Toolbox
   \\    /   O peration     | Website:  https://openfoam.org
    \\  /    A nd           | Version:  11
     \\/     M anipulation  |
\*---------------------------------------------------------------------------*/
FoamFile
{
    format      ascii;
    class       volScalarField;
    location    "0.18";
    object      T;
}
// * * * * * * * * * * * * * * * * * * * * * * * * * * * * * * * * * * * * * //

dimensions      [0 0 0 1 0 0 0];

internalField   nonuniform List<scalar> 
880
(
500
500.000000004773
500.0005227067379
500.269980172985
500.0000000000001
500.0000000156685
500.0012414996143
500.6590871203584
500
500.0000001857355
500.0039412228375
501.5479158307462
500.0000000000001
499.9999998864579
500.0131983888919
503.159337642654
499.9999999995769
500.0000000012852
500.000000026349
500.0000057549124
500.0000001395817
500.0000021211102
500.0001176649084
500.0004460981617
500.0492873945789
500.0971328565072
500.2422628484669
500.0535080116836
507.6281808932488
512.8735585974262
517.2018118449495
519.2918419370301
500.0000643593096
500.0003216448901
500.0021466877185
500.0025461625718
500.0028517149184
500.0084398781391
500.0218376955081
500.0334904506383
500.6689301576861
501.1918253918367
501.8224711618474
502.4612988423946
521.6223160439079
524.424044456036
526.5005687414953
527.1283374471491
520.4544438893852
517.2530992498233
516.2768989559119
515.0103865867004
504.785983943031
505.901641963204
506.7932367971263
506.87501193869
500.1259480402612
500.2611674031911
500.4099200574807
500.5433193611156
500.0092984838431
500.0255925971466
500.0533628636696
500.0741378915806
500.0810268294557
500.0724842157184
500.0567627559743
500.0373247963242
500.6539216506965
500.6679235658524
500.6041157536061
500.5076532759514
506.7967426930248
506.30587241876
505.5338941930248
504.6782481827626
513.6903303902704
512.6585802278585
511.441397525562
509.9123391518056
508.5389794453103
503.8680386196879
500.3868707982157
500.0199029948175
506.7020253125072
502.9263368106567
500.2540754668886
500.0080086502066
510.5032836591624
501.9260820666003
500.1066732226195
500.0006730060366
537.2032975742444
502.0149419055005
500.036506607789
500.0004868753127
500.0014637791766
500.0406042451356
504.9000579834139
579.9396474551377
500.0056221277944
500.1150751512917
508.6164649073391
589.4173148966333
500.0162401276543
500.2742579300458
514.5294956294185
599.5015483724858
500.042909047833
500.6496817925515
522.3943402280273
607.4368421175901
615.1085377854897
531.9059879652617
501.2658524200437
500.0911887933044
621.4122684043077
542.8547322070667
502.380315083562
500.1825488150397
626.579089063452
554.6555021536061
504.0559836158882
500.3127839628099
627.8358278492133
565.6637496813973
506.7695367994099
500.5432404086065
500.8690110989291
510.315925549974
573.6938776512325
623.9974211253754
501.1746030699679
510.737522606278
563.666487373352
607.8425300314806
501.4462430400417
508.1308173150501
548.0564033390547
586.1432193851937
500.5491980196628
504.667443918274
528.606208485442
554.8003148007954
500.9243513870898
505.5536573449482
518.9354620219003
521.4065851370611
500.7995773585239
503.4790247906464
507.9927334581811
493.065622935989
500.3350634291421
502.4943974382145
507.6998257567148
495.9247981284691
500.0717643075944
501.7864562679055
510.3587650739545
537.0633190966806
537.2596963092237
508.3892080339874
500.4123136638958
499.9493950217671
529.7198679917456
505.5193420022921
499.5569247011683
499.9041479467896
522.5386280706565
502.2115084729698
499.1407246433283
499.9004528254256
508.8181229566051
497.6043160479443
498.803503050728
499.9413705676582
492.1301086030816
494.5962919133758
499.0821471975021
499.9775057967429
474.1609430996436
494.1797428926229
499.5462785694868
499.9933750102953
461.5506922145202
494.1360045014525
499.74416283806
499.9974054385729
462.47838988255
495.8604504333672
499.9282341193233
499.9990299390955
497.5715250079765
497.4661158043025
499.5397541148835
499.9872524978688
492.6852688389546
497.1188130759414
499.6204782238668
499.9900505199256
484.1586433534277
496.5624430987935
499.6939837319654
499.9926378319738
475.4970207770224
495.8488829735883
499.7196089347331
499.994250280826
462.4783898825473
495.8604504334468
499.9282341199957
499.9990299388219
461.5506922147383
494.1360045013692
499.7441628379205
499.9974054382733
474.1609430996476
494.1797428924212
499.546278568952
499.9933750099749
492.1301086029737
494.5962919129145
499.0821471974338
499.9775057966722
499.9493950219694
500.4123136642546
508.3892080342975
537.2596963089725
499.9041479467687
499.5569247013155
505.5193420024857
529.7198679915335
499.9004528255295
499.1407246433578
502.2115084725326
522.5386280702298
499.9413705677009
498.8035030510083
497.6043160475228
508.8181229564159
537.0633190969114
510.3587650742275
501.7864562677626
500.0717643077995
495.9247981286635
507.6998257567647
502.4943974382116
500.3350634291427
493.0656229357958
507.9927334583471
503.4790247906526
500.7995773587934
521.4065851370312
518.9354620215771
505.5536573442092
500.9243513876689
500.8690110984918
510.315925550929
573.6938776522466
623.9974211258284
501.1746030697294
510.7375226060886
563.6664873738691
607.8425300318431
501.4462430390046
508.1308173153224
548.0564033388405
586.1432193852229
500.5491980197028
504.667443917493
528.6062084854453
554.8003148008021
627.8358278494479
565.6637496816581
506.7695367984035
500.5432404096076
626.5790890640985
554.6555021537691
504.0559836165201
500.312783962412
621.4122684046454
542.8547322082538
502.3803150852626
500.1825488151353
615.1085377855205
531.9059879643422
501.2658524186389
500.0911887932233
500.0014637792274
500.040604245188
504.9000579831945
579.9396474552102
500.0056221283093
500.1150751519534
508.6164649071958
589.4173148964422
500.0162401282226
500.2742579302117
514.5294956295152
599.5015483723729
500.042909047672
500.6496817934694
522.3943402286089
607.4368421179199
500.0004868752794
500.0006730058978
500.0080086503962
500.0199029948932
500.0365066072872
500.1066732223438
500.2540754666663
500.3868707980067
502.0149419053746
501.9260820666774
502.9263368104371
503.8680386194457
537.2032975740842
510.5032836592415
506.7020253126178
508.5389794453131
500.0373247964838
500.5076532761221
504.6782481829924
509.9123391520504
500.0567627559253
500.6041157539325
505.5338941932569
511.4413975257363
500.0724842157583
500.667923566028
506.3058724185201
512.6585802272059
500.0810268292805
500.6539216506233
506.7967426932659
513.6903303903977
500.0092984836898
500.1259480401194
504.7859839432482
520.454443889688
500.0255925967029
500.2611674034799
505.9016419635599
517.2530992497065
500.053362863915
500.4099200572838
506.7932367969549
516.2768989555414
500.074137891442
500.5433193610679
506.8750119390059
515.0103865863829
527.1283374470985
502.4612988422165
500.0334904505972
500.0025461627342
526.500568741431
501.8224711619274
500.021837695358
500.002146687582
524.4240444561941
501.1918253919957
500.0084398774091
500.0003216445795
521.6223160438514
500.668930157407
500.0028517146885
500.0000643597261
519.2918419369374
500.0535080119426
500.0004460981884
500.0000057552892
517.2018118449564
500.2422628485568
500.0001176648177
500.0000000263717
512.8735585974601
500.0971328564719
500.0000021209324
500.0000000012163
507.6281808932486
500.0492873944165
500.0000001394753
499.9999999996918
500.0000000000001
500.0000000047831
500.0005227067741
500.2699801726672
500
500.0000000155491
500.0012414996049
500.6590871204004
500
500.0000001855427
500.0039412227744
501.5479158307203
500.0000000000001
499.9999998863294
500.013198388828
503.1593376425
500.6462207502964
501.4765200374264
503.2680677174619
508.9930012620998
501.4765200374523
502.6857971663142
506.6029534441149
516.7181939254535
503.2680677174307
506.6029534441063
514.9125484283285
529.6429731493198
508.9930012621955
516.7181939256013
529.6429731495037
547.8335444547614
567.7236479168876
552.6313960642663
544.0056741134688
530.465258001602
564.5472820011996
560.0192205329059
558.2381430754598
551.1294867093485
565.1434888392841
563.5308898992744
562.1028645525001
559.0055710870217
564.3549066812562
563.4642100250106
562.9519832766675
561.0976356346941
559.8687232589742
559.4805480724675
558.3195711637389
555.0608956415713
560.8697722133941
559.2086964639138
557.7094308133841
554.5769077955871
560.8560790003478
558.8650869963026
557.3424354507043
554.2273109303326
561.2768199842292
558.8193815814872
557.2503939769962
548.7466708777037
516.8308412720573
499.2287544079791
499.5829457863006
500.8398091933458
504.8515132897331
494.7399998376115
499.4564990038837
501.6616836339544
491.9602056414636
494.3253436523572
500.4260293165923
503.3470170952262
469.8597876527816
489.3282954103901
498.7830807155686
502.0000908204437
501.693784285786
502.5560194717783
503.1813929014913
503.5404988616385
502.7053548740138
503.5117422547673
503.9810946442917
504.1923522980213
504.2001572682047
504.6003717734338
504.7614467944408
504.7205286531966
503.2900306327868
504.460169243461
505.126335698924
504.9682019369683
503.3387345790485
504.1619447153099
542.3399527707068
603.0740359493202
503.8592598962337
505.2791467799193
556.0386669615513
610.8601122747348
504.3166665043178
507.0226947758381
566.9486574463091
613.5318340348282
504.5416672054797
507.9304851719288
576.1874511189172
619.3730661730249
660.5709889094867
654.3751353838355
652.1881388597373
649.6101791535555
668.1544184155962
659.8308353872824
654.7114741538882
650.5252196723585
672.501249544718
665.2713556940488
657.4334938265214
651.3728732620064
673.3771469425964
668.706054304987
659.9069227894421
652.3126336216712
650.5647886219064
654.4909254807175
656.2247427420729
656.2127358532671
650.7645540494659
653.4399882693867
654.722645322703
656.1331024421493
650.458664377573
651.6406650095674
652.1792825937625
654.7480427891617
651.0086874712323
651.6745072454913
651.3175557251308
653.9874514531432
650.412495831259
631.2702583817229
609.3828493818351
583.7203918870855
652.7292941884421
634.8467077434707
612.293074152338
613.0210087605446
652.5334616964018
638.3502554327649
622.7056994390172
641.5106377296152
651.8285968832495
643.2336604267672
639.8014400785665
628.560657736816
542.5180541015934
464.2635563733419
349.2393745370249
354.3877716850506
533.2158867154617
426.8644954843586
300.7702654717589
289.0783243115508
487.2089987266258
362.5933618136193
276.4723216068155
267.7211792253984
389.1532644737615
293.9762816108216
271.7370757151817
261.4638103285621
388.407960472161
419.0663911837214
442.2497804715028
445.3624648465035
329.2961156394579
374.5506289952125
411.0165518042835
431.5527047196649
299.4043427533206
343.9746521266184
386.8317810083073
424.9709722872781
292.8964352447559
339.4075914985965
388.099027164762
429.9755644427281
484.3592807989145
454.9171609816987
429.0518020157393
417.7681881069026
478.9202354980998
465.7053764815686
440.1034779880869
430.6324678757637
462.4141639176795
469.0510868663035
455.0461229897256
450.6384130901507
445.5422344117579
467.142348790886
465.9235741327698
477.5719745886161
395.6459568146497
401.8439454070953
420.8864461016614
420.6932453196563
400.5038940024068
399.0663917357858
401.4947104038037
394.8711098188817
407.4187189057237
408.0792162629129
404.684495725627
388.9096219883321
388.6406560173168
399.4917203062366
393.2243992366371
373.9446151985328
358.552032694448
351.4760408210033
349.2016359077025
347.8542499434656
370.639273428822
359.920870718125
356.1431391865998
354.3068677134993
382.6129192180904
377.1161121344227
375.2616571303998
374.4463522965892
410.6286701606383
403.5064339973885
398.3772282839194
395.7276164977075
347.8542499434533
354.3068677134946
374.4463522966446
395.727616497701
349.2016359076581
356.1431391865508
375.2616571304978
398.3772282840558
351.4760408209348
359.9208707180701
377.116112134501
403.5064339976501
358.5520326943317
370.639273428713
382.6129192181037
410.628670160748
420.6932453196044
420.8864461016308
401.8439454071232
395.6459568146814
394.8711098188815
401.4947104038856
399.066391735837
400.5038940023373
388.9096219882023
404.6844957255491
408.0792162629066
407.4187189057178
373.9446151984251
393.2243992365554
399.4917203061365
388.6406560172601
477.5719745886049
465.9235741328829
467.1423487910144
445.5422344122509
450.6384130901264
455.0461229898983
469.0510868664031
462.4141639180842
430.6324678757313
440.1034779882799
465.7053764817268
478.9202354982639
417.7681881069137
429.0518020159469
454.9171609817993
484.3592807987188
445.3624648469832
442.2497804719883
419.0663911842012
388.407960472245
431.5527047202914
411.0165518049862
374.5506289957728
329.2961156394184
424.9709722878957
386.8317810090286
343.9746521271315
299.4043427532564
429.9755644433603
388.0990271655332
339.4075914991955
292.8964352447649
354.3877716852809
349.2393745362742
464.2635563731088
542.5180541015463
289.0783243116497
300.7702654714647
426.8644954842638
533.2158867154816
267.7211792254292
276.4723216067072
362.5933618137878
487.2089987266779
261.4638103285989
271.7370757151122
293.9762816110064
389.153264473895
583.7203918871152
609.3828493820586
631.2702583818082
650.4124958312963
613.0210087606553
612.2930741524875
634.8467077434434
652.7292941883713
641.510637729587
622.7056994390637
638.3502554326706
652.5334616962778
628.5606577368216
639.8014400785441
643.2336604267199
651.8285968830648
656.2127358534059
656.2247427421835
654.4909254805715
650.5647886224463
656.1331024421992
654.7226453226277
653.4399882692801
650.764554049897
654.7480427891182
652.1792825936997
651.640665009602
650.4586643780588
653.9874514530627
651.3175557250365
651.6745072454582
651.0086874717888
649.6101791535563
652.1881388596046
654.3751353835665
660.5709889094758
650.525219672203
654.7114741536966
659.8308353869352
668.1544184154444
651.3728732616116
657.4334938262764
665.2713556936208
672.5012495444216
652.3126336212162
659.9069227891871
668.7060543044986
673.3771469422197
603.0740359490494
542.3399527705525
504.1619447154686
503.3387345791327
610.8601122744319
556.0386669613054
505.2791467800203
503.8592598963124
613.5318340345921
566.9486574460002
507.0226947758832
504.3166665043996
619.3730661726977
576.1874511185849
507.9304851719329
504.5416672055569
503.540498861973
503.1813929015709
502.5560194712178
501.6937842859319
504.1923522983109
503.9810946443839
503.5117422541549
502.7053548742459
504.7205286534455
504.761446794604
504.6003717728358
504.2001572685363
504.9682019372437
505.126335699011
504.4601692428924
503.290030633039
500.8398091929358
499.5829457859981
499.2287544079631
516.8308412724194
501.661683633284
499.4564990036592
494.7399998377227
504.8515132900661
503.3470170943414
500.4260293163935
494.3253436525978
491.9602056416546
502.0000908195593
498.7830807152766
489.3282954106944
469.8597876529792
555.0608956416945
558.3195711637505
559.4805480727765
559.8687232590913
554.5769077956151
557.7094308133675
559.2086964642625
560.8697722135223
554.2273109302333
557.3424354506395
558.8650869966621
560.8560790004989
548.74667087751
557.2503939769833
558.8193815818697
561.2768199843675
561.0976356343845
559.0055710869917
551.1294867095216
530.4652580017898
562.951983276331
562.1028645524565
558.2381430755399
544.0056741135251
563.4642100247626
563.5308898990842
560.019220532851
552.6313960642092
564.3549066810764
565.1434888390804
564.5472820010475
567.7236479167082
458.7144266329274
495.5639359284427
499.8181008462051
499.9980383060373
455.2060774976496
494.4673747668498
499.7497932578673
499.9969333205186
460.7240976985366
494.5303875996806
499.7386146012233
499.9964025590307
468.0003550622496
495.1046851748048
499.7298001471652
499.9955453230193
499.9872524980364
499.5397541145334
497.4661158042725
497.5715250079896
499.9900505198426
499.6204782236302
497.1188130758777
492.6852688391546
499.992637832197
499.6939837319819
496.5624430986447
484.1586433538673
499.9942502808967
499.71960893487
495.8488829734665
475.4970207770652
499.9955453228181
499.9964025589327
499.9969333206682
499.9980383060658
499.7298001470796
499.7386146010617
499.7497932575129
499.818100846087
495.1046851747577
494.5303875996547
494.4673747670553
495.5639359286831
468.0003550619999
460.724097698216
455.2060774974166
458.7144266327507
)
;

boundaryField
{
    back
    {
        type            empty;
    }
    inlet
    {
        type            zeroGradient;
    }
    front
    {
        type            empty;
    }
    top
    {
        type            zeroGradient;
    }
    outlet
    {
        type            fixedValue;
        value           uniform 500;
    }
    bottom
    {
        type            zeroGradient;
    }
    wall
    {
        type            zeroGradient;
    }
}


// ************************************************************************* //
