/*--------------------------------*- C++ -*----------------------------------*\
  =========                 |
  \\      /  F ield         | OpenFOAM: The Open Source CFD Toolbox
   \\    /   O peration     | Website:  https://openfoam.org
    \\  /    A nd           | Version:  11
     \\/     M anipulation  |
\*---------------------------------------------------------------------------*/
FoamFile
{
    format      ascii;
    class       volScalarField;
    location    "0.005";
    object      rho;
}
// * * * * * * * * * * * * * * * * * * * * * * * * * * * * * * * * * * * * * //

dimensions      [0 0 0 0 0 0 0];

internalField   nonuniform List<scalar> 
880
(
0.2239950333699092
0.2239950333699093
0.2239950333699093
0.2239950333699092
0.2239950333699093
0.2239950333699093
0.2239950333699093
0.2239950333699052
0.2239950333699093
0.2239950333699093
0.2239950333699093
0.2239950333693237
0.2239950333699091
0.2239950333699093
0.2239950333699093
0.2239950333746552
0.2239950333699093
0.2239950333699093
0.2239950333699092
0.2239950333699093
0.2239950333699093
0.2239950333699093
0.2239950333699093
0.2239950333699093
0.2239950333700066
0.2239950333699923
0.2239950333699801
0.2239950333699548
0.2239950383154243
0.2239950392382191
0.2239950386692439
0.2239950381695122
0.2239950333699092
0.2239950333699094
0.2239950333699093
0.2239950333699092
0.2239950333699094
0.2239950333699093
0.2239950333699093
0.2239950333699092
0.223995033370241
0.2239950333702421
0.2239950333702601
0.2239950333701308
0.2239950375193381
0.2239950375917706
0.2239950376557575
0.223995036698599
0.2239950513137926
0.2239950365259672
0.223995033415735
0.2239950333699277
0.2239950333727418
0.22399503337047
0.2239950333699203
0.2239950333699093
0.2239950333699093
0.2239950333699092
0.2239950333699093
0.2239950333699093
0.2239950333699092
0.2239950333699093
0.2239950333699092
0.2239950333699092
0.2239950333699093
0.2239950333699093
0.2239950333699092
0.2239950333699093
0.2239950333699093
0.2239950333699092
0.2239950333699092
0.2239950333699092
0.2239950333699093
0.2239950333699093
0.2239950333699093
0.2239950333699093
0.2239950333699093
0.2239950333699094
0.2239950333699093
0.2239950333699093
0.2239950333699091
0.2239950333699093
0.2239950333699093
0.2239950333699092
0.2239950333699093
0.2239950333699093
0.2239950333699093
0.2239950333699092
0.2239950333703676
0.2239950333699092
0.2239950333699093
0.2239950333699092
0.2239950310014152
0.2239950333696029
0.2239950333699093
0.2239950333699093
0.2239950333699093
0.2239950333699092
0.2239950333699446
0.2239950339021678
0.2239950333699093
0.2239950333699093
0.2239950333699536
0.2239950339842682
0.2239950333699092
0.2239950333699093
0.2239950333699626
0.2239950340145574
0.2239950333699093
0.2239950333699093
0.223995033369973
0.2239950340465607
0.2239950340818137
0.2239950333699762
0.2239950333699093
0.2239950333699093
0.2239950341208677
0.2239950333699884
0.2239950333699093
0.2239950333699092
0.2239950341644335
0.2239950333700073
0.2239950333699093
0.2239950333699092
0.2239950342188986
0.2239950333700326
0.2239950333699092
0.2239950333699092
0.2239950333699093
0.2239950333699093
0.2239950333700922
0.2239950346758535
0.2239950333699092
0.2239950333699093
0.2239950333701093
0.2239950345984007
0.2239950333699093
0.2239950333699092
0.2239950333701261
0.2239950345998596
0.2239950333699093
0.2239950333699456
0.2239950333607932
0.2239950392033932
0.2239950333699093
0.2239950333708665
0.2239950394505723
0.2239968130596529
0.2239950333699092
0.2239950333708718
0.2239950423937577
0.2239965531413457
0.2239950333699093
0.223995033370545
0.2239950406056519
0.2239962981614165
0.2239950333699093
0.2239950333703052
0.2239950390105847
0.2239962447006666
0.223999007163811
0.2239950361280802
0.2239950333705439
0.2239950333699093
0.2239992359590365
0.2239950358925216
0.2239950333704365
0.2239950333699093
0.2239989802957919
0.223995035467976
0.2239950333703104
0.2239950333699092
0.2239981628080598
0.2239950363797317
0.2239950333702373
0.2239950333699093
0.223995178341588
0.2239950334127888
0.2239950333699093
0.2239950333699092
0.2239950338842425
0.2239950333699124
0.2239950333699093
0.2239950333699093
0.2239950329362472
0.223995033369779
0.2239950333699093
0.2239950333699093
0.2239950245506899
0.2239950333668226
0.2239950333699092
0.2239950333699093
0.2239951622693475
0.2239950334433852
0.2239950333699211
0.2239950333699092
0.2239951622595057
0.223995033443381
0.2239950333699219
0.2239950333699093
0.2239951611411991
0.2239950334429082
0.2239950333699309
0.2239950333699093
0.2239951446413851
0.223995033436166
0.2239950333699199
0.2239950333699093
0.2239950245506916
0.2239950333668141
0.2239950333699092
0.2239950333699092
0.2239950329362528
0.2239950333697688
0.2239950333699093
0.2239950333699093
0.22399503388422
0.2239950333699056
0.2239950333699093
0.2239950333699093
0.2239951783416216
0.2239950334127748
0.2239950333699111
0.2239950333699093
0.2239950333699093
0.2239950333705464
0.2239950361280948
0.2239990071638107
0.2239950333699093
0.2239950333704375
0.2239950358925481
0.2239992359590394
0.2239950333699093
0.2239950333703062
0.2239950354679549
0.223998980295756
0.2239950333699093
0.2239950333702504
0.2239950363797382
0.2239981628080615
0.223996244700684
0.2239950390105787
0.2239950333703008
0.2239950333699093
0.2239962981614275
0.2239950406056523
0.2239950333705527
0.2239950333699092
0.2239965531413479
0.2239950423937627
0.2239950333708682
0.2239950333699093
0.2239968130596527
0.2239950394505533
0.2239950333708546
0.2239950333699093
0.2239950333699093
0.2239950333699093
0.2239950333701063
0.2239950346758304
0.2239950333699093
0.2239950333699093
0.2239950333701148
0.2239950345984214
0.2239950333699092
0.2239950333699093
0.2239950333701259
0.2239950345998516
0.2239950333699093
0.2239950333699439
0.2239950333607927
0.2239950392033933
0.2239950342188962
0.2239950333700218
0.2239950333699093
0.2239950333699093
0.2239950341644343
0.2239950333700102
0.2239950333699093
0.2239950333699092
0.2239950341208614
0.2239950333699882
0.2239950333699093
0.2239950333699092
0.2239950340818058
0.2239950333699809
0.2239950333699093
0.2239950333699093
0.2239950333699093
0.2239950333699093
0.2239950333699424
0.2239950339021592
0.2239950333699093
0.2239950333699093
0.2239950333699516
0.2239950339842701
0.2239950333699093
0.2239950333699093
0.223995033369963
0.2239950340145484
0.2239950333699093
0.2239950333699092
0.2239950333699728
0.2239950340465518
0.2239950333699093
0.2239950333699092
0.2239950333699093
0.2239950333699092
0.2239950333699092
0.2239950333699092
0.2239950333699092
0.2239950333699093
0.2239950333695978
0.2239950333699093
0.2239950333699092
0.2239950333699092
0.2239950310014084
0.2239950333703676
0.2239950333699093
0.2239950333699091
0.2239950333699092
0.2239950333699092
0.2239950333699093
0.2239950333699093
0.2239950333699092
0.2239950333699092
0.2239950333699093
0.2239950333699093
0.2239950333699093
0.2239950333699093
0.2239950333699093
0.2239950333699093
0.2239950333699092
0.2239950333699093
0.2239950333699093
0.2239950333699093
0.2239950333699093
0.2239950333699092
0.2239950333727426
0.2239950513138089
0.2239950333699093
0.2239950333699093
0.2239950333704745
0.2239950365259742
0.2239950333699092
0.2239950333699093
0.2239950333699151
0.2239950334157248
0.2239950333699092
0.2239950333699093
0.2239950333699093
0.223995033369925
0.2239950366985935
0.2239950333701248
0.2239950333699093
0.2239950333699093
0.2239950376557465
0.2239950333702698
0.2239950333699092
0.2239950333699093
0.2239950375917769
0.2239950333702484
0.2239950333699093
0.2239950333699092
0.2239950375193224
0.2239950333702346
0.2239950333699093
0.2239950333699093
0.2239950381695076
0.2239950333699589
0.2239950333699093
0.2239950333699093
0.2239950386692395
0.2239950333699783
0.2239950333699093
0.2239950333699093
0.2239950392382105
0.2239950333699906
0.2239950333699093
0.2239950333699092
0.2239950383154154
0.2239950333700014
0.2239950333699093
0.2239950333699093
0.2239950333699092
0.2239950333699093
0.2239950333699093
0.2239950333699093
0.2239950333699093
0.2239950333699093
0.2239950333699092
0.2239950333699052
0.2239950333699093
0.2239950333699093
0.2239950333699093
0.2239950333693264
0.2239950333699093
0.2239950333699092
0.2239950333699093
0.2239950333746428
0.2239950333695747
0.2239950333621154
0.2239950332771423
0.2239950370525497
0.2239950333621262
0.2239950335156826
0.2239950538962668
0.2239958557346899
0.2239950332771494
0.2239950538962702
0.2239993712944535
0.2241600319359073
0.2239950370525683
0.223995855734686
0.2241600319359156
0.2296856378523195
0.2635313441363051
0.2305266475213079
0.2243149501516806
0.22399683329397
0.2689923389324326
0.2322426928019622
0.22441902336485
0.2239974821214322
0.2690852407517457
0.2322552208063393
0.2244192986618705
0.2239974805588169
0.2690958397098869
0.2322458794297247
0.2244169474793703
0.2239974584436799
0.2239972992706072
0.2239973115464811
0.2239973117201017
0.223996976614779
0.2244595952845464
0.224463374410574
0.2244633949750142
0.2244561193142478
0.2326517027937109
0.2326845436755024
0.2326851495512141
0.2331889346897029
0.2706276526395496
0.2708276326288869
0.2708323457260435
0.2751166042574457
0.224000470581595
0.2239957711967188
0.2239950395908327
0.2239950333684564
0.2241636959576865
0.2240004427193908
0.2239950434615413
0.2239950330597648
0.2246268162010354
0.2240004196117318
0.2239949594326754
0.2239950320983592
0.2249549121798076
0.2239939769165293
0.2239944882666045
0.223995016990625
0.223995033369468
0.2239950333698996
0.2239950333699093
0.2239950333699092
0.2239950333639013
0.2239950333699044
0.2239950333699093
0.2239950333699092
0.2239950333702364
0.2239950333699351
0.2239950333699093
0.2239950333699092
0.223995033350517
0.223995033370048
0.2239950333699232
0.2239950333699092
0.2239950333699092
0.2239950333699092
0.2239950333699093
0.2239941636489337
0.2239950333699092
0.2239950333699092
0.2239950333699093
0.2238677959368356
0.2239950333699092
0.2239950333699092
0.2239950333699093
0.221796788188904
0.2239950333699092
0.2239950333699092
0.2239950333699093
0.2137327936349984
0.2239954918378598
0.2239955411664146
0.2239955423358661
0.2239955424269983
0.2244123445948889
0.2244458293018207
0.224446263350682
0.2244462611794808
0.2428501566629821
0.2435720844183888
0.2435639252056593
0.243563360003261
0.3511202734164315
0.3534728037702259
0.3533093084546193
0.3533049389066236
0.2239955425182525
0.2239955426242333
0.2239955427447053
0.2239955492268149
0.2244462609364277
0.2244462609395093
0.224446260945505
0.224449853600755
0.2435633708540948
0.2435633710641114
0.243563371143153
0.2435685583443653
0.3533050295627368
0.3533050349874501
0.3533050350426728
0.3532972217087363
0.2239956336940754
0.2239955545807592
0.2239955068513434
0.2239939487523562
0.2243635450978535
0.2243305587316016
0.2243011608990476
0.2242039576385071
0.2419582957650213
0.2412122882907104
0.2403482289486804
0.2396171594618946
0.3471219850263551
0.3447217356146319
0.3419500796989364
0.3639060721771284
0.2239834785354637
0.2239310073550946
0.2239237570004064
0.2239311529685222
0.2209355640843326
0.2184227574198782
0.2182646108504876
0.2182980798742823
0.1829332746836214
0.1680291855856597
0.167590059325744
0.1675396915906494
0.0977958455153197
0.06733923514188328
0.06686510906284171
0.06666212055441376
0.2240777673904744
0.2240940874209187
0.2240919423354024
0.223963626186101
0.2183800241248842
0.2184183920952143
0.2183641402935252
0.2145228343812994
0.1622820672242017
0.1621546874662075
0.1621920236729753
0.1497952934730142
0.0643605647362798
0.06422400338810311
0.06450735794334876
0.05723611322691542
0.2240128201678031
0.2239955651851978
0.2239949170173406
0.2239930052232802
0.2239409558666774
0.2239977693987854
0.2239901989223487
0.2239443236749873
0.2222903973685067
0.2239991190514038
0.2239234771376227
0.2235140635507091
0.2128746023681898
0.2238609069154666
0.2236816329922058
0.2252894200358229
0.2240023337477591
0.2240052425271599
0.2240050003254999
0.2240105594124898
0.2239855874221609
0.2239994847683299
0.2239974298271311
0.2240241497410719
0.2174630372266005
0.2171607935082953
0.216760262894806
0.2167508188795275
0.146008854991908
0.131402904549412
0.1269290348491419
0.1257249134151697
0.1207403739622695
0.1199519438519841
0.1197531161502139
0.11974147775372
0.2159636855975569
0.2159722893262373
0.215953777710908
0.2159509700339721
0.2241575872165831
0.2242175735360419
0.224222227359723
0.224222251671864
0.224045897202618
0.2240576241361959
0.2240584517824501
0.2240584581504909
0.1197414777537199
0.2159509700339624
0.2242222516718516
0.2240584581504909
0.1197531161502164
0.2159537777109297
0.2242222273597222
0.2240584517824679
0.1199519438520002
0.2159722893262585
0.2242175735360433
0.2240576241362074
0.1207403739622894
0.2159636855975524
0.2241575872165705
0.224045897202635
0.224010559412503
0.2240050003255169
0.2240052425271714
0.224002333747758
0.2240241497410626
0.2239974298271286
0.2239994847683243
0.2239855874221561
0.2167508188795403
0.2167602628947939
0.2171607935083044
0.2174630372266014
0.1257249134151847
0.1269290348491452
0.1314029045494232
0.1460088549919112
0.2252894200358299
0.2236816329922166
0.2238609069154677
0.2128746023681592
0.2235140635507103
0.2239234771376259
0.2239991190514039
0.2222903973684884
0.2239443236749882
0.223990198922361
0.2239977693987836
0.223940955866669
0.2239930052232807
0.2239949170173418
0.2239955651851785
0.2240128201678242
0.2239636261861037
0.224091942335408
0.2240940874209265
0.2240777673904783
0.2145228343813103
0.2183641402935637
0.2184183920952476
0.2183800241248761
0.1497952934729979
0.1621920236730078
0.1621546874661915
0.1622820672241886
0.05723611322689191
0.06450735794336993
0.06422400338810168
0.06436056473627566
0.223931152968511
0.2239237570004022
0.2239310073551057
0.2239834785354621
0.2182980798742614
0.2182646108504858
0.2184227574198917
0.2209355640843257
0.1675396915906184
0.1675900593257242
0.1680291855857115
0.1829332746836284
0.06666212055438868
0.0668651090628406
0.06733923514189802
0.09779584551534863
0.2239939487523422
0.2239955068513207
0.2239955545807491
0.223995633694079
0.2242039576385106
0.224301160899044
0.2243305587316126
0.2243635450978444
0.2396171594618905
0.2403482289486708
0.2412122882907059
0.2419582957650421
0.363906072177146
0.3419500796989389
0.3447217356146057
0.3471219850263692
0.2239955492267942
0.2239955427446975
0.2239955426242166
0.2239955425182681
0.2244498536007627
0.2244462609455234
0.2244462609395241
0.2244462609364258
0.2435685583443719
0.2435633711431586
0.2435633710640982
0.2435633708540914
0.3532972217087287
0.3533050350426824
0.3533050349874232
0.3533050295627373
0.2239955424270006
0.2239955423358552
0.2239955411664096
0.2239954918378556
0.2244462611794583
0.2244462633507009
0.2244458293018234
0.2244123445948764
0.2435633600032687
0.2435639252056614
0.2435720844183956
0.2428501566629957
0.3533049389066018
0.3533093084546426
0.3534728037702283
0.3511202734164321
0.223994163648933
0.2239950333699093
0.2239950333699092
0.2239950333699092
0.2238677959368356
0.2239950333699093
0.2239950333699092
0.2239950333699092
0.2217967881889062
0.2239950333699093
0.2239950333699092
0.2239950333699092
0.2137327936350128
0.2239950333699093
0.2239950333699092
0.2239950333699092
0.2239950333699092
0.2239950333699092
0.2239950333698996
0.2239950333694715
0.2239950333699092
0.2239950333699092
0.2239950333699044
0.2239950333639016
0.2239950333699092
0.2239950333699092
0.2239950333699351
0.223995033370238
0.2239950333699092
0.2239950333699232
0.223995033370048
0.2239950333505263
0.2239950333684564
0.2239950395908306
0.2239957711967195
0.2240004705815973
0.2239950330597648
0.2239950434615413
0.2240004427193908
0.2241636959576873
0.2239950320983592
0.2239949594326754
0.2240004196117318
0.2246268162010362
0.2239950169906252
0.2239944882666045
0.2239939769165293
0.2249549121798071
0.2239969766147835
0.2239973117201042
0.2239973115464795
0.2239972992705989
0.2244561193142425
0.2244633949750273
0.2244633744105758
0.224459595284535
0.2331889346896923
0.2326851495512354
0.2326845436755182
0.2326517027937089
0.2751166042574352
0.2708323457260674
0.2708276326289099
0.2706276526395454
0.223997458443689
0.2239974805588252
0.2239974821214472
0.2239968332939587
0.2244169474793843
0.224419298661872
0.224419023364823
0.2243149501516649
0.2322458794296934
0.2322552208062818
0.2322426928019312
0.2305266475212283
0.2690958397098276
0.2690852407515912
0.2689923389323246
0.2635313441361637
0.2239950784747444
0.2239950334012319
0.22399503336991
0.2239950333699093
0.2239950889269448
0.2239950334052793
0.2239950333699214
0.2239950333699093
0.2239950879167782
0.2239950334046626
0.2239950333699118
0.2239950333699092
0.2239951027451468
0.2239950334103233
0.2239950333699151
0.2239950333699093
0.2239950333699093
0.2239950333699209
0.2239950334433855
0.2239951622693547
0.2239950333699093
0.2239950333699291
0.2239950334433858
0.2239951622595113
0.2239950333699092
0.2239950333699214
0.2239950334429059
0.2239951611411745
0.2239950333699093
0.2239950333699194
0.2239950334361766
0.2239951446413735
0.2239950333699092
0.2239950333699093
0.2239950333699093
0.2239950333699093
0.2239950333699128
0.2239950333699118
0.2239950333699219
0.2239950333699151
0.2239950334103214
0.223995033404657
0.2239950334052944
0.2239950334012242
0.2239951027451375
0.2239950879167713
0.223995088926966
0.2239950784747458
)
;

boundaryField
{
    back
    {
        type            empty;
    }
    inlet
    {
        type            calculated;
        value           nonuniform List<scalar> 
16
(
0.2239950333699092
0.2239950333699093
0.2239950333699093
0.2239950333699091
0.2239950333699093
0.2239950333699093
0.2239950333699092
0.2239950333699093
0.2239950333699093
0.2239950333699093
0.2239950333699092
0.2239950333699093
0.2239950333699092
0.2239950333699093
0.2239950333699093
0.2239950333699093
)
;
    }
    front
    {
        type            empty;
    }
    top
    {
        type            calculated;
        value           nonuniform List<scalar> 
40
(
0.2239950333699092
0.2239950333699094
0.2239950333699093
0.2239950333699092
0.2239950333699092
0.2239950333699093
0.2239950333699092
0.2239950333699092
0.2239950333699093
0.2239950333699093
0.2239950333699092
0.2239950333699093
0.2239950333699092
0.2239950333699092
0.2239950333699092
0.2239950333699093
0.2239950333699093
0.2239950333699093
0.2239950333699092
0.2239950333699093
0.2239950333699093
0.2239950333699092
0.2239950333699092
0.2239950333699092
0.2239950333699093
0.2239950333699092
0.2239950333699093
0.2239950333699093
0.2239950333699093
0.2239950333699092
0.2239950333699093
0.2239950333699093
0.2239950333699093
0.2239950333699093
0.2239950333699092
0.2239950333699093
0.2239950333699092
0.2239950333699093
0.2239950333699093
0.2239950333699093
)
;
    }
    outlet
    {
        type            calculated;
        value           uniform 0.2239950333699093;
    }
    bottom
    {
        type            calculated;
        value           nonuniform List<scalar> 
40
(
0.2239950333699092
0.2239950333699093
0.2239950333699093
0.2239950333699093
0.2239950333699093
0.2239950333699093
0.2239950333699093
0.2239950333699093
0.2239950333699093
0.2239950333699092
0.2239950333699093
0.2239950333699093
0.2239950333699093
0.2239950333699093
0.2239950333699092
0.2239950333699093
0.2239950333699093
0.2239950333699092
0.2239950333699092
0.2239950333699093
0.2239950333699093
0.2239950333699093
0.2239950333699093
0.2239950333699093
0.2239950333699093
0.2239950333699092
0.2239950333699093
0.2239950333699092
0.2239950333699092
0.2239950333699092
0.2239950333699093
0.2239950333699092
0.2239950333699093
0.2239950333699093
0.2239950333699092
0.2239950333699092
0.2239950333699093
0.2239950333699093
0.2239950333699092
0.2239950333699093
)
;
    }
    wall
    {
        type            calculated;
        value           nonuniform List<scalar> 
104
(
0.2635313441363051
0.2689923389324326
0.2690852407517457
0.2690958397098869
0.2706276526395496
0.2708276326288869
0.2708323457260435
0.2751166042574457
0.2249549121798076
0.2239939769165293
0.2239944882666045
0.223995016990625
0.223995033350517
0.2239950333700479
0.2239950333699232
0.2239950333699092
0.2239950333699092
0.2239950333699092
0.2239950333699093
0.2137327936349984
0.3511202734164315
0.3534728037702259
0.3533093084546193
0.3533049389066236
0.3533050295627368
0.3533050349874501
0.3533050350426728
0.3532972217087363
0.3471219850263551
0.3447217356146319
0.3419500796989364
0.3639060721771284
0.0977958455153197
0.06733923514188328
0.06686510906284171
0.06666212055441376
0.0643605647362798
0.06422400338810311
0.06450735794334876
0.05723611322691542
0.2128746023681898
0.2238609069154666
0.2236816329922058
0.2252894200358229
0.146008854991908
0.131402904549412
0.1269290348491419
0.1257249134151697
0.1207403739622695
0.1199519438519841
0.1197531161502139
0.11974147775372
0.1197414777537199
0.1197531161502164
0.1199519438520002
0.1207403739622894
0.1257249134151847
0.1269290348491452
0.1314029045494232
0.1460088549919112
0.2252894200358299
0.2236816329922167
0.2238609069154677
0.2128746023681592
0.05723611322689191
0.06450735794336993
0.06422400338810168
0.06436056473627566
0.06666212055438868
0.0668651090628406
0.06733923514189802
0.09779584551534863
0.363906072177146
0.3419500796989389
0.3447217356146057
0.3471219850263692
0.3532972217087287
0.3533050350426824
0.3533050349874232
0.3533050295627373
0.3533049389066018
0.3533093084546426
0.3534728037702283
0.3511202734164321
0.2137327936350128
0.2239950333699093
0.2239950333699092
0.2239950333699092
0.2239950333699092
0.2239950333699232
0.223995033370048
0.2239950333505263
0.2239950169906251
0.2239944882666045
0.2239939769165293
0.2249549121798071
0.2751166042574352
0.2708323457260674
0.2708276326289099
0.2706276526395454
0.2690958397098276
0.2690852407515912
0.2689923389323246
0.2635313441361637
)
;
    }
}


// ************************************************************************* //
