/*--------------------------------*- C++ -*----------------------------------*\
  =========                 |
  \\      /  F ield         | OpenFOAM: The Open Source CFD Toolbox
   \\    /   O peration     | Website:  https://openfoam.org
    \\  /    A nd           | Version:  11
     \\/     M anipulation  |
\*---------------------------------------------------------------------------*/
FoamFile
{
    format      ascii;
    class       volVectorField;
    location    "11";
    object      U;
}
// * * * * * * * * * * * * * * * * * * * * * * * * * * * * * * * * * * * * * //

dimensions      [0 1 -1 0 0 0 0];

internalField   nonuniform List<vector> 
4455
(
(9.9985083 0.0031295599 0)
(9.9891196 0.0037864233 -1.4634625e-19)
(9.9693984 0.01051007 5.0233182e-19)
(9.9424911 0.0076816183 1.0103545e-21)
(9.8942934 0.019903299 4.7125323e-19)
(9.8453163 0.014949415 -1.7712838e-18)
(9.7531649 0.040480824 7.8683149e-19)
(9.6612171 0.017929037 0)
(9.5118434 0.073590926 -4.727692e-18)
(10.000727 0.0067146479 -9.5663526e-19)
(9.9906733 0.013505051 9.3198913e-19)
(9.96837 0.024334693 -1.145577e-18)
(9.9406783 0.024079205 1.9065861e-18)
(9.8903764 0.035959829 -3.6504638e-18)
(9.83732 0.027518198 3.9739254e-18)
(9.7347068 0.040831909 -3.7688678e-19)
(9.6460356 0.014979803 5.5004169e-19)
(9.4684492 -0.0027717627 2.0510874e-17)
(10.001373 0.01053908 -1.0014319e-18)
(9.9922847 0.022801751 1.264778e-18)
(9.9685851 0.039205327 1.1211161e-18)
(9.9403533 0.042086406 -1.1145393e-18)
(9.8885566 0.059116684 4.8705664e-18)
(9.8342753 0.053817208 -2.7382508e-18)
(9.7332858 0.074804932 3.5380956e-19)
(9.625192 0.020441205 -7.7417855e-18)
(9.4510351 0.061396811 -1.4498476e-17)
(10.001979 0.01404171 2.4091522e-21)
(9.9937553 0.03052529 -1.4023486e-19)
(9.9696676 0.054257443 2.6616053e-18)
(9.9403009 0.058929197 3.6310172e-19)
(9.8916101 0.084728708 4.8851833e-23)
(9.8301238 0.07698509 -5.2686061e-19)
(9.7252025 0.11967651 5.8111924e-18)
(9.6065397 0.047736008 1.5477271e-17)
(9.4119447 0.11111884 1.2027627e-17)
(10.004393 0.018380363 1.9370102e-18)
(9.9944995 0.036253836 -2.1657018e-18)
(9.9722741 0.068513532 2.7556716e-18)
(9.9410866 0.075220718 1.1229029e-21)
(9.8952181 0.10986127 -3.340629e-18)
(9.8298621 0.099943091 -1.0206222e-18)
(9.7186902 0.14375887 -4.5799753e-18)
(9.5895863 0.067334296 -7.2815383e-18)
(9.3652177 0.1468931 -3.5478945e-17)
(10.005386 0.020492237 0)
(9.9967313 0.042987536 0)
(9.9751408 0.079961511 -4.8034701e-18)
(9.9441094 0.091586152 -5.5185377e-18)
(9.900771 0.13301422 0)
(9.8328991 0.13141971 -7.3913892e-18)
(9.7120671 0.18651728 -6.2480113e-19)
(9.5644783 0.10253003 -4.3305824e-19)
(9.3181888 0.19773968 4.3793032e-17)
(10.008522 0.022958851 0)
(9.9965651 0.047000016 -1.3033174e-19)
(9.9799776 0.091471751 1.4669394e-19)
(9.9479697 0.10511627 5.3938223e-18)
(9.9058656 0.15183408 -3.9606513e-19)
(9.8364591 0.15108732 1.5742091e-17)
(9.7161946 0.21372858 0)
(9.5509865 0.1302889 0)
(9.2633941 0.25755798 2.0066212e-17)
(10.010251 0.023887918 3.6686181e-18)
(9.9989109 0.050897011 0)
(9.9825331 0.099745726 0)
(9.9558762 0.12197267 0)
(9.914879 0.17554258 0)
(9.8417211 0.18362615 -7.8593968e-18)
(9.7111108 0.25656867 -8.3864135e-18)
(9.532318 0.17180346 1.2016022e-17)
(9.2139021 0.31819761 1.1605543e-19)
(10.012334 0.024413172 -3.6124878e-18)
(10.000662 0.052817842 -1.2551387e-19)
(9.9866822 0.10485425 -1.4151445e-19)
(9.9596773 0.12933133 3.2093253e-19)
(9.9253391 0.18889669 1.2338925e-17)
(9.8523833 0.20074534 1.3871006e-17)
(9.7230163 0.28635462 2.6723719e-17)
(9.517051 0.20953995 -1.1802199e-17)
(9.1551257 0.39076084 -3.4573993e-17)
(10.013118 0.023858299 0)
(10.014115 0.02291514 6.7200732e-18)
(10.014042 0.021406882 -6.6655308e-18)
(10.013412 0.019068872 6.3910139e-18)
(10.013163 0.016520815 -6.2468563e-18)
(10.011274 0.01312544 1.2481511e-17)
(10.009995 0.010258396 -1.2117084e-17)
(10.007718 0.0058864011 0)
(10.003583 0.0022880628 0)
(10.003693 0.055284433 0)
(10.005332 0.054749453 1.1624572e-19)
(10.00852 0.053763326 0)
(10.009979 0.05166201 3.3073464e-19)
(10.0121 0.048932624 6.7569445e-18)
(10.014802 0.044791375 -2.0187862e-17)
(10.014786 0.040071381 1.3071301e-17)
(10.018959 0.035007056 -1.9930458e-19)
(10.015598 0.023412965 1.2633339e-17)
(9.9919197 0.11228536 8.4281961e-18)
(9.9972818 0.11676642 -1.66121e-17)
(10.002755 0.11894736 1.5869045e-17)
(10.00979 0.11823746 -4.9525291e-19)
(10.013579 0.11582316 -7.4929726e-18)
(10.022189 0.11256365 -2.2781575e-19)
(10.024076 0.10505902 0)
(10.033945 0.099921045 4.3105144e-19)
(10.033322 0.082010748 -2.0982565e-19)
(9.9687248 0.14292416 8.7823177e-18)
(9.9774702 0.15333132 -1.7843993e-17)
(9.9857645 0.16064444 1.6985806e-17)
(9.9981157 0.16616231 -8.2321937e-18)
(10.005344 0.16684386 -5.1521064e-19)
(10.01958 0.16951032 2.4899834e-19)
(10.026188 0.16463387 0)
(10.042963 0.16355127 -2.346375e-19)
(10.045201 0.14736925 1.4141704e-17)
(9.9327726 0.21027437 -9.9090689e-18)
(9.9501374 0.23014586 0)
(9.9575445 0.24464529 -9.1783802e-18)
(9.9775507 0.25930366 9.4645034e-18)
(9.9861233 0.26676987 -8.5538026e-18)
(10.007747 0.27671246 8.8393835e-18)
(10.017607 0.27741957 0)
(10.041223 0.28399831 0)
(10.048553 0.26946965 5.0023169e-19)
(9.8585281 0.22971005 -1.2101001e-17)
(9.876237 0.26259153 -1.1578328e-17)
(9.8854694 0.28573454 1.1130099e-17)
(9.9066664 0.31618207 1.0674439e-17)
(9.9209624 0.33147363 -1.0290895e-17)
(9.9452903 0.35934595 0)
(9.9644496 0.36475859 1.906748e-17)
(9.9911615 0.39110527 -4.4725309e-20)
(10.009263 0.38086276 -3.5602692e-17)
(9.7207146 0.32361854 -1.4158483e-17)
(9.7406279 0.38236456 0)
(9.7500674 0.40867594 0)
(9.776712 0.46208357 3.880372e-19)
(9.7984396 0.48120016 0)
(9.830638 0.53456209 0)
(9.8602944 0.54576682 0)
(9.8956235 0.59547755 0)
(9.9234915 0.59345235 0)
(9.5052981 0.25698442 5.4195004e-19)
(9.4870846 0.35427459 0)
(9.4955945 0.41493522 4.8608157e-19)
(9.4964605 0.51921866 -9.1178345e-19)
(9.5339269 0.56824482 -1.381796e-17)
(9.5578945 0.66132825 -1.3114257e-17)
(9.6103 0.69342915 2.5175189e-17)
(9.6496265 0.77661425 2.434315e-17)
(9.7053611 0.78461002 -2.3029117e-17)
(9.0875467 0.46938346 6.478497e-17)
(9.0111263 0.68588726 -4.0159133e-17)
(9.0151373 0.81568629 3.730099e-17)
(9.0516442 1.0368355 -3.5226317e-17)
(9.1316396 1.129636 -5.0122973e-17)
(9.2153739 1.306543 9.4349336e-17)
(9.3122127 1.3587288 -5.9608461e-17)
(9.4088489 1.4993972 -2.8427464e-17)
(9.4984686 1.5089624 2.672497e-17)
(10.005081 0.0027958521 -1.6655401e-20)
(10.008168 0.0040045036 1.7103936e-17)
(10.013031 0.0059434533 -6.0755817e-21)
(10.019323 0.0081283398 -1.722986e-17)
(10.026919 0.010394915 1.6863197e-20)
(10.036035 0.012723462 1.7334831e-17)
(10.04674 0.015175759 -1.7419432e-17)
(10.059212 0.017689378 -1.7012762e-20)
(10.074632 0.02118093 -8.7620436e-18)
(10.023126 0.026573728 -1.8127522e-17)
(10.027782 0.036875716 1.8241848e-17)
(10.03983 0.038052038 -1.8246914e-17)
(10.047445 0.051335091 0)
(10.063391 0.051350787 1.8405175e-17)
(10.074148 0.067186433 1.545553e-20)
(10.093748 0.065687295 3.1150612e-20)
(10.107929 0.083847078 -1.8518715e-17)
(10.131831 0.080429306 9.3165094e-18)
(10.04585 0.088969876 1.933319e-17)
(10.04958 0.10537919 -1.9392187e-17)
(10.065601 0.11017527 -1.9524216e-17)
(10.070761 0.12823512 1.9570495e-17)
(10.089476 0.13282843 -1.9734359e-17)
(10.096741 0.15375237 1.9667442e-17)
(10.119292 0.15808839 -1.9862828e-17)
(10.129188 0.18260203 -1.176156e-20)
(10.156205 0.18607497 1.9896296e-17)
(10.064523 0.15964862 -2.0659882e-17)
(10.067382 0.18415135 -8.1279169e-20)
(10.088239 0.19388309 8.1757144e-20)
(10.091223 0.21898758 0)
(10.114596 0.22863167 -1.6411612e-22)
(10.119945 0.25725836 -2.1026914e-17)
(10.147716 0.26675531 2.1375393e-17)
(10.15604 0.29967993 8.3204967e-20)
(10.188847 0.30805605 8.3471022e-20)
(10.071303 0.28700695 -8.7235968e-20)
(10.07246 0.31719471 -2.2461223e-17)
(10.094214 0.33159221 -6.8778475e-20)
(10.093627 0.36040597 2.2665661e-17)
(10.118096 0.37451241 2.2822643e-17)
(10.120304 0.40746099 -2.2938918e-17)
(10.149904 0.42144334 -8.9396491e-20)
(10.155247 0.45906424 -8.9718865e-20)
(10.190245 0.47165663 -9.0040989e-20)
(10.040951 0.40777614 2.4342637e-17)
(10.039826 0.44890785 0)
(10.067387 0.47020924 0)
(10.063663 0.50887911 2.453916e-17)
(10.094434 0.52915473 -2.4867747e-17)
(10.094586 0.57213758 -2.4935927e-17)
(10.131096 0.59170298 4.9911316e-17)
(10.135014 0.63891568 -4.500065e-20)
(10.176802 0.65619511 -5.02952e-17)
(9.9576003 0.63581364 -1.0515406e-19)
(9.9616662 0.68219858 0)
(9.9859485 0.71062149 1.0594191e-19)
(9.9890933 0.7495373 2.7215628e-17)
(10.018424 0.7761903 -2.7380135e-17)
(10.028287 0.8138371 2.7450987e-17)
(10.063289 0.83889585 -2.7510535e-17)
(10.07797 0.87361198 -1.0773263e-19)
(10.115577 0.89495983 2.7682219e-17)
(9.7506285 0.85171676 -2.9586642e-17)
(9.7930292 0.90604577 2.9997914e-17)
(9.8336997 0.95330415 -3.0116282e-17)
(9.8788832 0.99722491 2.9961743e-17)
(9.9243974 1.0364997 -2.9829919e-17)
(9.9743399 1.0729969 -4.7122634e-21)
(10.023214 1.1044524 3.0235387e-17)
(10.074013 1.1323183 2.3696133e-19)
(10.119808 1.1528756 1.5101382e-17)
(9.5950024 1.6161378 0)
(9.6491368 1.6445787 -3.3211454e-17)
(9.7433274 1.7252694 1.893643e-19)
(9.7983741 1.7289792 3.1468074e-19)
(9.8960434 1.7793996 6.6679109e-17)
(9.948654 1.744257 -3.336701e-17)
(10.055237 1.7453086 -3.3387455e-17)
(10.120052 1.638183 3.3513357e-17)
(10.226645 1.5727914 1.6830842e-17)
(10.284816 1.3994361 -1.9673757e-17)
(10.314612 1.3112176 0)
(10.336747 1.1959101 1.9584144e-17)
(10.307591 1.1488128 -1.9578108e-17)
(10.266402 1.0388832 0)
(10.194523 1.0110158 0)
(10.12147 0.90374133 0)
(10.036478 0.89985781 -2.0082633e-17)
(9.9504854 0.80920479 2.0082684e-17)
(10.160425 1.1672911 -1.7202603e-17)
(10.192942 1.1871274 0)
(10.222684 1.1888702 0)
(10.240577 1.1935189 0)
(10.256117 1.189778 0)
(10.259138 1.19402 0)
(10.254329 1.1946771 0)
(10.244567 1.2041217 1.7030914e-17)
(10.220985 1.203019 -3.414667e-17)
(10.130485 0.92354362 -5.6972338e-20)
(10.164107 0.95046742 -3.039075e-17)
(10.176091 0.97353421 0)
(10.207891 0.99880269 -1.5117979e-17)
(10.215816 1.0200689 1.5117974e-17)
(10.243567 1.0426282 0)
(10.245525 1.0629913 0)
(10.268311 1.0859254 0)
(10.262435 1.1080876 0)
(10.179915 0.70285517 2.7041982e-17)
(10.223173 0.72747041 0)
(10.226678 0.7725461 1.3445098e-17)
(10.270119 0.79625656 -2.6864756e-17)
(10.27356 0.84107587 1.3419377e-17)
(10.317064 0.86492477 0)
(10.31936 0.91023724 0)
(10.363004 0.93572315 0)
(10.362801 0.98240913 1.3293964e-17)
(10.196095 0.51248519 0)
(10.234368 0.52799958 2.4300186e-17)
(10.241173 0.57092756 -3.642824e-17)
(10.282204 0.58646139 1.212779e-17)
(10.290049 0.63134525 1.20798e-17)
(10.333916 0.64751003 -2.5411001e-20)
(10.342372 0.6948631 -2.4082147e-17)
(10.389434 0.71244885 2.4028442e-17)
(10.397877 0.76283862 -1.2000418e-17)
(10.198744 0.34482474 0)
(10.235939 0.35477697 1.1053561e-17)
(10.24798 0.39480124 -1.1053706e-17)
(10.28933 0.40433229 0)
(10.303571 0.44739207 -2.1964428e-17)
(10.349025 0.45675653 2.1964472e-17)
(10.365341 0.50315002 1.0927212e-17)
(10.415256 0.51269356 -2.1824668e-17)
(10.433462 0.56288741 1.0897374e-17)
(10.168044 0.21426319 0)
(10.199455 0.21844133 0)
(10.213879 0.25030801 0)
(10.24999 0.25395067 -1.0133925e-17)
(10.26728 0.28959314 2.0245537e-17)
(10.308357 0.29268775 -2.0199319e-17)
(10.328677 0.33238794 1.0087643e-17)
(10.375236 0.33502223 -1.0034321e-17)
(10.398723 0.37928986 2.0039051e-17)
(10.148752 0.10127457 -1.8882062e-17)
(10.177394 0.097341055 1.7320415e-20)
(10.197801 0.1220008 9.4159713e-18)
(10.23078 0.11659888 -9.3770761e-18)
(10.255016 0.14429397 9.3770331e-18)
(10.292628 0.1369548 0)
(10.320941 0.16774063 9.306276e-18)
(10.364096 0.15849107 -1.8585238e-17)
(10.396925 0.19319615 9.2789337e-18)
(10.084137 0.026345955 1.2262681e-20)
(10.107471 0.02642852 8.8180068e-18)
(10.122634 0.038318126 8.7924144e-18)
(10.152919 0.037899999 -8.7924153e-18)
(10.170307 0.049217961 0)
(10.205482 0.048497816 0)
(10.226249 0.059878303 -8.720985e-18)
(10.268298 0.060498593 1.7419349e-17)
(10.294778 0.072564815 -8.6984158e-18)
(10.343716 0.073506998 0)
(10.376715 0.086712642 -8.6168859e-18)
(10.432397 0.08899702 3.2110084e-20)
(10.472934 0.1021675 3.485756e-20)
(10.536086 0.10592524 3.7790483e-20)
(10.584695 0.12010713 8.5121275e-18)
(10.656898 0.12456827 8.4267373e-18)
(10.71476 0.13952209 -8.4267379e-18)
(10.796819 0.14590981 0)
(10.446337 0.18201992 0)
(10.484018 0.22130981 0)
(10.540353 0.20824237 -9.1476043e-18)
(10.583151 0.25264319 3.8921618e-20)
(10.647075 0.23771143 4.1659238e-20)
(10.695416 0.2879665 9.0669633e-18)
(10.76797 0.2711957 8.9745781e-18)
(10.822478 0.32832167 -8.9745388e-18)
(10.90498 0.30968279 0)
(10.451357 0.38163429 -1.0004768e-17)
(10.478126 0.43107981 0)
(10.537478 0.4333749 0)
(10.567693 0.48875372 -9.864905e-18)
(10.634514 0.49122147 1.9688721e-17)
(10.668477 0.5534372 -4.3832399e-20)
(10.743771 0.55628038 -4.6867513e-20)
(10.782001 0.62648936 -9.7330418e-18)
(10.866983 0.62978936 0)
(10.488257 0.57308235 -1.0832922e-17)
(10.508097 0.62767434 1.0832862e-17)
(10.568258 0.63912491 0)
(10.589506 0.69896284 0)
(10.655701 0.71233502 1.0682344e-17)
(10.678314 0.77860988 -1.0682273e-17)
(10.75153 0.79451594 1.0594111e-17)
(10.775772 0.86878635 -5.3210532e-18)
(10.857376 0.88765084 -5.2729376e-18)
(10.44838 0.78282414 -1.1942855e-17)
(10.456098 0.83701484 1.1942735e-17)
(10.510346 0.86052267 0)
(10.516721 0.91972916 0)
(10.575346 0.94787793 0)
(10.580036 1.0138823 0)
(10.644213 1.0476151 0)
(10.647277 1.1226218 0)
(10.718742 1.1625911 0)
(10.406544 1.0112917 -1.329396e-17)
(10.402444 1.0603041 1.3247301e-17)
(10.446368 1.0947188 -1.3246943e-17)
(10.437331 1.1476186 1.320309e-17)
(10.482107 1.189238 -1.3202463e-17)
(10.467537 1.248582 0)
(10.515002 1.2984528 0)
(10.494833 1.3673391 0)
(10.547701 1.4263674 0)
(10.279983 1.1357358 0)
(10.264818 1.160985 -1.5033581e-17)
(10.278972 1.1969499 1.5030458e-17)
(10.25353 1.2275164 0)
(10.266643 1.2745583 1.5041584e-17)
(10.229325 1.3141907 -1.5042104e-17)
(10.244694 1.3747433 0)
(10.19531 1.4269671 7.5347177e-18)
(10.216048 1.5021935 -1.5074204e-17)
(10.203307 1.2247126 1.7096039e-17)
(10.157251 1.2335268 1.7178156e-17)
(10.133286 1.2652776 -1.7180729e-17)
(10.067739 1.2877323 1.7288156e-17)
(10.038995 1.3297167 -3.4639644e-17)
(9.9564853 1.3686948 3.4767605e-17)
(9.9243479 1.4227024 -3.4904358e-17)
(9.8263647 1.4813291 1.7487036e-17)
(9.7925925 1.5493589 0)
(9.8589873 0.82884811 -2.0344505e-17)
(9.7618641 0.75294283 2.0344553e-17)
(9.6670301 0.79478711 0)
(9.5573312 0.73235533 0)
(9.4577885 0.79523714 0)
(9.3350251 0.74821967 0)
(9.2268905 0.83226499 0)
(9.0921944 0.80430339 -1.0691119e-17)
(8.9745398 0.91379098 1.069105e-17)
(8.8276721 0.90942442 1.08559e-17)
(9.680636 1.631281 0)
(10.155658 1.5718724 7.5403657e-18)
(10.522489 1.5079678 0)
(10.720705 1.2489899 0)
(10.8839 0.97173842 0)
(10.910285 0.70932555 4.7856842e-18)
(10.96646 0.37486835 4.4047632e-18)
(10.865492 0.16192947 4.1348691e-18)
(8.6986792 1.052821 -1.0855804e-17)
(9.6478117 1.7155705 0)
(10.183561 1.659528 0)
(10.583809 1.5766601 6.5174791e-18)
(10.801611 1.2954791 0)
(10.975619 0.99368235 -5.1905104e-18)
(11.006365 0.7129095 -9.5403164e-18)
(11.060251 0.35424079 -8.7778768e-18)
(10.959015 0.17017818 -8.2390227e-18)
(8.5391645 1.0792003 0)
(9.5242724 1.8254833 0)
(10.116392 1.7561563 7.5472712e-18)
(10.554834 1.674227 -6.5175569e-18)
(10.803523 1.3956848 0)
(11.005525 1.0895329 5.1904954e-18)
(11.055889 0.80310945 4.7546496e-18)
(11.129656 0.42876406 4.3731142e-18)
(11.040283 0.1867978 4.1041527e-18)
(8.3973514 1.2696905 1.111057e-17)
(9.496246 1.9283772 0)
(10.151731 1.8547452 -1.5092855e-17)
(10.627978 1.752483 0)
(10.896281 1.4484861 0)
(11.10938 1.1142895 -5.1246323e-18)
(11.164645 0.80650942 -4.6853075e-18)
(11.236471 0.40590985 0)
(11.146872 0.19750308 -4.0346399e-18)
(8.2279198 1.3377994 -1.1110491e-17)
(9.3650761 2.0719409 -8.9868674e-18)
(10.08175 1.9814869 7.5454841e-18)
(10.597576 1.8694741 0)
(10.899851 1.5648601 0)
(11.144239 1.2238085 5.124628e-18)
(11.221867 0.90868833 4.6853041e-18)
(11.315118 0.49125055 0)
(11.242305 0.21546034 4.0346394e-18)
(8.075432 1.5930648 0)
(9.3478548 2.1956485 8.9868397e-18)
(10.128156 2.0913134 -7.5307322e-18)
(10.684112 1.9540678 0)
(11.00692 1.6229857 0)
(11.2624 1.2506463 -5.0473405e-18)
(11.344895 0.91107081 -4.6046233e-18)
(11.437178 0.46566966 0)
(11.363911 0.22813343 -3.9528804e-18)
(7.9066597 1.7204792 0)
(9.2155426 2.3798637 0)
(10.060825 2.2520543 7.530728e-18)
(10.660422 2.0972387 -3.2011179e-18)
(11.014862 1.7578924 -2.8132906e-18)
(11.304195 1.3754451 7.5491617e-18)
(11.411689 1.0263567 6.8842015e-18)
(11.523215 0.56042151 0)
(11.475167 0.2471159 5.9063817e-18)
(7.7567492 2.0796627 0)
(9.2191587 2.52455 -4.5141509e-18)
(10.123373 2.3715027 0)
(10.75966 2.1852248 3.2006152e-18)
(11.137553 1.8185525 2.812774e-18)
(11.438645 1.4030975 -2.3786911e-20)
(11.551566 1.0265138 -4.5345833e-18)
(11.666766 0.53716785 0)
(11.612104 0.26185767 -1.9535016e-18)
(7.6300245 2.2684638 -5.6978503e-18)
(9.0957665 2.7648405 4.5137163e-18)
(10.065139 2.5805253 0)
(10.748955 2.3658535 0)
(11.158217 1.9863083 0)
(11.492776 1.5527474 -4.9294334e-18)
(11.630093 1.157663 2.6741595e-20)
(11.758812 0.63779574 0)
(11.738521 0.27979258 0)
(11.908293 0.29739306 0)
(11.923044 0.61855717 0)
(11.788548 1.1503398 -1.0895534e-19)
(11.638274 1.5624565 2.5726198e-18)
(11.296767 2.0245586 0)
(10.869155 2.436829 -3.9427134e-19)
(10.163863 2.6861357 -2.7363253e-20)
(9.1561607 2.9131062 -3.7458651e-18)
(7.5324862 2.7465628 1.061924e-17)
(12.070057 0.31024849 -9.3414006e-19)
(12.026779 0.70448928 -1.26803e-19)
(11.884384 1.2689539 1.1207338e-18)
(11.719528 1.7086716 -3.5593398e-21)
(11.35699 2.1918473 -1.1795164e-18)
(10.898436 2.6242728 1.5324627e-18)
(10.165768 2.9181771 -4.6749673e-19)
(9.134779 3.2105568 4.8736636e-18)
(7.6561643 3.0558443 -5.4051517e-18)
(12.236594 0.32097891 1.8708161e-18)
(12.215703 0.68389902 0)
(12.074594 1.2650301 2.1890329e-18)
(11.886576 1.7100915 -1.1952125e-18)
(11.529399 2.2183454 1.1933487e-18)
(11.067219 2.6818667 -2.9045999e-18)
(10.352591 3.0069603 -2.2758575e-18)
(9.3504913 3.3320748 1.0968302e-18)
(7.9389453 3.3908066 6.485505e-20)
(12.415512 0.33167898 -9.3718662e-19)
(12.330855 0.76675455 -1.2553505e-19)
(12.183921 1.3822692 -9.6398221e-19)
(11.990088 1.8707181 1.3644472e-18)
(11.617054 2.402177 5.057937e-19)
(11.128151 2.8851683 1.5626726e-18)
(10.395034 3.2490173 1.8390454e-18)
(9.3824278 3.6181216 5.7187948e-19)
(7.9858194 3.6474532 -6.5473557e-19)
(12.607677 0.34285448 2.2670894e-19)
(12.548727 0.74816463 -2.4476209e-19)
(12.402434 1.3796723 -1.3670863e-19)
(12.179125 1.8593671 4.4498601e-19)
(11.815571 2.4142058 -5.1010954e-19)
(11.326577 2.9282258 -5.7572469e-19)
(10.612276 3.3218622 -4.7413356e-19)
(9.6160702 3.7205206 5.3536253e-19)
(8.2395753 3.92779 -7.1932322e-19)
(12.811589 0.35445673 -2.2930171e-19)
(12.676374 0.83302542 2.4770689e-19)
(12.525286 1.4921986 -1.3576353e-19)
(12.30407 2.0306699 -1.7313235e-21)
(11.924848 2.6076162 -1.6598218e-19)
(11.40916 3.1406352 3.9178415e-19)
(10.676638 3.5688819 -4.7559942e-19)
(9.667725 4.0022657 5.3833737e-19)
(8.3184026 4.1337329 0)
(13.025785 0.36517782 -2.1992249e-19)
(12.92298 0.81679984 -1.2215188e-19)
(12.770705 1.489757 -1.3076924e-19)
(12.511535 2.0056882 -1.5072563e-19)
(12.139792 2.6053455 -1.6732286e-19)
(11.623758 3.1685963 3.9995669e-19)
(10.904968 3.6236813 -9.2412168e-19)
(9.9136152 4.0798961 1.1219668e-18)
(8.5955554 4.3735425 -6.7168816e-19)
(13.250457 0.37504263 6.540874e-19)
(13.062814 0.90172595 4.7183399e-19)
(12.90778 1.5952453 6.5189031e-19)
(12.658651 2.1855879 7.2515844e-19)
(12.272387 2.8054179 5.0878123e-19)
(11.731488 3.3877985 -1.894408e-19)
(10.996874 3.873156 -4.771428e-19)
(9.9958346 4.3570021 -4.0658207e-20)
(8.6927911 4.5452695 -7.1395102e-19)
(13.485701 0.38294578 -1.2812857e-18)
(13.334697 0.88536357 -4.7771713e-19)
(13.179926 1.591038 -1.6794247e-18)
(12.877872 2.145914 -4.4533265e-19)
(12.502514 2.785933 1.1398324e-18)
(11.963527 3.3972617 5.8639536e-19)
(11.240532 3.9067567 -2.7446369e-18)
(10.257082 4.4119391 5.4444517e-19)
(8.9683138 4.7585592 1.4282216e-18)
(9.0746004 4.9068595 -1.4296412e-18)
(10.365135 4.6852547 5.8794179e-19)
(11.361196 4.1564886 4.1190004e-18)
(12.098518 3.6207108 -5.8322644e-19)
(12.662069 2.9903533 2.942528e-19)
(13.053758 2.3265636 8.4456345e-19)
(13.332291 1.6867747 1.1657143e-18)
(13.485775 0.96765144 -5.7261367e-20)
(13.731948 0.3897627 1.7313515e-18)
(9.3518995 5.1009921 5.6977162e-18)
(10.6388 4.7201623 5.457379e-19)
(11.619346 4.167633 -5.9436541e-18)
(12.34747 3.6094123 -1.857185e-19)
(12.907308 2.9497464 -1.1507813e-18)
(13.284529 2.2803458 -1.0104997e-18)
(13.627158 1.6776602 -2.095148e-18)
(13.781788 0.95085406 0)
(13.988603 0.39410378 -8.3352592e-19)
(9.4685269 5.2311586 -7.3148208e-18)
(10.770865 4.9911526 5.6018761e-18)
(11.768099 4.4155896 3.2187836e-18)
(12.509104 3.8342213 -1.837806e-19)
(13.0955 3.1550027 2.5275786e-18)
(13.483717 2.4518842 5.5163985e-21)
(13.800617 1.7609555 3.196835e-19)
(13.943659 1.0279738 1.6278885e-18)
(14.255328 0.39714833 1.5493979e-18)
(9.7498202 5.4098608 -1.4618121e-18)
(11.055707 5.0063907 1.0161184e-18)
(12.037275 4.4030666 -4.7129346e-19)
(12.772636 3.8011355 0)
(13.353576 3.090739 -2.5635727e-18)
(13.730873 2.402389 0)
(14.11268 1.7445354 1.8311023e-18)
(14.259594 1.0102496 -3.3456624e-18)
(14.530922 0.39710236 -7.512275e-20)
(9.8791327 5.5253782 -7.0527536e-19)
(11.213377 5.2757453 -4.5238011e-18)
(12.214978 4.6465729 4.6814904e-19)
(12.956267 4.0213879 0)
(13.570031 3.2927678 -2.5767692e-18)
(13.949734 2.5590558 2.1024556e-18)
(14.304053 1.8122806 1.1904726e-19)
(14.437287 1.0804404 3.3544354e-18)
(14.814803 0.39521833 -1.5114393e-18)
(10.168424 5.6909716 -6.649426e-18)
(11.509596 5.2695882 -3.8834754e-18)
(12.492689 4.6081934 -3.4926651e-20)
(13.236901 3.9719196 -3.7644335e-19)
(13.8369 3.2036344 -4.8290595e-20)
(14.212626 2.5036712 -4.1647336e-18)
(14.630114 1.7866535 1.1562574e-19)
(14.767113 1.0601614 -1.661955e-18)
(15.105481 0.38974063 0)
(10.316826 5.7934215 4.5775726e-18)
(11.695843 5.5364492 5.6740552e-18)
(12.699898 4.8435897 -3.5915295e-20)
(13.440109 4.1773079 -3.7033851e-19)
(14.08012 3.3980353 2.2679636e-18)
(14.449721 2.6426088 2.2041331e-18)
(14.835784 1.8364395 1.0760458e-19)
(14.959529 1.1228838 -9.8599142e-20)
(15.402019 0.38207991 0)
(10.619862 5.9465865 0)
(12.001328 5.505581 -5.3231366e-19)
(12.986565 4.7767339 4.5386353e-19)
(13.737295 4.1166091 -5.2813945e-18)
(14.354617 3.2823644 -1.4899804e-19)
(14.726834 2.5784271 3.7055275e-18)
(15.172016 1.7991789 -3.1287002e-18)
(15.299196 1.097507 2.9105646e-18)
(15.70171 0.37045891 2.4413144e-18)
(10.793575 6.0354727 1.1238172e-17)
(12.223694 5.7688642 9.738601e-18)
(13.215846 5.0005298 -4.4718384e-19)
(13.96337 4.299095 5.5654617e-18)
(14.614731 3.465373 -1.3551011e-19)
(14.980157 2.6960559 -3.7675599e-18)
(15.386994 1.8289796 3.3848767e-18)
(15.503924 1.1518517 -3.0416345e-18)
(16.002492 0.35767788 -1.842914e-19)
(16.324119 0.34058808 -2.2726064e-18)
(15.851645 1.1184425 2.5436406e-18)
(15.731423 1.778146 0)
(15.275472 2.6183863 -2.24614e-19)
(14.907466 3.3214837 4.1780558e-18)
(14.284528 4.2223001 4.7597471e-18)
(13.52551 4.8996327 0)
(12.551749 5.6994206 -3.7614416e-19)
(11.146061 6.1889971 -1.0981387e-17)
(16.62757 0.31632488 0)
(16.069747 1.1510207 -2.6308302e-18)
(15.955804 1.777237 0)
(15.557623 2.6987366 -2.1489514e-19)
(15.199223 3.4748498 -7.5524784e-18)
(14.559805 4.3714722 -5.1997276e-18)
(13.813158 5.1040957 6.0891026e-18)
(12.863713 5.9669496 -7.6443734e-18)
(11.414839 6.2663041 9.1892152e-18)
(16.921686 0.28212333 0)
(16.424101 1.0990452 0)
(16.302021 1.7092206 -2.5289939e-18)
(15.870021 2.5980846 0)
(15.515107 3.3034813 3.8560946e-18)
(14.91106 4.2685703 -4.4011676e-18)
(14.163087 4.9644376 -5.5381697e-18)
(13.242569 5.8599401 -4.3513702e-19)
(11.863557 6.4000827 -1.1927085e-18)
(17.201781 0.24085629 0)
(16.644918 1.1123312 0)
(16.524282 1.6867278 2.5814879e-18)
(16.163041 2.6463607 2.6560375e-18)
(15.814194 3.4241116 3.3645638e-18)
(15.207835 4.3804752 4.7856269e-18)
(14.463852 5.1290023 0)
(13.574427 6.0746167 6.8826981e-18)
(12.198373 6.4439215 -1.0844672e-17)
(17.473263 0.19569469 2.6820793e-20)
(16.996796 1.0477856 -2.9232786e-20)
(16.862579 1.6009773 0)
(16.476083 2.5212565 -2.6746133e-19)
(16.135062 3.2288075 -6.8617703e-18)
(15.563539 4.2550417 2.4642314e-19)
(14.822932 4.9600244 5.1863423e-18)
(13.947995 5.9345106 -7.6192429e-18)
(12.702926 6.5378622 1.0553431e-17)
(17.73025 0.14820678 -2.4120666e-20)
(17.212139 1.0473464 2.6332491e-20)
(17.078639 1.5575365 0)
(16.76788 2.5375475 -2.8785969e-18)
(16.436713 3.3137376 3.6481483e-18)
(15.871462 4.3304184 -2.3162151e-19)
(15.124173 5.0918175 -5.3642478e-18)
(14.275935 6.0879203 0)
(13.133133 6.5212867 -1.0443008e-17)
(17.968839 0.099894674 2.1392935e-20)
(17.552165 0.9717109 1.5246423e-18)
(17.404461 1.4548564 -6.3274538e-20)
(17.069712 2.3884467 2.1363957e-18)
(16.752796 3.0939054 2.8837694e-18)
(16.227654 4.1814916 0)
(15.481924 4.9028532 0)
(14.615812 5.9093362 -6.3735217e-18)
(13.724087 6.5556589 0)
(18.20361 0.040205254 0)
(17.749739 0.9562456 -1.5799833e-18)
(17.607314 1.392989 0)
(17.349252 2.3757592 -2.4165054e-18)
(17.049117 3.1403106 -2.6306474e-18)
(16.543593 4.2181474 3.1608648e-18)
(15.77169 5.0204314 0)
(14.894042 5.9959023 7.0622867e-18)
(14.277645 6.4473936 -8.1345035e-18)
(18.32837 -0.019867721 0)
(18.065038 0.86734159 0)
(17.911454 1.2784063 -5.0601649e-20)
(17.630037 2.2031672 -6.9788921e-20)
(17.351427 2.89259 1.4141139e-19)
(16.895531 4.0429674 -3.2640868e-18)
(16.179114 4.8054077 0)
(15.157443 5.771184 0)
(14.940039 6.3582304 8.0469278e-18)
(18.551657 -0.033201777 -2.5588282e-20)
(18.229332 0.85438746 -6.5923597e-21)
(18.095266 1.2018488 1.1628471e-18)
(17.890628 2.1695103 0)
(17.62617 2.9116884 0)
(17.210068 4.0476617 -1.706801e-19)
(16.374703 5.0332339 -3.2021789e-18)
(15.282877 5.8736218 1.432084e-19)
(15.292442 6.2593481 0)
(18.74493 -0.095511303 -1.9721611e-20)
(18.505886 0.83352723 -5.9775818e-21)
(18.375713 1.2210408 -1.0558109e-18)
(18.136978 2.2240852 0)
(17.855742 2.994583 0)
(17.440697 4.2660776 1.4323184e-19)
(16.529447 5.1930627 8.6833458e-18)
(15.184231 6.0530891 -1.2831134e-19)
(14.508687 6.1139309 9.0356677e-18)
(18.87956 -0.076254043 0)
(18.640327 0.81468527 1.1202633e-18)
(18.526342 1.1411536 0)
(18.366735 2.1847676 6.6156343e-20)
(18.087691 3.0441953 -7.2229432e-20)
(17.650278 4.3208621 -1.2229876e-19)
(16.639268 5.4880473 -1.0248401e-17)
(14.787262 6.1040067 1.1600635e-19)
(12.707497 6.0518524 -8.4867136e-18)
(19.001643 -0.12316013 4.0838905e-19)
(18.884458 0.75728881 -1.073632e-18)
(18.777909 1.1476241 9.6857706e-19)
(18.612472 2.227574 1.2035537e-18)
(18.295435 3.1277044 -1.7511011e-18)
(17.846223 4.5933714 2.1613581e-18)
(16.607793 5.6860631 4.9023005e-18)
(14.39966 6.1705711 7.8022061e-18)
(10.323011 7.2783203 0)
(19.096951 -0.11551408 -6.7485249e-19)
(18.998096 0.72098822 4.9851336e-19)
(18.894013 1.0684991 -9.3697207e-19)
(18.842328 2.1581108 -4.5212894e-19)
(18.522929 3.1913288 1.6684928e-18)
(18.073416 4.6133115 -6.6573611e-19)
(16.56911 5.9418435 0)
(13.600097 6.4655713 -7.4944416e-18)
(6.8066909 6.8329497 0)
(19.175499 -0.16528879 4.1424094e-19)
(19.213262 0.63104548 -4.7933487e-19)
(19.118053 1.0558456 3.7550386e-19)
(19.10963 2.1648361 -7.0034857e-19)
(18.744323 3.2391017 -2.9652088e-20)
(18.28511 4.8657966 -1.3951932e-18)
(16.281343 6.1978202 3.1113354e-18)
(12.096549 5.7623124 6.5945823e-18)
(0.92032179 1.2865963 -7.9559335e-18)
(19.227336 -0.16524245 -1.5564578e-19)
(19.308511 0.57562387 4.4185326e-21)
(19.204947 0.97037002 -3.5289496e-19)
(19.339045 2.0529182 5.493947e-21)
(18.976193 3.3002252 -5.9267577e-21)
(18.450608 4.876083 -1.5748207e-19)
(15.770124 6.1422987 -5.7762903e-18)
(9.2298091 5.0248822 -6.2179055e-18)
(-0.52235628 1.8876357 7.5430307e-18)
(19.255004 -0.21424937 2.0132839e-22)
(19.500241 0.45353276 -2.1455764e-22)
(19.40383 0.93251369 -9.5160555e-20)
(19.608901 2.0280091 -6.1772409e-19)
(19.200234 3.308919 3.6879729e-19)
(18.534909 5.0647056 -3.1248215e-19)
(14.944856 6.3592863 4.9793073e-18)
(6.643193 3.9088701 5.4564014e-18)
(-0.5397082 2.5931931 -6.8267296e-18)
(19.244626 -0.2408121 7.0992389e-20)
(19.563864 0.38105212 3.5498322e-21)
(19.465354 0.83702627 -1.8856281e-19)
(19.817143 1.8803433 5.9882554e-19)
(19.413855 3.3539303 -3.363183e-19)
(18.440124 5.1120131 4.0405372e-19)
(13.572029 6.035344 -2.3033413e-18)
(3.6138997 2.1032067 -5.1658945e-18)
(-1.1556128 2.867597 6.5051205e-18)
(-1.2806767 2.8470836 1.0671693e-17)
(1.8401125 1.5417369 6.2376344e-20)
(12.182892 5.9430712 -7.2390237e-21)
(18.356061 5.1256992 6.1280485e-21)
(19.581555 3.3278499 0)
(20.053399 1.8344734 1.3490561e-20)
(19.63567 0.77383653 7.31778e-19)
(19.718428 0.23878923 5.0490635e-19)
(19.21321 -0.27259803 -1.80091e-19)
(-1.3936911 2.9028681 -1.0332822e-17)
(1.6874591 1.9216986 0)
(10.933463 5.5447601 0)
(18.242775 5.101893 4.7871688e-18)
(19.785097 3.2182317 0)
(20.214453 1.5930611 -3.5421356e-18)
(19.667479 0.62948258 -1.6474756e-18)
(19.735137 0.1441301 -4.8226812e-19)
(19.158321 -0.30135279 -2.4432026e-19)
(-1.4566666 2.9420327 -7.0760758e-20)
(2.2292846 3.4604572 5.6996641e-20)
(10.092689 5.3241991 0)
(18.089813 5.0470031 -4.6954782e-18)
(19.91272 3.1687344 0)
(20.407871 1.5257771 3.4983177e-18)
(19.803798 0.54836498 1.1452753e-18)
(19.839294 -0.0044381467 1.0966851e-20)
(19.080394 -0.32582229 3.4516684e-19)
(-1.5772638 3.0934289 -1.8495508e-17)
(2.7628713 4.3715022 1.200249e-17)
(9.2257577 5.234083 -4.9106721e-20)
(17.882307 5.0139806 0)
(20.0783 3.0205077 -5.6217175e-18)
(20.529749 1.267045 0)
(19.803998 0.40159961 -1.1371071e-20)
(19.810183 -0.10286539 1.1619464e-20)
(18.980152 -0.34648595 -1.1444691e-21)
(-1.6397474 3.1826124 1.778257e-17)
(2.5900334 4.9019166 -4.3441643e-19)
(8.4339971 4.9773521 -4.1867066e-19)
(17.596487 4.9377392 -2.4097149e-20)
(20.168091 2.9513611 -9.2514211e-19)
(20.692035 1.1732533 0)
(19.907645 0.30437841 -1.6242805e-18)
(19.868359 -0.25582732 0)
(18.860029 -0.36396246 0)
(-1.7287606 3.3610204 -5.7862091e-20)