/*--------------------------------*- C++ -*----------------------------------*\
  =========                 |
  \\      /  F ield         | OpenFOAM: The Open Source CFD Toolbox
   \\    /   O peration     | Website:  https://openfoam.org
    \\  /    A nd           | Version:  11
     \\/     M anipulation  |
\*---------------------------------------------------------------------------*/
FoamFile
{
    format      ascii;
    class       volScalarField;
    location    "0.2625";
    object      T;
}
// * * * * * * * * * * * * * * * * * * * * * * * * * * * * * * * * * * * * * //

dimensions      [0 0 0 1 0 0 0];

internalField   nonuniform List<scalar> 
880
(
500
500.0000000877315
500.0044812104221
501.5312149222389
500.0000000000001
500.0000000427212
500.0079138370199
502.5095576933008
500.0000000001177
500.0000001418266
500.0181868229749
503.9046873570703
500.0000000017768
500.0000007987822
500.0456101226946
506.0870611540826
499.999999964701
500.0000000253704
499.9999991957129
500.0000759604158
500.0000079939816
500.0000259129006
500.0006975744542
500.0010570532627
500.1184823668222
500.2189426237846
500.4378289221776
500.3543589246132
511.0607703245852
516.7797159656498
521.6755082256151
523.9469123367878
500.0001943948376
500.0013538170639
500.0024168388846
500.012974225315
500.0115941820154
500.0337971527099
500.0757229978578
500.1411419967689
501.3751083678344
502.3294666000105
503.3526975390292
504.6211948233999
526.3911550763171
529.4812838610681
530.7421349467006
530.6081375278716
521.4214689042095
517.1861009382869
515.8248890544611
514.3778449814844
507.9610460847539
509.3805616228269
510.4380234994144
510.7050830284066
500.5004346699498
500.9013648362626
501.3648390170342
501.79268340086
500.0470792965652
500.126978011374
500.2520618325262
500.4125948315889
500.5759398845336
500.6937604115203
500.73273842993
500.7069950160362
502.1027062681623
502.2912942134326
502.4111055134987
502.5211090484875
510.5207161357579
510.001700397557
509.3896555165524
508.5805037730044
513.1186881051644
512.0604378058785
511.368375725492
510.4216308051525
508.7324589971823
507.8080070119034
502.5080271127334
500.614418474073
510.2806820704182
506.8763731200842
502.2620254262355
500.4947628034886
525.784177762037
506.7670470974338
501.7781221856883
500.3266423909149
575.6786416252967
510.8456272920384
501.6183983936183
500.1753122564869
500.0699098613881
501.5235434115749
519.2027534338993
614.3303154515157
500.0667910488194
501.6136515813571
527.8799758152718
619.1363190733438
500.1591704966929
502.5536318257492
540.681491574977
626.9474489986301
500.4051693957189
504.8247928104367
554.2261091132547
629.9180994977606
631.0922749648812
569.7749340841085
509.231314896914
500.9190591252075
629.5092048913139
583.9552923555781
516.6675389428705
501.9396039771562
626.2528690865307
593.7955033684617
526.3885601007044
503.6329953551503
619.0287627205615
597.7435408032035
536.9026393894326
506.3143356503031
510.1054993132616
543.2696827364389
589.4251238729518
607.9116126869026
511.3957859818897
536.5628680239352
572.2333022993386
592.0086741098755
510.8556434296869
528.8726910821375
553.8177616083817
569.7392086420031
508.8094528584765
519.6900445607296
534.1271733646182
540.6361224960799
508.6606197229038
515.213340883491
519.4164278058947
508.6025531593272
506.4197489491017
509.0057733918143
504.0916984194395
465.6328121445098
504.1951030714778
505.1086042815106
503.0659625193488
445.4901927021785
502.5394558923359
504.7977302726459
506.8074129420201
463.4611417291455
516.400045487811
506.557790372202
503.008648283496
501.1148162720111
542.3325424280044
508.4125961773201
502.0604343888221
500.2865449839202
551.7684325087301
510.5026406567558
501.0266292470324
499.9385054065195
542.3487476793281
510.8747370579871
499.6634704482961
499.7495890052591
526.3646236131946
503.8250668653315
498.1387808724871
499.6242165604131
504.8824766488156
497.6489257271247
498.2154187487252
499.7957867052288
486.4432999935623
494.2901359365939
498.5197052454423
499.921464120519
479.0072387870997
493.6009859053885
499.0908539381934
499.967471288065
444.0449388333545
486.6905576047584
497.9164653231232
499.8709853015812
448.6349611134248
486.4063821302015
497.81072947927
499.8769812581456
455.3059525124634
485.7670302990217
497.6656876130584
499.8814885688518
463.2120384137647
485.2194837313542
497.4977145152434
499.8824255816073
479.0072387870673
493.6009859055645
499.0908539386867
499.9674712876781
486.4432999936573
494.2901359364737
498.5197052453203
499.921464119953
504.8824766485523
497.648925726679
498.2154187481465
499.795786704673
526.3646236130946
503.8250668646544
498.1387808721197
499.6242165601913
501.1148162720087
503.008648283629
506.5577903725771
516.4000454877438
500.2865449839836
502.0604343888355
508.412596177379
542.3325424280843
499.9385054068923
501.0266292471185
510.502640655654
551.7684325084599
499.7495890054838
499.6634704487702
510.8747370574673
542.3487476792952
463.4611417293139
506.807412942418
504.7977302725596
502.5394558921648
445.4901927022029
503.0659625195763
505.1086042817085
504.1951030709675
465.6328121445994
504.0916984196419
509.0057733920829
506.419748948803
508.6025531596537
519.4164278057008
515.2133408829882
508.6606197229341
510.1054993131649
543.2696827380994
589.4251238742681
607.9116126873412
511.3957859814244
536.5628680241732
572.2333022997954
592.0086741103577
510.8556434292177
528.872691082389
553.8177616083709
569.7392086423345
508.8094528584037
519.6900445601008
534.1271733645154
540.6361224964418
619.0287627208317
597.7435408033894
536.9026393896153
506.3143356512811
626.2528690867978
593.7955033684224
526.3885601006486
503.632995354989
629.5092048915266
583.9552923556165
516.6675389422221
501.9396039773337
631.0922749651446
569.7749340846478
509.2313148981072
500.9190591250433
500.0699098614269
501.5235434115055
519.202753433649
614.3303154510903
500.0667910494386
501.6136515821597
527.8799758156962
619.1363190733663
500.1591704975464
502.5536318264217
540.6814915750033
626.9474489989228
500.405169395931
504.8247928096938
554.2261091130982
629.9180994977609
500.1753122563458
500.3266423907733
500.4947628038362
500.6144184741378
501.6183983929101
501.7781221853216
502.2620254261071
502.5080271125165
510.8456272916139
506.7670470976817
506.8763731196217
507.8080070116368
575.6786416249063
525.7841777620262
510.2806820704375
508.7324589972254
500.7069950163277
502.5211090488578
508.5805037734487
510.4216308054598
500.7327384298594
502.411105513862
509.3896555169769
511.3683757255129
500.6937604116143
502.2912942136561
510.0017003975991
512.0604378055125
500.575939884297
502.102706268007
510.5207161359938
513.1186881049782
500.0470792962882
500.500434669734
507.9610460850918
521.4214689044409
500.12697801075
500.9013648362748
509.3805616234733
517.1861009383397
500.2520618327398
501.3648390167895
510.438023499087
515.8248890537432
500.4125948313227
501.7926834007451
510.7050830287758
514.3778449810358
530.6081375277938
504.6211948234803
500.1411419967353
500.0129742256005
530.7421349467133
503.3526975391991
500.0757229975215
500.0024168387046
529.4812838614674
502.3294666000814
500.0337971518163
500.0013538165193
526.3911550765303
501.3751083676716
500.0115941816457
500.0001943953911
523.9469123368276
500.354358924832
500.0010570532497
500.0000759610659
521.6755082256667
500.4378289222815
500.0006975743552
499.9999991958066
516.779715965661
500.2189426237083
500.0000259126377
500.0000000254338
511.0607703245677
500.1184823667246
500.0000079937866
499.9999999648682
500.0000000000001
500.0000000880103
500.004481210453
501.5312149165828
500
500.0000000423404
500.0079138369985
502.5095576931415
500.0000000002755
500.0000001416308
500.0181868229174
503.9046873569175
500.000000001983
500.0000007985217
500.0456101226086
506.0870611539747
503.0235207810433
504.8329448790045
507.9272108907879
515.384902840163
504.832944879305
507.1378203184174
512.6919798078277
524.1656500794552
507.927210891325
512.6919798076224
522.1780670909817
537.1134544610763
515.3849028400014
524.1656500793968
537.1134544616483
554.2211760477071
572.6216317330708
558.5711178029934
550.8275094654119
537.8239954173886
570.1570108590021
565.8714076465669
564.3456584183494
557.9570101581722
570.8094166108099
569.424284431924
568.4605753754304
566.0882127856601
568.2156490436395
567.6284762499286
567.3090795657891
566.0455103038087
563.8609277540846
563.0690433555832
559.5525215909855
554.2426906667041
564.3447143123076
562.7794668335644
559.3944841821394
554.7448881251779
564.4652331037946
562.9179727740974
559.5011696805026
555.2198497328969
564.7911232449397
562.843950768604
559.5912904320755
550.8779648447808
514.0129412649785
495.3556262672784
493.4255341745526
494.7078532511697
503.1864968917495
491.1493505430531
493.7720915113301
495.3088594190003
492.2436583731337
491.1717991129992
495.266718257039
496.9219717661248
470.2058552651789
486.2737572190028
493.7161863233961
495.519247759191
495.6439908791172
496.8722485486041
498.1524894063863
499.3956601758887
496.1437661023511
497.3689666255191
498.849103226307
500.2286624560525
497.4256832587276
498.3946435562271
499.2426323234932
501.0726866777165
496.3244080367095
497.6189304984838
499.5458346270941
501.4878792115759
500.6099107890582
519.4078188618217
582.1471452634401
639.1448989980702
501.8860802382117
528.6561897724524
596.1676660368277
638.6529259160964
502.950341986695
534.8936828489151
605.0111678035603
637.8523503818971
503.375636160509
539.8686036393234
611.4940513548928
638.2238416885303
680.6838628043946
668.6449554696703
665.0366529537903
666.8203980676433
689.215076246263
676.2935340779296
669.1887474886154
670.09827858238
696.3328838452618
684.5077827212433
673.2903385293992
671.878043756852
695.1809260348672
689.3649286306938
676.1429500280792
673.2522374618663
663.7846418896748
653.8940832519605
642.4326484182459
631.4386740955214
666.846883468505
657.3951670501194
645.1645675977438
634.1239844086085
669.2574799391681
660.7026829081422
648.2977947426431
637.0266034892811
670.6129025635857
662.3036888254596
650.617581293516
641.5983523201071
618.8443820214117
606.1106156630203
589.7980499145245
568.8233343561759
620.6645217769635
605.7798660514004
589.3555769211926
594.6991375066978
622.0112280329015
606.0283885718383
596.878970867414
619.9679212751623
624.8461958048033
609.6468470839402
609.7525529960693
603.1323897863497
524.6283017138629
450.543712326307
333.321471933508
291.9749676229856
511.8094916485489
409.2974492932534
268.9601029834171
241.3335492781446
469.2285453632484
355.7648782768343
243.3012484755565
232.1439106368174
369.97168756039
277.363241118161
230.9874826438765
231.9814346075043
377.6291744182956
431.0785641893405
466.0129488257493
488.9609886776625
323.6743472077801
381.7029794093143
422.5846643649895
452.2075670170045
297.7543274391313
346.2507050427811
387.9481515699238
425.3429225701027
295.5972999156942
343.9712090593537
391.20773540243
424.3168844443434
504.1876699314478
498.0379306880541
475.9031702230956
458.0676622079197
467.7107595982027
483.5780256212002
476.8670183377267
466.5319871136278
433.5564440900035
460.3071077282868
472.1089416343686
488.3836716297708
412.1006977563457
441.2119001345598
463.0031339908036
516.6018449061988
449.1340615503466
447.6718711572415
453.0253835548299
449.0590982652453
443.9877439300553
451.9917563358986
468.7962262007841
465.7606737416137
442.0854996422437
454.5922477433372
471.7469138239235
459.6379153412988
430.4777374525397
448.2771019500813
452.6076212115082
438.4747890468802
419.1741841342615
407.1332011678817
402.7299238988095
402.332189798296
441.586053946615
425.7870863010021
415.96943351115
413.5261850650751
457.435855340164
446.344526654706
433.9446240235795
428.0198438009227
441.9224527856715
435.8566039890904
431.7698982747973
430.8271327701524
402.3321897982788
413.5261850650893
428.0198438009627
430.8271327702138
402.7299238987196
415.9694335111074
433.9446240236307
431.7698982750259
407.13320116766
425.7870863008498
446.3445266547123
435.8566039893439
419.1741841339523
441.5860539464177
457.4358553400735
441.9224527856778
449.0590982650946
453.0253835546382
447.6718711569874
449.1340615500552
465.7606737414562
468.79622620063
451.9917563357624
443.9877439298737
459.6379153411025
471.7469138237688
454.5922477432496
442.085499642137
438.4747890465998
452.6076212112831
448.2771019499527
430.477737452421
516.6018449059901
463.0031339906723
441.2119001344695
412.1006977565396
488.3836716296482
472.1089416342267
460.3071077281016
433.5564440901032
466.5319871135148
476.8670183376397
483.5780256209438
467.7107595982739
458.0676622077502
475.903170223087
498.037930687771
504.1876699312356
488.9609886778309
466.0129488261833
431.0785641898485
377.6291744184855
452.2075670174186
422.5846643657071
381.7029794100283
323.6743472081995
425.3429225705756
387.9481515706913
346.2507050435968
297.7543274397327
424.316884444632
391.2077354031223
343.9712090603166
295.5972999164641
291.9749676226627
333.3214719324394
450.5437123264816
524.6283017142915
241.3335492782478
268.9601029829952
409.2974492934241
511.8094916489697
232.1439106371107
243.3012484754293
355.7648782773306
469.2285453636646
231.9814346079862
230.9874826439511
277.3632411187592
369.9716875610063
568.8233343565778
589.7980499148657
606.1106156632262
618.8443820215357
594.6991375071431
589.3555769214851
605.7798660515073
620.6645217769141
619.9679212756289
596.8789708676496
606.0283885717865
622.011228032723
603.1323897868707
609.7525529962253
609.6468470838216
624.8461958046616
631.4386740956704
642.4326484184875
653.8940832521872
663.7846418899321
634.1239844083775
645.164567597879
657.3951670502878
666.8468834686297
637.0266034890298
648.2977947427195
660.7026829082396
669.2574799391954
641.5983523203488
650.6175812934048
662.303688825538
670.6129025634909
666.8203980679298
665.0366529539275
668.644955469429
680.6838628039845
670.098278582469
669.1887474887136
676.2935340775148
689.2150762457744
671.8780437568226
673.2903385295494
684.507782720545
696.3328838446532
673.2522374619119
676.1429500282818
689.3649286298586
695.1809260342308
639.1448989977259
582.1471452631827
519.4078188619608
500.6099107892372
638.6529259157749
596.1676660366246
528.6561897724979
501.8860802384058
637.8523503814642
605.0111678033985
534.8936828489334
502.9503419868684
638.2238416880523
611.494051354734
539.8686036393191
503.3756361606847
499.3956601762916
498.1524894063505
496.8722485481252
495.643990878966
500.2286624564138
498.8491032261357
497.3689666249395
496.1437661021582
501.0726866780287
499.2426323232812
498.3946435556166
497.4256832584967
501.4878792118963
499.5458346268514
497.6189304978308
496.3244080365019
494.7078532506328
493.4255341740434
495.3556262675784
514.0129412652665
495.3088594183038
493.7720915108424
491.1493505434868
503.1864968919663
496.9219717653261
495.2667182565654
491.1717991134545
492.2436583732809
495.5192477583797
493.7161863227967
486.2737572193217
470.2058552652795
554.2426906669201
559.5525215913491
563.0690433562493
563.8609277544942
554.7448881253283
559.3944841825042
562.7794668341719
564.3447143126201
555.2198497329881
559.501169680829
562.9179727746505
564.4652331040595
550.8779648449566
559.5912904324045
562.843950769141
564.7911232451936
566.0455103036506
566.0882127855327
557.9570101582393
537.8239954176722
567.3090795656643
568.4605753753131
564.3456584182721
550.8275094654039
567.6284762498509
569.4242844317804
565.8714076463299
558.5711178026969
568.215649043566
570.8094166106475
570.1570108587175
572.6216317325278
478.1295802746081
492.1482275501139
498.8169441863557
499.9573182259609
470.7001798683355
488.4985710981272
498.2223156594738
499.9287185826133
471.3906508722914
486.602058078469
497.7607964991595
499.9023086397841
468.6968907923106
485.6876707138421
497.5184777863619
499.8873748005171
499.8709853012904
497.9164653233614
486.6905576045962
444.044938833382
499.8769812580326
497.810729479547
486.406382129963
448.6349611136346
499.8814885690696
497.665687613155
485.7670302987306
455.3059525127488
499.8824255816955
497.4977145151904
485.2194837311316
463.2120384137711
499.8873748003874
499.902308639484
499.9287185828716
499.9573182261054
497.5184777861233
497.7607964988862
498.2223156590806
498.816944186557
485.6876707139044
486.6020580786283
488.4985710985402
492.148227550472
468.6968907921843
471.3906508721339
470.7001798680931
478.1295802744255
)
;

boundaryField
{
    back
    {
        type            empty;
    }
    inlet
    {
        type            zeroGradient;
    }
    front
    {
        type            empty;
    }
    top
    {
        type            zeroGradient;
    }
    outlet
    {
        type            fixedValue;
        value           uniform 500;
    }
    bottom
    {
        type            zeroGradient;
    }
    wall
    {
        type            zeroGradient;
    }
}


// ************************************************************************* //
