/*--------------------------------*- C++ -*----------------------------------*\
  =========                 |
  \\      /  F ield         | OpenFOAM: The Open Source CFD Toolbox
   \\    /   O peration     | Website:  https://openfoam.org
    \\  /    A nd           | Version:  11
     \\/     M anipulation  |
\*---------------------------------------------------------------------------*/
FoamFile
{
    format      ascii;
    class       surfaceScalarField;
    location    "0.055";
    object      phi;
}
// * * * * * * * * * * * * * * * * * * * * * * * * * * * * * * * * * * * * * //

dimensions      [0 3 -1 0 0 0 0];

internalField   nonuniform List<scalar> 
1652
(
2.843686947071611
0.8895636090847481
0
1.954123337988149
0.8895636090834618
0
1.064559728903287
0.889563609084854
0
0.8895634773407564
-8.087819303170818e-11
0.1749961846162551
2.843686947076741
1.779127218162428
1.954123337998014
1.779127218162189
1.064559728910185
1.779127218172535
1.779124692074176
0.1749966469217727
2.843686947090741
2.668690827246526
1.954123338008367
2.668690827244562
1.064559728914347
2.668690827266146
2.668653049571823
0.1749999119884398
2.843686947092868
3.558254436328659
1.954123338013008
3.558254436324421
1.064559728917151
3.55825443634016
3.55827706556966
0.1749548964085651
4.418652025448567
2.872852967045247
5.279049614570545
2.872852967043177
6.139447203693217
2.872852967042502
2.872852967040009
6.999844792793151
4.41865202543751
2.012455377932159
5.279049614550978
2.012455377929712
6.139447203664234
2.012455377929244
2.012455377926214
6.999844792778028
4.418652025499563
1.152057789096329
5.279049634538713
1.152057785184563
6.139146539069246
1.152064589590953
1.152036569070854
7.000617746209652
4.429105957017354
0.2659707158979615
5.352763774236422
0.1565618935061599
6.306533897440156
0.06101969493363246
7.240483877926299
0.01255817700831452
6.94151274959916
0.0583320041279527
6.883180708935664
0.05833198550439256
6.824848669287077
0.05833197593430406
0.05833201331387472
6.766516632337937
6.941513490581512
0.1166617417114518
6.883181590809522
0.1166614187735621
6.824849529766985
0.1166610444485305
0.1166618931885961
6.766518373948694
6.942310684621957
0.1734672709797876
6.884062831644346
0.1731955923451476
6.825710176928482
0.1730275943730809
0.1729498510250008
6.767991152930215
7.228829237841091
-0.006850656632595098
7.18882335094534
-0.01000590227360265
7.124923558001922
-0.009841232565307445
7.079505828820404
-0.03249845995119749
7.101367942692572
0.003820948884032782
-0.2130808850556
7.013161479041369
0.004410233973620115
-0.0707880270172126
6.888838570521809
0.003414151376442132
-0.01777243118729882
0.001113430385636327
6.797648956525851
-0.005623160254262571
6.768407547963055
9.230935674509055e-06
6.768373948726026
9.575672770933963e-06
6.767630932518856
7.033738863349015e-06
2.489499818181251e-06
6.766765788927151
6.766519297443364
2.023084485491822e-07
6.766519242109412
1.997110347096154e-07
6.766518104241153
1.368668730572509e-07
4.614392901114428e-08
6.766516935043039
6.766516626341742
6.766516623848798
6.766516626845686
6.766516631482282
6.76651663296274
-5.559954940892453e-09
6.766516633046747
-1.591667908584782e-10
6.766516633048256
1.012689931911837e-11
-1.034616836648183e-12
6.766516633049343
6.766516647592161
-3.218634688773037e-07
6.766516633075002
-1.03732088474473e-08
6.766516632985047
8.251954675131401e-12
3.896716282980606e-11
6.766516633047105
6.766530748923147
-0.0001389492743597565
6.766516745084996
-4.735994615368e-06
6.766516626722708
-1.615631634033221e-08
2.587319852809244e-08
6.766516626825151
6.768982493698738
-0.001294484832925102
6.766550497867208
-4.976908303305771e-05
6.766516270829113
1.165945383407863e-06
6.766516239635545
7.974916804709409e-08
-7.156543246900071e-09
6.766516448617439
2.188940823044661e-08
-1.28265176257969e-11
6.766516630754015
-1.298960938811433e-14
6.766516633049095
6.766516633049344
-2.264817977604139e-08
6.76651653136041
-1.921323727893665e-08
-1.57042112647332e-09
6.766516624838267
-4.540356979276794e-11
6.766516632640358
6.76651663304955
2.088440093084287e-06
6.76658486145204
-1.137457971589484e-06
4.372383796136248e-07
6.766519175416867
1.044757069745827e-08
6.766516720203117
6.766516633215304
-0.0001158926383596492
6.769336670654131
-0.04631640503670875
-5.107607641674505e-05
6.766166339329768
-3.257063219130885e-08
6.766512237252798
6.76651663115018
0.1555521220063518
6.610964564512347
0.3111092062972847
6.610963606850521
0.4655904841204214
6.611292267302388
6.710457857228147
0.2279351670017427
0.1555519302407984
6.455412508221151
0.3110968517573144
6.45541441459662
0.4621116473033693
6.456755280017942
6.659165000323965
0.1062393197577642
0.155551712276123
6.29986044381732
0.3110889362638076
6.299863058779068
0.4587361345303516
6.301654861903197
6.586310166142364
0.02486533716654504
0.1555515987257085
6.144308381281053
0.311084311115199
6.144311351523146
0.4568675017788905
6.146185079326428
6.421300871852639
-0.005111343321451911
-0.4555928439649114
6.244394265809277
-0.01048178127664801
-0.3110802271628503
5.990832057887382
-0.1555515970911897
5.988759798692002
5.988756204984062
-0.4539274262980809
6.04326902200793
-0.009212216148769659
-0.3110740052207308
5.835189613605537
-0.1555514231365989
5.833207802801274
5.83320403126385
-0.4522441035470206
5.851727498964207
-0.009609003718110909
-0.3110674325759094
5.679992857010538
-0.1555512414417122
5.677657108335694
5.67765186447624
-0.4495595416527304
5.647596839253496
-0.007890836632340692
-0.3110538763575683
5.524103174391987
-0.1555507960370593
5.522104351016899
5.522099695120132
0.1992998783139561
5.322798601942465
0.3985566948421405
5.322802512166821
0.5786866865964215
5.32462084758712
5.403346719932133
0.02339944581497844
0.1992996445979222
5.123497526686845
0.3985474299493191
5.123501693383914
0.5765107588383349
5.125142758207793
5.145907364674531
0.03640430496491631
0.1992993208048499
4.924196404935648
0.3985383808676543
4.924199826730788
0.576150469925341
4.9253983790989
4.905068590099379
0.126532775366262
0.1992998994652994
4.724895313149077
0.3985616142882532
4.724897278510809
0.5851485620523966
4.730012153086594
4.69973075792775
0.3781664433201469
-0.3353982457179604
5.060304330525078
-0.6709547838440352
5.060247925821026
-1.023772735292981
5.063715543196382
4.966431674290345
-1.430001582708728
-0.3354075018572627
5.395713612316518
-0.6705815937557986
5.395636095805744
-0.9868569064466598
5.385249623245928
4.688579388586589
-0.5050476732511889
-0.3354080096142707
5.731122740044952
-0.670315153879259
5.730959938124323
-0.9428576627107063
5.694845885191709
4.169460800243567
-0.05507264894886847
-0.3354077211038151
6.066532028011633
-0.6699214921631295
6.066419140547932
-0.8910628814590595
6.012953524017078
3.943288657975296
0.002989030441429036
0.460347163351344
4.125024741592154
0.008563053781037812
0.3495515630875341
6.196184971070615
0.1749951335807942
6.241421254329043
6.241528165748847
0.4705547533892266
4.44528325095211
0.006104533799460493
0.3496499313507091
6.384364425866464
0.1749953638392043
6.416468309278279
6.41652434521032
0.4842618885530235
4.717821411500715
0.001938194937699117
0.3497853230902817
6.56322082195813
0.1749956966570388
6.591468736699466
6.591520467016465
0.4791318005303424
4.973261774350969
0.01390267456790147
0.3497476836777538
6.743979525391441
0.1749956339001794
6.766477750157593
6.76651659741219
-0.02102635396980501
5.967239385084874
0.2186564879561476
-0.000120056829710169
6.763190593869551
-2.787037003404436e-07
6.766512863774058
6.766516629907247
-0.004899265572386624
6.574491476194849
0.1477714028492291
-1.725019338683076e-05
6.766281223510092
-2.969423729126675e-08
6.766516481047304
6.76651663297906
-0.001310707733630956
6.761411060964681
0.109103231631883
-3.516781363011035e-06
6.766642677355064
-5.309121142715867e-09
6.76651668646441
6.766516633125631
-0.001310829925018075
0.09214870716220491
6.773535680479656
-5.095501180774065e-06
6.76639102018386
-1.046848918662135e-08
6.766515656809029
6.766516632883231
1.095782518613317
-0.8345977571023591
-0.01975691210990643
-2.066880000484161e-11
1.983162614506885
-0.8744136032545602
-8.909317728011956e-12
2.85826944809704
-0.8749779757267793
1.98774330328888e-12
-0.8749805941554691
-3.595346242946107e-12
1.095774023069508
-1.6709777723154
-0.02641133553099893
1.983162594139651
-1.748811382079312
2.858269448079432
-1.749955866003263
-1.749961187587882
1.095730792010555
-2.508662029989546
-0.03909300163824429
1.983161945396171
-2.623186422917582
2.858269444752525
-2.624933638332116
-2.624941779416905
1.095863491213539
-0.05351401193535098
-3.355462992255442
1.983162277978605
-3.49773636615726
2.858269444183283
-3.499911952303053
-3.499922373867857
-0.001310829925558088
-6.761411060972483
0.0921487071619333
6.773535680482647
-5.095501590224316e-06
-6.766642677358722
6.766391020183005
-1.047076980675854e-08
-6.766516686469373
6.766515656809991
-6.766516633123741
6.766516632890436
-0.001310707733747751
-6.574491476207084
0.1091032316314829
-3.516783683599201e-06
-6.766281223511408
-5.309395589847554e-09
-6.766516481054254
-6.766516632978954
-0.004899265576158496
-5.967239385089246
0.1477714028514163
-1.725019675435924e-05
-6.763190593874299
-2.969412626896428e-08
-6.766512863775276
-6.766516629909158
-0.02102635396994879
-4.973261774335098
0.2186564879561415
-0.0001200568288077797
-6.743979525388695
-2.787032535866985e-07
-6.766477750156005
-6.76651659741183
-0.1749951335719464
6.241528165790351
-6.066532028054097
-0.3495515630643012
6.241421254367401
-6.066419140600243
-0.4603471633424469
6.196184971039399
-6.012953523961444
4.12502474155955
-3.943288657926798
0.008563053781023205
-0.1749953638254351
6.416524345234722
-0.3496499313296788
6.4164683092992
-0.4705547533797966
6.384364425847353
4.445283250925756
0.006104533799465767
-0.1749956966448867
6.59152046702882
-0.3497853230679876
6.591468736708203
-0.4842618885429117
6.563220821950025
4.717821411491038
0.001938194938541742
-0.1749956338886354
-0.3497476836516485
-0.4791318005182287
0.01390267456691222
0.8910628814672434
-4.169460800209955
0.002989030440534543
0.6699214921928404
-5.694845885160003
0.3354077211189119
-5.730959938159095
-5.731122740076525
0.9428576627187998
-4.688579388564385
-0.05507264894815569
0.6703151539013622
-5.385249623228725
0.3354080096269356
-5.395636095828309
-5.395713612338527
0.9868569064586995
-4.966431674282941
-0.5050476732494151
0.6705815937783823
-5.063715543190443
0.3354075018642024
-5.060247925832186
-5.060304330535204
1.023772735305288
-4.699730757927463
-1.430001582713362
0.6709547838630452
-4.730012153087118
0.335398245722568
-4.724897278513263
-4.724895313149588
0.199299878319836
5.32279860196081
-5.522099695145126
0.3985566948562609
5.322802512183836
-5.522104351045529
0.5786866866043786
5.324620847564584
-5.524103174364601
5.403346719910052
-5.647596839224009
0.02339944581753195
0.1992996446038703
5.123497526698421
0.3985474299630543
5.123501693398904
0.5765107588461094
5.125142758193825
5.145907364659029
0.03640430496535374
0.1992993208110567
4.924196404941552
0.3985383808810284
4.924199826739144
0.5761504699312248
4.925398379092147
4.905068590092036
0.126532775366524
0.1992998994712504
0.3985616143011665
0.5851485620574379
0.3781664433217308
-0.4495595416458746
-5.85172749894227
-0.007890836628027253
-0.3110538763444852
-5.679992856987079
-0.1555507960308347
-5.677657108358011
-5.677651864494963
-0.4522441035385107
-6.043269022002508
-0.009609003717142461
-0.3110674325628362
-5.835189613573311
-0.1555512414358088
-5.83320780282334
-5.833204031276173
-0.4539274262926821
-6.244394265815568
-0.009212216146745389
-0.3110740052065009
-5.99083205789391
-0.155551423130044
-5.988759798692623
-5.988756204989538
-0.4555928439608351
-6.421300871811395
-0.0104817812802821
-0.3110802271489116
-6.146185079350217
-0.1555515970847008
-6.144311351530741
-6.144308381280283
0.1555521220057555
6.610964564512654
-6.766516631150501
0.3111092062977552
6.61096360685246
-6.766512237245643
0.4655904841218425
6.611292267297668
-6.7661663393293
6.71045785723003
-6.769336670653697
0.2279351669988768
0.1555519302407595
6.455412508217778
0.311096851757521
6.455414414595581
0.4621116473027967
6.45675528003084
6.659165000320066
0.1062393197598089
0.1555517122758686
6.299860443816729
0.3110889362631613
6.29986305877821
0.4587361345305315
6.301654861869245
6.586310166164502
0.02486533716446826
0.1555515987254085
0.3110843111149371
0.4568675017756027
-0.005111343315977734
-6.766516633216063
3.257082947794032e-08
-6.766516633049565
-1.044754383006108e-08
-6.766516633049342
4.331224268128153e-11
3.441691376337985e-15
-6.766516633049346
-6.76651672020104
5.107607466992015e-05
-6.766516632644535
-4.37240093131841e-07
-6.766516633049101
1.573217445205444e-09
1.28496102647091e-11
-6.766516633046856
-6.766519175420215
0.0001158926399683069
-6.766516624835604
-2.088438901315381e-06
-6.766516630753712
2.264714948907454e-08
7.156236991878728e-09
-6.76651662682388
-6.766584861453854
-0.04631640503711265
-6.766516531360566
-1.137459702205135e-06
-6.766516448616327
-1.921465364596031e-08
-6.766516239634889
2.188990011475767e-08
-1.052158360437261e-12
-6.766516633048243
3.892952626927126e-11
-6.766516632985343
2.587195313541457e-08
-6.766516626721693
-6.766516270828422
7.974950272382486e-08
1.044175856890206e-11
-6.766516633046743
7.638556454026002e-12
-6.766516633075248
-1.615385675224346e-08
-6.766516745087959
-6.766550497866688
1.165944894299109e-06
-1.591671239253856e-10
-6.766516632962855
-1.037312968854565e-08
-6.76651664759039
-4.735993714533038e-06
-6.766530748923355
-6.768982493699499
-4.976908292725346e-05
-5.560107485536037e-09
-6.766516631482327
-3.218639429425352e-07
-6.766516935044947
-0.0001389492752433275
-6.766765788924818
-6.797648956526095
-0.001294484834219956
-2.023140527329659e-07
6.766516626326625
-6.766516632318547
-9.230946115823535e-06
6.766519297428926
-6.766518373924929
-0.003820948890634945
6.768407547979251
-6.767991152954767
7.101367942705146
-7.079505828832934
-0.2130808850555592
-1.997149732257952e-07
6.766516623838075
-9.57568075199422e-06
6.766519242102657
-0.004410233977367783
6.768373948739587
7.013161479051544
-0.0707880270197212
-1.36871567080199e-07
6.766516626839712
-7.033748501417136e-06
6.766518104243596
-0.003414151381602393
6.767630932520956
6.888838570529394
-0.01777243118745225
-4.615001314434153e-08
-2.48951136561093e-06
-0.0011134303886986
-0.005623160256138293
-0.1729498510277888
-7.124923558014792
-0.03249845994880896
-0.1166618932072461
-6.825710176940017
-0.05833201331738913
-6.824849529759594
-6.824848669271828
-0.1730275943799425
-7.188823350956335
-0.00984123256364855
-0.1166610444684107
-6.884062831639659
-0.05833197593884043
-6.883181590818669
-6.883180708924677
-0.1731955923565044
-7.22882923784897
-0.01000590227116582
-0.1166614187926708
-6.942310684562663
-0.05833198550800101
-6.941513490618378
-6.941512749590672
-0.1734672710009764
-7.240483877917504
-0.006850656634751928
-0.1166617417334449
-7.000617746107941
-0.05833200413298667
-6.999844792821205
-6.999844792790366
-1.152036569065353
-6.306533897431552
0.01255817700941309
-2.012455377910966
-6.139146539150647
-2.872852967039932
-6.139447203692224
-6.139447203690359
-1.152064589585104
-5.352763774226141
0.06101969493401405
-2.01245537791648
-5.279049634532339
-2.872852967042259
-5.279049614566445
-5.279049614567443
-1.152057785184298
-4.429105956993689
0.1565618935062152
-2.012455377921992
-4.418652025498321
-2.872852967044603
-4.418652025443835
-4.418652025446893
-1.152057789094958
-3.558277065541707
0.265970715899866
-2.012455377927508
-3.558254436338149
-2.872852967046921
-3.558254436324422
-3.55825443632866
2.843686947076677
0.8895636090796828
1.954123337995112
0.8895636090815646
1.064559728908975
0.8895636090861292
0.8895634772313112
0.1749961846890723
2.843686947077599
1.7791272181565
1.954123337999196
1.779127218159969
1.064559728911149
1.779127218174061
1.779124692107292
0.1749966469172797
2.843686947089469
2.668690827241873
1.95412333800662
2.668690827242819
1.064559728912908
2.668690827267501
2.668653049571847
0.1749999120335254
2.843686947088214
1.954123338006611
1.064559728911838
0.1749548964166014
0.1749961798537281
0.1749961799130607
0.1749957858978211
0.1749966583744328
0.174994961929385
0.1749989747683196
0.1748434961352183
0.1750737823457629
0.1749966584260318
0.1749957859162771
0.1749961921312016
0.1749961921082716
0.1750001375659866
0.1749940956960648
0.1745315609909249
0.1749146030002565
0.1749989747390681
0.1749949619499604
0.1749940956860584
0.1750001375533252
0.1749408957196897
0.1749408957250811
0.1721667868685703
0.1760335034697309
0.1748434961363953
0.1750737823517053
0.1745315609958756
0.1749146029911197
0.1721667868739008
0.1760335034701632
0.1710995928804747
0.1710995928829813
-0.0837437025207361
0.2507280528149079
-0.1553958913392783
0.2406922616529803
-0.2243411297289726
0.236750944127478
0.2111732961313183
-0.01921219553738118
0.269295553720644
-0.05013209459650603
0.2686247002109112
-0.093934147334374
0.2743709672053139
0.263053053602086
-0.005599199052448656
0.277865670151195
-0.01988768392067397
0.2873769905020127
-0.0340373147944919
0.291502734392201
0.2902223444945714
-0.001734365361020784
0.2851753923425709
-0.004061997352925339
0.3016468553321833
-0.004992992759081827
0.3040226019763782
0.3017962303259056
0.3045429366498464
-0.007971308321967074
0.3052291779755235
-0.01010844876461015
0.3054292569352667
-0.009715696776873006
-0.03085280193689777
0.3065921700794836
0.3088756765493322
-0.003087578422233228
0.3097795294711629
-0.003548652552223974
0.3100644338804093
-0.002987096448191506
-0.02620711805464193
0.3167902415926058
0.30666870104154
0.002596988177167803
0.3075408408044911
0.004059120200661404
0.3079219273064796
0.004559140533167805
-0.03650456229485699
0.3305696110303847
0.2879317134288202
0.288315695284095
0.2885722395780266
0.2479498053251507
0.2875732958575359
-0.1877124451037241
0.2605158436588132
-0.02834066245504863
0.2446808434278511
0.004630729007872258
8.200129745350448e-05
0.2368668904276119
0.2769733269800078
-0.1281760385977217
0.2517440225453463
0.008177913945457804
0.2433078815650158
0.01745678922605087
0.005154801924107555
0.2376919639128008
0.260977886698511
-0.06187240632046453
0.2509224305380431
0.0156563618126464
0.2497493899816108
0.02013724270475281
0.01187569338504313
0.2418405412317816
0.1873873123546432
0.204975775346621
0.2243186733057309
0.2305538609815819
0.2337179775123423
-0.0007097273803317594
0.2333364549306286
-3.179375493223002e-05
0.233328159929139
8.907543522784778e-07
8.325038575174304e-08
0.2333281413662806
0.2340217948629585
0.0008406107820425612
0.2333463711719165
9.456014434650051e-05
0.2333282218697143
4.597018839147538e-06
1.71639747248431e-07
0.2333281571577006
0.2348823694395668
0.004548424096650794
0.2333746220652363
0.0006208308047067623
0.2333283412921221
2.049782632762565e-05
2.749021908443616e-07
0.2333281576169921
0.2325999048770501
0.2332748260076551
0.2333275845931815
0.2333281509497294
0.2333281549393979
7.666394907790419e-09
0.2333281567784638
-1.020276441110468e-08
0.2333287466710564
1.951856110626871e-06
-0.07634091446677366
0.2456689613257499
0.2333281574477478
1.966882545723081e-09
0.2333281575059104
-3.575064855265708e-09
0.2333287993108
2.030618933612782e-06
-0.07861693338175335
0.2236729455584391
0.2333281582536968
2.807707899510348e-09
0.2333281586632161
2.976757729200585e-11
0.2333285276177131
8.105080659959185e-07
-0.04582636916306265
0.1941519417170229
0.2333281586476403
0.2333281611924473
0.2333282926916724
0.1666715536409539
0.2771431259271566
0.1731569056428341
0.2945011119956718
0.09992096910609294
0.3081212639730018
0.03607122980864286
0.008590482584472814
0.31215729552093
0.2635646483591139
0.1197537623001971
0.2909371199443754
0.0711175287946002
0.3137951857782166
0.03569825644867386
0.0160087585131039
0.3229335689658935
0.235305385570769
0.07357598254419639
0.2781099147454593
0.02303766213715019
0.3089310500573381
0.006882461108887794
0.003428431781718699
0.320463531886388
0.233278059866567
0.2524423810187045
0.2726319703837475
0.2887380925727592
0.3127595465858628
0.003974341746703525
0.3127841442549886
0.005497343117247477
0.312550873600815
0.005935116040469701
0.008209299037329365
0.312313467923329
0.3240978311636153
0.01318154397021642
0.3242333616430844
0.01485137895025535
0.3243776211090709
0.01561152027119539
0.01811240716848261
0.3248578318258362
0.3218837787557242
0.001454245573497825
0.3219678572389084
0.001735781182279239
0.32200865444939
0.001804575776226724
0.003033411842777278
0.3224167220645264
0.2915597559273515
0.2916142893436146
0.2914303482952809
0.29221926481231
0.3212211110669704
0.03185500499243044
0.3341746656368197
0.04350805550972181
0.3616225684066047
0.1252693396090135
0.3276651962421121
0.4356176415732863
0.3337183838104664
0.03723633315014097
0.3460049984367464
0.05009107620134801
0.3682697448022215
0.1210878436866683
0.2423365179632136
0.475749440324896
0.3311868189266008
0.01205049493063493
0.3466584283075487
0.02581793403942001
0.3780650547573191
0.09767282881972061
0.08224902006571899
0.5367611898794539
0.3002135796243032
0.3232965613269366
0.4207334311051032
0.4884500129338951
0.233207451686468
-1.241321661068109
0.03378116894180449
-0.2902665541807219
0.003633965351095876
-0.01341571989544354
0.01622909191770933
-0.000298800408739917
0.1618279479779381
-0.9088505717213746
0.0160580942901246
-0.1324174797586621
0.0001983759104798571
0.005217990666112018
0.01566211922281906
0.0002092974968393169
0.09750236033114769
-0.4545158463096673
0.00986379660640836
-0.03128190260983124
0.001611678548105176
0.0171283838688612
0.01085069250400218
0.0006667768818475178
0.02981304120942601
-0.007099619635108063
0.000645975112812067
0.001055163072261908
0.0009868563356833244
0.01135428729087342
0.001261320867544496
0.009466490040243032
0.002706637355164573
0.002913599534976215
-0.0004810196333046926
0.01925250845512702
-0.001508424582860032
0.01157834796185766
-0.00511229393995433
0.009903464451506368
-0.005999065443095595
0.003186893632466554
-0.001827997559236207
-0.001218182263487588
-0.001808048667274985
0.008783820379289667
-0.006794410261982964
0.008330969908072465
-0.00841072201917752
0.003137605475753376
0.002060346247556744
-0.008909904581402252
-0.002707732817625813
-0.008281349933946485
-0.00815519419522797
-0.007900150470712887
0.1495397192723901
0.1165585385661357
0.2036346764875998
0.133655734123453
0.2307008914258775
0.124743328656691
0.09431581967744412
0.2502571039115449
0.09577980761327162
0.04630134400740636
0.1738871760382601
0.08625850271591246
0.2139250561666502
0.1232061297433942
0.08075945228280168
0.251240320580788
0.03730681863062282
0.01224650636338065
0.1250045869706087
0.01901199446794657
0.1934548704826465
0.08301268023394462
0.04921132209346779
0.2555603625803911
-0.005189754670535059
0.01969832001003225
0.1243234308739297
0.1985461348641956
0.2084511637265985
-0.2915990725112036
0.3634741532685255
0.1748150333446117
-0.2121289087738965
0.3081076452598099
0.1379599755031851
-0.1377642436912557
0.2358769872563414
-0.1033366978706246
0.09398320205986077
0.1596977171994474
0.198493093623189
-0.2276465845278063
0.1270099359735242
-0.1361743103315632
0.123420306164671
-0.05967229841034949
-0.03336209951336471
0.1207878034138241
0.171858817152799
-0.1319520801100244
0.08641570519089774
-0.03321304293258728
0.05047159936853893
-0.01747271346519007
-0.00981150984643798
0.0595280335598399
0.0639682391893448
0.03668260990452665
0.04570141864228974
0.03497672110450903
0.02768304743572452
0.001498635883200613
0.02622985697085615
-0.0031424069437053
0.02026171623050981
-0.006911070824486002
-0.007728609381168691
-3.907985046680551e-14
0.075892414894235
0.0141132708092644
0.07834757346877033
0.00952753761180055
0.06304806522644643
0.002521114321796258
0.001871372228357196
-2.542410726391608e-14
0.1080260066236012
0.03561340996722939
0.07588439718753312
0.02490438000650447
0.02802365152473456
0.01606798798089857
0.007647359818077817
4.667100039768002e-14
0.06637590107306912
0.0320966708197303
0.00788035284757304
1.609962163584555e-13
-0.007728609381131917
-0.02026171623055441
0.001871372228417784
-0.0630480652264494
0.007647359818115054
-0.02802365152461564
-0.00788035284732002
0.01975691210968736
-0.006911070824448402
-0.02622985697087806
0.002521114321844816
-0.07834757346870778
0.01606798798096557
-0.0758843971875057
-0.03209667081964917
0.0264113355309952
-0.003142406943691927
-0.02768304743574046
0.009527537611864218
-0.07589241489417278
0.02490438000653838
-0.1080260066235809
-0.06637590107290239
0.03909300163826206
0.00149863588320928
-0.03497672110449539
0.01411327080926099
-0.05952803355980067
0.03561340996724031
-0.1207878034137958
-0.09398320205960357
0.05351401193536775
-0.1379599755025969
-0.1033366978703317
0.159697717199088
-0.1748150333439759
-0.1377642436911102
0.2358769872559568
-0.2084511637263084
-0.2121289087738172
0.308107645259885
-0.2915990725112223
-0.2502571039118998
0.3634741532684974
-0.1234203061646278
-0.03336209951336191
-0.1270099359733708
-0.05967229841024004
-0.1984930936226599
-0.1361743103314124
-0.2276465845276715
-0.2512403205807265
-0.0504715993685123
-0.009811509846438768
-0.08641570519072723
-0.01747271346519962
-0.1718588171525696
-0.03321304293252564
-0.131952080109837
-0.2555603625801931
-0.04570141864224283
-0.03668260990441142
-0.06396823918923492
-0.1985461348640394
-0.1243234308742197
-0.04921132209340845
-0.0196983200104735
-0.08301268023421343
0.005189754670500882
-0.01901199446865123
-0.0122465063634398
0.007900150470682158
-0.1934548704828796
-0.08075945228233072
-0.1250045869711358
-0.1232061297436525
-0.03730681863072934
-0.08625850271728633
-0.04630134400741283
0.008909904581375638
-0.213925056166752
-0.09431581967682379
-0.1738871760387413
-0.1247433286569165
-0.0957798076133286
-0.1336557341253213
-0.1165585385659263
0.001218182263371101
-0.2307008914259227
-0.2036346764879955
-0.1495397192725289
-0.01925250845493175
-0.002706637355461804
-0.0004810196335367119
-0.001261320867453307
0.002913599535244286
-0.0009868563356878052
0.009466490040261951
0.01135428729078758
0.0002988004088207066
0.005999065442987325
-0.001827997559377376
0.005112293940007441
0.00318689363257077
0.001508424582879959
0.009903464451490228
0.01157834796177989
-0.0002092974968259161
0.008410722019137751
0.002060346247550228
0.006794410261994906
0.003137605475739692
0.0018080486672684
0.008330969908010868
0.008783820379170547
-0.000666776881831305
0.008155194195279651
0.008281349934005131
0.002707732817599156
-0.001055163072310029
-0.003633965350921142
0.01622909191680146
-0.03378116894100123
-0.01341571989514703
-0.233207451684853
-0.2902665541792315
-1.241321661070274
-0.435617641573824
-0.0001983759105321017
0.01566211922194555
-0.01605809428983413
0.005217990666134736
-0.1618279479766143
-0.1324174797579444
-0.9088505717217719
-0.4757494403251106
-0.001611678548116131
0.01085069250333368
-0.009863796606207387
0.01712838386900956
-0.09750236033039043
-0.03128190260956865
-0.4545158463096867
-0.5367611898793907
-0.0006459751128492282
0.007099619635158148
-0.02981304120924467
-0.4884500129339026
-0.3616225684066613
0.3276651962436431
-0.3341746656362325
0.1252693396091737
-0.3212211110664195
0.04350805550979708
0.03185500499463867
-0.31231346792226
-0.3682697448022482
0.2423365179638448
-0.3460049984363875
0.1210878436867098
-0.3337183838101573
0.05009107620121012
0.03723633315274533
-0.3248578318257944
-0.3780650547575705
0.08224902006606083
-0.3466584283077822
0.09767282881970485
-0.3311868189268597
0.02581793403938437
0.01205049493190269
-0.3224167220648567
-0.4207334311058246
-0.3232965613286456
-0.3002135796266769
-0.2922192648145281
-0.3125508736006473
0.00820929904229406
-0.3127841442569438
0.005935116041107635
-0.3127595465856983
0.005497343116669384
0.003974341746459498
-0.3121572955194742
-0.3243776211089086
0.01811240717329143
-0.3242333616429152
0.01561152027116619
-0.3240978311637476
0.014851378949575
0.01318154397191129
-0.3229335689655741
-0.322008654449522
0.003033411845758893
-0.3219678572390606
0.001804575777555439
-0.3218837787559339
0.001735781182167329
0.001454245573333068
-0.320463531886288
-0.2914303482967552
-0.2916142893440246
-0.2915597559277465
-0.288738092573493
-0.3081212639735089
0.008590482588797022
-0.294501111995599
0.03607122980679678
-0.277143125927644
0.09992096910848025
0.1731569056403971
-0.2456689613256388
-0.3137951857784451
0.01600875851658856
-0.2909371199444897
0.03569825644749014
-0.2635646483592971
0.0711175287959771
0.1197537622987093
-0.2236729455584192
-0.3089310500576072
0.003428431783959796
-0.2781099147454776
0.006882461108368321
-0.2353053855706006
0.02303766213841341
0.07357598254320374
-0.1941519417168599
-0.2726319703840654
-0.2524423810189069
-0.2332780598664581
-0.1666715536407111
-0.2333287466706566
-0.07634091446764874
-0.2333281567783004
1.951854247950191e-06
-0.233328154939266
-1.020359413628213e-08
7.667049717330343e-09
-0.233328141366195
-0.2333287993102883
-0.07861693338274428
-0.2333281575058329
2.030617352655195e-06
-0.2333281574476864
-3.57541929396632e-09
1.967301876959482e-09
-0.2333281571577802
-0.2333285276173436
-0.04582636916367105
-0.233328158663024
8.105072877850894e-07
-0.233328158253782
2.967870393888461e-11
2.807985177710748e-09
-0.2333281576170803
-0.2333282926914717
-0.2333281611923234
-0.233328158647626
-0.2333281509498541
-0.2333281599290502
8.32507626724599e-08
-0.2333364549305245
8.907542802805146e-07
-0.2337179775126587
-3.179375523354455e-05
-0.0007097273800963921
-0.2368668904280179
-0.2333282218695257
1.716398032591826e-07
-0.2333463711713819
4.59701873223306e-06
-0.2340217948629607
9.456014386693967e-05
0.0008406107825860709
-0.2376919639125726
-0.2333283412918819
2.749020798775703e-07
-0.2333746220644556
2.049782587643101e-05
-0.2348823694394721
0.0006208308049183708
0.004548424096878556
-0.2418405412316534
-0.2333275845933479
-0.2332748260077881
-0.2325999048775671
-0.2305538609803167