/*--------------------------------*- C++ -*----------------------------------*\
  =========                 |
  \\      /  F ield         | OpenFOAM: The Open Source CFD Toolbox
   \\    /   O peration     | Website:  https://openfoam.org
    \\  /    A nd           | Version:  11
     \\/     M anipulation  |
\*---------------------------------------------------------------------------*/
FoamFile
{
    format      ascii;
    class       volScalarField;
    location    "0.055";
    object      rho;
}
// * * * * * * * * * * * * * * * * * * * * * * * * * * * * * * * * * * * * * //

dimensions      [0 0 0 0 0 0 0];

internalField   nonuniform List<scalar> 
880
(
0.3733250556165154
0.3733250556165154
0.3733250556165154
0.3733250582596664
0.3733250556165154
0.3733250556165154
0.3733250556165152
0.373325090304517
0.3733250556165154
0.3733250556165153
0.3733250556165154
0.3733264637598115
0.3733250556165154
0.3733250556165154
0.3733250556165331
0.3733293307253117
0.3733250556165154
0.3733250556165155
0.3733250556165152
0.3733250556165154
0.3733250556165154
0.3733250556165154
0.3733250556165151
0.3733250556165154
0.3733250556136949
0.3733250555007202
0.3733275593282651
0.3733151168534071
0.374108605484868
0.3772697990422616
0.3804603312463334
0.381957837109344
0.3733250559148067
0.3733250560260518
0.3733250560868701
0.3733250557968363
0.3733250731434031
0.3733250816930933
0.373325086456236
0.3733250689650416
0.3733506663613366
0.3733535528857828
0.3733572121086635
0.3733483789138645
0.3828320391178067
0.3838486677391906
0.3845051519182897
0.38482668585716
0.3848570198711374
0.3820398374155379
0.3785274428774303
0.3753586014320779
0.3733918980079683
0.3733929110496146
0.3733743076164007
0.3733433340766246
0.3733251502670569
0.3733251503240111
0.3733251219582489
0.3733250792111495
0.3733250572678934
0.3733250570872161
0.3733250564297032
0.3733250558183729
0.3733250556314802
0.3733250556165153
0.3733250556165154
0.3733250556165155
0.3733250586504526
0.3733250557091897
0.3733250556135947
0.3733250556162457
0.3733276390764257
0.3733251480861912
0.3733250556902694
0.3733250553729372
0.3736860823809281
0.3733433270358074
0.3733251851177448
0.373325041908753
0.3733250496149183
0.3733250555309234
0.3733250556165154
0.3733250556165154
0.3733250478240289
0.3733250551106407
0.373325055596797
0.3733250556165149
0.3733264089199276
0.3733252017767429
0.3733250604757402
0.3733250556783709
0.3732303107520423
0.3732985980448069
0.3733248457593509
0.3733250555237025
0.3733250554846551
0.3733250273061972
0.3733300084153714
0.386235028440096
0.3733250567757943
0.3733251186101983
0.3734044075415333
0.4023783427913018
0.3733250582960934
0.3733252169326938
0.373472139230501
0.4116691205477945
0.3733250591470571
0.3733252677211562
0.3735085058857417
0.4167324369562456
0.4193332739146399
0.3735386075796191
0.3733253201769154
0.3733250601437598
0.4226302633477036
0.3735823532223119
0.3733253998146689
0.3733250615940304
0.4253613193762695
0.3736233760850569
0.3733254802316816
0.3733250632663685
0.4294423819960165
0.3737058537882699
0.3733256704864177
0.3733250670602135
0.373325065552252
0.373325588281691
0.373711362447958
0.4338567785198718
0.3733250674602347
0.3733256915543969
0.3737627258445126
0.4360531931990332
0.373325071000628
0.3733258308030841
0.3738012172573605
0.4331955601644702
0.373325065836572
0.3733255890305064
0.3735589771790858
0.4104254226018312
0.3733246598337701
0.3733223712047833
0.3736555513758235
0.3799760828385897
0.373325029469291
0.3733183989000284
0.3725272877590929
0.3361982642827183
0.3733250417828544
0.3733159869128961
0.3713840946342948
0.3000797813629253
0.3733250405423464
0.3733108438078474
0.3698141765683349
0.2719825907913078
0.2779623081477236
0.3711468269299771
0.3733182547639704
0.3733250454585233
0.2828639280404797
0.3714262965788335
0.3733193404488893
0.3733250477569138
0.2952281567227624
0.3720901201312062
0.3733218557466118
0.3733250514060701
0.2892700654434125
0.3718351798818342
0.3733211941912681
0.3733250507363928
0.3270917566172971
0.3729103471814261
0.3733241920966043
0.3733250545040084
0.3577732784804599
0.3732675098536025
0.3733249667517549
0.3733250555250257
0.3693727739249824
0.3733150256641251
0.3733250410725619
0.3733250556019551
0.3708190014910786
0.3733137241522175
0.373325032703431
0.373325055577569
0.3612257839531973
0.3731731534686122
0.3733243778204707
0.3733250543506203
0.3612917150590416
0.3731731251562193
0.373324377776752
0.3733250543444552
0.361436995859371
0.3731723150013444
0.3733243738912481
0.3733250542917239
0.3619259416308522
0.3731738199598668
0.3733243757844066
0.3733250542266271
0.370819001491066
0.3733137241516724
0.3733250327026919
0.3733250555780763
0.3693727739238082
0.3733150256634287
0.3733250410708245
0.3733250556020953
0.3577732784800856
0.3732675098537072
0.3733249667516175
0.3733250555252389
0.3270917566178365
0.3729103471827765
0.3733241920967283
0.3733250545036201
0.3733250454597972
0.3733182547657587
0.3711468269303969
0.2779623081478775
0.3733250477575159
0.3733193404493825
0.3714262965795038
0.2828639280406746
0.3733250514049994
0.3733218557476325
0.3720901201312173
0.2952281567238315
0.3733250507367203
0.3733211941913786
0.371835179883806
0.2892700654424295
0.2719825907894369
0.3698141765676258
0.3733108438073023
0.3733250405421669
0.3000797813611514
0.3713840946332556
0.3733159869111187
0.3733250417811044
0.3361982642821935
0.3725272877576601
0.3733183989000171
0.3733250294674365
0.3799760828389535
0.373655551375296
0.3733223712042946
0.3733246598358129
0.3733250655518433
0.3733255882826995
0.3737113624488376
0.4338567785212161
0.3733250674605683
0.3733256915546458
0.3737627258444323
0.4360531931986678
0.3733250710017181
0.3733258308031257
0.3738012172562664
0.4331955601642542
0.3733250658385702
0.3733255890304775
0.3735589771783399
0.4104254226016486
0.4294423819987133
0.373705853787038
0.373325670488047
0.3733250670599669
0.425361319378775
0.3736233760862029
0.3733254802323436
0.3733250632667685
0.4226302633486808
0.3735823532251388
0.3733253998158139
0.3733250615937245
0.4193332739136862
0.3735386075790247
0.3733253201772854
0.3733250601434029
0.3733250554854856
0.3733250273074312
0.3733300084152877
0.3862350284381572
0.3733250567747339
0.373325118609116
0.3734044075419741
0.4023783427915815
0.373325058295623
0.3733252169327054
0.3734721392316922
0.4116691205482184
0.3733250591464641
0.3733252677213894
0.3735085058831958
0.4167324369581152
0.3733250555235356
0.3733250556787074
0.3733250556165079
0.3733250556165154
0.3733248457576145
0.3733250604754056
0.37332505559791
0.3733250556165153
0.373298598045108
0.3733252017776209
0.3733250551099049
0.3733250555305833
0.3732303107520462
0.3733264089200927
0.37332504782407
0.3733250496149031
0.3733250556165152
0.3733250556162455
0.3733250553731564
0.3733250419090767
0.3733250556165154
0.3733250556134164
0.3733250556921271
0.3733251851178085
0.3733250556165176
0.3733250557091695
0.3733251480854677
0.3733433270360073
0.3733250556316844
0.3733250586499765
0.3733276390773103
0.3736860823805919
0.3733250572665771
0.3733251502656658
0.3733918980070833
0.3848570198706359
0.3733250570861478
0.3733251503245087
0.3733929110497815
0.3820398374143564
0.3733250564294766
0.3733251219601274
0.3733743076161282
0.3785274428772174
0.3733250558181197
0.3733250792120479
0.3733433340767078
0.3753586014313307
0.3848266858574859
0.3733483789155242
0.3733250689640334
0.3733250557962133
0.3845051519178025
0.3733572121113234
0.3733250864558398
0.3733250560872407
0.3838486677408925
0.3733535528862833
0.373325081693496
0.3733250560257095
0.3828320391175303
0.3733506663568624
0.373325073142977
0.3733250559150951
0.3819578371099926
0.3733151168561303
0.3733250556165154
0.3733250556165154
0.380460331245797
0.3733275593253036
0.3733250556165154
0.3733250556165154
0.3772697990428114
0.3733250555005276
0.3733250556165154
0.3733250556165153
0.3741086054839396
0.3733250556134456
0.3733250556165154
0.3733250556165151
0.3733250556165154
0.3733250556165154
0.3733250556165154
0.3733250583054088
0.3733250556165152
0.3733250556165155
0.3733250556165153
0.3733250902991123
0.3733250556165154
0.3733250556165154
0.3733250556165154
0.3733264637609943
0.3733250556165154
0.3733250556165154
0.3733250556165151
0.3733293307252359
0.3733249087392406
0.3733246741964556
0.3733261085754223
0.3735499629708831
0.3733246742483062
0.3733230729318932
0.3733214195424525
0.3741165631940498
0.3733261085634715
0.3733214195218018
0.3736217392784588
0.3823370600515956
0.3735499629791973
0.3741165631867615
0.3823370600568574
0.429629358982598
0.5136018834976482
0.4514529545640334
0.421502986393373
0.3918355541591789
0.5091491072702298
0.4923361782609061
0.4822869322885742
0.4505814748377568
0.504281756128091
0.5016509585151631
0.5011071800041017
0.4888721104183459
0.509338458556675
0.5104895578148188
0.5130301922802196
0.5065157103583339
0.5142531575349948
0.515630750247035
0.5161376640556596
0.5245641137268426
0.5212522981563592
0.5230296112714231
0.52328028059785
0.5357588574851895
0.5161138516606418
0.517193599871865
0.5173371929294381
0.5335447010746204
0.5151186742644949
0.5161128307284988
0.5162835857828467
0.5244412357289022
0.4655815445144516
0.4074786359996516
0.3863600491327709
0.3790823956334115
0.4298926745508304
0.3679457110981676
0.3732060521068093
0.37614066419738
0.3868510069965284
0.3577582947923363
0.372747004296358
0.3783087141084758
0.3519402180708676
0.3633671580846903
0.3743262910322901
0.3764096218369203
0.3747633955622005
0.3734245573872145
0.3733261408420353
0.3733250250946754
0.3747325989189492
0.3734696322453449
0.3733267138065508
0.3733250606121503
0.3758287869736899
0.3736047776984479
0.373329340310281
0.3733250463203277
0.3737655741603683
0.373222496153886
0.3733163832541123
0.3733249359503871
0.3733250486159108
0.3733250491461079
0.3733261234613904
0.3995620512581119
0.3733250558265692
0.3733250520292573
0.3733260953570696
0.4192904839488545
0.3733250548925202
0.373325053997824
0.3733255818900383
0.4315235929045332
0.373325052952491
0.3733250546461168
0.3733253718103516
0.4350566656543415
0.626050502100081
0.6576986790166799
0.6819625631224158
0.6948207248713255
0.6970462587969642
0.688517941911843
0.7043625070135124
0.7239089151326202
0.7021662314216571
0.6850018341924361
0.7009467255097306
0.722803137351722
0.7352894460591431
0.7041282825595178
0.7139396520209429
0.7365587148715623
0.6974649010877884
0.6984932994331919
0.6988024399694558
0.6989437629183491
0.7287091877817876
0.7293209728940674
0.7292793079135499
0.7287145688398912
0.7295049995507243
0.7303847865987283
0.7305392483415237
0.7300982561420686
0.74510426868159
0.7460681707798366
0.7460783872216614
0.7454506735895652
0.6990828924085648
0.6969220043830699
0.6726236673902209
0.5946721082852315
0.7300157880422116
0.726679995807481
0.697749561220959
0.621952276351538
0.7310113822069011
0.7256011749159818
0.695879154650659
0.6346633221115027
0.7456420138564992
0.7398702625500045
0.7037139086048704
0.7366213925566889
0.3970244923191212
0.1392830805853384
0.0694730432648708
0.05522790705192276
0.3439000891590729
0.09888375582537097
0.05771314447403079
0.04805739561919853
0.2457619669188323
0.07644552571770874
0.06787213072850122
0.06348684711229462
0.1736104146334141
0.03754431322718489
0.07537790736002396
0.08366340534089922
0.05813529391627814
0.05874635087052069
0.06250083851831591
0.05628188148253704
0.04543490566412679
0.04754810314950942
0.05613030330866536
0.0489169026576487
0.06185523645253512
0.0667091489356174
0.07343910266607862
0.05812769603353426
0.08407670402961159
0.09132165992852746
0.09102679672194022
0.06040665604167072
0.1699451050785684
0.2652871008877867
0.309146243344007
0.3262943877510061
0.1266519565744571
0.2220091205879768
0.2693280131135479
0.3116857503810566
0.1084966175287344
0.1976515514621854
0.2462734122788446
0.3032847391541871
0.07306228072802325
0.1407777251290999
0.2117741971685537
0.2786981751733469
0.2748728258918898
0.2204119373648758
0.2246917370402626
0.2118994580448942
0.2271990858341697
0.127735490091509
0.1074761582110183
0.1696873701784659
0.1850704624888467
0.09957379823803844
0.0612762063954298
0.07953162473136496
0.1367600456961039
0.04668742039841191
0.06304022047510827
0.08541825940403029
0.0858434388328292
0.08379064602735165
0.07733726944423545
0.06265888353905266
0.1172614927432937
0.1313866696635106
0.1266617385913381
0.1053483029577734
0.1828412013662305
0.1646961287272982
0.1262497441353775
0.09132438992029916
0.1845524428142693
0.1559515166025779
0.1234530326595888
0.1059105307493663
0.06265888353898755
0.1053483029577722
0.09132438992028363
0.1059105307491408
0.07733726944413706
0.1266617385911857
0.1262497441352839
0.1234530326595418
0.08379064602731572
0.1313866696633736
0.164696128727067
0.1559515166022039
0.08584343883289317
0.117261492743288
0.18284120136601
0.1845524428137813
0.2118994580442882
0.2246917370394387
0.2204119373644654
0.2748728258908429
0.1696873701782396
0.1074761582112144
0.1277354900914144
0.2271990858336723
0.07953162473142876
0.06127620639543873
0.09957379823786777
0.1850704624886112
0.08541825940409188
0.06304022047508517
0.04668742039840384
0.1367600456959637
0.2786981751732067
0.2117741971688287
0.1407777251296028
0.07306228072822149
0.3032847391538565
0.246273412278702
0.197651551462469
0.1084966175288582
0.3116857503809232
0.2693280131130086
0.2220091205881943
0.1266519565744776
0.3262943877508647
0.3091462433433952
0.2652871008879197
0.169945105078586
0.05628188148205537
0.06250083851892826
0.05874635087059345
0.05813529391612444
0.04891690265754297
0.05613030330885303
0.04754810314965575
0.04543490566421812
0.05812769603351054
0.07343910266621941
0.06670914893576217
0.0618552364525879
0.06040665604165818
0.09102679672196803
0.09132165992870692
0.08407670402957063
0.05522790705113164
0.06947304326397917
0.1392830805850523
0.3970244923190079
0.04805739561922421
0.05771314447359815
0.09888375582511512
0.3439000891576589
0.06348684711218439
0.06787213072806206
0.07644552571778176
0.2457619669180821
0.08366340534044571
0.07537790736005752
0.0375443132273813
0.1736104146331759
0.5946721082843655
0.6726236673897852
0.6969220043826255
0.6990828924090777
0.6219522763507669
0.6977495612207314
0.7266799958076781
0.7300157880430872
0.634663322110964
0.695879154650711
0.7256011749168055
0.7310113822081098
0.7366213925564872
0.7037139086053044
0.7398702625508949
0.7456420138571443
0.6989437629185425
0.6988024399717355
0.6984932994345772
0.697464901085155
0.7287145688399669
0.7292793079149853
0.7293209728953691
0.7287091877804384
0.7300982561425942
0.7305392483424505
0.7303847865993827
0.7295049995504077
0.7454506735895104
0.7460783872224183
0.7460681707805829
0.7451042686807249
0.6948207248730524
0.681962563122521
0.6576986790172431
0.6260505020994015
0.7239089151334767
0.7043625070139822
0.6885179419118972
0.6970462587966652
0.7228031373520697
0.7009467255103465
0.6850018341921358
0.7021662314211657
0.7365587148719983
0.7139396520213377
0.7041282825590138
0.7352894460586173
0.3995620512580786
0.3733261234602592
0.3733250491455907
0.3733250486160295
0.4192904839486812
0.3733260953562139
0.3733250520289431
0.3733250558267467
0.4315235929043462
0.3733255818895154
0.3733250539976983
0.3733250548926141
0.4350566656541219
0.3733253718099444
0.3733250546460672
0.3733250529526544
0.3733250250948184
0.3733261408422067
0.3734245573878157
0.3747633955618592
0.3733250606121395
0.3733267138062233
0.3734696322466356
0.374732598917375
0.3733250463202787
0.3733293403095329
0.3736047777004603
0.3758287869719579
0.3733249359504514
0.3733163832534687
0.3732224961558198
0.3737655741584
0.3790823956329705
0.3863600491324889
0.4074786359987989
0.465581544514239
0.3761406641969034
0.3732060521067274
0.3679457110975966
0.4298926745516261
0.3783087141077503
0.3727470042964688
0.3577582947918507
0.3868510069971463
0.3764096218358982
0.3743262910324859
0.3633671580844013
0.3519402180713921
0.5245641137267133
0.5161376640546067
0.5156307502456627
0.5142531575363078
0.5357588574848209
0.5232802805971397
0.5230296112704035
0.5212522981572661
0.5335447010744969
0.517337192929631
0.517193599871465
0.5161138516601036
0.5244412357289744
0.5162835857831015
0.5161128307285737
0.5151186742640249
0.5065157103588506
0.4888721104173668
0.4505814748388823
0.3918355541587795
0.5130301922808009
0.501107180003225
0.4822869322892075
0.4215029863961093
0.5104895578166152
0.5016509585145388
0.4923361782614074
0.4514529545641201
0.5093384585583631
0.5042817561274948
0.5091491072702085
0.5136018834988828
0.3703648882474945
0.3733043900574866
0.3733249819590083
0.3733250554894592
0.3682231136234987
0.3732764139993974
0.3733248565540349
0.3733250552504451
0.3654027384360248
0.3732304560816967
0.3733246427958413
0.3733250547758141
0.3601520255467119
0.3731602807529635
0.3733243644836254
0.3733250542258463
0.3733250543513166
0.3733243778202153
0.3731731534681256
0.3612257839520769
0.3733250543449572
0.3733243777776034
0.3731731251551046
0.3612917150586164
0.3733250542910789
0.3733243738919568
0.3731723150010946
0.3614369958591805
0.3733250542245393
0.3733243757854386
0.3731738199568123
0.3619259416302763
0.373325054225581
0.3733250547754605
0.373325055248374
0.3733250554869947
0.3733243644838051
0.3733246427958406
0.3733248565536493
0.3733249819578658
0.3731602807540025
0.3732304560803991
0.373276414000577
0.37330439005668
0.360152025545842
0.3654027384347789
0.3682231136233113
0.3703648882478288
)
;

boundaryField
{
    back
    {
        type            empty;
    }
    inlet
    {
        type            calculated;
        value           nonuniform List<scalar> 
16
(
0.3733250556165154
0.3733250556165154
0.3733250556165154
0.3733250556165154
0.3733250556165154
0.3733250556165155
0.3733250556165152
0.3733250556165154
0.3733250556165154
0.3733250556165154
0.3733250556165154
0.3733250556165151
0.3733250556165154
0.3733250556165152
0.3733250556165154
0.3733250556165154
)
;
    }
    front
    {
        type            empty;
    }
    top
    {
        type            calculated;
        value           nonuniform List<scalar> 
40
(
0.3733250559148067
0.3733250560260518
0.3733250560868701
0.3733250557968363
0.3733250572678934
0.373325057087216
0.3733250564297032
0.3733250558183729
0.3733250556314802
0.3733250556165153
0.3733250556165154
0.3733250556165155
0.3733250556165154
0.373325055616515
0.3733250556783709
0.3733250555237025
0.3733250554846551
0.3733250567757943
0.3733250582960934
0.3733250591470571
0.3733250601437598
0.3733250615940304
0.3733250632663685
0.3733250670602135
0.373325065552252
0.3733250674602347
0.3733250710006281
0.373325065836572
0.3733246598337701
0.373325029469291
0.3733250417828544
0.3733250405423464
0.3733250454585233
0.3733250477569138
0.3733250514060701
0.3733250507363928
0.3733250545040084
0.3733250555250257
0.3733250556019551
0.373325055577569
)
;
    }
    outlet
    {
        type            calculated;
        value           uniform 0.3733250556165154;
    }
    bottom
    {
        type            calculated;
        value           nonuniform List<scalar> 
40
(
0.3733250555780763
0.3733250556020953
0.3733250555252389
0.37332505450362
0.3733250454597972
0.3733250477575159
0.3733250514049994
0.3733250507367203
0.3733250405421669
0.3733250417811044
0.3733250294674365
0.3733246598358128
0.3733250655518433
0.3733250674605683
0.3733250710017181
0.3733250658385702
0.3733250670599669
0.3733250632667685
0.3733250615937245
0.3733250601434029
0.3733250554854856
0.3733250567747339
0.373325058295623
0.3733250591464641
0.3733250555235356
0.3733250556787074
0.3733250556165079
0.3733250556165154
0.3733250556165152
0.3733250556165154
0.3733250556165176
0.3733250556316844
0.3733250572665771
0.3733250570861478
0.3733250564294766
0.3733250558181197
0.3733250557962133
0.3733250560872407
0.3733250560257095
0.3733250559150951
)
;
    }
    wall
    {
        type            calculated;
        value           nonuniform List<scalar> 
104
(
0.5136018834976482
0.5091491072702298
0.504281756128091
0.509338458556675
0.5151186742644949
0.5161128307284988
0.5162835857828467
0.5244412357289022
0.3519402180708676
0.3633671580846903
0.3743262910322901
0.3764096218369203
0.3737655741603684
0.373222496153886
0.3733163832541123
0.3733249359503871
0.373325052952491
0.3733250546461168
0.3733253718103516
0.4350566656543415
0.7352894460591431
0.7041282825595178
0.7139396520209429
0.7365587148715623
0.74510426868159
0.7460681707798366
0.7460783872216614
0.7454506735895652
0.7456420138564992
0.7398702625500045
0.7037139086048704
0.7366213925566889
0.1736104146334141
0.03754431322718489
0.07537790736002396
0.08366340534089922
0.08407670402961159
0.09132165992852746
0.09102679672194022
0.06040665604167072
0.07306228072802325
0.1407777251290999
0.2117741971685537
0.2786981751733469
0.1367600456961039
0.04668742039841191
0.06304022047510827
0.08541825940403029
0.0858434388328292
0.08379064602735165
0.07733726944423545
0.06265888353905266
0.06265888353898755
0.07733726944413706
0.08379064602731572
0.08584343883289317
0.08541825940409188
0.06304022047508517
0.04668742039840384
0.1367600456959637
0.2786981751732067
0.2117741971688287
0.1407777251296028
0.07306228072822149
0.06040665604165818
0.09102679672196802
0.09132165992870692
0.08407670402957063
0.08366340534044571
0.07537790736005752
0.0375443132273813
0.1736104146331759
0.7366213925564872
0.7037139086053044
0.7398702625508949
0.7456420138571443
0.7454506735895104
0.7460783872224183
0.7460681707805829
0.7451042686807249
0.7365587148719983
0.7139396520213377
0.7041282825590138
0.7352894460586173
0.4350566656541219
0.3733253718099444
0.3733250546460672
0.3733250529526544
0.3733249359504515
0.3733163832534687
0.3732224961558198
0.3737655741584
0.3764096218358982
0.3743262910324858
0.3633671580844013
0.3519402180713921
0.5244412357289744
0.5162835857831015
0.5161128307285737
0.5151186742640249
0.5093384585583631
0.5042817561274948
0.5091491072702085
0.5136018834988828
)
;
    }
}


// ************************************************************************* //
