/*--------------------------------*- C++ -*----------------------------------*\
  =========                 |
  \\      /  F ield         | OpenFOAM: The Open Source CFD Toolbox
   \\    /   O peration     | Website:  https://openfoam.org
    \\  /    A nd           | Version:  11
     \\/     M anipulation  |
\*---------------------------------------------------------------------------*/
FoamFile
{
    format      ascii;
    class       volScalarField;
    location    "0.0485";
    object      Ma;
}
// * * * * * * * * * * * * * * * * * * * * * * * * * * * * * * * * * * * * * //

dimensions      [0 0 0 0 0 0 0];

internalField   nonuniform List<scalar> 
880
(
1.443353270571932
1.443353270571932
1.443353270571932
1.443353268526475
1.443353270571932
1.443353270571932
1.443353270571934
1.443353422721301
1.443353270571932
1.443353270571933
1.443353270571932
1.443352168639564
1.443353270571932
1.443353270571932
1.443353270572166
1.443318888001034
1.443353270571932
1.443353270571932
1.443353270571933
1.443353270571932
1.443353270571932
1.443353270571932
1.443353270571935
1.443353270571932
1.443353270624497
1.443353269878923
1.44335377190125
1.44335270052642
1.441983291439449
1.436132506689825
1.431324582774573
1.430875383840793
1.443353270210095
1.443353270016659
1.443353269923542
1.443353270386454
1.443353259055178
1.443353257799646
1.443353256875521
1.443353254800449
1.443333727437939
1.443331205600964
1.443330334804354
1.44332338513532
1.430212726546801
1.42980736732433
1.429986136733342
1.425756781934538
1.434836566461669
1.442746186920545
1.445784073327324
1.444393517628491
1.443316320573801
1.44333454584747
1.443353527472884
1.443355879483861
1.443353233825585
1.443353249429415
1.443353268557471
1.44335327234057
1.44335326830786
1.443353268478869
1.443353269434876
1.44335327031077
1.443353270557679
1.443353270571933
1.443353270571932
1.443353270571932
1.443353270844442
1.443353270576782
1.443353270571932
1.443353270571999
1.443353658318476
1.44335327922751
1.443353270579389
1.443353270566987
1.443472654062674
1.443356271751584
1.443353287845282
1.443353260965811
1.443353267210212
1.443353270556764
1.443353270571932
1.443353270571932
1.44335326544728
1.443353270622879
1.443353270579833
1.443353270571932
1.44335125956775
1.44335314323944
1.44335326798251
1.443353270536671
1.445145373731967
1.443388912055197
1.443353299689532
1.443353270588049
1.443353270569897
1.44335321292414
1.443327643905517
1.406839890282929
1.443353269252957
1.443353184061214
1.44320111982657
1.350203533582916
1.443353267674767
1.443353146643463
1.443131332511251
1.336460043650648
1.443353266818092
1.443353115833706
1.443092954706543
1.332390680492757
1.327283047649607
1.443050381275782
1.443353076967346
1.443353265777394
1.322175182534682
1.442998598133896
1.443353026789161
1.44335326426061
1.315293362113557
1.442930669621076
1.443352954504313
1.443353262587524
1.308961532409043
1.442840852171157
1.44335285658622
1.443353258631706
1.443353260442828
1.44335292791442
1.442855492051363
1.30352495374863
1.443353259277524
1.443352859760721
1.442806725304804
1.302941201673528
1.44335325748574
1.443352798090641
1.44278272829983
1.311690241723859
1.443353259392811
1.443352993250818
1.443047654520884
1.364621138409005
1.443353246003096
1.443354984609446
1.443601832782375
1.443570189657337
1.44335330508704
1.443354408558857
1.442459064308936
1.415661594890015
1.443353265815018
1.443346382955856
1.440857736767654
1.348422433772739
1.44335326427096
1.443341414000648
1.438743079864191
1.290684555941232
1.305525552405882
1.440864211596301
1.443348951327248
1.443353268061467
1.325402130473729
1.441168073385791
1.443349190357482
1.443353267928824
1.344319426677991
1.441958441653565
1.443351263396185
1.443353269475093
1.326396002767978
1.441422103711071
1.44335019656544
1.443353268825736
1.387450688752559
1.442811237763023
1.443352548700701
1.443353270135353
1.431034368712166
1.443301515188094
1.44335322697186
1.443353270547033
1.443065423938678
1.443353846870046
1.443353272828362
1.443353270574335
1.445477789023846
1.443364921179413
1.443353293460556
1.443353270564051
1.429288720443172
1.443191357267912
1.443352693560018
1.443353270031073
1.429328896240405
1.443191674977198
1.443352694141535
1.443353270018481
1.429391158705731
1.443191952479944
1.443352691771365
1.443353269943925
1.428864570782349
1.443191465336626
1.443352690259086
1.443353269802175
1.445477789028223
1.443364921182335
1.443353293464651
1.443353270561724
1.443065423943309
1.443353846873521
1.443353272836521
1.443353270573722
1.431034368712344
1.443301515186858
1.443353226971448
1.443353270547313
1.387450688747146
1.442811237754849
1.443352548700015
1.443353270137335
1.443353268056108
1.443348951316564
1.440864211593004
1.305525552402642
1.443353267924956
1.443349190356608
1.441168073381935
1.325402130472694
1.443353269479605
1.443351263391151
1.441958441653383
1.344319426669871
1.443353268825124
1.44335019656315
1.441422103704623
1.326396002770585
1.290684555946609
1.438743079869617
1.443341414006541
1.443353264272791
1.348422433777967
1.440857736772616
1.443346382964376
1.443353265824485
1.415661594890178
1.44245906431524
1.44335440855886
1.443353305093555
1.443570189655658
1.443601832784705
1.443354984611923
1.443353245991833
1.443353260445181
1.443352927909044
1.442855492048899
1.303524953743079
1.443353259276418
1.443352859758114
1.442806725304345
1.302941201673362
1.44335325748053
1.443352798090862
1.442782728304153
1.311690241724195
1.443353259383812
1.443352993251047
1.443047654523872
1.364621138409596
1.308961532399282
1.442840852176331
1.443352856578479
1.443353258632726
1.315293362105595
1.442930669608936
1.443352954503445
1.443353262586088
1.322175182538445
1.442998598124712
1.443353026781748
1.443353264261818
1.327283047642949
1.443050381286707
1.443353076967832
1.443353265778774
1.443353270566282
1.443353212918294
1.443327643906616
1.406839890289938
1.44335326925686
1.443353184066903
1.443201119822979
1.350203533584982
1.443353267676742
1.443353146643113
1.44313133250976
1.336460043645654
1.443353266820477
1.443353115832285
1.443092954708643
1.332390680493872
1.443353270588841
1.443353270535713
1.443353270571932
1.443353270571932
1.443353299696555
1.443353267983467
1.443353270576006
1.443353270571932
1.443388912053227
1.443353143236049
1.443353270625926
1.443353270557949
1.445145373731803
1.443351259567424
1.443353265447062
1.443353267209998
1.443353270571934
1.44335327057199
1.443353270565296
1.4433532609642
1.443353270571932
1.443353270571932
1.443353270571614
1.443353287845053
1.443353270571933
1.443353270576754
1.443353279231889
1.443356271750814
1.443353270557253
1.443353270844812
1.443353658312734
1.443472654064789
1.443353268313434
1.443353233830903
1.443316320577963
1.434836566462829
1.443353268483702
1.443353249428911
1.443334545848236
1.442746186925153
1.44335326943625
1.443353268550471
1.44335352747449
1.445784073328411
1.443353270311858
1.4433532723375
1.44335587948384
1.444393517633384
1.425756781932399
1.443323385123942
1.443353254803651
1.44335327038891
1.429986136735289
1.443330334791109
1.4433532568767
1.443353269922145
1.429807367315935
1.443331205596057
1.443353257799037
1.443353270018155
1.430212726549158
1.44333372746009
1.443353259056543
1.443353270208771
1.430875383837891
1.443352700522669
1.443353270571932
1.443353270571932
1.431324582776252
1.443353771908879
1.443353270571932
1.443353270571933
1.436132506686643
1.443353269881289
1.443353270571932
1.443353270571933
1.441983291440186
1.443353270623588
1.443353270571932
1.443353270571934
1.443353270571932
1.443353270571933
1.443353270571932
1.443353268400971
1.443353270571931
1.443353270571932
1.443353270571932
1.443353422739836
1.443353270571932
1.443353270571932
1.443353270571932
1.443352168655342
1.443353270571932
1.443353270571932
1.443353270572099
1.44331888800399
1.443353762694374
1.443355343880454
1.443356810340535
1.442988675029019
1.443355343834622
1.443361974253783
1.44336879283949
1.441097672117422
1.443356810344992
1.443368792841744
1.442714713869839
1.416962218833707
1.442988675007105
1.441097672132256
1.416962218841148
1.25920204029018
1.107507755232715
1.207013887011686
1.351762790373426
1.412398098058216
1.160631352758885
1.187585520206523
1.260015260063535
1.319346155768133
1.221090262406276
1.248617285994004
1.273064805235295
1.300105971989672
1.244256286814448
1.293489427404212
1.300306175353366
1.311274187259549
1.314307543657332
1.315424453547769
1.315977167644132
1.296932862023742
1.30867630050414
1.310848200565115
1.311585498293892
1.308333705999861
1.308741392562597
1.312208980240315
1.313120421263159
1.363098086191738
1.245180166700855
1.245803178177847
1.246213248867182
1.460698411904077
1.42497797487836
1.495036946870627
1.479990458258105
1.453240163556569
1.514506123612569
1.60939362536317
1.509509495467805
1.460685291767547
1.645701953323604
1.627718606114376
1.53702760674474
1.475109234346945
1.252077277782408
1.279854336236853
1.356476860017938
1.413219922232877
1.444270081129241
1.443381300740587
1.443353858758084
1.44335324801423
1.445139302677571
1.44341623081734
1.44335551323109
1.443353331623472
1.447155817893925
1.443507584948853
1.443357857171432
1.443353438184586
1.43883535985707
1.443132433867572
1.443344105942816
1.443353007708375
1.443353258761896
1.443353278330104
1.44335116634319
1.43005981969798
1.44335326640201
1.443353271829005
1.443352577483137
1.338071234530589
1.443353270016294
1.443353270688913
1.443353218133135
1.222148508914381
1.443353268255857
1.443353270349678
1.443353023692669
1.097441808373312
0.9361177012506963
0.9764115907609676
1.018312043039781
1.030131196366742
0.7894782397462019
0.9392844773694013
1.019065819936131
1.039095789931271
0.697168124867786
0.9099450755275178
1.018742491741589
1.043358065325848
0.6382850601035462
0.8081840929736429
0.8871927127982873
0.9113285275952577
1.030823590363658
1.03062404067942
1.029883509708241
1.030861978896752
1.040927840795507
1.041166164812632
1.041348664597022
1.042934327912335
1.045159312963422
1.045125986420812
1.045152379722462
1.046031830017976
0.9150562958081335
0.9149354717706361
0.9148076418840191
0.9124161541101115
1.027239323780285
1.030028414001605
1.053668980819712
1.107031138669128
1.041452531035941
1.043646315810164
1.070154495118609
1.151591673860306
1.045831792586736
1.049266049833895
1.090070054651663
1.410402271419387
0.9204259774007931
0.9268029459122955
1.034043213377797
1.846242590470705
1.388766108493515
1.21275698945199
0.4821791104568792
0.2150827328133647
1.328024274181459
1.035900781991094
0.3357300510542249
0.2804973803105409
1.391479993133837
0.9616267294675682
0.3651144592932009
0.3093114501191723
1.093619703252624
0.5724354218206965
0.2766228794833702
0.2110012156097476
0.2448964953378376
0.2723272667153964
0.3103608724352232
0.3177821241895155
0.2861690838027018
0.2771141650886318
0.2529463698879375
0.4867087195404252
0.334328527846936
0.3308141474261375
0.3756265121196538
0.6465165093281654
0.2104730855443578
0.2313618952375041
0.3754200085859513
0.7917856140156422
1.232161167286366
1.359930755117608
1.442370089232764
1.482845994398033
0.8653843125407531
1.211937621003997
1.403218402042903
1.52340284266347
0.4187008011356132
0.9105365488077638
1.280228721829882
1.640351021807146
0.4456906870457965
0.7496043627828175
1.078170491492498
2.029059491232335
1.57774397390554
1.585921782460069
1.287635182371069
1.004623727803773
1.858800730570314
2.430489204739231
1.710291236622949
1.134076860243964
2.091271871824439
2.541128651039134
1.786087027970091
1.232949466108962
1.540641567653318
1.917125969949222
1.269225710288508
0.785380562553822
0.6248103244614163
0.5592929894651362
0.3308354838001277
0.100264612606803
1.011624934332767
0.8840875619640568
0.5275724040293467
0.06833568512018753
0.8517745305258235
0.5643291056012084
0.2469480824233196
0.1599078260902664
0.7653538737342575
0.6581801783899722
0.6237589816658602
0.6207802985734064
0.1002646126068584
0.06833568512110183
0.1599078260914183
0.6207802985707837
0.3308354838013366
0.5275724040303194
0.246948082424413
0.6237589816684029
0.5592929894653483
0.8840875619639926
0.5643291056019504
0.6581801783912684
0.6248103244607551
1.011624934332013
0.8517745305275412
0.7653538737351518
1.004623727804628
1.28763518237332
1.58592178246373
1.577743973914243
1.134076860246017
1.710291236617856
2.430489204734811
1.858800730574881
1.232949466108083
1.786087027967686
2.541128651039926
2.091271871826101
0.7853805625525123
1.269225710288258
1.917125969948792
1.540641567652978
2.029059491233555
1.078170491491993
0.7496043627825447
0.44569068704416
1.640351021809855
1.280228721833335
0.9105365488079
0.4187008011355338
1.52340284266649
1.403218402047849
1.211937621004151
0.8653843125395597
1.48284599440118
1.442370089236647
1.359930755117906
1.232161167282748
0.3177821241877714
0.3103608724315881
0.2723272667142918
0.2448964953375538
0.4867087195378895
0.2529463698874727
0.2771141650878031
0.2861690838013771
0.6465165093268848
0.3756265121193951
0.3308141474238689
0.3343285278435124
0.7917856140155786
0.3754200085876694
0.2313618952373105
0.2104730855430529
0.2150827328152444
0.4821791104565493
1.212756989443311
1.388766108493259
0.2804973803034248
0.3357300510534557
1.035900781986776
1.328024274185059
0.3093114501092391
0.3651144592916575
0.9616267294622668
1.391479993137942
0.2110012156050102
0.2766228794839636
0.5724354218171134
1.093619703254207
1.107031138670315
1.053668980819474
1.030028414000753
1.027239323776719
1.151591673862208
1.070154495118528
1.04364631580891
1.041452531033129
1.410402271421729
1.090070054651867
1.049266049833101
1.045831792585611
1.846242590474416
1.0340432133796
0.9268029459151659
0.9204259774059943
1.030861978892925
1.02988350970508
1.030624040680479
1.030823590360615
1.04293432791066
1.041348664594525
1.041166164812031
1.040927840794414
1.04603183001793
1.045152379720928
1.045125986420281
1.045159312963566
0.912416154115456
0.9148076418853289
0.9149354717710291
0.9150562958107882
1.03013119636792
1.018312043037272
0.9764115907623948
0.9361177012520876
1.039095789932308
1.019065819934027
0.9392844773711718
0.7894782397465675
1.043358065326718
1.018742491739951
0.9099450755288626
0.697168124868019
0.9113285275957178
0.8871927127991766
0.808184092974214
0.6382850601028432
1.430059819697626
1.443351166344523
1.443353278331056
1.443353258761493
1.338071234530084
1.443352577483668
1.443353271829441
1.443353266401767
1.222148508913864
1.443353218133171
1.443353270689143
1.443353270016219
1.097441808372581
1.443353023692987
1.443353270349734
1.443353268255683
1.443353248013018
1.443353858756343
1.443381300740162
1.444270081131723
1.443353331622529
1.443355513226902
1.443416230821035
1.445139302675199
1.443353438183843
1.44335785716525
1.44350758495573
1.447155817888593
1.44335300770877
1.443344105942512
1.443132433869031
1.438835359861847
1.45324016356189
1.4799904582587
1.495036946873651
1.424977974879474
1.460685291771597
1.509509495467525
1.609393625365113
1.514506123612657
1.475109234351027
1.537027606744258
1.627718606116489
1.645701953324743
1.413219922228179
1.356476860019188
1.279854336237977
1.252077277783238
1.296932862023397
1.315977167644432
1.315424453545175
1.314307543655997
1.308333706002462
1.311585498293822
1.310848200564227
1.308676300501473
1.363098086195926
1.313120421263839
1.312208980241947
1.308741392561528
1.460698411909507
1.246213248873367
1.245803178183658
1.245180166697635
1.311274187257893
1.300105971991089
1.319346155765651
1.412398098058431
1.300306175352819
1.273064805236273
1.260015260063139
1.351762790373802
1.293489427401998
1.248617285996494
1.1875855202073
1.20701388701209
1.24425628681858
1.221090262412666
1.160631352759412
1.107507755233295
1.442348249322672
1.443335725977678
1.443353208881379
1.443353270510272
1.437945596193815
1.44329869965033
1.443353086043854
1.443353270382526
1.430061931794445
1.443234206708244
1.443352873171867
1.443353270039484
1.423258800164408
1.443162482557685
1.443352647787646
1.443353269693198
1.443353270028002
1.443352693561722
1.44319135726745
1.429288720442423
1.443353270016085
1.443352694137636
1.443191674981827
1.42932889623803
1.443353269946808
1.443352691766841
1.443191952481305
1.429391158710367
1.443353269811251
1.443352690254049
1.443191465354739
1.428864570785078
1.443353269694219
1.443353270041042
1.443353270392016
1.44335327052072
1.44335264778688
1.443352873171876
1.443353086045874
1.443353208887058
1.443162482552445
1.443234206713337
1.443298699644408
1.443335725982556
1.423258800170965
1.430061931799516
1.437945596191497
1.442348249322566
)
;

boundaryField
{
    back
    {
        type            empty;
    }
    inlet
    {
        type            calculated;
        value           nonuniform List<scalar> 
16
(
1.443353270571932
1.443353270571932
1.443353270571932
1.443353270571932
1.443353270571932
1.443353270571932
1.443353270571932
1.443353270571932
1.443353270571932
1.443353270571932
1.443353270571932
1.443353270571933
1.443353270571932
1.443353270571932
1.443353270571932
1.443353270571932
)
;
    }
    front
    {
        type            empty;
    }
    top
    {
        type            calculated;
        value           uniform 0;
    }
    outlet
    {
        type            calculated;
        value           nonuniform List<scalar> 
16
(
1.4433532698594
1.443353269844172
1.443353269735498
1.443353269539733
1.443353270485691
1.443353270317445
1.443353269850012
1.443353269384913
1.443353269857403
1.443353269842586
1.443353269737345
1.443353269545671
1.443353269385574
1.443353269850935
1.44335327032355
1.443353270492508
)
;
    }
    bottom
    {
        type            calculated;
        value           uniform 0;
    }
    wall
    {
        type            calculated;
        value           uniform 0;
    }
}


// ************************************************************************* //
