/*--------------------------------*- C++ -*----------------------------------*\
  =========                 |
  \\      /  F ield         | OpenFOAM: The Open Source CFD Toolbox
   \\    /   O peration     | Website:  https://openfoam.org
    \\  /    A nd           | Version:  11
     \\/     M anipulation  |
\*---------------------------------------------------------------------------*/
FoamFile
{
    format      ascii;
    class       volScalarField;
    location    "0.0485";
    object      rho;
}
// * * * * * * * * * * * * * * * * * * * * * * * * * * * * * * * * * * * * * //

dimensions      [0 0 0 0 0 0 0];

internalField   nonuniform List<scalar> 
880
(
0.3733250556165154
0.3733250556165154
0.3733250556165154
0.3733250566787837
0.3733250556165154
0.3733250556165154
0.3733250556165152
0.3733250590193386
0.3733250556165154
0.3733250556165153
0.3733250556165154
0.3733258162768378
0.3733250556165154
0.3733250556165154
0.3733250556165331
0.373329262154346
0.3733250556165154
0.3733250556165155
0.3733250556165152
0.3733250556165154
0.3733250556165154
0.3733250556165154
0.3733250556165151
0.3733250556165154
0.3733250556157545
0.373325055587642
0.373325910150223
0.3733210275784938
0.3739031655414968
0.376367670449064
0.3788465363369297
0.3797874895535747
0.3733250557183863
0.3733250557519203
0.373325055769892
0.373325055675747
0.3733250630438715
0.3733250661441539
0.3733250677526379
0.3733250609003759
0.3733380400490804
0.3733393019569088
0.3733407999450605
0.3733365329117866
0.3803264713099125
0.3809613673384012
0.3813361887866765
0.381582272413411
0.3819743458993889
0.379608761463826
0.3764852666219722
0.3741857358315033
0.3733596015423709
0.3733554817750988
0.3733424637429227
0.3733298065982506
0.3733250949434271
0.3733250909682841
0.3733250755895586
0.373325060783158
0.3733250561856221
0.3733250560805844
0.3733250558235964
0.373325055653012
0.3733250556179141
0.3733250556165152
0.3733250556165154
0.3733250556165155
0.3733250560327235
0.3733250556228604
0.3733250556165154
0.3733250556165155
0.373325476413409
0.3733250627703798
0.3733250554667978
0.3733250555279364
0.3734094091326527
0.3733268175864197
0.3733250355203116
0.3733250434811263
0.3733250534229066
0.3733250556009317
0.3733250556165154
0.3733250556165154
0.373325048863039
0.3733250552796514
0.3733250556059673
0.3733250556165153
0.3733270475023029
0.3733251807866975
0.3733250572010686
0.373325055626658
0.3726429394526441
0.3733027649459042
0.3733250263667104
0.3733250556011817
0.3733250556158153
0.3733250577843107
0.373327890143541
0.3820785674509097
0.3733250560336879
0.3733250865611222
0.3733684694064021
0.3959743277442649
0.3733250564143302
0.3733251166018418
0.3733974718192309
0.4029194909589257
0.3733250566433134
0.3733251328731382
0.3734115877576918
0.405802891923318
0.4076306918425226
0.3734256317319232
0.3733251518748172
0.3733250569311169
0.4099084561758099
0.3734446515935633
0.3733251789055316
0.3733250573362099
0.4120072267059106
0.3734645596285199
0.3733252093976572
0.3733250578335933
0.4150167915544829
0.3735008295211354
0.3733252722875094
0.3733250588552562
0.3733250582675374
0.3733252331520601
0.3734934770095517
0.4175747197819259
0.3733250586594725
0.3733252596044633
0.3735094379448525
0.4183973398067714
0.3733250595703474
0.3733252975484369
0.3735232878319995
0.4164139457663822
0.3733250579476721
0.3733252194172099
0.3734408492444252
0.3993233086173195
0.3733248265072523
0.3733205996271984
0.3734101261803969
0.3771155187008072
0.3733250440907879
0.3733207319514921
0.3726312846902007
0.3401524042009788
0.3733250498579049
0.3733199220457384
0.3718714611704627
0.3064175937776863
0.3733250500914325
0.3733183672364286
0.3709469350359363
0.2830300797673923
0.2935293778436119
0.3720418337224792
0.3733218413674843
0.3733250515651435
0.2990717077326804
0.3721987949377614
0.3733223722065445
0.3733250525424525
0.3091323939606851
0.372574894252855
0.3733234666649277
0.3733250538998432
0.3022647871547017
0.372386289434208
0.3733231133430505
0.3733250535765811
0.3384810034979531
0.3731026183252482
0.3733246754521964
0.3733250552111927
0.3642498027669177
0.3733015816313355
0.3733250255250532
0.3733250555921524
0.3715869794342072
0.3733215261533016
0.3733250510775053
0.3733250556127702
0.371678775324681
0.3733189884361005
0.3733250455072797
0.3733250556008071
0.3644755865425517
0.3732388105506134
0.3733247528274555
0.3733250553342496
0.3644859990053002
0.373238876353131
0.3733247528780771
0.3733250553294258
0.3644951910470551
0.3732385549225947
0.373324751102115
0.373325055285968
0.364714975858498
0.3732391052889438
0.3733247507929209
0.3733250552182406
0.3716787753246271
0.3733189884356157
0.3733250455066218
0.3733250556012125
0.3715869794331496
0.3733215261526894
0.3733250510760238
0.3733250556128637
0.3642498027666237
0.3733015816314118
0.3733250255249541
0.3733250555923151
0.3384810034985628
0.3731026183264679
0.3733246754523115
0.3733250552108679
0.3733250515662941
0.3733218413690517
0.3720418337229411
0.293529377844071
0.3733250525429589
0.3733223722069188
0.3721987949383563
0.2990717077327682
0.3733250538989146
0.3733234666658129
0.3725748942528585
0.3091323939617092
0.3733250535768609
0.3733231133431706
0.3723862894358775
0.3022647871536581
0.283030079765581
0.3709469350352964
0.3733183672359573
0.3733250500912635
0.3064175937760715
0.3718714611695429
0.3733199220441917
0.3733250498563654
0.3401524042004813
0.3726312846889299
0.3733207319514815
0.3733250440892082
0.3771155187011357
0.3734101261799345
0.3733205996267184
0.373324826509058
0.3733250582672153
0.3733252331528942
0.3734934770103022
0.4175747197831148
0.3733250586597328
0.3733252596046982
0.3735094379448195
0.4183973398064234
0.3733250595712796
0.3733252975484723
0.3735232878310574
0.4164139457661907
0.3733250579493723
0.3733252194171934
0.3734408492437697
0.3993233086171984
0.4150167915567977
0.373500829520092
0.3733252722888687
0.3733250588550571
0.4120072267080245
0.3734645596296048
0.373325209398175
0.373325057833907
0.409908456176595
0.3734446515957657
0.3733251789065546
0.3733250573359731
0.4076306918422232
0.3734256317313696
0.373325151875044
0.3733250569308276
0.3733250556164152
0.3733250577853401
0.3733278901434525
0.3820785674491985
0.3733250560328477
0.3733250865602353
0.373368469406902
0.3959743277444837
0.3733250564139705
0.3733251166018516
0.3733974718199355
0.4029194909595136
0.3733250566428509
0.3733251328733801
0.373411587755879
0.4058028919243593
0.373325055601067
0.373325055626867
0.3733250556165154
0.3733250556165154
0.3733250263652059
0.3733250572007707
0.3733250556068697
0.3733250556165153
0.3733027649461476
0.3733251807875088
0.3733250552789995
0.3733250556007196
0.3726429394526136
0.3733270475024218
0.3733250488630798
0.3733250534228957
0.3733250556165152
0.3733250556165154
0.373325055528098
0.3733250434814038
0.3733250556165154
0.3733250556165153
0.3733250554683211
0.3733250355203506
0.3733250556165154
0.3733250556228562
0.3733250627698078
0.3733268175865708
0.3733250556180074
0.3733250560323495
0.3733254764141715
0.373409409132362
0.373325056184557
0.373325094942243
0.3733596015415676
0.3819743458990243
0.3733250560796893
0.3733250909687255
0.373355481775249
0.3796087614627718
0.3733250558234248
0.3733250755911802
0.3733424637426405
0.3764852666218093
0.3733250556528365
0.3733250607838596
0.3733298065983429
0.3741857358308064
0.3815822724136858
0.3733365329131973
0.3733250608995414
0.3733250556752825
0.3813361887862206
0.3733407999473939
0.3733250677522998
0.3733250557701866
0.3809613673398649
0.3733393019576199
0.3733250661444493
0.3733250557516598
0.3803264713096203
0.3733380400454643
0.3733250630435663
0.3733250557186051
0.3797874895541719
0.3733210275800705
0.3733250556165154
0.3733250556165154
0.3788465363365051
0.3733259101481267
0.3733250556165154
0.3733250556165154
0.3763676704496654
0.3733250555875051
0.3733250556165154
0.3733250556165153
0.3739031655408203
0.373325055615628
0.3733250556165154
0.3733250556165151
0.3733250556165154
0.3733250556165154
0.3733250556165154
0.3733250567244878
0.3733250556165152
0.3733250556165155
0.3733250556165153
0.3733250590197496
0.3733250556165154
0.3733250556165154
0.3733250556165154
0.3733258162783964
0.3733250556165154
0.3733250556165154
0.3733250556165151
0.3733292621539667
0.373324929815292
0.3733244878631944
0.3733251191157672
0.373539091553671
0.3733244878963456
0.3733222920477445
0.3733206858816123
0.3737924926843411
0.373325119114401
0.3733206858762091
0.3735394994968412
0.3811422590715514
0.3735390915594912
0.373792492679746
0.3811422590746237
0.4270274026332291
0.5115292008411078
0.4477150959568165
0.4179767838040072
0.3893471035171617
0.5090766659953414
0.4910112624395001
0.4794542309918566
0.4455244399808811
0.5061964393111412
0.5053292745881086
0.5033936055082239
0.4879665925869148
0.5128368946662134
0.5174216571231206
0.5179421366123378
0.5058808732061952
0.512261740603992
0.5132672351343333
0.5137023610256554
0.5236296963126236
0.5245087721255427
0.525236637534502
0.5253599548151024
0.5418723505427614
0.5224787464992311
0.5226829696978729
0.5226690566487303
0.5404472557074026
0.5159073253583836
0.5157067744528337
0.5156917991599027
0.5232262372146157
0.4658413731882434
0.4150826049240441
0.3885786983788808
0.3773645404460882
0.4433073019713222
0.377458572779072
0.3764615771885059
0.3757069913280047
0.3863882132130357
0.357994536179435
0.3745984398109556
0.3773577161896107
0.3525258938108815
0.3634823140157775
0.3722866360862079
0.3735765796621909
0.3737643639878542
0.3733341727157231
0.3733248363892492
0.3733250152540414
0.3737829877896579
0.3733348210373635
0.3733248776668538
0.3733250582521069
0.3742271160033869
0.3733478830739964
0.3733249488787475
0.373325054973175
0.3731043637892158
0.3732868819176521
0.3733235892133188
0.3733250151333494
0.3733250510346626
0.3733250538305977
0.3733263171463892
0.3861213272312359
0.3733250549348647
0.3733250545604053
0.3733257255747816
0.4096034781655846
0.37332505542914
0.3733250551519631
0.3733252670347125
0.4310271599363052
0.3733250548057322
0.3733250554058495
0.3733251574911404
0.4271589500749235
0.6116488693192434
0.6682294417918393
0.6964934030624459
0.7053119795677742
0.6886537033901853
0.693566979793553
0.7218417206814143
0.736207195589601
0.6977199853300929
0.6849097434823219
0.707772669315476
0.7259131856205248
0.7295739012972642
0.7013372095762144
0.7191006955209164
0.7382069413258032
0.7066427544721475
0.7074351512068638
0.7079373116216805
0.7083278108671465
0.7380800023874073
0.7383089878583889
0.7383032190977209
0.7378980032757068
0.7287103241607032
0.7288588150478346
0.7288190272645365
0.7280779294154165
0.7419398348088043
0.74216063858474
0.7421789417529584
0.7415371473142467
0.7082656058357667
0.7065481669019271
0.6829528825186203
0.6011295332496848
0.7401977559178798
0.7385050956158224
0.710860741511689
0.6365339977588516
0.7298617154578553
0.7275974391268816
0.7030959649776795
0.639398556328426
0.7411907507598212
0.7362599946724051
0.7024084715874059
0.7258535561284426
0.3903552265446047
0.1480269375649291
0.07477713025515983
0.05970770727066203
0.349127692239001
0.1029632294719796
0.05998363880747037
0.04933350328146077
0.2544769909111539
0.080620404907968
0.0685637237036546
0.0616119429542974
0.171622460034846
0.03533009721159155
0.07003975536496869
0.07680141691562976
0.06139417721641207
0.06192235635986814
0.06507266005606126
0.05813012589210656
0.04663659634238038
0.047899407952221
0.056403206536859
0.05180085273794087
0.05973449594440179
0.06372258075575789
0.07262321550225913
0.06015887497337771
0.07566149881047522
0.08145840624966892
0.08704264993958878
0.05903411367263154
0.1828694571893248
0.2835402619425557
0.3284448306858853
0.3349216885105994
0.1393021397825618
0.2363157172298697
0.2884436117792233
0.3220078525740536
0.1152281609518726
0.2081146322136206
0.2618216372151494
0.3190040376734709
0.07041873185053213
0.1488417859113593
0.2273887841721898
0.292883393857847
0.2946213845813149
0.2596926187236198
0.2498734843327813
0.2121168507345217
0.2325684722960874
0.1385358528902367
0.1684324601285827
0.1993582771319997
0.1978769170162787
0.1052151265156901
0.07086036140635843
0.1158114495000284
0.1375592442648268
0.06766354718423871
0.07477411488043607
0.07871322983180618
0.08323065961965151
0.07785647055909747
0.05925474807704129
0.04552088178955049
0.1436754006760447
0.1365750277252188
0.09825131906798147
0.06841911803060453
0.1751640933211249
0.1331431971211673
0.09673404213041469
0.08651115461097855
0.1701769010390256
0.1394077688010118
0.1228439948419071
0.1199587747639526
0.04552088178951176
0.06841911803066292
0.08651115461096437
0.1199587747633656
0.05925474807695506
0.09825131906802442
0.09673404213020802
0.122843994841423
0.07785647055907935
0.1365750277251007
0.1331431971209756
0.1394077688008759
0.08323065961975994
0.1436754006759815
0.1751640933209529
0.1701769010386192
0.2121168507341563
0.2498734843319169
0.2596926187231163
0.2946213845801707
0.1993582771316863
0.1684324601287893
0.1385358528903587
0.2325684722955357
0.1158114495000817
0.07086036140640095
0.1052151265154978
0.1978769170160626
0.07871322983187914
0.07477411488041134
0.06766354718425659
0.137559244264588
0.2928833938574935
0.2273887841722312
0.1488417859117106
0.07041873185067903
0.3190040376731655
0.2618216372149375
0.2081146322137882
0.1152281609520434
0.3220078525739086
0.2884436117787627
0.2363157172300332
0.1393021397826656
0.3349216885104335
0.3284448306853981
0.2835402619426398
0.1828694571894418
0.05813012589189765
0.06507266005650075
0.06192235635993189
0.06139417721633537
0.05180085273789221
0.05640320653701573
0.04789940795225123
0.0466365963424014
0.06015887497337959
0.07262321550236671
0.06372258075587367
0.05973449594444851
0.05903411367264514
0.08704264993965435
0.08145840624991131
0.075661498810525
0.05970770726996304
0.07477713025433309
0.1480269375647359
0.3903552265444725
0.04933350328135734
0.05998363880705486
0.1029632294717883
0.3491276922377563
0.06161194295424714
0.06856372370336798
0.08062040490805482
0.2544769909104024
0.0768014169154957
0.07003975536500834
0.03533009721172985
0.1716224600345958
0.6011295332489734
0.6829528825183008
0.706548166901468
0.7082656058359578
0.6365339977580198
0.7108607415115263
0.7385050956158513
0.7401977559182478
0.6393985563279176
0.7030959649776387
0.7275974391274744
0.7298617154587698
0.7258535561281547
0.7024084715874805
0.7362599946729872
0.7411907507607348
0.7083278108671717
0.707937311623122
0.7074351512078874
0.7066427544708682
0.7378980032754016
0.7383032190988549
0.7383089878593162
0.7380800023865095
0.728077929415578
0.7288190272655366
0.7288588150484551
0.7287103241604459
0.7415371473140929
0.742178941753573
0.7421606385852874
0.7419398348085463
0.7053119795684986
0.6964934030626826
0.6682294417922784
0.6116488693189772
0.7362071955899154
0.7218417206818852
0.6935669797934675
0.6886537033901301
0.7259131856203752
0.7077726693162256
0.6849097434820247
0.6977199853297977
0.7382069413256168
0.7191006955216143
0.7013372095756029
0.7295739012969917
0.3861213272312334
0.373326317145476
0.3733250538302282
0.3733250510347744
0.4096034781655874
0.3733257255742117
0.3733250545602513
0.3733250549349502
0.4310271599363244
0.3733252670344619
0.3733250551518878
0.3733250554291574
0.427158950074897
0.3733251574909773
0.3733250554058038
0.3733250548057516
0.3733250152541292
0.3733248363894306
0.3733341727160418
0.3737643639875619
0.3733250582521104
0.3733248776666543
0.3733348210381654
0.3737829877886633
0.373325054973127
0.3733249488782424
0.3733478830755833
0.3742271160021038
0.3733250151333902
0.3733235892130133
0.3732868819189727
0.3731043637882929
0.3773645404457624
0.3885786983786476
0.4150826049235584
0.4658413731878025
0.3757069913277043
0.3764615771884318
0.3774585727786895
0.4433073019720503
0.3773577161890405
0.3745984398110689
0.3579945361791191
0.386388213213532
0.3735765796610682
0.3722866360864139
0.3634823140155691
0.3525258938112373
0.5236296963124509
0.5137023610245657
0.5132672351329861
0.5122617406050972
0.5418723505423952
0.5253599548143287
0.5252366375334718
0.5245087721263686
0.5404472557071426
0.5226690566487927
0.5226829696975185
0.5224787464990484
0.5232262372145015
0.5156917991602752
0.5157067744526246
0.5159073253574971
0.5058808732065604
0.4879665925860079
0.4455244399817695
0.389347103516856
0.5179421366128861
0.5033936055076014
0.4794542309922235
0.4179767838054319
0.5174216571244736
0.5053292745874759
0.4910112624397117
0.4477150959571091
0.5128368946681089
0.5061964393105911
0.509076665995064
0.511529200841734
0.3714180133544981
0.3733135084067793
0.3733250208931504
0.3733250555808863
0.369623474369437
0.3732951990556608
0.3733249568750505
0.3733250555178311
0.3669235634502174
0.3732654004814282
0.3733248508618619
0.3733250553385577
0.3626109836028353
0.3732261441019307
0.3733247322093213
0.3733250551644732
0.3733250553348375
0.3733247528271691
0.3732388105502842
0.3644755865419476
0.3733250553298578
0.3733247528788527
0.3732388763521676
0.3644859990053837
0.3733250552854476
0.3733247511027697
0.3732385549224859
0.3644951910465894
0.3733250552165133
0.3733247507938068
0.3732391052860476
0.3647149758579535
0.3733250551642281
0.3733250553382915
0.3733250555161059
0.373325055578832
0.3733247322094967
0.3733248508618619
0.3733249568747168
0.3733250208921438
0.3732261441029705
0.3732654004802545
0.3732951990567481
0.3733135084060268
0.3626109836019065
0.3669235634491512
0.3696234743693471
0.371418013354711
)
;

boundaryField
{
    back
    {
        type            empty;
    }
    inlet
    {
        type            calculated;
        value           nonuniform List<scalar> 
16
(
0.3733250556165154
0.3733250556165154
0.3733250556165154
0.3733250556165154
0.3733250556165154
0.3733250556165155
0.3733250556165152
0.3733250556165154
0.3733250556165154
0.3733250556165154
0.3733250556165154
0.3733250556165151
0.3733250556165154
0.3733250556165152
0.3733250556165154
0.3733250556165154
)
;
    }
    front
    {
        type            empty;
    }
    top
    {
        type            calculated;
        value           nonuniform List<scalar> 
40
(
0.3733250557183863
0.3733250557519203
0.373325055769892
0.373325055675747
0.3733250561856221
0.3733250560805844
0.3733250558235964
0.3733250556530119
0.3733250556179141
0.3733250556165152
0.3733250556165154
0.3733250556165155
0.3733250556165154
0.3733250556165154
0.373325055626658
0.3733250556011817
0.3733250556158153
0.3733250560336879
0.3733250564143302
0.3733250566433134
0.3733250569311169
0.3733250573362098
0.3733250578335933
0.3733250588552562
0.3733250582675374
0.3733250586594725
0.3733250595703473
0.3733250579476721
0.3733248265072523
0.3733250440907878
0.3733250498579049
0.3733250500914325
0.3733250515651435
0.3733250525424525
0.3733250538998432
0.3733250535765811
0.3733250552111928
0.3733250555921523
0.3733250556127702
0.3733250556008071
)
;
    }
    outlet
    {
        type            calculated;
        value           uniform 0.3733250556165154;
    }
    bottom
    {
        type            calculated;
        value           nonuniform List<scalar> 
40
(
0.3733250556012125
0.3733250556128637
0.3733250555923151
0.3733250552108679
0.3733250515662941
0.3733250525429589
0.3733250538989146
0.3733250535768609
0.3733250500912635
0.3733250498563654
0.3733250440892082
0.373324826509058
0.3733250582672153
0.3733250586597328
0.3733250595712796
0.3733250579493723
0.3733250588550571
0.373325057833907
0.3733250573359731
0.3733250569308276
0.3733250556164152
0.3733250560328477
0.3733250564139705
0.3733250566428509
0.373325055601067
0.373325055626867
0.3733250556165154
0.3733250556165154
0.3733250556165152
0.3733250556165154
0.3733250556165154
0.3733250556180074
0.373325056184557
0.3733250560796893
0.3733250558234248
0.3733250556528365
0.3733250556752825
0.3733250557701866
0.3733250557516598
0.3733250557186051
)
;
    }
    wall
    {
        type            calculated;
        value           nonuniform List<scalar> 
104
(
0.5115292008411078
0.5090766659953414
0.5061964393111412
0.5128368946662134
0.5159073253583836
0.5157067744528337
0.5156917991599027
0.5232262372146157
0.3525258938108815
0.3634823140157775
0.3722866360862078
0.3735765796621909
0.3731043637892158
0.3732868819176522
0.3733235892133187
0.3733250151333494
0.3733250548057322
0.3733250554058495
0.3733251574911404
0.4271589500749235
0.7295739012972642
0.7013372095762144
0.7191006955209164
0.7382069413258032
0.7419398348088043
0.74216063858474
0.7421789417529584
0.7415371473142467
0.7411907507598212
0.7362599946724051
0.7024084715874059
0.7258535561284426
0.171622460034846
0.03533009721159155
0.07003975536496869
0.07680141691562976
0.07566149881047522
0.08145840624966892
0.0870426499395888
0.05903411367263154
0.07041873185053213
0.1488417859113593
0.2273887841721898
0.292883393857847
0.1375592442648268
0.06766354718423871
0.07477411488043607
0.07871322983180618
0.08323065961965151
0.07785647055909747
0.05925474807704129
0.04552088178955049
0.04552088178951176
0.05925474807695506
0.07785647055907935
0.08323065961975994
0.07871322983187914
0.07477411488041134
0.06766354718425659
0.137559244264588
0.2928833938574935
0.2273887841722312
0.1488417859117106
0.07041873185067903
0.05903411367264515
0.08704264993965435
0.08145840624991131
0.075661498810525
0.0768014169154957
0.07003975536500834
0.03533009721172985
0.1716224600345958
0.7258535561281547
0.7024084715874805
0.7362599946729872
0.7411907507607348
0.7415371473140929
0.742178941753573
0.7421606385852874
0.7419398348085463
0.7382069413256168
0.7191006955216143
0.7013372095756029
0.7295739012969917
0.427158950074897
0.3733251574909773
0.3733250554058038
0.3733250548057516
0.3733250151333902
0.3733235892130133
0.3732868819189727
0.3731043637882929
0.3735765796610682
0.3722866360864139
0.3634823140155691
0.3525258938112373
0.5232262372145015
0.5156917991602752
0.5157067744526246
0.5159073253574971
0.5128368946681089
0.5061964393105911
0.509076665995064
0.511529200841734
)
;
    }
}


// ************************************************************************* //
