/*--------------------------------*- C++ -*----------------------------------*\
  =========                 |
  \\      /  F ield         | OpenFOAM: The Open Source CFD Toolbox
   \\    /   O peration     | Website:  https://openfoam.org
    \\  /    A nd           | Version:  11
     \\/     M anipulation  |
\*---------------------------------------------------------------------------*/
FoamFile
{
    format      ascii;
    class       volVectorField;
    location    "0.0485";
    object      U;
}
// * * * * * * * * * * * * * * * * * * * * * * * * * * * * * * * * * * * * * //

dimensions      [0 1 -1 0 0 0 0];

internalField   nonuniform List<vector> 
880
(
(25 -7.768126373978579e-16 0)
(25 -6.978786399779656e-16 0)
(25 2.189116266563233e-15 0)
(24.99999994625691 1.969899606398134e-08 0)
(25 9.850414851971265e-16 0)
(25 -1.090284851690496e-15 0)
(25.00000000000002 -3.175090450931335e-14 0)
(25.00000329580309 -4.160037634512867e-06 0)
(25 0 0)
(25.00000000000001 1.537249002275553e-15 0)
(25 -1.829339774785064e-12 0)
(24.9999934420752 -2.60800520204169e-05 0)
(25 0 0)
(25 -1.058794152545905e-15 0)
(24.9999999999988 1.881614025416104e-11 0)
(24.99940640341299 -0.000381512682040047 0)
(25 -7.220795602944368e-16 0)
(25 -6.031827363673034e-16 0)
(25.00000000000001 3.459734890115279e-16 0)
(25 1.430908467776774e-12 0)
(25 -8.354342061454683e-16 0)
(25 1.914273818227677e-15 0)
(25.00000000000003 7.142262993613382e-15 0)
(25 8.939321576149024e-15 0)
(25.00000000088396 -7.832211598575165e-10 0)
(24.99999998860916 1.088671124236581e-08 0)
(25.00002076095751 3.584080071460314e-05 0)
(24.99992929657271 -0.0002015132138172515 0)
(24.98456099200743 0.02296601346295413 0)
(24.9255769449231 0.1365399741527273 0)
(24.8918546752116 0.2767861193982852 0)
(24.90375920734839 0.3383353418007544 0)
(24.99999999510115 -4.067636089736048e-09 0)
(24.99999999219557 -6.018254842876725e-09 0)
(24.99999999081689 -6.942538088848115e-09 0)
(24.99999999758609 -3.01195411777906e-09 0)
(24.9999999114714 3.565788139200866e-07 0)
(24.99999993514103 5.144781937553193e-07 0)
(24.99999994146033 5.91474604135646e-07 0)
(24.99999981240574 2.47652039502552e-07 0)
(24.99988191700993 0.0006365972990492276 0)
(24.99986217408712 0.0007035280742864812 0)
(24.99986728111108 0.0007729382430432549 0)
(24.99970328903201 0.0005824461065260126 0)
(24.90317819954048 0.3682950262174888 0)
(24.90754000777265 0.4031690561767555 0)
(24.91291628294112 0.415947251858265 0)
(24.8584522414226 0.4512509611702588 0)
(25.00686468027296 0.4707239969255934 0)
(25.09180900999739 0.337376198818477 0)
(25.08797272571275 0.1398633944072404 0)
(25.02948028121903 0.03061949492338182 0)
(24.9999297792223 0.001716841088300273 0)
(25.00014002272693 0.001502087114999459 0)
(25.00024414567126 0.000809601524770141 0)
(25.00010680600894 0.0002009211639896671 0)
(24.99999993870764 1.937894397782553e-06 0)
(25.00000013389869 1.736840161976137e-06 0)
(25.00000023575557 9.515274390347061e-07 0)
(25.00000009884753 2.319844021234309e-07 0)
(24.99999996842563 -2.255731374977951e-08 0)
(24.9999999699784 -1.974538372008448e-08 0)
(24.99999998307398 -9.677885435873803e-09 0)
(24.9999999959553 -2.050121347346017e-09 0)
(24.999999999756 -1.374888612706331e-10 0)
(25.00000000000001 -2.082097201471569e-12 0)
(25 -3.315548599556361e-15 0)
(24.99999999999999 -1.897625394797941e-15 0)
(25.00000001017757 1.749171016984282e-08 0)
(25.00000000016879 2.432522286716574e-10 0)
(25 -6.560293666568667e-12 0)
(25 -4.08908495277028e-12 0)
(25.00001213674183 1.605686938853822e-05 0)
(25.00000024372839 2.415433521352102e-07 0)
(24.99999999819282 -7.08129954833547e-09 0)
(24.99999999874242 -4.039441568648447e-09 0)
(25.00315319391564 0.002579196846432707 0)
(25.00007476715706 4.663429441797857e-05 0)
(25.00000003568066 -1.130397066909836e-06 0)
(24.99999967382576 -5.582608601318444e-07 0)
(24.99999991246792 -7.3765234154782e-08 0)
(24.99999999952758 -6.668694720321604e-10 0)
(25 -4.60495002400296e-13 0)
(25 1.093577046305552e-15 0)
(24.99999982351174 -4.02170422095722e-07 0)
(24.99999999646036 -1.633658028549699e-08 0)
(24.99999999999474 -4.767436819771568e-10 0)
(25 -6.482937154473412e-13 0)
(24.99999100825559 0.0001354800890121528 0)
(24.99999944441266 5.773879207385389e-06 0)
(24.99999997655918 7.360704475164671e-08 0)
(24.99999999952298 -4.044406465909782e-10 0)
(25.02223886704991 -0.02486020273349136 0)
(25.00031933373822 -0.001023920734037859 0)
(25.00000011214169 -1.380234694043158e-06 0)
(25.00000000007897 -7.365483260813261e-10 0)
(24.99999999995813 -4.798944040378836e-11 0)
(24.99999902153441 -1.149801852020382e-07 0)
(24.99958613581486 -7.980729108926633e-05 0)
(24.56073860062406 0.2103262278748451 0)
(24.99999998275676 -1.822538142059683e-08 0)
(24.99999904161445 1.461267642247174e-06 0)
(24.99836821498012 0.002017587458787168 0)
(23.93182218086971 1.026723180519195 0)
(24.99999996059137 -3.60875743380558e-08 0)
(24.99999896744463 3.053870641398593e-06 0)
(24.99801614858611 0.003791706548585648 0)
(23.89664323552314 1.595426716811531 0)
(24.99999994882889 -4.727528927605317e-08 0)
(24.99999873338114 3.877316781130184e-06 0)
(24.99772893148017 0.0045694207252146 0)
(23.88995110191491 1.763901911621059 0)
(23.83234310837416 1.857296014117044 0)
(24.99734229546834 0.005301990606102792 0)
(24.99999840321132 4.831453967287343e-06 0)
(24.99999993469292 -6.040437775982616e-08 0)
(23.77893628778097 1.961426309451526 0)
(24.99691233669383 0.006273640693164453 0)
(24.99999802013737 6.176476756530234e-06 0)
(24.99999991389106 -7.874398392857415e-08 0)
(23.69020289642409 2.058681781540048 0)
(24.99621227910666 0.007274465860959035 0)
(24.99999730635282 7.689964794660931e-06 0)
(24.99999989159622 -1.010526996693361e-07 0)
(23.62669613235933 2.226100413635827 0)
(24.99560649449117 0.009319518445058569 0)
(24.99999677397475 1.099307043818161e-05 0)
(24.99999983697288 -1.480619188325976e-07 0)
(24.99999986033367 -1.281299337125753e-07 0)
(24.99999732172385 8.987255973620757e-06 0)
(24.99569585826515 0.008875698681260891 0)
(23.55944328360221 2.356589234531281 0)
(24.99999984540471 -1.44231966922621e-07 0)
(24.99999658797718 1.020542620680905e-05 0)
(24.99519947053799 0.009627217946113823 0)
(23.55119028429238 2.383315587806561 0)
(24.99999982671518 -1.763992122593588e-07 0)
(24.99999612667662 1.208366149289177e-05 0)
(24.99497373210943 0.01023382187111619 0)
(23.65203754246909 2.273149460774725 0)
(24.99999983786422 -1.272680020699553e-07 0)
(24.99999786101701 8.100532233149363e-06 0)
(24.99699744240143 0.006685949267923564 0)
(24.26925281887629 1.489713558366426 0)
(24.9999951558253 -1.166915354512886e-05 0)
(24.99998354729598 -0.0002197661142091105 0)
(25.01065107176055 0.001707236279099322 0)
(25.37852254510395 0.6498062576930332 0)
(24.99999982977283 -4.191700416278036e-07 0)
(24.99973243925378 -0.000376226362481228 0)
(24.97965323394341 -0.02117757572177904 0)
(24.66828248834458 -0.7361978305867543 0)
(24.99999983463224 -2.481368914747424e-07 0)
(24.99979615612681 -0.0001554112210601507 0)
(24.94725646125455 -0.02848093972807436 0)
(23.22759705496995 -0.8920351615709028 0)
(24.99999982407459 -2.147066519668521e-07 0)
(24.99972169871391 -0.0001637926338018554 0)
(24.90465993521555 -0.0204625436761638 0)
(22.05084248962316 -0.2594854878509296 0)
(22.3410727685182 -0.1111430109799406 0)
(24.94864328776811 -0.02273680768062901 0)
(24.99989351885008 -0.0001144196691798277 0)
(24.99999990977572 -1.736756087903959e-07 0)
(22.66558642016843 0.1046797161456537 0)
(24.95474574072639 -0.01540904296693397 0)
(24.99990293700284 -8.512852011901206e-05 0)
(24.99999991900062 -1.28023795014994e-07 0)
(23.07718874740816 -0.03967308876497709 0)
(24.97118751809495 -0.01330414364636312 0)
(24.99994973105716 -5.584394365958686e-05 0)
(24.99999996142098 -7.572441872013748e-08 0)
(22.77235682975094 0.1491159848092112 0)
(24.96107998180241 -0.01323130156920112 0)
(24.99992843279463 -6.366851547898839e-05 0)
(24.99999994686975 -8.742530502903023e-08 0)
(23.83728460000661 0.230414957522367 0)
(24.98923875215651 -0.003654882507716277 0)
(24.99998418992302 -1.262450779086601e-05 0)
(24.99999998811909 -1.704584198386369e-08 0)
(24.69555225262159 0.07148483406619256 0)
(24.99886490024529 -0.0006142635217826262 0)
(24.99999891330924 -1.138631278319602e-06 0)
(24.99999999927978 -1.109198226953986e-09 0)
(24.9727316586376 -0.02959777192553237 0)
(24.99996303119299 -0.0001521612012074381 0)
(24.9999999783139 -2.072051178926399e-07 0)
(24.99999999998679 -1.966136845368319e-10 0)
(25.01541433695291 -0.0723393577142795 0)
(25.00011802277026 -0.0003400015148411153 0)
(25.00000025524445 -6.532584533832802e-07 0)
(24.99999999964615 -8.174048565608901e-10 0)
(24.71404256052845 -0.0004362222697262915 0)
(24.99649667276774 -2.402636747956388e-06 0)
(24.99998678354435 -3.514901612086224e-09 0)
(24.99999998765838 7.645420022015601e-12 0)
(24.71435966349256 -0.0008424237001013323 0)
(24.99650069940909 -3.124718308369216e-06 0)
(24.9999867905654 7.241217932498244e-09 0)
(24.99999998739463 2.49646531217082e-10 0)
(24.71418583246548 -0.001087200687983799 0)
(24.99649679280571 1.180663999676815e-05 0)
(24.99998671565339 8.257857560303237e-08 0)
(24.99999998551231 1.463850985298858e-09 0)
(24.70699763387712 0.01177145660373351 0)
(24.99648741999689 0.0001271783591509186 0)
(24.99998665412033 3.851465725230699e-07 0)
(24.9999999821215 2.274617897862465e-09 0)
(25.01541433701273 0.07233935770494801 0)
(25.00011802280548 0.0003400015224377853 0)
(25.00000025529191 6.532603068605657e-07 0)
(24.99999999961831 8.185605680306222e-10 0)
(24.97273165869225 0.02959777193314898 0)
(24.99996303123454 0.0001521612003210399 0)
(24.99999997841018 2.072196263982384e-07 0)
(24.99999999997979 1.958877357106599e-10 0)
(24.69555225263649 -0.07148483400532048 0)
(24.99886490023334 0.000614263546177634 0)
(24.99999891330535 1.138649011923296e-06 0)
(24.99999999928278 1.108197974173715e-09 0)
(23.83728459993372 -0.2304149575399862 0)
(24.98923875206118 0.003654882510107801 0)
(24.99998418991432 1.262450490991553e-05 0)
(24.99999998814095 1.704473271871339e-08 0)
(24.99999990970852 1.736588079740784e-07 0)
(24.999893518731 0.0001144197052981054 0)
(24.94864328771651 0.02273680766417218 0)
(22.34107276848109 0.1111430110470114 0)
(24.99999991895768 1.28049762647154e-07 0)
(24.99990293699254 8.512851144294556e-05 0)
(24.95474574068522 0.01540904299243514 0)
(22.66558642014981 -0.1046797162144984 0)
(24.99999996147528 7.573240260535194e-08 0)
(24.99994973099892 5.584393024951787e-05 0)
(24.97118751809489 0.01330414365559157 0)
(23.07718874731015 0.03967308873491592 0)
(24.99999994686223 8.741346278838158e-08 0)
(24.99992843276961 6.366852884331341e-05 0)
(24.96107998172488 0.01323130152344684 0)
(22.77235682976878 -0.149115984754732 0)
(22.05084248966478 0.2594854877752557 0)
(24.90465993527846 0.02046254363950177 0)
(24.99972169877151 0.0001637925679973515 0)
(24.99999982409466 2.146898673398782e-07 0)
(23.22759705502696 0.8920351616201043 0)
(24.94725646131364 0.02848093972742168 0)
(24.9997961562267 0.0001554112313540046 0)
(24.99999983474131 2.481269264816787e-07 0)
(24.66828248834453 0.7361978306029709 0)
(24.97965323401625 0.0211775757356235 0)
(24.99973243925814 0.0003762263666710124 0)
(24.99999982985639 4.192041938320979e-07 0)
(25.37852254508373 -0.6498062577014039 0)
(25.01065107179494 -0.001707236278085697 0)
(24.99998354732416 0.0002197661337953467 0)
(24.99999515569282 1.166916703672218e-05 0)
(24.99999986036049 1.281278284587156e-07 0)
(24.99999732166191 -8.987262097169865e-06 0)
(24.99569585823201 -0.008875698685723792 0)
(23.5594432835263 -2.356589234527795 0)
(24.99999984539135 1.442286441485323e-07 0)
(24.99999658794957 -1.020542500868238e-05 0)
(24.99519947053113 -0.009627217939152385 0)
(23.55119028429625 -2.383315587798079 0)
(24.9999998266534 1.763975010522293e-07 0)
(24.99999612667864 -1.208365264178591e-05 0)
(24.99497373216407 -0.01023382185881368 0)
(23.65203754247527 -2.27314946077452 0)
(24.99999983775802 1.272588604984247e-07 0)
(24.99999786101909 -8.100517384246671e-06 0)
(24.99699744243635 -0.006685949262464429 0)
(24.26925281888277 -1.489713558365029 0)
(23.62669613222606 -2.226100413643231 0)
(24.99560649455224 -0.009319518427403188 0)
(24.99999677388459 -1.099308142000327e-05 0)
(24.99999983698419 1.480634157490296e-07 0)
(23.69020289631462 -2.05868178153544 0)
(24.99621227897992 -0.007274465856444685 0)
(24.9999973063405 -7.689970155547847e-06 0)
(24.99999989157764 1.010533374967791e-07 0)
(23.77893628783296 -1.961426309451067 0)
(24.99691233657826 -0.006273640708848726 0)
(24.99999802005266 -6.176481754491865e-06 0)
(24.99999991390702 7.874336464914599e-08 0)
(23.83234310828114 -1.85729601413448 0)
(24.99734229558469 -0.005301990599993815 0)
(24.99999840321336 -4.831457856336705e-06 0)
(24.99999993470976 6.040434347386343e-08 0)
(24.99999999991685 4.854640925931159e-11 0)
(24.99999902146384 1.149764426410148e-07 0)
(24.999586135829 7.980729877754821e-05 0)
(24.56073860071703 -0.2103262278782567 0)
(24.99999998280515 1.822397333707261e-08 0)
(24.99999904168241 -1.461267213462292e-06 0)
(24.9983682149325 -0.002017587466640512 0)
(23.93182218088721 -1.026723180505821 0)
(24.99999996061405 3.608743788954412e-08 0)
(24.9999989674387 -3.053872291981634e-06 0)
(24.9980161485788 -0.003791706556952698 0)
(23.89664323546245 -1.595426716813807 0)
(24.99999994885761 4.727520617782445e-08 0)
(24.99999873336702 -3.877319304643231e-06 0)
(24.99772893150757 -0.004569420713594717 0)
(23.88995110192477 -1.763901911617034 0)
(25.00000000008788 7.367874770470552e-10 0)
(24.99999999951124 4.048225169724949e-10 0)
(25 5.47667076553387e-13 0)
(25 -1.657490492634087e-15 0)
(25.00000011222656 1.380243381801766e-06 0)
(24.99999997657225 -7.360899967247181e-08 0)
(24.99999999994737 4.790664437638787e-10 0)
(25 4.201912757120619e-13 0)
(25.00031933371611 0.00102392072262372 0)
(24.99999944437024 -5.773873755887517e-06 0)
(24.99999999649702 1.633269734594854e-08 0)
(24.99999999954185 6.666565180813321e-10 0)
(25.02223886704855 0.02486020273302903 0)
(24.99999100825225 -0.0001354800852185199 0)
(24.99999982350958 4.021706429466661e-07 0)
(24.99999991246581 7.376352936291731e-08 0)
(25.00000000000002 -3.829205476508251e-15 0)
(25 4.037497593387098e-12 0)
(24.99999999872473 4.028854181633567e-09 0)
(24.99999967380635 5.58263109870738e-07 0)
(25 6.845905151609382e-15 0)
(25 6.416631015634302e-12 0)
(24.99999999810062 7.082111955132345e-09 0)
(25.00000003567823 1.130402292134166e-06 0)
(25 2.090658153200713e-12 0)
(25.00000000016879 -2.43181627810026e-10 0)
(25.00000024377626 -2.415312354698829e-07 0)
(25.00007476714782 -4.663429883840974e-05 0)
(24.99999999975081 1.376848988425644e-10 0)
(25.00000001018421 -1.749430863061545e-08 0)
(25.00001213667914 -1.605689072554673e-05 0)
(25.00315319393804 -0.002579196825255441 0)
(24.9999999684922 2.255130988441357e-08 0)
(24.99999993877233 -1.937896849747131e-06 0)
(24.99992977927187 -0.001716841103974954 0)
(25.00686468029141 -0.4707239969295766 0)
(24.99999997003486 1.974328036889892e-08 0)
(25.00000013389056 -1.736817905976771e-06 0)
(25.00014002273589 -0.001502087100504338 0)
(25.09180901005209 -0.3373761988338901 0)
(24.99999998308891 9.685269860099642e-09 0)
(25.0000002356681 -9.515280866851851e-07 0)
(25.000244145689 -0.0008096015227968691 0)
(25.08797272572624 -0.1398633944069068 0)
(24.9999999959673 2.051736844940221e-09 0)
(25.00000009880955 -2.320020002737375e-07 0)
(25.00010680600413 -0.0002009211402563389 0)
(25.02948028127715 -0.03061949491656003 0)
(24.85845224138927 -0.4512509611336602 0)
(24.99970328891031 -0.0005824461791429991 0)
(24.99999981244585 -2.476591604896185e-07 0)
(24.99999999761554 3.006826242037658e-09 0)
(24.91291628296584 -0.415947251852953 0)
(24.99986728095675 -0.0007729382585944887 0)
(24.99999994147477 -5.914726838178175e-07 0)
(24.99999999080033 6.944026706240168e-09 0)
(24.9075400076852 -0.4031690562437776 0)
(24.99986217401356 -0.0007035280143435841 0)
(24.99999993513956 -5.144916934721255e-07 0)
(24.99999999221258 6.020772184567616e-09 0)
(24.90317819956209 -0.3682950261975171 0)
(24.99988191722683 -0.0006365970869252567 0)
(24.99999991148347 -3.565693072611671e-07 0)
(24.99999999508579 4.065931842101007e-09 0)
(24.90375920731376 -0.3383353417951693 0)
(24.99992929658228 0.0002015130163449427 0)
(25 -7.532021396398558e-14 0)
(25 -1.394129581958171e-12 0)
(24.89185467522922 -0.2767861194032511 0)
(25.00002076102592 -3.584073497880717e-05 0)
(25 5.786810595746405e-16 0)
(25.00000000000001 3.50221420967416e-15 0)
(24.92557694488146 -0.1365399741326905 0)
(24.99999998863753 -1.088893293796816e-08 0)
(25 3.709941798090211e-16 0)
(25.00000000000001 3.615184819254573e-15 0)
(24.98456099200759 -0.02296601343036453 0)
(25.00000000087059 7.773872137228008e-10 0)
(25 -1.312234622406041e-15 0)
(25.00000000000002 -4.430567301436253e-15 0)
(25 1.420908939734042e-15 0)
(25 1.882421794034509e-15 0)
(25 -4.971828653399529e-16 0)
(24.99999994478048 -1.924468152855123e-08 0)
(24.99999999999999 -2.843418720158383e-19 0)
(25 1.479069230633779e-15 0)
(25 2.765230188551471e-14 0)
(25.00000329612945 4.159443404681078e-06 0)
(25 -1.366459512028481e-15 0)
(25 -1.203263355949957e-15 0)
(25 1.46643237479736e-12 0)
(24.99999344232996 2.608006901291471e-05 0)
(25 -1.093083973289943e-15 0)
(25 -2.339524206557843e-16 0)
(25.00000000000002 -1.419393323083177e-11 0)
(24.99940640344301 0.0003815126546130902 0)
(25.00000681024771 1.759848513732376e-09 0)
(25.00002841417713 1.186124776205726e-05 0)
(25.00006281404708 7.12349884765322e-05 0)
(24.99651548090254 -0.004365897980745973 0)
(25.00002841383312 -1.186124160617483e-05 0)
(25.00011366616877 -1.801610075936566e-10 0)
(25.0002089014481 -0.0002188195802987598 0)
(24.96733560471518 -0.03048750005411911 0)
(25.00006281412021 -7.123436066677709e-05 0)
(25.00020890142183 0.0002188195844372888 0)
(24.99186356529873 2.68475783120928e-10 0)
(24.65824034371899 -0.09968141211639892 0)
(24.99651548062487 0.004365898230235691 0)
(24.96733560492073 0.03048749954362365 0)
(24.65824034388492 0.09968141229783568 0)
(22.53042907873631 -6.373579833702643e-11 0)
(20.53260208188819 2.397233429253086 0)
(21.6388122892998 2.961546091280729 0)
(23.92566761186208 1.76827421735468 0)
(24.66777323844607 0.6322987473475602 0)
(21.0718700728235 4.657605084911876 0)
(21.35183003823459 4.795466379861978 0)
(22.65231580770231 4.195865504133701 0)
(23.55870319089532 2.899403775092168 0)
(21.94163972617654 5.428058285968272 0)
(22.43403573924123 5.503036958354564 0)
(22.89045400588533 5.394476223166563 0)
(23.38815937323741 4.71880613307107 0)
(22.382013613452 5.566981592267673 0)
(23.27344434809214 5.933128786427342 0)
(23.41282865089992 5.945002158162594 0)
(23.63135543332343 5.46746517794866 0)
(23.69993142450163 5.714250978973385 0)
(23.72350059319493 5.757796108220571 0)
(23.73612147303842 5.766748093147976 0)
(23.39645582171799 6.117362310698177 0)
(23.58449072888159 6.150435579651059 0)
(23.62949283652309 6.183871946517746 0)
(23.6459508625725 6.184748746989614 0)
(23.64016745801156 6.59609211108034 0)
(23.57999728334584 6.04802490370818 0)
(23.65210863156786 6.062313341479174 0)
(23.67258907611241 6.061305908684587 0)
(24.58542754960201 6.768096612880671 0)
(22.41537749112615 5.568085781561095 0)
(22.43159350453828 5.566590490118084 0)
(22.44293714778179 5.568252151790096 0)
(25.86671939036434 7.815629914042706 0)
(25.55018850265078 4.573637700509269 0)
(26.50413181539521 2.162239010380544 0)
(25.87958294817545 0.5952639163858028 0)
(25.23084132381948 0.1035283312531056 0)
(27.14355006261563 3.990834247519242 0)
(28.17623357674007 0.5369490673427965 0)
(26.25154160831558 -0.05180672462199706 0)
(25.34279062555051 -0.0230896624678827 0)
(28.86762589805894 1.974127540873379 0)
(28.07260464063051 -0.9654535992191027 0)
(26.70383528319578 -0.5979788900667244 0)
(25.62264241891858 -0.1881139607813359 0)
(21.30834450364502 1.239678994822096 0)
(22.05162498955505 0.2750520140753031 0)
(23.52292174617358 -0.3536293723568996 0)
(24.49000740019126 -0.2118602444448756 0)
(25.02170826354266 0.006748515270736619 0)
(25.00059291921072 -7.978880744062116e-05 0)
(25.00000681056255 -1.593676932548517e-05 0)
(24.99999897285888 -3.644067160774941e-06 0)
(25.0364185705979 -0.00279698192989888 0)
(25.00115441261262 -0.0004176349421990148 0)
(25.00003296017174 -2.240244413691243e-05 0)
(25.00000053473054 -9.222155574876195e-07 0)
(25.07754024918773 -0.02715258747592865 0)
(25.00280747303885 -0.001353540062021681 0)
(25.00006796014414 -5.261138053991426e-05 0)
(25.00000142736999 -1.720521421948196e-06 0)
(24.91885290861403 -0.0353928523389182 0)
(24.99544981732286 -0.002089849292852607 0)
(24.9998007122017 -6.78517987878792e-05 0)
(24.99999439553757 -1.593340019729973e-06 0)
(24.9999997328027 -1.396200753371134e-07 0)
(25.00000010855634 1.090976946566986e-07 0)
(24.99998110021649 -6.098559407972556e-05 0)
(24.95662453747972 0.6523622137458368 0)
(24.99999990481924 3.44372512720878e-08 0)
(25.00000000586611 4.115648111405833e-08 0)
(24.99999717714258 -3.195722955172692e-05 0)
(23.70045915292627 1.839956029461064 0)
(24.99999996564777 -5.556125682965941e-09 0)
(24.99999999364544 1.569856365451979e-08 0)
(25.00000193668932 -1.154385462075822e-05 0)
(22.06911962145474 1.504019272044795 0)
(24.99999994379025 -1.10675418632404e-08 0)
(24.99999999260868 -2.831711642232464e-09 0)
(24.9999970870752 2.364228674914777e-06 0)
(19.88672373464248 -0.02704304629783387 0)
(17.18042764380838 6.394438971719961 0)
(17.23041665266851 9.447758774039659 0)
(17.65494850915519 10.93310942393976 0)
(17.78999310726141 11.31669508976332 0)
(14.17114630176863 7.133425641219817 0)
(16.20636814103906 9.91026914053538 0)
(17.29937395435091 11.57000645723498 0)
(17.64163139870254 11.93444744778705 0)
(12.32871085644651 6.797060112003001 0)
(15.5198407225459 9.722869420918418 0)
(17.39106580112309 11.09298413418519 0)
(17.87219148237807 11.43331563091746 0)
(11.87557819861579 5.346571373906164 0)
(13.99635374620211 8.385672289849905 0)
(14.94948979191751 9.960895640628955 0)
(15.48473670179232 10.17423249561892 0)
(17.78932044405169 11.36505462341975 0)
(17.78266349600702 11.38201590796437 0)
(17.76029474364466 11.39968211594818 0)
(17.77396957717876 11.43015197288183 0)
(17.67397437497311 11.96297593260124 0)
(17.67799037082431 11.96362134610843 0)
(17.67785022924917 11.96565191871226 0)
(17.70344680684859 11.97467352800298 0)
(17.90640365718869 11.46898553789368 0)
(17.9059434026465 11.46787198850667 0)
(17.90474557129193 11.46873831557131 0)
(17.92272160012415 11.46267463876465 0)
(15.58694545764884 10.1854100525506 0)
(15.58597842532617 10.18345657763862 0)
(15.58351136176844 10.18284385427996 0)
(15.54265642356881 10.15017337150399 0)
(17.76960724260152 11.38140910035561 0)
(17.83061773425331 11.32144522278967 0)
(18.44484065718991 10.79373236590598 0)
(19.94241504786808 8.607022485958341 0)
(17.67343898321179 11.99578746764745 0)
(17.72911968144382 11.94425508168255 0)
(18.45024757705085 11.46410278048067 0)
(20.53908098583774 10.52397839722535 0)
(17.90551344114923 11.48972125081403 0)
(17.9861735937329 11.44514238346975 0)
(18.88362312320939 11.34134896871216 0)
(24.77486026125376 14.13157197235572 0)
(15.69761315376479 10.19027456121232 0)
(15.85677722719744 10.1334772377513 0)
(17.8788221829647 10.90189819298031 0)
(31.97371024313522 18.35440098465738 0)
(25.26107682574187 4.289634583320581 0)
(21.27931440775395 -4.232781556481941 0)
(6.048768804871363 -4.284907281983975 0)
(3.026290782747591 -0.286377347993673 0)
(24.16989107255349 5.099213506413732 0)
(16.45654129142418 -5.529477871145033 0)
(0.3248950581877607 -4.681511686897185 0)
(-3.4897263660611 -0.4823843126842379 0)
(24.38638166184967 0.8713976670662361 0)
(10.70786640999337 -10.50242978307171 0)
(-2.412073162614874 -4.026065484330187 0)
(-3.458599437631276 -0.7261313862126981 0)
(15.16051642410443 -7.473196151931627 0)
(6.575388429446543 -2.800276284299404 0)
(-2.763348954777152 -1.710214100201401 0)
(-2.221662385705441 -0.6016673024016784 0)
(3.486385361172485 -0.04651713244568674 0)
(3.870184620279141 0.2486928405646753 0)
(4.373301643967847 0.6347042081818379 0)
(3.130168021555929 3.04571698562072 0)
(-3.537264599616488 -0.0165467564232744 0)
(-3.385771877286356 0.5756962949966472 0)
(-2.168654770902548 2.360949071836728 0)
(-1.071799453016789 6.012328309519984 0)
(-3.749096101866601 -0.1812732841769122 0)
(-3.635865939019582 0.9198706892283143 0)
(-1.936139548268246 3.990262831501045 0)
(-0.5941835650157585 8.141512526009254 0)
(-2.249756148880625 -0.2086124650029329 0)
(-2.376101878688174 0.8125334120803194 0)
(-1.453303649604906 4.02873589749462 0)
(-0.5352175631521449 9.661975904074437 0)
(19.5001739883392 -4.694453644963017 0)
(22.64896178169126 -2.65300530114449 0)
(24.36918073650757 -1.718018215392866 0)
(25.0904694991061 -1.825387617582643 0)
(13.20059242365741 -4.763674198929472 0)
(19.6348418947958 -4.094392291390893 0)
(23.1080392590964 -3.253121238320259 0)
(25.6857921565339 -2.008980247805864 0)
(6.195179146932014 -1.884670817707975 0)
(14.91264480855817 -2.353542097774735 0)
(20.84756136165392 -3.864657673238113 0)
(27.80173999743867 -1.763562036528067 0)
(4.292797023072857 4.447864144198588 0)
(10.05972702453026 6.186049292141245 0)
(17.41153801461673 2.726621172415064 0)
(33.68021867073976 -0.2047144797918246 0)
(25.91785717108054 -3.953771494437956 0)
(24.71313418355343 -7.728891217816066 0)
(19.03509562887664 -8.85421345903003 0)
(13.76810188561277 -8.326248782782256 0)
(28.36489664659232 -7.635167440900251 0)
(31.18996731208457 -13.28083270525922 0)
(19.12634548520417 -16.26617708362945 0)
(11.03548865548965 -12.98555529041993 0)
(29.94428861151708 -11.02769843311541 0)
(30.42404918104173 -13.46780904319601 0)
(15.49116789650614 -13.34840849577475 0)
(6.878183887459979 -14.12852153084049 0)
(18.44227346595306 -9.492738971837259 0)
(11.32676399032352 -16.79282861339498 0)
(2.881361252527006 -12.81786098144177 0)
(0.04829771707798475 -8.196948803342888 0)
(0.2010775435804808 -6.740838809545906 0)
(0.1569251584303811 -5.984194898193808 0)
(0.5758403561739723 -3.24414867268122 0)
(0.8625944340047252 -0.3228517206277124 0)
(3.794531012121758 -12.95746984784328 0)
(2.420760262839217 -11.43141276641695 0)
(0.7515751275350621 -6.41262508060822 0)
(0.02104040115233344 -0.7510013504657231 0)
(6.231421118498503 -10.87051749845785 0)
(4.043843675814849 -6.821416588444565 0)
(2.634414335096555 -1.885810906398143 0)
(2.034102123413557 -0.1679061879191966 0)
(10.68029302740449 -5.415891544485895 0)
(9.734835138910089 -2.360093737581254 0)
(9.291402254494178 -0.5400747535530415 0)
(9.223428839780187 -0.06732803348374508 0)
(0.8625944339966033 0.3228517206513483 0)
(0.02104040117954498 0.751001350474901 0)
(2.034102123428246 0.1679061879139011 0)
(9.223428839730984 0.06732803342880433 0)
(0.575840356160119 3.244148672700959 0)
(0.7515751275527663 6.412625080616428 0)
(2.634414335129915 1.885810906373266 0)
(9.291402254526254 0.5400747535368363 0)
(0.1569251584290208 5.984194898200526 0)
(2.420760262841539 11.43141276641962 0)
(4.043843675831932 6.821416588442403 0)
(9.734835138922136 2.360093737610425 0)
(0.2010775435893448 6.740838809541616 0)
(3.794531012119293 12.95746984783977 0)
(6.231421118519807 10.8705174984703 0)
(10.68029302743817 5.415891544439882 0)
(13.76810188561489 8.326248782793826 0)
(19.03509562890277 8.854213459024136 0)
(24.71313418360565 7.728891217771537 0)
(25.91785717117864 3.953771494462303 0)
(11.03548865549416 12.98555529044702 0)
(19.12634548516381 16.26617708359176 0)
(31.18996731205196 13.28083270522349 0)
(28.36489664664041 7.635167440885178 0)
(6.87818388744944 14.12852153083474 0)
(15.49116789647907 13.3484084957634 0)
(30.42404918103103 13.46780904317986 0)
(29.94428861153022 11.0276984331085 0)
(0.04829771707614334 8.1969488033331 0)
(2.881361252535743 12.81786098144292 0)
(11.32676399032748 16.79282861339973 0)
(18.44227346592877 9.492738971843279 0)
(33.68021867074243 0.2047144797939837 0)
(17.41153801460999 -2.72662117238254 0)
(10.0597270245629 -6.186049292103519 0)
(4.292797023073804 -4.447864144177768 0)
(27.80173999746607 1.763562036522926 0)
(20.84756136170473 3.864657673244966 0)
(14.9126448085635 2.353542097818811 0)
(6.195179146931082 1.88467081772694 0)
(25.68579215656987 2.008980247792656 0)
(23.10803925916161 3.253121238331801 0)
(19.6348418948003 4.09439229142711 0)
(13.20059242363576 4.763674198952079 0)
(25.09046949914599 1.825387617571329 0)
(24.36918073655693 1.718018215392078 0)
(22.64896178170006 2.653005301193787 0)
(19.50017398828701 4.694453644971169 0)
(3.13016802155913 -3.045716985577367 0)
(4.373301643922139 -0.6347042081796 0)
(3.870184620260125 -0.2486928406156131 0)
(3.486385361167566 0.04651713245607417 0)
(-1.071799452997652 -6.012328309493602 0)
(-2.168654770915159 -2.3609490718214 0)
(-3.385771877275373 -0.5756962950105089 0)
(-3.537264599600751 0.01654675642214433 0)
(-0.5941835650034902 -8.141512526005943 0)
(-1.936139548253001 -3.990262831506114 0)
(-3.635865938996815 -0.9198706892306117 0)
(-3.749096101831222 0.181273284183908 0)
(-0.535217563155274 -9.661975904088083 0)
(-1.453303649595684 -4.028735897519516 0)
(-2.376101878689164 -0.812533412078252 0)
(-2.249756148869769 0.2086124650128129 0)
(3.026290782768711 0.2863773479381747 0)
(6.048768804824388 4.28490728201672 0)
(21.27931440760411 4.232781556510203 0)
(25.26107682573434 -4.289634583322934 0)
(-3.489726365969164 0.4823843126510779 0)
(0.3248950581511041 4.681511686881669 0)
(16.45654129135691 5.529477871121116 0)
(24.16989107260806 -5.099213506424713 0)
(-3.458599437519989 0.7261313861972668 0)
(-2.412073162639686 4.026065484285639 0)
(10.70786640992366 10.50242978302092 0)
(24.38638166189682 -0.8713976670846074 0)
(-2.221662385661602 0.6016673023944221 0)
(-2.76334895481555 1.710214100142397 0)
(6.575388429387311 2.800276284316392 0)
(15.16051642413301 7.473196151904802 0)
(19.94241504789068 -8.607022485944309 0)
(18.44484065719199 -10.79373236590086 0)