/*--------------------------------*- C++ -*----------------------------------*\
  =========                 |
  \\      /  F ield         | OpenFOAM: The Open Source CFD Toolbox
   \\    /   O peration     | Website:  https://openfoam.org
    \\  /    A nd           | Version:  11
     \\/     M anipulation  |
\*---------------------------------------------------------------------------*/
FoamFile
{
    format      ascii;
    class       volScalarField;
    location    "0.1335";
    object      rho;
}
// * * * * * * * * * * * * * * * * * * * * * * * * * * * * * * * * * * * * * //

dimensions      [0 0 0 0 0 0 0];

internalField   nonuniform List<scalar> 
880
(
0.3733250556165154
0.3733250556165154
0.3733250556177634
0.3733270095195667
0.3733250556165154
0.3733250556165154
0.3733250556275471
0.373331654613397
0.3733250556165154
0.3733250556165153
0.3733250556996174
0.3733623993801968
0.3733250556165154
0.3733250556165154
0.3733250574094619
0.3734350329104787
0.3733250556165154
0.3733250556165155
0.3733250556165152
0.373325055608054
0.3733250556165154
0.3733250556165154
0.3733250556165151
0.3733250556165154
0.3733250335622429
0.3733250558401969
0.373438558625785
0.3731746972109706
0.377331951590516
0.3866106709001925
0.3930114094476414
0.39581394598138
0.3733250786352482
0.3733252267968613
0.3733253117433035
0.3733252540593321
0.3733255989146497
0.3733263471982157
0.3733297217966332
0.3733293204579088
0.3735391432563852
0.3737910732851991
0.3742167401900733
0.374404752413478
0.3989569447832628
0.4032644790568354
0.4075064547207
0.413433170828644
0.4122863236343063
0.4035145381942271
0.3968188139834766
0.3943633432515639
0.3752618200769223
0.3773311661698009
0.3780884596534883
0.3779936109008881
0.3733369224584399
0.3733646417772644
0.3734052433585133
0.3734274476760011
0.3733256887439704
0.3733268401686237
0.3733290861308198
0.3733298744522681
0.3733292215731257
0.3733276564577179
0.3733260263178213
0.3733252075109803
0.3734222737373004
0.3734045052109642
0.3733741863158571
0.3733427563571562
0.3774624784354291
0.3767277775729911
0.3757631673737289
0.3746444467323509
0.3921078534840503
0.389068735693372
0.3856243014195103
0.3820125445068144
0.3785074824604783
0.3737351366781049
0.373327763430119
0.373325059996975
0.3755852670560982
0.3733906900850208
0.3733252492194995
0.3733250565218881
0.3736994746717342
0.3733271125765099
0.3733250197212301
0.373325055057878
0.381976341403017
0.3733933422490922
0.3733245639683295
0.3733250193323499
0.3733248872271322
0.3733247536607154
0.3736865383658124
0.4322518080489614
0.3733250472969643
0.3733310837706658
0.3752444707707492
0.4763302249956713
0.3733256532909687
0.3733388318668796
0.3769936709428292
0.4995671818615373
0.3733272279145919
0.3733672548659488
0.3797080843216414
0.5178020750328345
0.5300182031583804
0.3825591979835367
0.3733893519866835
0.3733286548601505
0.5474523754566718
0.3865767678153049
0.3734561631160862
0.3733323525366946
0.5644783558540346
0.3906575523492364
0.3734964940767155
0.3733335345164857
0.5869710796603267
0.395400904510243
0.3735942140373004
0.3733402158675454
0.3733434243597555
0.3736942741407416
0.4020282445980849
0.6064693634856455
0.3733544445891214
0.373876427757012
0.408264749624106
0.6077456040002513
0.373385370619214
0.3740705246786474
0.4081539019478118
0.5737472408956217
0.3733218350643494
0.3736987484512349
0.395771218116184
0.5083050140337599
0.3734219736279454
0.3749216857396812
0.3934464379810557
0.4105349820376107
0.3734574893837896
0.3748411142050765
0.3764619012621569
0.3042792520565932
0.373375798655544
0.3737929615423198
0.3680544774005909
0.2367714833723098
0.3733272406240452
0.3731019861187971
0.3589585027996786
0.2045354887085405
0.2044907261731486
0.3554510677079887
0.372830501298207
0.3733221310953965
0.2001977386751066
0.3528740363135386
0.3727444776072033
0.3733206511582209
0.2003699810529128
0.3523518315103245
0.3728108371717342
0.373322310305185
0.1918508453702857
0.3502926892241161
0.3727698386037616
0.3733223583073796
0.218067069683798
0.3579539845594115
0.3730867735476316
0.3733240450227452
0.2501260799238992
0.3655520445595262
0.3732512157806591
0.3733247949190702
0.2791016198766152
0.3695013890370599
0.373298689700187
0.3733249753443195
0.3057595375272252
0.3720616415803057
0.3733193385872022
0.373325024537101
0.3283514265823271
0.3695042271803013
0.3732293993574526
0.3733241871171488
0.331311745183842
0.3697188278094568
0.3732316989964454
0.3733241912625488
0.3317913899309664
0.3698679049089069
0.3732338415114134
0.3733241916302359
0.3344687880120725
0.3703146724285939
0.3732484676628925
0.3733242840924088
0.3057595375268182
0.3720616415790363
0.3733193385862725
0.3733250245374928
0.2791016198752408
0.3695013890358339
0.3732986896951177
0.3733249753438105
0.2501260799223529
0.3655520445595711
0.3732512157793996
0.373324794920189
0.2180670696839732
0.3579539845616045
0.3730867735472373
0.373324045021751
0.3733221310999506
0.3728305013022071
0.3554510677092214
0.2044907261725972
0.3733206511570867
0.3727444776089224
0.3528740363153542
0.2001977386761447
0.3733223103024279
0.3728108371750797
0.3523518315109774
0.2003699810531472
0.3733223583082776
0.3727698386045444
0.3502926892294163
0.1918508453695115
0.20453548870581
0.3589585027966465
0.3731019861173528
0.3733272406239128
0.2367714833689842
0.3680544773979277
0.3737929615398037
0.3733757986497403
0.3042792520559384
0.3764619012591739
0.3748411142059601
0.3734574893796105
0.4105349820381439
0.3934464379805267
0.3749216857375484
0.373421973633023
0.3733434243583556
0.3736942741503719
0.4020282445988115
0.6064693634882473
0.37335444459012
0.3738764277555567
0.4082647496234794
0.6077456040005036
0.3733853706183562
0.3740705246774069
0.4081539019447412
0.5737472408955246
0.3733218350751468
0.3736987484502568
0.3957712181143245
0.508305014033522
0.5869710796636636
0.3954009045018962
0.373594214037158
0.3733402158675814
0.564478355862514
0.3906575523639824
0.3734964940826492
0.3733335345177542
0.5474523754606293
0.3865767678239288
0.3734561631212595
0.373332352535584
0.5300182031593955
0.382559197972501
0.3733893519900019
0.3733286548593241
0.3733248872306084
0.3733247536631114
0.3736865383666004
0.4322518080448597
0.3733250472951107
0.3733310837666509
0.3752444707698475
0.4763302249960406
0.3733256532884776
0.3733388318700039
0.3769936709466961
0.4995671818656919
0.3733272279122762
0.3733672548591941
0.3797080843204908
0.5178020750313346
0.3733250193303979
0.3733250550594339
0.3733250565219476
0.3733250599965943
0.3733245639639652
0.3733250197218503
0.3733252492237132
0.3733277634277248
0.3733933422501658
0.3733271125777756
0.373390690082144
0.3737351366766368
0.3819763414036487
0.3736994746722521
0.3755852670549366
0.3785074824607736
0.3733252075078057
0.3733427563574891
0.3746444467337435
0.3820125445082709
0.3733260263166963
0.3733741863147107
0.3757631673784767
0.3856243014209353
0.3733276564598549
0.3734045052107427
0.3767277775714302
0.3890687356932092
0.3733292215746314
0.3734222737370064
0.3774624784376541
0.3921078534834087
0.373325688740013
0.3733369224549298
0.3752618200726227
0.4122863236338187
0.3733268401654394
0.373364641777763
0.3773311661670095
0.4035145381914192
0.3733290861298496
0.3734052433628262
0.3780884596534274
0.396818813982492
0.3733298744513605
0.3734274476789136
0.3779936109017009
0.3943633432495932
0.4134331708303366
0.3744047524173211
0.3733293204554176
0.3733252540572708
0.4075064547215889
0.3742167402016888
0.373329721795664
0.3733253117397169
0.4032644790603405
0.3737910732939584
0.3733263471980627
0.3733252268000173
0.3989569447805287
0.3735391432517134
0.373325598914261
0.3733250786361924
0.3958139459800495
0.3731746972035617
0.3733250556165154
0.3733250556089526
0.3930114094463326
0.3734385586218881
0.3733250556165154
0.3733250556165154
0.3866106709010129
0.3733250558394542
0.3733250556165154
0.3733250556165153
0.3773319515906258
0.373325033560778
0.3733250556165154
0.3733250556165151
0.3733250556165154
0.3733250556165154
0.3733250556180275
0.3733270095290528
0.3733250556165152
0.3733250556165155
0.3733250556278129
0.3733316546095545
0.3733250556165154
0.3733250556165154
0.3733250556996884
0.3733623993697076
0.3733250556165154
0.3733250556165154
0.373325057407405
0.3734350329107266
0.3733296380999627
0.3733419631731274
0.3734003483313919
0.3742175494989338
0.3733419632268057
0.3733492877933646
0.37341444117726
0.3765883835499892
0.3734003483501442
0.3734144409701381
0.3746632890059798
0.392168296439295
0.3742175493698983
0.3765883834255949
0.392168296863763
0.4464351333099818
0.5281936248751775
0.4715277160565947
0.4411809655409498
0.4070152274891239
0.5135555619527891
0.5027663192390431
0.500529207963848
0.4762382182806127
0.5077323723026378
0.5047415492324393
0.5060616149429952
0.4951151829580382
0.506998132307121
0.5058079373486035
0.5074622765790918
0.4997440710137456
0.5032655085814162
0.5030667369226689
0.5049433760465453
0.5092459306227008
0.5085947269305348
0.5074386273149386
0.5094971036945564
0.5145339440350244
0.5104839563854071
0.5098482571387385
0.5114441777783337
0.5156654302622757
0.512429913784614
0.5108260442213338
0.51168033323831
0.5128252719154806
0.4485221667788158
0.3815921316454995
0.3639098350809886
0.370013740080421
0.4199806583511087
0.3576011256946358
0.3568624979631924
0.3674535520017985
0.3917367628992922
0.3502895972968931
0.3594965727960167
0.3700567544702797
0.3361584240903906
0.3358378723030304
0.3550553562762372
0.3670966742234307
0.3759288188592975
0.3782463017808543
0.3791762519205077
0.3792302051555783
0.374186841640866
0.3764341675653307
0.3775000786022424
0.3789138904671829
0.3750591148426547
0.3764825713581181
0.3775136728314837
0.379315330670514
0.3724141670800398
0.3744008068800992
0.3756681972840028
0.3778660024354948
0.3793251730574412
0.3776364239651235
0.3749151283724791
0.4583655300142683
0.3790013409782794
0.3773068824660802
0.3752250132903719
0.4929756865381297
0.3794892614083438
0.377791450556258
0.3767840061198601
0.5072069457781367
0.3788720160099224
0.3769587339097558
0.3783943381074726
0.5155626027782075
0.692215854560352
0.7161522845053727
0.7140736196486764
0.7043522886085763
0.7360432203667754
0.7332843681787496
0.7236193586115525
0.7134425457798956
0.7217738259040308
0.7203221301279983
0.7239362875444104
0.7207580707292408
0.7418052955303304
0.7305566865047621
0.727306598785146
0.7241874472028057
0.6872075194346547
0.6863779688492644
0.6896536306471427
0.7021516569985062
0.6966421919911604
0.6951496137199861
0.6968301177882485
0.708404984638627
0.7043963833350674
0.7038420654774453
0.7062445187630996
0.7170550715967425
0.7096462830101592
0.7077062301820296
0.7095783396858427
0.7202234129160104
0.7092387783120477
0.694137030334778
0.6576163855539138
0.5711796732566876
0.7148102856478121
0.7023240410215679
0.661563034804782
0.5819917555857059
0.7244249108123334
0.7128507644901596
0.6655478419603843
0.5974452882357719
0.7287146204032222
0.7199266518774797
0.6707352287623339
0.6925069579669335
0.3734486151996795
0.08979170193015787
0.02924177846073108
0.04132027025262234
0.301236148393683
0.05921810566669575
0.03855528916778121
0.05102038002487234
0.2276319458252047
0.03847586156657288
0.03757400742489566
0.06121913333596087
0.1643019311377243
0.0232002872346808
0.04166437411846172
0.06483918095614467
0.05563294737603678
0.06269819613477805
0.06710372494878228
0.06327854729679995
0.06615702919012406
0.0719937794548388
0.07124562430019193
0.06407331938522666
0.08016491139377001
0.08630189073304517
0.07888923889990365
0.06684403794421527
0.08486686519645147
0.09266961420207723
0.08273792862616125
0.0730790647900187
0.1040385944739061
0.1410174396794308
0.1753508799318162
0.2164742662427931
0.0959735485893991
0.1308366300064394
0.1601236094506217
0.201683465998896
0.08825578694078472
0.1190630279498674
0.1456958558002289
0.1799232002694233
0.07908730475480853
0.1051284186909678
0.1288496829132132
0.1658623758235014
0.1658090322297046
0.1170975270519732
0.07200204863583855
0.07933111081660239
0.1466524749723949
0.09326247032732789
0.08136745373454554
0.09008551553088626
0.1181381761584257
0.07515068020573935
0.09907139320312668
0.1013454323708755
0.08583915955971377
0.08835206166975011
0.1204236660727109
0.1240716078356537
0.123119373943529
0.1145817070010518
0.1078593490633122
0.1029594242376146
0.1012611175306316
0.09952050642542089
0.09705375548545171
0.09509453659111225
0.08830294178678597
0.09271743380140531
0.0982591739439565
0.1002231139083869
0.1025217435371759
0.1138493638990832
0.117244685137299
0.1196911262720075
0.1029594242376252
0.095094536591182
0.100223113908479
0.1196911262719749
0.1078593490632892
0.09705375548564006
0.09825917394423554
0.1172446851371733
0.1145817070009708
0.09952050642559629
0.0927174338016067
0.1138493638987461
0.1231193739434079
0.1012611175306231
0.08830294178679675
0.1025217435369943
0.07933111081647537
0.07200204863557201
0.1170975270513807
0.1658090322286966
0.09008551553066391
0.08136745373445274
0.09326247032711354
0.1466524749718221
0.101345432370705
0.09907139320315991
0.0751506802056254
0.118138176158184
0.1240716078354868
0.1204236660726725
0.08835206166986408
0.08583915955952474
0.1658623758231109
0.1288496829125563
0.1051284186897131
0.07908730475392187
0.1799232002690933
0.1456958557999154
0.11906302794878
0.08825578693979351
0.20168346599845
0.1601236094504001
0.1308366300055801
0.09597354858841618
0.2164742662422722
0.1753508799314459
0.1410174396786704
0.1040385944729459
0.06327854729602619
0.06710372494879871
0.06269819613475887
0.05563294737564661
0.06407331938487401
0.07124562430000383
0.07199377945474077
0.06615702918976907
0.06684403794390301
0.0788892388997573
0.08630189073282922
0.08016491139344073
0.07307906478955223
0.08273792862597705
0.09266961420196665
0.08486686519611693
0.04132027025199261
0.02924177846009158
0.08979170192914773
0.373448615198713
0.05102038002440398
0.03855528916712334
0.05921810566615307
0.301236148392474
0.06121913333536273
0.03757400742432551
0.03847586156624005
0.2276319458245044
0.06483918095560766
0.04166437411800489
0.02320028723430006
0.164301931137561
0.5711796732553072
0.6576163855540557
0.6941370303363812
0.7092387783153251
0.5819917555846479
0.6615630348055378
0.7023240410232565
0.71481028565099
0.5974452882350254
0.6655478419607589
0.7128507644920062
0.7244249108151447
0.692506957967037
0.6707352287631987
0.7199266518790307
0.7287146204060996
0.7021516570032738
0.6896536306507939
0.6863779688493714
0.6872075194397707
0.7084049846427802
0.696830117791287
0.6951496137210641
0.6966421919957876
0.7170550716004779
0.7062445187658785
0.7038420654790171
0.7043963833392175
0.720223412920139
0.7095783396883949
0.7077062301842175
0.7096462830145162
0.7043522886096301
0.7140736196470653
0.7161522845058977
0.692215854553156
0.7134425457807967
0.7236193586095397
0.7332843681784716
0.7360432203613262
0.7207580707289982
0.7239362875414403
0.7203221301259635
0.7217738258989291
0.7241874472003609
0.727306598783562
0.7305566865029519
0.7418052955247367
0.4583655300125078
0.3749151283698735
0.377636423966237
0.3793251730581321
0.4929756865325854
0.3752250132862034
0.3773068824685326
0.3790013409785924
0.5072069457688083
0.3767840061153056
0.3777914505604731
0.3794892614083115
0.5155626027645195
0.3783943380998631
0.3769587339146213
0.3788720160119795
0.3792302051574512
0.3791762519213674
0.3782463017808813
0.3759288188590556
0.3789138904695963
0.3775000786027575
0.3764341675655464
0.3741868416404477
0.3793153306721943
0.3775136728316206
0.3764825713584864
0.375059114841808
0.3778660024369012
0.3756681972847667
0.3744008068802692
0.372414167079064
0.370013740078547
0.3639098350800492
0.3815921316441866
0.4485221667789898
0.3674535519996878
0.3568624979621707
0.3576011256932603
0.4199806583515904
0.3700567544681772
0.3594965727952925
0.3502895972947329
0.3917367629002202
0.3670966742212405
0.3550553562754104
0.3358378722993678
0.3361584240903036
0.5092459306217152
0.5049433760422757
0.5030667369249655
0.5032655085855835
0.5145339440325342
0.509497103692269
0.507438627320105
0.508594726933368
0.5156654302596795
0.5114441777773484
0.5098482571444797
0.5104839563874554
0.5128252719154666
0.5116803332384431
0.5108260442259394
0.5124299137847605
0.4997440710144696
0.4951151829489554
0.476238218275048
0.4070152275297641
0.5074622765755091
0.5060616149344308
0.5005292079628321
0.4411809655275645
0.5058079373455732
0.5047415492288366
0.5027663192395589
0.4715277159958883
0.5069981323035644
0.5077323722992557
0.5135555619389832
0.5281936248792792
0.3182454363097808
0.3714579181424608
0.3733050465242603
0.3733249636219362
0.3216035204700633
0.3713092221185856
0.3732986965844322
0.373324892623031
0.3251222220310325
0.371159793295093
0.3732892090908969
0.3733247881554654
0.326772421809583
0.3707424544517592
0.3732715366484516
0.3733245588119882
0.3733241871178455
0.3732293993597201
0.369504227176423
0.3283514265742016
0.3733241912635928
0.3732316989989259
0.3697188278068784
0.3313117451810279
0.3733241916284429
0.3732338415119239
0.3698679049094843
0.3317913899307885
0.3733242840869353
0.373248467664772
0.3703146724262182
0.3344687880115035
0.3733245588090411
0.3733247881534922
0.3733248926171172
0.3733249636151987
0.373271536649839
0.373289209090826
0.3732986965837169
0.3733050465225635
0.3707424544499268
0.3711597932913457
0.3713092221210186
0.3714579181420793
0.3267724218093152
0.3251222220282782
0.3216035204675452
0.318245436312189
)
;

boundaryField
{
    back
    {
        type            empty;
    }
    inlet
    {
        type            calculated;
        value           nonuniform List<scalar> 
16
(
0.3733250556165154
0.3733250556165154
0.3733250556165154
0.3733250556165154
0.3733250556165154
0.3733250556165155
0.3733250556165152
0.373325055608054
0.3733250556089527
0.3733250556165154
0.3733250556165154
0.3733250556165151
0.3733250556165154
0.3733250556165152
0.3733250556165154
0.3733250556165154
)
;
    }
    front
    {
        type            empty;
    }
    top
    {
        type            calculated;
        value           nonuniform List<scalar> 
40
(
0.3733250786352482
0.3733252267968613
0.3733253117433035
0.3733252540593321
0.3733256887439704
0.3733268401686237
0.3733290861308198
0.3733298744522681
0.3733292215731257
0.3733276564577179
0.3733260263178214
0.3733252075109803
0.373325059996975
0.3733250565218881
0.373325055057878
0.3733250193323499
0.3733248872271322
0.3733250472969642
0.3733256532909687
0.3733272279145919
0.3733286548601505
0.3733323525366946
0.3733335345164857
0.3733402158675454
0.3733434243597555
0.3733544445891214
0.373385370619214
0.3733218350643494
0.3734219736279454
0.3734574893837896
0.373375798655544
0.3733272406240452
0.3733221310953965
0.373320651158221
0.373322310305185
0.3733223583073796
0.3733240450227452
0.3733247949190702
0.3733249753443195
0.373325024537101
)
;
    }
    outlet
    {
        type            calculated;
        value           uniform 0.3733250556165154;
    }
    bottom
    {
        type            calculated;
        value           nonuniform List<scalar> 
40
(
0.3733250245374928
0.3733249753438105
0.373324794920189
0.373324045021751
0.3733221310999506
0.3733206511570866
0.3733223103024279
0.3733223583082776
0.3733272406239128
0.3733757986497403
0.3734574893796106
0.373421973633023
0.3733434243583555
0.37335444459012
0.3733853706183562
0.3733218350751468
0.3733402158675814
0.3733335345177542
0.373332352535584
0.3733286548593241
0.3733248872306084
0.3733250472951107
0.3733256532884776
0.3733272279122762
0.3733250193303979
0.373325055059434
0.3733250565219476
0.3733250599965943
0.3733252075078057
0.3733260263166963
0.3733276564598549
0.3733292215746314
0.373325688740013
0.3733268401654394
0.3733290861298496
0.3733298744513605
0.3733252540572708
0.3733253117397169
0.3733252268000173
0.3733250786361924
)
;
    }
    wall
    {
        type            calculated;
        value           nonuniform List<scalar> 
104
(
0.5281936248751775
0.5135555619527891
0.5077323723026378
0.506998132307121
0.512429913784614
0.5108260442213338
0.51168033323831
0.5128252719154806
0.3361584240903906
0.3358378723030304
0.3550553562762371
0.3670966742234307
0.3724141670800398
0.3744008068800992
0.3756681972840028
0.3778660024354948
0.3788720160099224
0.3769587339097558
0.3783943381074726
0.5155626027782075
0.7418052955303304
0.7305566865047621
0.727306598785146
0.7241874472028057
0.7096462830101592
0.7077062301820296
0.7095783396858427
0.7202234129160104
0.7287146204032222
0.7199266518774797
0.6707352287623339
0.6925069579669335
0.1643019311377243
0.0232002872346808
0.04166437411846172
0.06483918095614467
0.08486686519645147
0.09266961420207723
0.08273792862616125
0.0730790647900187
0.07908730475480853
0.1051284186909678
0.1288496829132132
0.1658623758235014
0.08583915955971377
0.08835206166975011
0.1204236660727109
0.1240716078356537
0.123119373943529
0.1145817070010518
0.1078593490633122
0.1029594242376146
0.1029594242376252
0.1078593490632892
0.1145817070009708
0.1231193739434079
0.1240716078354868
0.1204236660726725
0.08835206166986408
0.08583915955952474
0.1658623758231108
0.1288496829125563
0.1051284186897131
0.07908730475392187
0.07307906478955223
0.08273792862597705
0.09266961420196665
0.08486686519611694
0.06483918095560766
0.04166437411800489
0.02320028723430006
0.164301931137561
0.692506957967037
0.6707352287631987
0.7199266518790307
0.7287146204060996
0.720223412920139
0.7095783396883949
0.7077062301842175
0.7096462830145162
0.7241874472003609
0.727306598783562
0.7305566865029519
0.7418052955247367
0.5155626027645195
0.3783943380998631
0.3769587339146213
0.3788720160119795
0.3778660024369012
0.3756681972847667
0.3744008068802692
0.3724141670790641
0.3670966742212405
0.3550553562754104
0.3358378722993678
0.3361584240903036
0.5128252719154666
0.5116803332384431
0.5108260442259394
0.5124299137847605
0.5069981323035644
0.5077323722992557
0.5135555619389832
0.5281936248792792
)
;
    }
}


// ************************************************************************* //
