/*--------------------------------*- C++ -*----------------------------------*\
  =========                 |
  \\      /  F ield         | OpenFOAM: The Open Source CFD Toolbox
   \\    /   O peration     | Website:  https://openfoam.org
    \\  /    A nd           | Version:  11
     \\/     M anipulation  |
\*---------------------------------------------------------------------------*/
FoamFile
{
    format      ascii;
    class       volVectorField;
    location    "0.1335";
    object      U;
}
// * * * * * * * * * * * * * * * * * * * * * * * * * * * * * * * * * * * * * //

dimensions      [0 1 -1 0 0 0 0];

internalField   nonuniform List<vector> 
880
(
(25 -7.768126373978579e-16 0)
(25 3.001145803013243e-16 0)
(25.00000000005062 -7.793981210411651e-11 0)
(24.9999856613467 -4.316435006925514e-06 0)
(25 1.210301178234613e-15 0)
(25 -2.306587589291348e-15 0)
(25.00000000020174 -7.42948608717193e-10 0)
(24.99981791706409 -0.000411559694477389 0)
(25 0 0)
(25.00000000000001 2.535613030115412e-15 0)
(25.00000000395339 -8.435341518369396e-09 0)
(25.00004762369769 -0.001143154371792373 0)
(25 0 0)
(25 -1.704454933500167e-15 0)
(25.00000011181462 -9.195830368504275e-08 0)
(24.99772302489062 -0.009722639015733449 0)
(25 -5.045763085179378e-16 0)
(25 -2.919106820545313e-15 0)
(25.00000000000001 -1.000355023010387e-11 0)
(24.99999999876411 2.721834176572956e-09 0)
(25 -9.163642975440639e-15 0)
(25 1.625158609293178e-14 0)
(25.00000000000003 1.517401083704611e-12 0)
(25 -5.237074097541039e-12 0)
(25.00001188912648 -9.448893535277441e-06 0)
(24.99996131469176 3.105789006574064e-05 0)
(24.99967143605529 0.007754111833785251 0)
(25.00512857656296 -0.0145015777528122 0)
(24.83799923412147 0.03490325548184613 0)
(24.43567784654526 0.3357805572105407 0)
(24.24138509147214 0.7281175486043944 0)
(24.1895207831854 0.9969822474415195 0)
(24.99999953510934 -1.161978758343033e-06 0)
(25.00000009940526 3.041194065234064e-07 0)
(24.99998571032255 -1.915414575366262e-05 0)
(24.99998790489446 -8.33466931848214e-06 0)
(24.99997171233119 4.729331621803144e-06 0)
(24.99991811760712 5.850347871983256e-05 0)
(24.999912936163 0.0002621867843977676 0)
(24.99992517934506 0.0001977529405921429 0)
(24.98342964654498 0.005608582123412294 0)
(24.97589967570529 0.02334424670924583 0)
(24.97784975929935 0.0463077360418479 0)
(24.97516489775259 0.04937786706400393 0)
(24.18834096301367 1.245675884586818 0)
(24.09992174647005 1.586582784792824 0)
(24.22408079603107 1.726845308809697 0)
(24.03281242416874 2.034905836092176 0)
(24.52658373063049 2.301327246931944 0)
(24.96489619619155 2.211533682080077 0)
(25.34261312906166 1.869501427379832 0)
(25.57779004401125 1.369159901396394 0)
(24.96122533979111 0.08856192382217015 0)
(24.9165472994684 0.1892115287680395 0)
(24.97049008756331 0.2729376324499417 0)
(25.03645700212551 0.2559116075678705 0)
(24.99977127069175 0.0005731389670175818 0)
(24.99889747902822 0.001754757725194008 0)
(24.99843275088146 0.00417896827972673 0)
(24.9997049575287 0.005444429416321353 0)
(24.99997207781947 -2.42378564787989e-05 0)
(24.99993270875216 -6.66681992283884e-05 0)
(24.99983823808282 -0.0001591075309495471 0)
(24.99975269715505 -0.0001925322242490565 0)
(24.99974487710338 -0.0001753860927112604 0)
(24.99978967680326 -0.0001208442607183075 0)
(24.99988486354669 -5.503970825579385e-05 0)
(24.99996562372569 -1.482092312163294e-05 0)
(25.0006169065161 0.005120949711476702 0)
(25.00122083880835 0.004058811807606604 0)
(25.00112993127691 0.002270350861213583 0)
(25.00049874938296 0.0007287939004704239 0)
(25.06622296233799 0.2208100715212917 0)
(25.07867832555477 0.1624969370086934 0)
(25.06775960745938 0.1015024398510703 0)
(25.03991232279831 0.04826093219279019 0)
(25.64705717406165 0.8977389921395517 0)
(25.59009482529949 0.5824820888935571 0)
(25.48095186958682 0.3791951333136091 0)
(25.35000448843291 0.2398565694837664 0)
(25.21213319068876 0.1306068782265093 0)
(25.01346106680191 0.01349253637244296 0)
(25.00008610246523 0.0001017243360965999 0)
(24.99999553716071 -1.760654799122812e-06 0)
(25.09299526785421 0.05232546460926527 0)
(25.00225763881668 0.002140126316349743 0)
(25.00000577309836 8.078924813317096e-06 0)
(24.99999971557709 -1.154854041016749e-07 0)
(25.01682069636086 0.00848277605980027 0)
(25.00015256509061 4.872522444322046e-05 0)
(25.00000155572824 -2.835763285009437e-06 0)
(24.99999995431257 -6.970193581731361e-08 0)
(24.68633902182586 0.2561144495852068 0)
(24.99783052366918 0.002781177694026947 0)
(25.00002313744665 3.214318844172993e-06 0)
(25.00000792181046 -1.827866000706812e-06 0)
(24.9999996997118 -6.377409542009916e-06 0)
(25.00000751528509 -2.830693597184619e-05 0)
(24.98299045835031 0.006540277896052791 0)
(22.32985556583029 0.9459302191717956 0)
(24.99999218724242 -6.023068509019437e-06 0)
(24.99985619409369 9.616405302916663e-05 0)
(24.92324531174282 0.03578541840074054 0)
(20.74754447973388 2.275858111185831 0)
(24.99998777964136 -2.784740985197179e-05 0)
(24.99921447185445 0.0005480128219067236 0)
(24.82648237612389 0.1202741886840888 0)
(19.91713408887419 3.724029072504351 0)
(24.9999028062634 -8.621527652505459e-05 0)
(24.99895536817023 0.001699738849448397 0)
(24.75155764443238 0.2255083589981204 0)
(19.64271314072234 5.030377778825406 0)
(19.34036831599061 6.374298455206709 0)
(24.64227280089213 0.4170641572299382 0)
(24.99763192173089 0.003301098697346525 0)
(24.99987485428313 -0.0001609692097907842 0)
(19.43385481722975 7.190782567070749 0)
(24.58408818203329 0.5973474081497343 0)
(24.99782892784446 0.006740281082305937 0)
(24.99965616492879 -0.0003094741218641477 0)
(19.39740547367654 7.952561732539335 0)
(24.49525186694785 0.8017366537583605 0)
(24.9958686715044 0.00842357170879718 0)
(24.99963163920867 -0.0003925247669621015 0)
(19.46960033519087 8.378935107525569 0)
(24.38414257525885 1.052283860646146 0)
(24.99498240203175 0.01465400350065513 0)
(24.99930662812696 -0.0006537529212031703 0)
(24.99909336741266 -0.0008542844300911903 0)
(24.99347698765008 0.01752101716504233 0)
(24.24090029920727 1.286272569189427 0)
(19.11664665144087 8.91272208787626 0)
(24.99873346302185 -0.001319521690291037 0)
(24.98718580107722 0.02874957205449071 0)
(24.04651402623712 1.681964304712276 0)
(19.54640825935977 9.136413225197623 0)
(24.99876240589595 -0.002455562040625953 0)
(24.98911195694405 0.04039124562170972 0)
(24.24646319376881 1.709264730856088 0)
(20.72444223017836 8.560370806396158 0)
(24.99741091046341 -0.0009000530542710139 0)
(24.98532487238172 0.02090859318792972 0)
(24.45779334401221 1.219606422337517 0)
(22.65961166202215 6.819623338082645 0)
(24.99710708008017 -0.001748067419655265 0)
(25.00127405961219 0.09096938727861831 0)
(25.2384010282496 1.384356285419884 0)
(26.1777451348361 4.41318722138173 0)
(24.99384745928272 -0.0009617968366435516 0)
(25.06410597476822 0.07813461337778918 0)
(25.65609697314295 0.666240840799422 0)
(28.34414396843964 1.816640585150574 0)
(24.99872789468127 -0.0001098557318150153 0)
(25.05586049548575 0.01902790092099721 0)
(25.56174634941555 -0.007672181709528291 0)
(27.78625412967568 -0.749215571644899 0)
(25.0002944952 -0.000328730520716421 0)
(25.01236527759478 -0.01714714909680254 0)
(25.09079687475912 -0.498969073379342 0)
(24.31136531067187 -2.847896923819025 0)
(21.13899241957419 -3.828794791395188 0)
(24.72403630361016 -0.6729874625264618 0)
(24.99143901796602 -0.02604859214902291 0)
(24.99998145828968 -0.0004464639613119362 0)
(19.10934552089613 -4.299036302584529 0)
(24.41467904908423 -0.7064966855952903 0)
(24.9813724685103 -0.02899099548024935 0)
(24.99979886260686 -0.0002947080393614626 0)
(18.35641975619108 -3.401336993865518 0)
(24.25750749741807 -0.5674898757883602 0)
(24.98021159192386 -0.02058308463759017 0)
(24.99993571517116 -0.0001198792941803972 0)
(17.09114079481073 -2.51475699969002 0)
(24.08920797999854 -0.5070191022242472 0)
(24.97675509750256 -0.01829703778757107 0)
(24.99991700737107 -0.0001109511595816833 0)
(18.29433553831002 -0.6911263308624146 0)
(24.32929758037917 -0.2229145419580144 0)
(24.9886424910658 -0.006725119299470624 0)
(24.99996520559604 -3.526559949511564e-05 0)
(20.17410433505129 0.4971384686137957 0)
(24.63828590825797 -0.1032124718146322 0)
(24.99639819421993 -0.002171297283971202 0)
(24.99999084889239 -8.931531606004873e-06 0)
(21.89597300930627 0.67901464532954 0)
(24.82813260254291 -0.05657163440959821 0)
(24.99887453539452 -0.0007925044128355934 0)
(24.99999776470188 -2.891402209655643e-06 0)
(23.36262200003151 0.6416920753719226 0)
(24.95271666094907 -0.06267576529826838 0)
(24.99998154665538 -0.0005463659863820701 0)
(24.99999954598096 -1.743896074438209e-06 0)
(23.09717067955221 -0.2315601049845532 0)
(24.84892814358406 -0.006965357472183013 0)
(24.99581849743786 -7.018321982381062e-05 0)
(24.99996120473221 -2.710482613939098e-07 0)
(23.25558388475154 -0.5974990026319847 0)
(24.85733242846897 -0.01767469520163661 0)
(24.9958542591 -0.0001628231144718497 0)
(24.99996094523074 -5.84125356554021e-07 0)
(23.17193346396529 -0.8984390265403623 0)
(24.85205295239907 -0.036530716731171 0)
(24.99575747708505 -0.0003140664161769222 0)
(24.99995974859789 -7.91927504619041e-07 0)
(23.12768369084218 -0.8808814400068219 0)
(24.86142318400871 -0.0510872551424101 0)
(24.99582253731999 -0.0007904082766300063 0)
(24.99995753999491 -4.35906766258099e-06 0)
(23.36262200011687 -0.6416920754471922 0)
(24.95271666100316 0.06267576532063683 0)
(24.99998154677181 0.0005463660680031322 0)
(24.9999995458026 1.744155080744248e-06 0)
(21.89597300933861 -0.6790146451627684 0)
(24.82813260263325 0.05657163443824257 0)
(24.99887453563018 0.0007925045010388527 0)
(24.99999776467067 2.891289692565903e-06 0)
(20.1741043350105 -0.4971384684054453 0)
(24.6382859081761 0.1032124720134654 0)
(24.99639819420672 0.002171297462827095 0)
(24.99999084888894 8.931540010037364e-06 0)
(18.2943355381832 0.6911263307500414 0)
(24.32929758017373 0.2229145418325399 0)
(24.988642491017 0.00672511922094474 0)
(24.99996520566063 3.526558049809954e-05 0)
(24.99998145808122 0.0004464638382702133 0)
(24.99143901785078 0.02604859195302871 0)
(24.72403630353943 0.6729874624051316 0)
(21.13899241948299 3.828794791362049 0)
(24.99979886232708 0.0002947082066135547 0)
(24.98137246842267 0.0289909955166093 0)
(24.41467904905886 0.706496685493339 0)
(19.10934552086603 4.299036302420266 0)
(24.99993571536166 0.0001198792715623982 0)
(24.98021159174157 0.02058308457771253 0)
(24.25750749740705 0.5674898757894687 0)
(18.3564197561481 3.401336993758329 0)
(24.99991700734872 0.0001109511480067127 0)
(24.9767550974355 0.0182970378504468 0)
(24.08920797979778 0.5070191020633258 0)
(17.09114079482553 2.514756999790159 0)
(24.31136531082871 2.847896923951715 0)
(25.09079687489671 0.4989690734357746 0)
(25.01236527777912 0.01714714888536811 0)
(25.00029449538693 0.0003287303421794343 0)
(27.7862541298768 0.7492155717414106 0)
(25.56174634958179 0.00767218173757396 0)
(25.0558604956851 -0.01902790068374715 0)
(24.99872789509057 0.0001098556388519972 0)
(28.34414396843832 -1.816640585160173 0)
(25.65609697331818 -0.6662408407656398 0)
(25.06410597482725 -0.07813461335995696 0)
(24.99384745929322 0.0009617973306333797 0)
(26.17774513481532 -4.413187221397521 0)
(25.23840102833837 -1.384356285463394 0)
(25.00127405968059 -0.09096938704696257 0)
(24.99710707958507 0.001748067417856815 0)
(24.99909336748489 0.0008542844547073333 0)
(24.99347698771436 -0.01752101721223527 0)
(24.24090029914818 -1.286272569036665 0)
(19.1166466513199 -8.912722087775816 0)
(24.99873346302667 0.001319521666196628 0)
(24.98718580084135 -0.02874957223247061 0)
(24.04651402615969 -1.681964304668733 0)
(19.54640825936006 -9.136413225150083 0)
(24.99876240539048 0.002455562023859242 0)
(24.98911195690857 -0.04039124553696843 0)
(24.24646319385887 -1.709264730773132 0)
(20.72444223019333 -8.560370806375531 0)
(24.9974109107059 0.0009000528939205448 0)
(24.9853248723123 -0.02090859303148594 0)
(24.45779334403914 -1.219606422232701 0)
(22.65961166204223 -6.81962333809536 0)
(19.46960033490947 -8.378935107540023 0)
(24.38414257503328 -1.052283860816489 0)
(24.99498240142523 -0.01465400373408002 0)
(24.99930662812529 0.000653752967070919 0)
(19.39740547348338 -7.952561732509603 0)
(24.49525186663772 -0.8017366537694651 0)
(24.99586867165639 -0.008423571640542478 0)
(24.99963163913811 0.000392524756442414 0)
(19.43385481726627 -7.190782567050841 0)
(24.58408818210093 -0.5973474079404681 0)
(24.99782892771033 -0.006740281303322966 0)
(24.99965616501052 0.0003094741198501931 0)
(19.34036831589448 -6.374298455228837 0)
(24.6422728011807 -0.4170641575184329 0)
(24.99763192176934 -0.003301098695348742 0)
(24.99987485434994 0.0001609692092384671 0)
(24.99999969961617 6.377434901158964e-06 0)
(25.00000751517478 2.830695475264059e-05 0)
(24.98299045841483 -0.006540277808763117 0)
(22.32985556588353 -0.945930219164354 0)
(24.9999921873334 6.023064074398328e-06 0)
(24.99985619431933 -9.616400989976091e-05 0)
(24.92324531154807 -0.03578541850995995 0)
(20.74754447999559 -2.275858111161747 0)
(24.99998777979444 2.784740232870676e-05 0)
(24.99921447184051 -0.0005480127143251816 0)
(24.82648237608328 -0.1202741885163692 0)
(19.91713408867994 -3.724029072556239 0)
(24.99990280646134 8.621528095168358e-05 0)
(24.99895536796549 -0.001699739002745451 0)
(24.75155764440741 -0.2255083591059449 0)
(19.64271314072156 -5.0303777787717 0)
(25.00000792173688 1.827860240679931e-06 0)
(24.99999995422539 6.97082337323978e-08 0)
(24.99999971556483 1.15473507607263e-07 0)
(24.99999553717671 1.760684883621313e-06 0)
(25.00002313757552 -3.214282606393102e-06 0)
(25.00000155569137 2.835720963889185e-06 0)
(25.00000577292057 -8.078911295214519e-06 0)
(25.00008610256829 -0.000101724268206421 0)
(24.99783052362437 -0.002781177708177054 0)
(25.0001525650301 -4.872519992692605e-05 0)
(25.00225763899387 -0.002140126257908193 0)
(25.01346106682458 -0.01349253654463955 0)
(24.68633902183845 -0.2561144494971821 0)
(25.01682069632959 -0.008482775975755249 0)
(25.09299526778822 -0.0523254648065534 0)
(25.21213319072486 -0.1306068781086639 0)
(24.99996562391044 1.482090547530893e-05 0)
(25.00049874939897 -0.0007287939956876399 0)
(25.03991232260781 -0.04826093227635275 0)
(25.35000448836344 -0.2398565694255149 0)
(24.99988486361142 5.503968022264561e-05 0)
(25.00112993133089 -0.002270350838473566 0)
(25.06775960727209 -0.1015024396821287 0)
(25.48095186956891 -0.3791951332186082 0)
(24.99978967663983 0.0001208442820045535 0)
(25.0012208388309 -0.004058811829586453 0)
(25.07867832563872 -0.1624969370618193 0)
(25.59009482532517 -0.5824820889050175 0)
(24.99974487707733 0.0001753861604787383 0)
(25.00061690646973 -0.005120949851169736 0)
(25.06622296226391 -0.2208100714876157 0)
(25.64705717416087 -0.8977389920725894 0)
(24.99997207803607 2.423775574819962e-05 0)
(24.99977127083465 -0.0005731390620400533 0)
(24.96122533953564 -0.08856192409040256 0)
(24.52658373062833 -2.301327247023604 0)
(24.99993270897767 6.666814850870591e-05 0)
(24.99889747909147 -0.001754757642303044 0)
(24.91654729942202 -0.1892115288122093 0)
(24.96489619630554 -2.211533682178053 0)
(24.9998382381759 0.0001591075582473021 0)
(24.99843275067966 -0.004178968182787298 0)
(24.97049008757775 -0.2729376324489974 0)
(25.34261312916499 -1.869501427426479 0)
(24.99975269723233 0.000192532247571485 0)
(24.99970495738505 -0.005444429455521188 0)
(25.03645700217916 -0.25591160750333 0)
(25.57779004408688 -1.36915990146876 0)
(24.03281242417819 -2.034905835972805 0)
(24.97516489742934 -0.04937786705183625 0)
(24.99992517948265 -0.0001977529950152308 0)
(24.99998790501451 8.334596020632259e-06 0)
(24.2240807959231 -1.726845308857241 0)
(24.97784975917379 -0.0463077358796603 0)
(24.99991293620236 -0.0002621868210180494 0)
(24.99998571006724 1.915438209747653e-05 0)
(24.09992174634518 -1.586582784627518 0)
(24.97589967622372 -0.023344246321157 0)
(24.99991811756489 -5.850346157267727e-05 0)
(25.00000009962359 -3.043017019856261e-07 0)
(24.18834096295085 -1.245675884708617 0)
(24.98342964718283 -0.005608582399906284 0)
(24.99997171237716 -4.729294356443042e-06 0)
(24.99999953504431 1.161979658469437e-06 0)
(24.18952078307883 -0.9969822474557403 0)
(25.00512857582325 0.01450157748065478 0)
(25 5.395372629870389e-12 0)
(24.99999999871786 -2.702571906296134e-09 0)
(24.24138509149062 -0.7281175485729544 0)
(24.9996714365593 -0.00775411150180667 0)
(25 -1.573557413131708e-12 0)
(25.00000000000001 1.012420590740389e-11 0)
(24.4356778464748 -0.3357805571202365 0)
(24.99996131475143 -3.105788002656811e-05 0)
(25 -6.767978710361109e-15 0)
(25.00000000000001 2.000453420471206e-15 0)
(24.83799923404153 -0.03490325558784153 0)
(25.0000118891767 9.448890850216593e-06 0)
(25 -1.893173074017394e-15 0)
(25.00000000000002 -7.240977419953404e-15 0)
(25 1.420908939734042e-15 0)
(25 2.497817849895415e-15 0)
(25.00000000003711 7.900575970482419e-11 0)
(24.99998566364573 4.316292647074626e-06 0)
(24.99999999999999 -2.843418720158383e-19 0)
(25 4.107741868288156e-15 0)
(25.00000000018819 7.442100239283936e-10 0)
(24.99981791818307 0.0004115598162526148 0)
(25 -1.366459512028481e-15 0)
(25 -3.375759726401531e-15 0)
(25.00000000394268 8.426197013916699e-09 0)
(25.00004762379824 0.00114315448456316 0)
(25 -2.862977553330719e-15 0)
(25 -1.623851867452129e-15 0)
(25.00000011192695 9.192853820242394e-08 0)
(24.99772302498707 0.009722639214990858 0)
(24.99995626501032 -1.451988701730686e-09 0)
(24.99981249608547 0.000530064947865467 0)
(24.9987868179245 0.002091791702896853 0)
(24.97026170858978 0.002629255945432993 0)
(24.99981249304215 -0.0005300749174222735 0)
(24.99976875122971 -6.859830242598653e-09 0)
(24.99758599452102 -0.0008284594080216833 0)
(24.86951791083389 -0.0480493152666889 0)
(24.99878681174087 -0.002091795720934425 0)
(24.99758599301406 0.0008284559098193542 0)
(24.93978516505621 1.888083499281608e-08 0)
(24.17477929299692 -0.1823241497107525 0)
(24.97026170597269 -0.002629257020376495 0)
(24.86951791588008 0.04804930266021767 0)
(24.17477930570815 0.1823241699623825 0)
(21.58267135755246 -7.462596167669936e-09 0)
(19.20402754653046 2.472300918357766 0)
(20.22864935139744 3.127638841015464 0)
(22.72362026489693 2.293946896638702 0)
(24.04214667274328 1.067020992300044 0)
(19.74772045705641 4.465789046851662 0)
(19.9773887766106 4.605314689880429 0)
(20.99779102239844 4.409167234631768 0)
(22.24936567051777 3.656877733823092 0)
(20.09876702809655 5.547735708672556 0)
(20.82899936968317 4.875873038508091 0)
(21.58091418133933 5.074368570601234 0)
(22.46531664845893 4.790269942151581 0)
(20.74960690915951 6.032624621917988 0)
(21.47756994805138 5.114276683131527 0)
(22.05554271615144 5.282193006803771 0)
(22.66845950809461 5.097977440488886 0)
(22.85781860973556 5.173251477050971 0)
(22.97734560549955 5.336633328534982 0)
(23.12158963794164 5.424701715174484 0)
(23.09972733237291 5.678333807894459 0)
(22.51077065349962 5.399982801581436 0)
(22.82205076450552 5.502395231019807 0)
(22.99188146290841 5.551721732623937 0)
(23.53434059477325 5.958744314456351 0)
(22.01449609811421 5.318556935008577 0)
(22.5870769053729 5.515933872943881 0)
(22.82335721872365 5.607769614943114 0)
(25.01952325842321 6.385108117599858 0)
(20.79305271347073 6.157404043866689 0)
(21.03262324872005 5.910603610322914 0)
(21.32858394249932 5.551998535972734 0)
(26.84457100440092 7.556517580326606 0)
(25.19284975550077 4.186118824587909 0)
(26.99685341966698 1.609049157096786 0)
(26.56127609574951 0.3195582695738231 0)
(26.26312662872702 0.2467729571376781 0)
(26.62142591397596 3.361486652204424 0)
(28.53310347699997 0.4767512374502077 0)
(27.64792138835375 0.01036933138350114 0)
(27.03612591527352 0.1485045932760501 0)
(29.42357486029012 2.687396101500809 0)
(30.02869670150407 -0.1182638209305079 0)
(28.42244131525056 -0.1223338637332221 0)
(27.36960744730031 0.02293833896880266 0)
(21.59009523941016 1.695093782285122 0)
(22.25740394223662 0.6664700842364639 0)
(22.32388324194093 0.09970955596937765 0)
(22.38923140821563 0.009684061557683993 0)
(25.99945147213248 0.1491975034605485 0)
(25.80925388311039 0.08833607971181839 0)
(25.61417159219677 0.07958185458856308 0)
(25.46529623281123 0.06257488386655601 0)
(26.49986450838977 0.144912699398596 0)
(26.16643698646847 0.07320084080707358 0)
(25.85937679948619 0.04908125721297151 0)
(25.64898892395359 0.03107733010504897 0)
(26.7531028915714 -0.03062455037355276 0)
(26.35895965027435 -0.08675050609523274 0)
(26.0412954853346 -0.07307435210427952 0)
(25.80571547779477 -0.04005144649103909 0)
(22.76241219223382 -0.216760657173439 0)
(23.3508994360983 -0.4668365606378206 0)
(23.94342297061528 -0.5163623752027984 0)
(24.46400112523378 -0.4001542014323447 0)
(25.37715951945795 0.02954541837871453 0)
(25.23319283425587 0.05460909429975987 0)
(25.06235139602553 0.01788468296023959 0)
(22.12835800030033 2.999056204896836 0)
(25.51562274967256 0.008827528531938796 0)
(25.3375953940402 0.01247889078956037 0)
(25.11920213297582 0.02580162355794906 0)
(19.54947843162692 3.402616623782992 0)
(25.63326886098987 -0.02849284130881554 0)
(25.43253525019348 -0.03157942451412141 0)
(25.14008216015658 0.02539851353664345 0)
(16.86473858694081 2.371031839290903 0)
(24.74502132123478 -0.2831734476762019 0)
(24.85541876555873 -0.2350392651431595 0)
(24.7334118144969 -0.03285532664594524 0)
(11.88944662052793 0.6380956368122088 0)
(14.95579035503947 7.627760121842527 0)
(15.15133901569249 7.84246198530513 0)
(15.28522061336118 8.68523933456934 0)
(15.85324505329489 9.603556540293837 0)
(12.84517126776832 7.859790710552399 0)
(14.29273660469645 8.066440410687553 0)
(15.03498146276231 8.92085588524132 0)
(15.76297722627877 9.776907613904672 0)
(10.36899080362356 6.739385983619378 0)
(12.53523427242815 7.705026542905117 0)
(14.16459061016841 8.95730731773596 0)
(15.36904551770161 9.83500598671745 0)
(6.962473434214639 2.780900867381909 0)
(9.457610061017844 4.194814571300198 0)
(11.83898598325476 6.329756624761441 0)
(13.48382875377202 8.444414171605867 0)
(16.07503770001311 10.48069575980735 0)
(16.26706169842175 10.84413407282642 0)
(16.49192568515647 11.13506811702821 0)
(16.69923884334059 11.19437033894977 0)
(16.08359756396921 10.43453757578224 0)
(16.24149877166369 10.71785152559624 0)
(16.43105551335437 10.94923261503521 0)
(16.6349054498608 11.03844072397714 0)
(15.89364848756396 10.39069368056512 0)
(16.11089984640594 10.66101174943805 0)
(16.32434256910228 10.88045685510838 0)
(16.51318483942257 10.98996177271363 0)
(14.57261563866186 9.847775073155512 0)
(14.96267176863327 10.62599071359242 0)
(15.32877314566683 10.75567374299752 0)
(15.45920965049447 10.80379150692417 0)
(16.94231896934978 11.30396494775451 0)
(17.5283505761574 11.27803077856585 0)
(19.03163907889094 10.82857236542454 0)
(21.22070644749742 9.693397793521305 0)
(16.92372108448361 11.15620494278758 0)
(17.48426037743849 11.15090875103942 0)
(18.79692802842222 10.93107389600938 0)
(22.02120386930372 11.4468433212153 0)
(16.8088973349995 11.11921852310219 0)
(17.23157815779629 11.11679075544533 0)
(19.09045110172518 11.40712808359283 0)
(27.29247200156368 16.75567513221862 0)
(16.02529854043503 10.99492640670271 0)
(16.76032732541237 10.77307918794697 0)
(19.44346087015001 11.79665350053445 0)
(37.59855940203028 22.39611222420857 0)
(26.47192125126203 5.339186229449608 0)
(30.14749028138035 -2.371226343710499 0)
(8.597100790307371 -5.058833305713597 0)
(5.809493593373249 -0.7283037465638199 0)
(27.57103639995925 4.804190124996254 0)
(25.25609805586595 -1.962921479398806 0)
(4.718971225068231 -4.707218841965997 0)
(2.799184382718494 0.5355496429664565 0)
(27.14553622889685 4.132596684014699 0)
(17.49242950545785 -5.653740958993054 0)
(1.942770172369021 -1.718774616253274 0)
(1.468470030214235 1.119470369907998 0)
(17.6749329746033 -6.783965217505298 0)
(6.748558794528321 -6.830691929240164 0)
(0.01777518989356166 0.7825643741546023 0)
(0.3204582063809507 0.6115128694899407 0)
(3.134386806494641 -0.4615616458863784 0)
(1.144547309424901 -0.8682648987459142 0)
(-0.01949186367685567 -0.7010886887595692 0)
(-1.398681693746564 0.7207300697959786 0)
(1.374694832932097 1.398137166739188 0)
(-0.2165149822014013 1.16705994942578 0)
(-1.113731613208542 1.429208572908796 0)
(-1.249011255984813 2.524553360015831 0)
(0.5632810954393946 1.07922749553789 0)
(-0.1796681351434024 1.693941238803293 0)
(-0.07491493315819234 2.824261263300719 0)
(-0.7818326017274081 4.096143823239272 0)
(0.2157675865149676 0.5374540404509387 0)
(-0.07925290416747315 1.726879068335728 0)
(-0.3816675561208442 3.732053641203947 0)
(-1.187047511751896 4.478262261949818 0)
(6.408403182848883 -3.936622041406879 0)
(13.70690053845028 -4.752536141942334 0)
(18.43318432907028 -4.548639319814368 0)
(22.1516914103871 -3.967239781011523 0)
(2.757076230648706 -1.192352650246415 0)
(10.28710129866707 -2.650972035244153 0)
(15.97197135870521 -3.438358119791095 0)
(20.49600879672152 -4.174878713328265 0)
(-1.113158421963171 -1.031722226890519 0)
(4.457252920307742 -2.488311244347687 0)
(11.50487679202215 -3.705980391474594 0)
(19.3662815247881 -3.411576848704068 0)
(-2.077649185217247 1.210449588744972 0)
(1.450058946183515 0.830550209055952 0)
(8.999017641222521 1.756751320492344 0)
(22.14240845588344 -1.708875430747368 0)
(23.24613770878046 -7.694234317157933 0)
(23.61203175044349 -13.71601865555312 0)
(23.79348382932717 -19.56123747680994 0)
(21.9070391968164 -15.85686627322712 0)
(21.73823485553419 -8.248891308147011 0)
(22.42555270426374 -16.23586657775454 0)
(20.68701332149244 -15.1637507135333 0)
(15.65188235170575 -4.488820590562821 0)
(21.012996398868 -10.17653611300037 0)
(19.12582996693322 -14.45029274520025 0)
(12.19819707398023 -4.384351700166788 0)
(6.076752154690141 1.596050404347429 0)
(15.29660406624134 -11.21057050031749 0)
(5.949184374348453 -6.738149204381001 0)
(3.724264802050145 2.069970777817481 0)
(1.254448302920715 4.427061915907951 0)
(-0.5637814038601936 4.605802166727128 0)
(-1.551597993266123 3.164928297682145 0)
(-2.29771798416372 2.02543917950464 0)
(-2.139325570656072 0.8267781329712562 0)
(1.626566237092395 2.472891745817824 0)
(-1.080073753894491 2.135837635203522 0)
(-3.024318617483072 1.447548230131817 0)
(-3.510134870045354 0.4089726941819873 0)
(7.276202047348912 -2.504894534000403 0)
(1.039079438634049 -1.566318103305834 0)
(-2.583645206594596 -0.7156025992729724 0)
(-3.69342852067166 -0.279718396143229 0)
(16.05619980683707 -7.858047640324297 0)
(9.554031260445909 -4.163502206236112 0)
(5.425609469339659 -2.537262257742854 0)
(4.347573358113105 -0.7861490824290802 0)
(-2.139325570651696 -0.8267781329604315 0)
(-3.510134870041626 -0.4089726941997497 0)
(-3.693428520668903 0.2797183960948276 0)
(4.34757335801683 0.78614908228594 0)
(-2.297717984151487 -2.025439179497279 0)
(-3.02431861747689 -1.447548230134169 0)
(-2.583645206595315 0.7156025992108354 0)
(5.425609469317977 2.537262257601241 0)
(-1.551597993265808 -3.164928297682099 0)
(-1.080073753901239 -2.135837635197729 0)
(1.039079438619775 1.566318103229126 0)
(9.554031260407559 4.163502206073431 0)
(-0.5637814038646324 -4.605802166729345 0)
(1.626566237079512 -2.472891745821224 0)
(7.276202047320727 2.504894533943102 0)
(16.05619980680505 7.858047640182773 0)
(21.90703919682814 15.85686627313987 0)
(23.79348382940274 19.56123747678933 0)
(23.61203175055459 13.7160186555414 0)
(23.24613770888559 7.694234317170409 0)
(15.65188235169559 4.488820590500464 0)
(20.68701332148369 15.16375071347537 0)
(22.42555270429636 16.23586657773793 0)
(21.73823485559543 8.248891308150981 0)
(6.076752154681787 -1.596050404385229 0)
(12.1981970739849 4.384351700122263 0)
(19.125829966914 14.45029274518833 0)
(21.01299639888833 10.17653611300038 0)
(1.254448302918074 -4.427061915926526 0)
(3.724264802041693 -2.069970777837111 0)
(5.949184374340811 6.738149204326189 0)
(15.29660406625172 11.21057050030971 0)
(22.1424084559024 1.708875430746309 0)
(8.999017641210362 -1.756751320515302 0)
(1.450058946161337 -0.8305502090815647 0)
(-2.077649185203862 -1.210449588744461 0)
(19.36628152480203 3.411576848701078 0)
(11.50487679197471 3.7059803914931 0)
(4.457252920215546 2.488311244301748 0)
(-1.113158421975845 1.031722226847509 0)
(20.49600879675762 4.174878713326787 0)
(15.97197135864365 3.43835811985215 0)
(10.28710129854191 2.650972035156563 0)
(2.757076230588258 1.192352650156697 0)
(22.15169141045294 3.967239780987859 0)
(18.43318432897513 4.548639319924489 0)
(13.70690053832516 4.752536141891579 0)
(6.408403182790144 3.936622041273834 0)
(-1.398681693657948 -0.7207300697525489 0)
(-0.01949186372135106 0.7010886888013783 0)
(1.144547309349303 0.8682648986120625 0)
(3.1343868064456 0.4615616457131931 0)
(-1.249011255906543 -2.524553359986256 0)
(-1.11373161320888 -1.42920857285183 0)
(-0.2165149822769195 -1.167059949515771 0)
(1.374694832925902 -1.398137166928154 0)
(-0.7818326016798937 -4.096143823187139 0)
(-0.07491493317212139 -2.824261263237118 0)
(-0.1796681351820786 -1.693941238874701 0)
(0.5632810954241233 -1.079227495714325 0)
(-1.187047511723157 -4.478262261893589 0)
(-0.3816675561053137 -3.732053641134047 0)
(-0.07925290418829357 -1.726879068395398 0)
(0.2157675864939402 -0.5374540405668204 0)
(5.809493593428948 0.7283037465542921 0)
(8.597100790200322 5.058833305707871 0)
(30.14749028142009 2.371226343706035 0)
(26.47192125129224 -5.339186229474217 0)
(2.79918438278656 -0.5355496430951099 0)
(4.718971225085483 4.707218841928576 0)
(25.25609805593301 1.962921479349583 0)
(27.57103640005524 -4.804190125026803 0)
(1.468470030241411 -1.119470370041126 0)
(1.942770172310137 1.718774616227677 0)
(17.49242950550956 5.653740958994953 0)
(27.14553622898709 -4.132596684104998 0)
(0.320458206351697 -0.611512869623427 0)
(0.017775189860551 -0.7825643742015344 0)
(6.748558794596977 6.830691929244638 0)
(17.67493297468565 6.783965217467622 0)
(21.22070644749905 -9.693397793513425 0)
(19.03163907882148 -10.82857236539242 0)
(17.52835057610299 -11.27803077852335 0)
(16.94231896924714 -11.30396494765037 0)