/*--------------------------------*- C++ -*----------------------------------*\
  =========                 |
  \\      /  F ield         | OpenFOAM: The Open Source CFD Toolbox
   \\    /   O peration     | Website:  https://openfoam.org
    \\  /    A nd           | Version:  11
     \\/     M anipulation  |
\*---------------------------------------------------------------------------*/
FoamFile
{
    format      ascii;
    class       volScalarField;
    location    "0.1525";
    object      T;
}
// * * * * * * * * * * * * * * * * * * * * * * * * * * * * * * * * * * * * * //

dimensions      [0 0 0 1 0 0 0];

internalField   nonuniform List<scalar> 
880
(
500
500.0000000013668
500.0001815338604
500.0830369420008
500.0000000000001
500.0000000065016
500.0004922730889
500.3019253827252
500
500.0000001331913
500.0018329717651
500.9344238717339
500.0000000000001
499.9999998522461
500.006445663313
502.2135331107815
500.0000000001708
499.9999999997383
500.0000000242699
500.0000025162936
500.0000001078054
500.0000003480072
500.0000236336238
500.0003154654322
500.0333761401128
500.0651648232924
500.1931035516739
499.9978620166307
506.3636642830437
511.543315085417
515.6085453205374
517.5102096495875
500.0000266570925
500.0002020188387
500.0012972022939
500.0011427440911
500.0014622971785
500.0045922729994
500.0128919728156
500.0171383399286
500.4625536201157
500.8480469349815
501.338283928797
501.8066021387871
519.6305670094238
522.2861498567345
524.5759686741203
525.6690876360962
520.1854682681029
517.3032478411137
515.9500644278691
514.5895961749154
503.4873561885873
504.5647844607099
505.2780393091804
505.3407255387898
500.0607561710659
500.1381462265805
500.2214775732672
500.2881601817394
500.0039834197077
500.0113999068279
500.0215860745231
500.0263672169618
500.0246547451395
500.0195119993238
500.0122837510661
500.0057360145792
500.305580380262
500.2766758013415
500.2272833218171
500.1601750269524
504.9668724813808
504.2700507611387
503.4926286975812
502.700719037884
513.2208145496719
511.4023981388847
509.4762285086271
507.7293088848902
506.2337488927823
501.9285751875532
500.0885172318709
500.001753140747
504.5617291841943
501.1198576914399
500.0325393481097
500.0002675546141
505.4391530742279
500.3621899332155
500.004409998733
499.9999884314601
525.4987987981525
500.6541789215834
500.0040053643913
500.0001571115009
500.0004819426522
500.014013014667
502.6477628132319
566.7186748838985
500.0021070092136
500.0495239168515
505.2515465969687
577.9249175000272
500.0062031356425
500.1127712395102
509.2069597004018
589.4780812065355
500.0161649750692
500.2740041861497
514.6005682637231
599.2497030589238
607.8325102781765
521.1147374686255
500.4996947173447
500.0319398517456
615.8455759722934
528.9240851508803
500.9387309613431
500.0606900740951
623.4330784685011
537.5999412638917
501.4737648367817
500.0931739576383
627.2415852659009
547.1737107896834
502.4362688020662
500.1560766410792
500.2301575839419
503.5790501642358
555.477287275541
627.7777841727121
500.3493517931375
504.3674933201229
550.9115680305417
614.5008529291258
500.4795987562645
503.4163461903341
537.843797222915
591.6428127997043
500.0943676796779
501.8892036439286
521.6609744290583
557.5058034112595
500.3487567770833
502.8268779321681
515.6893897008656
523.509290613374
500.282660383833
501.8808911044666
507.2234181864977
504.1249887938557
500.0768761583647
501.175521478123
507.7852307949672
509.3365229879591
499.9809420479927
500.6280536542064
508.2402743529157
533.7183765155488
527.9165923291622
504.524359432193
499.7330762742247
499.9522317153113
519.5807212116733
500.3809869405871
499.3248864716323
499.9527190709022
509.9196318421076
497.8350206068273
499.2071390532881
499.9766302719332
494.8260906785638
495.0233644050792
499.2658258227189
499.9887592435254
480.5013315737666
494.6004078197875
499.5974874557638
499.9949819573366
465.521559589078
495.1440285817074
499.8270387832794
499.9984693698913
458.5580143448334
495.923466564111
499.9088640319607
499.9993914716856
460.9484008280893
497.9174950164826
499.9774607318133
499.9997620576539
500.2528453962169
498.2683426307068
499.7941508320357
499.9967988428289
497.7992912445253
498.2350867610593
499.8316164659912
499.9972389552632
493.1312996089375
498.130776783165
499.8626074211568
499.9976366677981
488.1672167538244
498.0186385563924
499.8809558253905
499.9980770784395
460.9484008280393
497.9174950165477
499.9774607323073
499.9997620574305
458.5580143450327
495.9234665640535
499.908864031854
499.9993914714684
465.5215595890759
495.1440285814695
499.8270387828321
499.9984693696854
480.5013315737787
494.6004078194179
499.5974874557508
499.9949819572786
499.9522317154703
499.733076274534
504.5243594324992
527.9165923289478
499.9527190707966
499.324886471721
500.380986940813
519.5807212114014
499.976630272033
499.2071390532579
497.8350206064338
509.9196318417133
499.9887592435803
499.2658258230752
495.0233644047989
494.8260906784732
533.718376515592
508.240274353083
500.6280536540038
499.9809420482306
509.3365229882866
507.7852307950714
501.1755214782587
500.0768761582875
504.1249887937426
507.2234181866668
501.8808911045676
500.2826603839435
523.5092906132651
515.689389700583
502.8268779316642
500.3487567774554
500.2301575834568
503.5790501652089
555.4772872764007
627.7777841730532
500.3493517930239
504.3674933194787
550.911568031049
614.5008529293647
500.4795987552877
503.4163461902878
537.8437972226718
591.6428127995786
500.0943676803578
501.8892036431662
521.6609744289452
557.5058034111878
627.2415852660497
547.1737107901284
502.4362688024746
500.1560766419737
623.4330784689615
537.5999412633587
501.4737648346936
500.093173957455
615.8455759728251
528.9240851522133
500.9387309642078
500.0606900740703
607.8325102782806
521.1147374684342
500.4996947163345
500.0319398516959
500.0004819427051
500.0140130146318
502.6477628128994
566.7186748839162
500.0021070096647
500.0495239176263
505.2515465970452
577.9249175001155
500.0062031360584
500.1127712397314
509.2069597006188
589.4780812065159
500.0161649748475
500.2740041865418
514.6005682636985
599.2497030588618
500.0001571114781
499.9999884313495
500.0002675547248
500.0017531408349
500.0040053639641
500.0044099985617
500.0325393479004
500.0885172316639
500.6541789213828
500.3621899333447
501.1198576912437
501.9285751873488
525.4987987979665
505.4391530742842
504.5617291842939
506.2337488928006
500.0057360146568
500.1601750270498
502.7007190380544
507.7293088850877
500.0122837510606
500.2272833221087
503.4926286977657
509.4762285087983
500.0195119993625
500.2766758015347
504.2700507609263
511.4023981384111
500.0246547450113
500.3055803802041
504.9668724815
513.2208145497625
500.0039834196173
500.060756170973
503.4873561887778
520.1854682684004
500.0113999064798
500.1381462268528
504.5647844609589
517.3032478410546
500.0215860747143
500.2214775730689
505.2780393091016
515.9500644275477
500.0263672168566
500.2881601816534
505.3407255389323
514.5895961745757
525.6690876360379
501.806602138695
500.0171383399215
500.001142744259
524.5759686739858
501.3382839290002
500.0128919725725
500.0012972023497
522.2861498569162
500.8480469351904
500.0045922723824
500.0002020185061
519.6305670093993
500.4625536197697
500.0014622969162
500.000026657449
517.5102096495021
499.9978620167732
500.0003154654329
500.0000025165868
515.608545320523
500.193103551744
500.0000236335763
500.0000000242806
511.5433150853862
500.0651648232713
500.0000003478967
499.9999999997231
506.3636642829429
500.0333761399688
500.0000001075936
500.000000000186
500.0000000000001
500.0000000013746
500.000181533898
500.0830369418569
500
500.0000000064111
500.0004922730837
500.3019253826862
500
500.0000001329969
500.0018329717211
500.9344238718136
500
499.9999998522699
500.006445663259
502.2135331105745
500.2451819824525
500.7490283196335
502.0567105479832
506.876800973013
500.7490283196494
501.554541127344
504.7263674342353
514.115240244205
502.0567105478405
504.7263674340236
512.3922728209899
526.9718441388834
506.8768009730755
514.1152402444108
526.9718441391989
545.480102643382
565.8216320554566
550.4002977023375
541.498892378715
527.811516681705
561.9820272580853
557.712824889549
555.9953803080743
548.7482479999915
562.994400615311
561.2113427574017
559.8096375119499
556.4774274027972
562.1110040747359
561.100664212833
561.0055305106183
559.1098963719302
558.5867492205142
558.4120214265741
557.9245367915839
555.808004008108
559.5178684002728
557.854834550326
556.9699122751434
555.1376917436675
559.4087251120727
557.4338143600806
556.2616124883176
554.3258214350999
559.717879826985
557.3462819497063
556.0389447843985
548.9099077325094
517.8413934435052
502.7173081783388
501.9603149820875
503.053735332394
505.6922301477331
497.2719852375723
501.8569596546938
503.8623283632123
492.2324146651039
495.9619991094002
502.8155391642836
505.5072529360155
469.5072073722446
490.2822371689158
501.2553473574464
504.2708754273133
503.6925795308863
504.0103539953122
503.7981074012891
503.4694859799181
504.4508181091506
504.611766444207
504.3201366799336
503.5599698709715
505.5425113242993
505.4068394039591
504.9289811810666
503.9517223273687
504.9163335067034
505.2085418346508
504.9567313130797
504.1579438906306
503.2410898750214
503.3132936355636
528.5700076059702
588.9110573448498
503.0151880416029
503.19639385793
540.0585972497978
598.795576544358
503.120468396643
503.505244590036
550.9553599969531
605.8054085959716
502.9407424718876
503.7357102967443
559.2955340421291
612.074765029889
652.6883820733774
649.2250946814469
649.5854506602223
649.5840262192293
659.8907717463859
653.8703468086884
650.93127164114
649.3783516309638
662.9576346288925
657.9564182364303
652.4363018851149
649.7049773742103
664.6423542834467
661.0600414726218
654.3103278283036
650.0855488381001
649.5511463166689
648.7863533989993
649.4024213405754
652.4093293173761
648.448894702002
646.9000934212899
646.805704623132
648.5412517379955
647.532692874496
644.7969539274525
643.9091368342788
644.0359388118911
647.2706963829445
643.9450860748559
642.5436514767142
642.575385341534
654.5140918370146
639.6971346165369
618.7007259403809
591.0547525145313
650.6871183680599
638.3605076666952
618.5097575988815
619.3475532212386
645.3891197231617
637.1752058057302
626.3106746888509
646.9847575934375
642.9125990025494
638.8986042500637
639.5361452266951
632.9412011538587
550.3292810142113
468.5326937918312
353.3355010782756
371.1715546230261
539.958793200306
430.8181830743223
317.8550702870153
316.7319079641568
489.2350986846608
364.1831925240339
297.2892439007723
294.6602588050674
391.7359975198559
305.7758011026499
297.1574978223175
287.9528296254734
395.6542176138851
417.4562576654331
431.2576983310223
425.0498198987673
344.2327325566626
377.9886647253369
403.7356662685172
411.2789227876995
315.4570530675692
349.0556210344505
382.4092178485889
409.000281163299
307.7256966783138
341.6612969340894
379.8419578871212
413.4536938405932
456.6677058029348
432.2314448285073
414.2455550293889
410.2008289093453
457.6525261790813
441.6548254984986
420.8660600907929
422.211447528025
448.3031102367252
448.9569283285631
435.3383747303735
440.0682375936242
435.7197277775051
452.8509045494371
447.1292557041868
462.7271748060883
381.95113931778
379.0132666911397
391.0872363946511
410.4859904119982
396.4775716079453
396.2817375796151
385.8187295168744
374.3102769232209
404.8640282032673
405.2061566960534
394.4850062187006
370.980994528665
388.4412613980633
403.0015124332709
386.2212647092694
361.3826508232781
350.0309259734414
348.710221553555
349.9610943648343
349.6962648928283
351.9839426495757
347.4580392090829
349.2468971866567
350.8614628629167
367.5839645518418
366.8623908949189
367.1048394574178
367.0218151965521
403.7542061965331
397.7799789415537
395.3873765112116
394.0575639071627
349.6962648928225
350.8614628629478
367.0218151965354
394.057563907171
349.9610943648105
349.2468971866346
367.1048394574302
395.3873765113023
348.7102215535182
347.4580392090534
366.8623908949227
397.779978941688
350.0309259733857
351.9839426495346
367.583964551808
403.7542061965847
410.4859904119951
391.0872363949311
379.013266691591
381.9511393178787
374.310276923175
385.8187295167811
396.2817375794979
396.4775716078899
370.9809945286106
394.4850062186042
405.206156695962
404.8640282032117
361.3826508232163
386.2212647092045
403.0015124331736
388.4412613979688
462.7271748060433
447.1292557042911
452.8509045496832
435.7197277779364
440.0682375935893
435.3383747304489
448.956928328742
448.3031102371
422.2114475279392
420.8660600908811
441.6548254986751
457.6525261793245
410.2008289092299
414.2455550295567
432.2314448286842
456.6677058031065
425.0498198992307
431.2576983314764
417.4562576658109
395.6542176140292
411.2789227882719
403.7356662691993
377.9886647257829
344.2327325566584
409.0002811638469
382.4092178493215
349.0556210348966
315.4570530675277
413.4536938411725
379.8419578879083
341.6612969345749
307.7256966783399
371.1715546232656
353.3355010777041
468.5326937915802
550.3292810142574
316.7319079642463
317.8550702867016
430.8181830741697
539.9587932000026
294.6602588050942
297.289243900615
364.1831925242133
489.2350986847513
287.9528296254738
297.1574978221246
305.7758011027092
391.7359975200802
591.0547525143994
618.7007259403664
639.6971346166356
654.5140918371766
619.3475532211262
618.50975759889
638.3605076667681
650.6871183682256
646.9847575933426
626.3106746888103
637.1752058057491
645.3891197232365
632.9412011538717
639.5361452266617
638.8986042501184
642.9125990026238
652.4093293175315
649.4024213410124
648.7863533992009
649.5511463170303
648.5412517381133
646.8057046235033
646.9000934214762
648.4488947022971
644.0359388119953
643.9091368345911
644.7969539276608
647.5326928747359
642.5753853416569
642.5436514770506
643.9450860750566
647.2706963831489
649.5840262191102
649.5854506602187
649.2250946814556
652.688382073406
649.378351630786
650.9312716411014
653.8703468086787
659.8907717462083
649.7049773739503
652.4363018850817
657.9564182363239
662.9576346285389
650.0855488378462
654.3103278283264
661.0600414724104
664.6423542830142
588.9110573447985
528.5700076058149
503.3132936357906
503.2410898751799
598.795576544211
540.0585972495538
503.1963938581654
503.0151880417409
605.8054085958564
550.9553599967061
503.5052445902655
503.1204683967323
612.0747650296419
559.2955340417956
503.7357102969434
502.9407424719155
503.4694859802732
503.7981074012039
504.0103539950149
503.69257953101
503.5599698714196
504.3201366797712
504.6117664438521
504.4508181093135
503.9517223278528
504.9289811809364
505.406839403661
505.5425113243735
504.1579438910871
504.9567313130778
505.2085418342031
504.9163335068802
503.0537353320306
501.9603149817289
502.7173081785367
517.8413934437976
503.8623283627422
501.8569596544983
497.2719852377554
505.6922301479501
505.5072529355571
502.8155391640728
495.9619991095758
492.2324146651475
504.2708754268232
501.2553473571559
490.2822371691618
469.5072073722782
555.8080040081818
557.9245367915566
558.4120214268993
558.5867492205932
555.1376917436542
556.9699122750674
557.8548345506597
559.517868400284
554.3258214349624
556.2616124881924
557.4338143603858
559.4087251121083
548.9099077322406
556.0389447843021
557.3462819500276
559.7178798270324
559.1098963715453
556.4774274027391
548.7482480000468
527.8115166818419
561.0055305102287
559.8096375118876
555.9953803080816
541.4988923787336
561.100664212619
561.2113427572109
557.7128248894581
550.4002977022843
562.111004074566
562.9944006151203
561.9820272579256
565.8216320553472
460.440799170213
497.3357948040657
499.9337230530916
499.9995243401364
461.960966270731
497.0153845927317
499.9213738184753
499.9993257093242
472.1830482948029
497.2906202811837
499.9149161921535
499.9991282595846
480.9997234324547
497.6999229653893
499.9002913863708
499.9986858996131
499.9967988430356
499.7941508317184
498.2683426306649
500.2528453963979
499.9972389551669
499.8316164658069
498.2350867610243
497.7992912446583
499.9976366679945
499.8626074211308
498.1307767830162
493.1312996091373
499.998077078462
499.8809558255525
498.0186385562956
488.1672167538362
499.9986858994552
499.9991282595297
499.999325709468
499.9995243400975
499.9002913862836
499.9149161920109
499.9213738182415
499.9337230529968
497.6999229654527
497.2906202810695
497.01538459282
497.3357948042801
480.9997234322364
472.1830482944094
461.9609662705656
460.4407991701053
)
;

boundaryField
{
    back
    {
        type            empty;
    }
    inlet
    {
        type            zeroGradient;
    }
    front
    {
        type            empty;
    }
    top
    {
        type            zeroGradient;
    }
    outlet
    {
        type            fixedValue;
        value           uniform 500;
    }
    bottom
    {
        type            zeroGradient;
    }
    wall
    {
        type            zeroGradient;
    }
}


// ************************************************************************* //
