/*--------------------------------*- C++ -*----------------------------------*\
  =========                 |
  \\      /  F ield         | OpenFOAM: The Open Source CFD Toolbox
   \\    /   O peration     | Website:  https://openfoam.org
    \\  /    A nd           | Version:  11
     \\/     M anipulation  |
\*---------------------------------------------------------------------------*/
FoamFile
{
    format      ascii;
    class       volVectorField;
    location    "0.1525";
    object      U;
}
// * * * * * * * * * * * * * * * * * * * * * * * * * * * * * * * * * * * * * //

dimensions      [0 1 -1 0 0 0 0];

internalField   nonuniform List<vector> 
880
(
(25 -2.916635223573069e-15 0)
(24.99999999995658 -1.016095569304439e-10 0)
(24.99999043954179 -9.078679997219762e-06 0)
(24.99645976472313 -0.001789053342369385 0)
(25 -3.133921332735512e-14 0)
(24.999999999762 -6.843067402584548e-10 0)
(24.99996608254541 -4.149037364587372e-05 0)
(24.98654805964541 -0.03044812488468952 0)
(25 4.759061608337482e-13 0)
(25.00000000232533 6.369668799200461e-09 0)
(24.9998474817759 -0.0001348041237165251 0)
(24.96444200091036 -0.08335205268170341 0)
(25.00000000000002 -2.876968860196656e-12 0)
(24.99999998335587 -6.287116048447985e-10 0)
(24.99921572604281 -0.0004767986383495354 0)
(24.80688375461008 -0.1889163248298416 0)
(25.0000000000166 -1.083685128201935e-11 0)
(24.9999999999473 9.337574005117834e-11 0)
(24.99999999783695 -1.567954659949178e-09 0)
(24.99999981260915 -1.436830581992223e-07 0)
(25.00000003264948 -7.479256111902222e-09 0)
(24.99999991856868 1.32300616378284e-08 0)
(24.99999887352337 3.212041943887752e-06 0)
(24.99999814404419 -2.128395658862001e-05 0)
(24.99631356745304 -0.0002636879384757213 0)
(24.99275556553005 0.001325247700152036 0)
(24.98784708182914 0.01565094212107907 0)
(24.99963325304358 -0.02068856456499968 0)
(24.3163371153132 0.01010356853564147 0)
(23.83981102091361 0.5571632078044729 0)
(23.6711470931981 1.085662199155221 0)
(23.63561017300757 1.375420777167857 0)
(24.99999834018234 -3.45524713908209e-06 0)
(24.99998649676452 -1.348068727962973e-05 0)
(24.99994193557072 -0.0001321806232297806 0)
(24.99990976025252 -0.0001245621965834727 0)
(24.99981798486186 2.686280191156557e-05 0)
(24.99941101801341 0.0002509796854052148 0)
(24.99901554699183 0.001370155730778511 0)
(24.99891269794562 0.001394192648644735 0)
(24.95526798433267 0.01255382272402389 0)
(24.91734639474456 0.05870764110493775 0)
(24.89401639322257 0.1210722609319289 0)
(24.89226206297402 0.1381536368505357 0)
(23.61774669504952 1.743179896327634 0)
(23.49539374900183 2.122919647211646 0)
(23.58467699361832 2.369710462990605 0)
(23.61004985957764 2.825387471208066 0)
(24.5671467293858 3.055994648850412 0)
(25.08862346204589 2.797488957162643 0)
(25.32704266067709 2.335572209073462 0)
(25.55964247753959 1.859753328876897 0)
(24.78835669801691 0.2947181894069204 0)
(24.81519097474636 0.516880741093257 0)
(24.92442356688917 0.6348962879063229 0)
(25.06624045999832 0.6281180719737416 0)
(24.9949375703181 0.005231094122216112 0)
(24.98972851746578 0.01470078608385447 0)
(24.98937076917962 0.02977666948639444 0)
(24.99736646862402 0.04041183932075745 0)
(24.99970988098103 -0.0003771353767705272 0)
(24.99930427723183 -0.001038610629190917 0)
(24.99863397926905 -0.002027558839408682 0)
(24.99777453857988 -0.002417516435437337 0)
(24.99745465737973 -0.002271420320399261 0)
(24.9975432466283 -0.001870599082926592 0)
(24.99798171763523 -0.001277697472588521 0)
(24.99869076921985 -0.0006981568802353542 0)
(25.00614519962616 0.04023816845773667 0)
(25.01003765212358 0.03631946202590227 0)
(25.01194828338453 0.02827425651197522 0)
(25.01053550048069 0.01815645527885275 0)
(25.15587021663422 0.5676004631625755 0)
(25.1993162198311 0.4797659328085127 0)
(25.2105303114069 0.3740044128423782 0)
(25.19212884167294 0.2683007805894538 0)
(25.77680401021887 1.387060395128013 0)
(25.86245076599837 0.9951288673574018 0)
(25.834076172618 0.7220957037465437 0)
(25.74748310258074 0.5252153972670369 0)
(25.62284577046404 0.4203361048438881 0)
(25.15041113851515 0.1758852544486175 0)
(25.00654037137608 0.009027577897408235 0)
(24.9993819541004 -0.0002959925113847547 0)
(25.50418975539696 0.187780666859699 0)
(25.10106251283668 0.08971594492323563 0)
(25.0026879649109 0.002997045085640792 0)
(24.99981173903984 -8.129996973662552e-05 0)
(25.10385086875789 0.3264386569164335 0)
(25.0315093690626 0.01940668541204119 0)
(25.00043183216969 0.000312616245818736 0)
(24.99997657135201 -6.032392335228681e-06 0)
(23.07920058339559 0.9088499680835367 0)
(24.95921310075355 0.04686914128839941 0)
(24.99984662025913 0.0004144786045141037 0)
(24.99998741315991 -1.91407214797546e-05 0)
(24.99997804703173 -5.147446862826041e-05 0)
(24.99847813093289 0.0008854538359203445 0)
(24.73321157088191 0.09705459026938525 0)
(18.61316556996086 1.942192558680254 0)
(24.9998232245139 -0.0001941384431542446 0)
(24.99616495286261 0.00310876426678793 0)
(24.51672215994539 0.2487123834933239 0)
(18.22920333345061 3.643394172703693 0)
(24.99972232661817 -0.000640657733586036 0)
(24.98880027668494 0.01005004826894758 0)
(24.1920564439918 0.5643431770461369 0)
(17.53002855150122 5.352931573544438 0)
(24.998848998303 -0.001500565541288051 0)
(24.98165190306588 0.02256043822581295 0)
(23.90685709080435 0.9904345178657991 0)
(17.42009899544899 6.806400325627358 0)
(17.27002081529019 8.097149586550934 0)
(23.53830712869424 1.607453170370856 0)
(24.96359273811218 0.05022980214780858 0)
(24.99820851763377 -0.003199872593227472 0)
(17.22933909381926 9.081868351598956 0)
(23.27955034594887 2.253481882451124 0)
(24.95205310810886 0.08861736601528969 0)
(24.99551127727848 -0.005681215226466723 0)
(17.28172164635322 9.817380069845367 0)
(22.91621221489713 3.039426834055424 0)
(24.9227451371737 0.1496747215846797 0)
(24.99373415230343 -0.009281450152435066 0)
(17.50911826898146 10.40983193632835 0)
(22.6652323403533 3.809237210795214 0)
(24.89762420728886 0.2378683343393575 0)
(24.98818032163511 -0.01435337439154668 0)
(24.98357700906134 -0.02215979307046703 0)
(24.83943954583765 0.3562118972722702 0)
(22.49664588164237 4.668772640039753 0)
(18.09019942375879 10.72676629933568 0)
(24.97335434586829 -0.03153450935561784 0)
(24.85983756809635 0.4631350393940283 0)
(23.09784449210214 4.493903966052977 0)
(19.92759570188419 10.1852228771983 0)
(24.99542425038421 -0.0355363737470832 0)
(24.93989092806227 0.394253474791055 0)
(24.26520870242021 3.695207878745062 0)
(22.60476582327107 9.066866111091532 0)
(24.95541659935205 -0.03805710304724341 0)
(24.98193274635456 0.2451634900795648 0)
(25.02851366055364 2.381133472386636 0)
(25.28052171522725 6.659442659103994 0)
(24.97753646769565 -0.007872430126216169 0)
(25.05123327452889 0.3568031316580105 0)
(26.03838769914952 1.786434858596096 0)
(29.19789379559685 3.771667498883829 0)
(24.9756362514532 -0.007280067996847603 0)
(25.23833573237147 0.2294075595515863 0)
(26.34278462496784 0.9217203796410646 0)
(30.89391741510427 0.8941519200101415 0)
(24.99248988390057 -0.006644337533025489 0)
(25.21786956979397 0.05552063072369754 0)
(26.17598457464129 0.04882982449491208 0)
(29.58260802882198 -1.207971513285696 0)
(25.00173775947095 -0.002786104591712602 0)
(25.09673865630123 -0.04314474939300878 0)
(25.61971304991707 -0.8454397658355428 0)
(24.29910101126155 -3.046268662761168 0)
(20.23516188419293 -5.337509677383204 0)
(24.99189642248007 -1.408700191917279 0)
(25.01549220724726 -0.09556901659024836 0)
(25.00004036658551 -0.002325822604979577 0)
(17.49061253669782 -6.811530317171072 0)
(24.36712496682874 -1.647625799070119 0)
(24.96477807702193 -0.1070541258704329 0)
(24.99893480612769 -0.002668318600828034 0)
(15.90631355856934 -6.468398139690673 0)
(23.91689519443965 -1.445740964118059 0)
(24.94025924992746 -0.08436743648176062 0)
(24.99941203548972 -0.0009149225803125811 0)
(14.4485981108903 -5.917608529327882 0)
(23.48596182571534 -1.341865046816874 0)
(24.92312331165794 -0.07697839235187474 0)
(24.99922199313352 -0.0009203051701816537 0)
(15.99066051202557 -4.195738462428314 0)
(23.69022222308573 -0.8314847917203075 0)
(24.94712285366765 -0.04275149692138205 0)
(24.99964659232528 -0.0004243598319211608 0)
(17.98529168688898 -1.913351830436718 0)
(24.05491428912533 -0.4314704934772697 0)
(24.97294323212642 -0.01823470836525954 0)
(24.99985315692997 -0.0001375586707887717 0)
(19.8383269923146 -0.3898853748807165 0)
(24.39084231662002 -0.205446031609603 0)
(24.98787937406414 -0.007695680339247482 0)
(24.99994904197312 -5.432813133125125e-05 0)
(21.44645745618397 0.1117665457464914 0)
(24.69929687177844 -0.2153121436157261 0)
(24.99753686378637 -0.005761218003157593 0)
(24.99998646088201 -2.803642797609767e-05 0)
(21.72356805839785 -0.2322893706334856 0)
(24.64152797831762 -0.0230075671736092 0)
(24.98067294981544 -0.0006400622487210876 0)
(24.99969941143998 -4.517669763878197e-06 0)
(21.76119220138066 -0.520482686113183 0)
(24.65452825206966 -0.05528396605608769 0)
(24.98253519661484 -0.001615362373472423 0)
(24.99972629472176 -1.307835930082404e-05 0)
(21.72548381502048 -0.8357071110191125 0)
(24.6417755388509 -0.08908360868715315 0)
(24.98398787466944 -0.002649000083005075 0)
(24.99975609931903 -2.358492543725486e-05 0)
(21.49064688398486 -0.647321679828332 0)
(24.64663451661841 -0.09917161560338152 0)
(24.98611904156351 -0.00357151381126542 0)
(24.99980375213627 -3.816608167436214e-05 0)
(21.4464574561996 -0.1117665457770381 0)
(24.69929687183738 0.2153121435926528 0)
(24.99753686388206 0.005761217949392471 0)
(24.99998646095427 2.803642378381709e-05 0)
(19.83832699232459 0.3898853748393483 0)
(24.39084231667433 0.2054460316065319 0)
(24.98787937410753 0.007695680364323599 0)
(24.99994904200429 5.43281565099325e-05 0)
(17.98529168690519 1.913351830448931 0)
(24.05491428915932 0.431470493500056 0)
(24.9729432321246 0.01823470840983771 0)
(24.99985315694429 0.0001375586763216745 0)
(15.99066051200238 4.19573846240679 0)
(23.6902222231184 0.8314847917701361 0)
(24.94712285365163 0.042751496925982 0)
(24.99964659232209 0.0004243598410441861 0)
(25.00004036656692 0.00232582260083784 0)
(25.0154922072299 0.095569016569042 0)
(24.99189642245414 1.408700191898083 0)
(20.23516188414685 5.337509677455589 0)
(24.99893480609739 0.002668318651846001 0)
(24.96477807701446 0.1070541258751692 0)
(24.36712496680581 1.647625799077339 0)
(17.49061253662457 6.811530317230243 0)
(24.99941203547608 0.0009149225714007967 0)
(24.94025924993254 0.08436743648304398 0)
(23.9168951944572 1.445740964172928 0)
(15.9063135585172 6.468398139717357 0)
(24.99922199312765 0.0009203051641359549 0)
(24.92312331162392 0.07697839231942352 0)
(23.4859618257284 1.341865046849892 0)
(14.44859811085977 5.917608529330368 0)
(24.29910101120966 3.046268662740848 0)
(25.61971304991518 0.8454397658467164 0)
(25.09673865632879 0.04314474943838963 0)
(25.00173775946576 0.002786104562521633 0)
(29.58260802878707 1.207971513320575 0)
(26.17598457465325 -0.04882982450289503 0)
(25.21786956978489 -0.05552063074860801 0)
(24.99248988389975 0.006644337537357339 0)
(30.89391741510767 -0.8941519199863994 0)
(26.34278462497079 -0.9217203796574645 0)
(25.23833573236009 -0.2294075595433236 0)
(24.97563625143178 0.007280068010307269 0)
(29.19789379559068 -3.771667498874119 0)
(26.03838769917619 -1.78643485858211 0)
(25.0512332745493 -0.3568031316154318 0)
(24.97753646768085 0.007872430117084684 0)
(24.98357700907458 0.02215979309449984 0)
(24.8394395457666 -0.3562118972332342 0)
(22.49664588156431 -4.668772640038658 0)
(18.09019942376186 -10.72676629935341 0)
(24.97335434586919 0.03153450935438427 0)
(24.85983756804367 -0.4631350393383651 0)
(23.09784449204919 -4.493903966064367 0)
(19.92759570187824 -10.1852228772058 0)
(24.99542425020795 0.03553637398184886 0)
(24.93989092798831 -0.3942534748032026 0)
(24.26520870242277 -3.695207878764732 0)
(22.60476582328184 -9.066866111092468 0)
(24.95541659956757 0.03805710276916246 0)
(24.98193274633974 -0.2451634900510928 0)
(25.02851366053266 -2.381133472377956 0)
(25.28052171522311 -6.659442659100697 0)
(17.50911826899027 -10.40983193635011 0)
(22.66523234034837 -3.809237210806748 0)
(24.8976242073831 -0.2378683342029043 0)
(24.98818032150656 0.01435337438772164 0)
(17.28172164635085 -9.817380069851543 0)
(22.91621221485764 -3.039426834160701 0)
(24.92274513687601 -0.1496747218262903 0)
(24.99373415234916 0.009281450187013941 0)
(17.22933909384773 -9.081868351575185 0)
(23.27955034601785 -2.25348188235123 0)
(24.95205310848274 -0.08861736586263282 0)
(24.99551127722261 0.005681215221105506 0)
(17.27002081528416 -8.097149586527566 0)
(23.53830712863966 -1.607453170405209 0)
(24.96359273795344 -0.0502298022785656 0)
(24.99820851763277 0.003199872562061522 0)
(24.99997804702437 5.147447056356407e-05 0)
(24.99847813091143 -0.0008854538424369353 0)
(24.733211570855 -0.09705459031924293 0)
(18.61316556992066 -1.942192558720649 0)
(24.99982322445155 0.0001941384455278495 0)
(24.99616495284428 -0.003108764251584142 0)
(24.51672216003875 -0.2487123834521473 0)
(18.22920333348043 -3.643394172700885 0)
(24.99972232654351 0.0006406577373125942 0)
(24.98880027663643 -0.01005004828836077 0)
(24.1920564439583 -0.5643431770696516 0)
(17.53002855154664 -5.352931573544461 0)
(24.99884899828472 0.001500565541060674 0)
(24.98165190318375 -0.02256043818877084 0)
(23.90685709085096 -0.990434517846393 0)
(17.42009899545988 -6.80640032563652 0)
(24.99998741315547 1.91407206236435e-05 0)
(24.99997657136024 6.032390747128659e-06 0)
(24.99981173901033 8.129997327283214e-05 0)
(24.99938195410529 0.0002959925146442519 0)
(24.99984662032488 -0.0004144785929618327 0)
(25.0004318321991 -0.0003126162378587767 0)
(25.0026879649323 -0.002997045073520025 0)
(25.00654037138207 -0.009027577924023009 0)
(24.95921310078479 -0.04686914130130437 0)
(25.03150936904427 -0.01940668541503161 0)
(25.10106251285718 -0.08971594492386775 0)
(25.15041113853051 -0.1758852544582613 0)
(23.07920058342394 -0.9088499680982463 0)
(25.10385086875207 -0.3264386569205424 0)
(25.50418975538924 -0.187780666865986 0)
(25.6228457704681 -0.4203361048425465 0)
(24.99869076920232 0.0006981568850324063 0)
(25.01053550045493 -0.01815645529381982 0)
(25.19212884166316 -0.2683007805714825 0)
(25.74748310257214 -0.5252153972489648 0)
(24.99798171765068 0.001277697479172978 0)
(25.01194828335215 -0.02827425650419555 0)
(25.21053031141223 -0.3740044128189324 0)
(25.83407617262244 -0.7220957037172212 0)
(24.9975432466297 0.001870599089623342 0)
(25.01003765211486 -0.03631946200976809 0)
(25.19931621985019 -0.4797659328338073 0)
(25.86245076602208 -0.9951288673989256 0)
(24.99745465740495 0.002271420313930509 0)
(25.00614519963727 -0.04023816845811386 0)
(25.15587021663136 -0.5676004631602358 0)
(25.77680401024864 -1.387060395094388 0)
(24.99970988097798 0.0003771353679190044 0)
(24.99493757035997 -0.005231094097489568 0)
(24.78835669801595 -0.2947181894295557 0)
(24.56714672935843 -3.055994648838949 0)
(24.99930427727358 0.00103861060466547 0)
(24.98972851747024 -0.01470078604316648 0)
(24.8151909747348 -0.5168807410973245 0)
(25.08862346204024 -2.797488957156233 0)
(24.99863397923975 0.002027558845170496 0)
(24.9893707692119 -0.02977666948225687 0)
(24.92442356691637 -0.6348962879365955 0)
(25.32704266071551 -2.335572209080592 0)
(24.9977745385911 0.002417516424494215 0)
(24.99736646863429 -0.04041183930734765 0)
(25.0662404599905 -0.6281180719751185 0)
(25.55964247755581 -1.859753328884791 0)
(23.61004985958622 -2.825387471210467 0)
(24.89226206297018 -0.1381536368917747 0)
(24.99891269799308 -0.00139419260699084 0)
(24.99990976022722 0.0001245622104558969 0)
(23.58467699364624 -2.369710462983375 0)
(24.89401639319562 -0.1210722609365748 0)
(24.99901554705018 -0.001370155700364587 0)
(24.99994193558353 0.0001321805827158189 0)
(23.49539374901174 -2.122919647178653 0)
(24.91734639473074 -0.05870764108524954 0)
(24.99941101807429 -0.000250979695708106 0)
(24.99998649676877 1.348067730658396e-05 0)
(23.6177466950523 -1.74317989633795 0)
(24.95526798431909 -0.01255382274138715 0)
(24.99981798489235 -2.686278654950357e-05 0)
(24.99999834013858 3.455255343846978e-06 0)
(23.63561017302514 -1.375420777172539 0)
(24.99963325301364 0.02068856456999926 0)
(24.99999814405152 2.128398086563544e-05 0)
(24.99999981258526 1.436959529879932e-07 0)
(23.67114709321681 -1.085662199150283 0)
(24.98784708187411 -0.01565094210782265 0)
(24.99999887356477 -3.212078551426292e-06 0)
(24.99999999783613 1.567887207037796e-09 0)
(23.83981102093274 -0.5571632078014535 0)
(24.99275556555018 -0.001325247693966543 0)
(24.99999991860767 -1.32229107642472e-08 0)
(24.9999999999473 -9.445342234568448e-11 0)
(24.31633711533328 -0.01010356853490118 0)
(24.99631356746621 0.0002636879289589671 0)
(25.00000003261128 7.479117556107136e-09 0)
(25 1.26006453711089e-11 0)
(25.00000000000001 2.448718286902781e-15 0)
(24.99999999995561 9.740593247196419e-11 0)
(24.99999043952744 9.07868193442773e-06 0)
(24.99645976465959 0.001789053333134689 0)
(25 2.285871699447172e-14 0)
(24.99999999977944 6.784514668509007e-10 0)
(24.99996608254167 4.149036674401937e-05 0)
(24.98654805964164 0.0304481248619533 0)
(25 -4.017195418371259e-13 0)
(25.00000000233455 -6.371643934257372e-09 0)
(24.99984748177635 0.0001348041167699964 0)
(24.96444200091569 0.0833520526829922 0)
(25 2.75885367274871e-12 0)
(24.99999998341089 6.269869845671443e-10 0)
(24.99921572606116 0.0004767986360685665 0)
(24.80688375462414 0.1889163247989266 0)
(24.99082260259165 -2.30992635631701e-11 0)
(24.97317111260285 0.04409861905596663 0)
(24.88944945721264 0.1061010764673539 0)
(24.41744832793621 0.05746435842652483 0)
(24.97317111260368 -0.04409861912778688 0)
(24.90965916277568 -4.19429635803512e-11 0)
(24.61738530415092 -0.006958963353632063 0)
(23.57754085770308 -0.3439844478824794 0)
(24.88944945720764 -0.1061010765107284 0)
(24.61738530414816 0.006958963304423375 0)
(23.6648393621612 -1.658219384874077e-11 0)
(21.67514235850618 -0.5274324064109405 0)
(24.41744832792812 -0.05746435849756225 0)
(23.57754085769051 0.3439844478166671 0)
(21.67514235847183 0.5274324063730392 0)
(19.2472173599853 -3.14796554143947e-11 0)
(18.52564664254912 2.664419967517242 0)
(19.24186236913261 3.127720013168513 0)
(21.10073596181265 2.733042872440241 0)
(22.6982203406051 1.759346907272189 0)
(19.41629063227238 4.428311823043156 0)
(19.62201255841065 4.405642477783525 0)
(20.53464478465181 4.359220917489028 0)
(21.76022249606085 4.037110361444728 0)
(19.68400083683528 5.502802903841269 0)
(20.28527299339065 4.687750775178397 0)
(21.07964558380353 4.844247594665176 0)
(21.86558272459509 4.706362382880441 0)
(20.44215299829237 5.684767714736859 0)
(20.93499877956433 4.928326814675041 0)
(21.5048751834012 5.040410107057395 0)
(22.02391181539251 4.983285069321734 0)
(22.2577965903876 5.259865096427091 0)
(22.47437702615416 5.354059222963101 0)
(22.7219829871395 5.337278304597048 0)
(23.06767413658736 5.544001815204013 0)
(21.92281395014382 5.312080346328518 0)
(22.3510915716312 5.471322087953955 0)
(22.64927842086124 5.417603128247622 0)
(23.5825390690633 5.763332210922306 0)
(21.50974668739429 5.216117290779217 0)
(22.07814103263936 5.429061836940397 0)
(22.48221162410107 5.448474100907903 0)
(24.96246669750307 6.128260962141221 0)
(20.99010176232693 6.020895117956793 0)
(21.0988991942691 6.280863135012705 0)
(21.3186949707197 6.135391028438576 0)
(26.4963203991242 7.387913700198484 0)
(27.02133282222981 3.238183993592929 0)
(27.1848123773536 0.7948019491538356 0)
(26.32363407208975 0.3916009773826002 0)
(26.0766762270569 0.3418823890931398 0)
(28.98136793421971 2.358606310258467 0)
(28.88441248922822 0.2434130322374831 0)
(27.6238491304804 0.2549110604639875 0)
(26.86516488460994 0.3122655167356657 0)
(31.90934753614647 1.981239359050377 0)
(29.9785758804452 0.03026474186889043 0)
(28.33204603793362 0.03320973838063417 0)
(27.34059015633528 0.07640857374604869 0)
(25.4103795369755 1.643924765527688 0)
(23.59991768852105 0.8670133694342212 0)
(23.14038670489099 0.16299862022484 0)
(23.16067682855314 -0.3703712245950677 0)
(26.02962594578451 0.2028569569092487 0)
(26.01015646247466 0.06617494742863657 0)
(25.91756574741657 -0.00684281525831597 0)
(25.79850718615667 -0.01794679736549031 0)
(26.48533366323395 0.2069266884681354 0)
(26.25352630527878 0.06614501558000782 0)
(26.06911462411106 -0.005874184117574262 0)
(25.90305272882709 -0.04600518131760314 0)
(26.71982067944208 0.0345715140396063 0)
(26.36133360724378 -0.04817372255448216 0)
(26.12586077545703 -0.07098525418172137 0)
(25.95586863631229 -0.07579359897551527 0)
(23.33797642908518 -0.6118194073857339 0)
(23.65245669934804 -0.7488425131086694 0)
(24.05459886864963 -0.8487855162049109 0)
(24.3883994105263 -0.7953469574216331 0)
(25.67087807727438 0.03447285221443789 0)
(25.51330780093628 0.03424218730920586 0)
(23.87248746401379 2.252350975475045 0)
(17.93129460372619 4.42953359889949 0)
(25.76422593019192 0.003407108007130621 0)
(25.58997955679565 0.01309766784061299 0)
(22.49440726375726 2.987183207512233 0)
(14.40107894267124 3.625010514071838 0)
(25.82988221103994 -0.0371990020046499 0)
(25.65190514200752 -0.0129868063891267 0)
(20.28795367443931 2.69838117448746 0)
(10.00583179400698 2.434341077042471 0)
(24.62243493218777 -0.7218053437577755 0)
(24.84732030915779 -0.4303989561299757 0)
(16.56617917822824 -0.7198477464831539 0)
(4.463837312506334 0.2810885189777094 0)
(13.11102033945693 6.110899679553458 0)
(14.21575487142156 7.270778421835353 0)
(14.63613231872444 8.416122788196493 0)
(15.39020583234324 9.321891946786282 0)
(11.60316369904505 6.079187175942296 0)
(13.7036739669043 7.256104784488745 0)
(14.47348857741795 8.533512498689053 0)
(15.32584172554012 9.466703225907084 0)
(8.975280878458964 4.559800703642355 0)
(12.05041947944856 6.669702261968334 0)
(13.64183165805828 8.447936739751196 0)
(14.86102870744204 9.514792158841756 0)
(3.748476689233124 2.878040343697938 0)
(7.212088313241725 4.301128942912753 0)
(10.64606239797602 5.695575955955233 0)
(12.79127934333172 7.381815643068927 0)
(15.93553462178699 10.07410855155509 0)
(16.01076803881167 10.5190102901349 0)
(15.76571819589743 10.52796796768708 0)
(15.7482035918022 10.16879985248682 0)
(15.89702269440118 10.1469178389952 0)
(15.98171339346815 10.47232695725868 0)
(15.90914403326497 10.53621619637324 0)
(16.01218389756371 10.36362388358974 0)
(15.66951947082024 10.19392524795508 0)
(15.89008933796517 10.47312551493871 0)
(15.92769414088426 10.57944892723871 0)
(16.06199512932175 10.55603346239047 0)
(14.3768703506437 8.842866449542674 0)
(14.87585943283419 9.989766055959242 0)
(15.04807970301098 10.62410529045507 0)
(15.19222537090527 10.6427410982147 0)
(16.57684515474593 9.950132366789777 0)
(17.86651801339643 10.82720547461467 0)
(20.56166359288887 11.0291228510223 0)
(23.91633890339912 9.790619674004018 0)
(16.60032461480376 10.19814284856895 0)
(17.89022775708656 10.89304136156979 0)
(20.17994362156942 11.09467713513192 0)
(24.31882551943609 11.91391045812351 0)
(16.60142524609892 10.62572223427947 0)
(17.66558190239235 10.98773695291177 0)
(20.30098786959082 11.89093836803976 0)
(30.42138234408419 17.7309041233312 0)
(15.75318765275387 11.06905704715066 0)
(17.2315423889728 10.68897712155383 0)
(20.94131813862457 12.35736395723166 0)
(41.87458628318485 24.60553823637941 0)
(29.77855733916929 4.792609533389716 0)
(32.85699966666937 -4.767668786198704 0)
(10.60865401470949 -2.465153007714971 0)
(5.01329200461029 0.8747021797132744 0)
(31.33667171792955 4.20085750387248 0)
(26.25845029605719 -3.16713878098714 0)
(5.655829778429354 1.815933058590047 0)
(2.655283016035238 4.707555166068389 0)
(31.60904393546384 2.797476916506064 0)
(16.68392401394519 -5.947320953268474 0)
(2.892079761365713 4.728160222589606 0)
(1.754481191326522 5.596733673674684 0)
(20.52952357404119 -8.809217049311348 0)
(5.131194315535818 -4.611624395677015 0)
(0.2379361581749085 5.72793296561159 0)
(0.2988044639028834 5.271088305391523 0)
(2.499509447901239 -0.1577653651755875 0)
(0.9506543574059404 -1.17401057090273 0)
(0.1210016114674564 -2.089783289917822 0)
(-0.7880451332839893 -1.448093748683924 0)
(1.322656236742286 3.533781401227422 0)
(0.3771016567103085 1.973081996374281 0)
(-0.1334158832261801 0.5994912444496928 0)
(-0.2263266435320394 0.7559014652610756 0)
(1.00380874359623 4.470141584165939 0)
(0.599332346923024 3.100506407473094 0)
(0.4150272764464943 2.334846232427607 0)
(-0.09134022384872646 1.94717096609008 0)
(0.3978563079664311 4.397434032603285 0)
(0.1635747789891974 3.22585637956959 0)
(-0.1576189549635968 2.89181029972787 0)
(-0.6661328037983572 1.973966058666141 0)
(3.95948076331826 -5.150089340184632 0)
(10.31405646367967 -7.897856457097353 0)
(15.05219626161191 -6.968377626150751 0)
(19.5646547730163 -7.003271027679533 0)
(1.565685399819219 -2.446066413435955 0)
(8.006308522588787 -5.504857085582406 0)
(13.33590053161598 -5.497179410300721 0)
(18.25468451090509 -5.982287664090446 0)
(-1.016865877074073 -1.610017426850056 0)
(3.782365194414429 -3.871253015676297 0)
(9.967512794531352 -4.635592582837214 0)
(16.9826021408702 -4.476681389801406 0)
(-1.62919076954202 0.2804724935265106 0)
(1.242543051017622 -0.6737171511368684 0)
(8.048589147483208 -0.3267417148535091 0)
(18.10565417889196 -2.952721003734805 0)
(20.72173944495788 -10.49202305184305 0)
(21.75817124969826 -11.40081360299989 0)
(19.43960402459565 -9.713275123413256 0)
(13.09621932976753 -5.792231611872418 0)
(18.99628654806646 -9.213140994712642 0)
(18.92158409425315 -8.662720800764655 0)
(16.1167018616244 -7.807682831526922 0)
(9.962879466050671 -4.484841632901006 0)
(17.55284634905143 -9.344975290572489 0)
(14.36445213209034 -7.583307245904684 0)
(9.582575776787118 -5.377457269494509 0)
(5.259422509345524 -1.928193206140385 0)
(12.84644227999294 -11.33410600127822 0)
(7.732760083694048 -4.873046842303387 0)
(3.926565215474594 -0.8838506073546201 0)
(1.733016387737479 0.9830439024656609 0)
(0.3762673354267624 1.682658431975838 0)
(-0.6009673082083378 1.515684625019363 0)
(-1.157834376316086 0.9623939554434995 0)
(-1.159389240973563 0.3355061939089481 0)
(2.270217963380836 0.2552967060341732 0)
(0.2599968493671724 0.5376340833341037 0)
(-0.9406580062997422 0.2574974072697475 0)
(-1.368396404934891 0.05648375847459944 0)
(3.655422810993797 -2.216550965700643 0)
(0.04094163742541212 -1.721712667978116 0)
(-1.463647658190819 -1.125907447820796 0)
(-1.795888496066034 -0.359625526355511 0)
(7.56428599157722 -4.121536880177919 0)
(4.795847381041598 -3.147973990790753 0)
(3.843909553685426 -1.740805240782912 0)
(3.66154413722347 -0.5251437144366118 0)
(-1.159389240975034 -0.3355061938968987 0)
(-1.3683964049385 -0.0564837584568397 0)
(-1.795888496084459 0.359625526364486 0)
(3.661544137181869 0.5251437144363236 0)
(-1.157834376315902 -0.9623939554349423 0)
(-0.9406580063025336 -0.2574974072632627 0)
(-1.463647658191878 1.125907447825676 0)
(3.843909553700392 1.740805240767991 0)
(-0.6009673082057918 -1.515684625011583 0)
(0.2599968493701276 -0.5376340833292288 0)
(0.0409416374330237 1.721712667981535 0)
(4.79584738106128 3.147973990792606 0)
(0.376267335430082 -1.68265843197044 0)
(2.270217963384868 -0.2552967060289879 0)
(3.655422811001181 2.216550965706697 0)
(7.564285991585681 4.121536880193729 0)
(13.09621932975382 5.792231611882413 0)
(19.43960402455864 9.713275123393181 0)
(21.7581712496431 11.40081360296708 0)
(20.72173944493122 10.49202305181029 0)
(9.962879466052943 4.484841632902331 0)
(16.11670186162107 7.807682831533572 0)
(18.92158409425014 8.662720800771025 0)
(18.99628654806089 9.213140994716879 0)
(5.259422509346724 1.928193206146527 0)
(9.582575776791421 5.377457269496652 0)
(14.36445213209329 7.583307245903051 0)
(17.55284634905727 9.344975290567666 0)
(1.733016387739896 -0.9830439024608152 0)
(3.926565215473333 0.8838506073631768 0)
(7.732760083693954 4.873046842311674 0)
(12.84644227999614 11.33410600128651 0)
(18.10565417889336 2.952721003732826 0)
(8.048589147486378 0.3267417148599231 0)
(1.242543051022027 0.6737171511407798 0)
(-1.629190769541204 -0.2804724935208257 0)
(16.98260214087215 4.476681389796034 0)
(9.967512794535899 4.63559258283636 0)
(3.782365194418351 3.871253015672919 0)
(-1.016865877075815 1.610017426851355 0)
(18.25468451090017 5.982287664087474 0)
(13.33590053161732 5.497179410305982 0)
(8.006308522586183 5.504857085586738 0)
(1.565685399804515 2.446066413442499 0)
(19.56465477301074 7.00327102766825 0)
(15.05219626161882 6.968377626145638 0)
(10.31405646367694 7.897856457102818 0)
(3.959480763280049 5.150089340194407 0)
(-0.7880451333078378 1.448093748679384 0)
(0.1210016114423515 2.08978328990372 0)
(0.9506543573931818 1.174010570863367 0)
(2.499509447907582 0.1577653651731172 0)
(-0.2263266435485423 -0.7559014652453969 0)
(-0.1334158832334262 -0.599491244452789 0)
(0.3771016567300829 -1.973081996414443 0)
(1.322656236788354 -3.533781401248113 0)
(-0.09134022385800278 -1.947170966072661 0)
(0.4150272764402866 -2.334846232433138 0)
(0.599332346929381 -3.1005064075051 0)
(1.003808743619699 -4.470141584193101 0)
(-0.6661328038011021 -1.973966058651842 0)
(-0.1576189549701274 -2.891810299734519 0)
(0.1635747789904415 -3.225856379593114 0)
(0.3978563079733776 -4.397434032626122 0)
(5.013292004570139 -0.8747021797225298 0)
(10.60865401456184 2.46515300765416 0)
(32.85699966658616 4.767668786250479 0)
(29.77855733915278 -4.792609533378477 0)
(2.655283016047145 -4.707555166062452 0)
(5.655829778385052 -1.815933058635989 0)
(26.2584502959922 3.167138780979401 0)
(31.33667171792418 -4.200857503857443 0)
(1.754481191327886 -5.596733673673497 0)
(2.892079761344307 -4.7281602226029 0)
(16.68392401390562 5.947320953260793 0)
(31.60904393545326 -2.797476916503948 0)
(0.2988044639046374 -5.271088305393126 0)
(0.2379361581726931 -5.727932965623036 0)
(5.131194315543134 4.611624395620725 0)
(20.52952357406184 8.809217049295869 0)
(23.91633890340161 -9.790619673995254 0)
(20.56166359289747 -11.02912285101799 0)
(17.86651801340904 -10.82720547460898 0)