/*--------------------------------*- C++ -*----------------------------------*\
  =========                 |
  \\      /  F ield         | OpenFOAM: The Open Source CFD Toolbox
   \\    /   O peration     | Website:  https://openfoam.org
    \\  /    A nd           | Version:  11
     \\/     M anipulation  |
\*---------------------------------------------------------------------------*/
FoamFile
{
    format      ascii;
    class       volScalarField;
    location    "0.249";
    object      T;
}
// * * * * * * * * * * * * * * * * * * * * * * * * * * * * * * * * * * * * * //

dimensions      [0 0 0 1 0 0 0];

internalField   nonuniform List<scalar> 
880
(
300
300.0000000005072
300.0000005929229
300.0037537881424
300.0000000000001
299.9999999978397
300.0000013032159
300.007773115111
300.0000000000002
299.9999999932752
300.0000024852775
300.0322472773246
300.0000000000002
299.9999998162643
300.0000847290219
300.2808649928754
300.0000000000032
299.9999999999752
299.9999999365152
300.0000097130284
300.0000014569879
299.999999368809
300.0000234105524
299.9998860731889
299.9995870906747
300.0012392975063
300.0824531240775
299.8689349322712
303.1105620532787
308.4020977663769
312.3403418327467
314.3170211697757
300.0000095993498
300.0008729630241
300.0009352291823
300.0011131546849
300.0004314975185
300.0037773569021
300.0100880081974
300.0142078619328
300.3386785990594
300.6918142292065
301.1002034909229
301.5219257812008
316.685311453529
318.9420150204293
320.8099010943596
323.557895400532
321.8671847869329
318.2831904530405
314.9216986779376
312.5584874543062
302.7628679808793
304.7946141419125
305.8220742427527
306.3972921518104
300.0463262881644
300.1547377565477
300.3303117195004
300.5225186058472
300.0037531574324
300.0125223624922
300.0335946813314
300.0714323118016
300.1080989100943
300.1243868751956
300.1215298548951
300.1036215436583
300.6668883176313
300.784736623045
300.8620192268124
300.8106559896814
306.3987838625732
306.3029120566412
306.0308117014781
305.4157456564402
311.3899711257218
310.6456806087803
309.5831404843956
308.6849956705789
308.1937872816779
304.7510830799581
300.7115895013174
300.078298198834
307.5802758110404
304.0525131643589
300.5928470707361
300.0516775902262
306.4498464059776
303.2126865736786
300.4550457292232
300.0285906286041
314.0740083527048
302.7456281344084
300.2911618396612
300.0107690679076
299.9994453473917
300.1322515388332
302.5705884602353
347.6795193653509
299.9993547217623
300.0573608578132
304.8478971949576
375.5180431590312
300.0038317174028
300.115053615947
309.3988056205486
386.0130147820342
300.0171741324507
300.2760774017838
315.3614777018841
391.6576605005619
396.0331109589648
323.4327661098977
300.7136716773088
300.0461790666428
400.193737835471
333.1321340141572
301.5159320748555
300.11310355609
403.1156953740567
343.842228754733
303.0789752135867
300.2345406788978
405.5122134657331
355.878928782902
305.8826242118618
300.4761970047152
300.865072909132
310.1667316608068
364.8201933198977
406.4354163772607
301.5547096042125
315.4529179946406
367.1453726086402
398.8574324519172
302.3638605176478
315.164439186787
357.6084765884295
384.6230619454786
301.7480673311063
311.2847216773968
343.4583321747923
362.664350987107
301.7205738126629
311.9535388994111
331.3270509522411
339.1457742700461
302.0627983120535
308.5494173548411
317.7099633624135
315.2628304292458
301.4346442606188
304.997840962233
308.6973584155792
296.0894214421608
300.8232203815482
303.7475371659223
308.9795484508655
288.1030892379184
309.2122010562009
311.2335653934175
302.7828869648947
300.3556222721027
332.0805884466513
311.0361551483194
301.8335083302985
300.0870129509801
344.8326009694999
311.4792201238729
300.8189801626803
300.0242147500912
340.3706536855838
310.4553659627367
299.8948859031375
299.9346480565746
328.8194312641608
305.4915836430946
299.501112644997
299.919357447861
310.4947553566894
300.253742741168
299.4838847553937
299.9579910061958
294.1983785597874
297.0049975493355
299.5612866768054
299.9906306344001
283.4350503859167
296.7670910985714
299.8394287387995
299.9976718199489
290.0114065055032
297.6450587036382
299.4010570509566
299.9585595462715
287.6614575100743
296.9275685584694
299.3992105534712
299.9641996912642
283.6814089641209
295.8772498578645
299.4114191842826
299.9731245891652
278.8175918885468
294.6738666813464
299.4161965086838
299.9790253254542
283.4350503861779
296.767091098742
299.8394287377917
299.9976718217578
294.1983785593053
297.0049975498476
299.5612866745761
299.9906306314845
310.4947553552714
300.2537427412145
299.4838847549853
299.9579910081968
328.8194312632376
305.4915836436449
299.5011126450822
299.9193574468118
300.3556222730384
302.7828869666787
311.233565392683
309.2122010535843
300.0870129504667
301.8335083315276
311.0361551495466
332.0805884480588
300.0242147483725
300.8189801645225
311.4792201239195
344.8326009698216
299.9346480573047
299.894885903494
310.4553659642364
340.370653685623
288.1030892368822
308.9795484490823
303.7475371651364
300.8232203815689
296.0894214425974
308.69735841451
304.9978409598643
301.4346442602765
315.2628304302768
317.7099633627674
308.5494173554281
302.0627983170859
339.1457742702764
331.3270509529431
311.9535389005389
301.7205738160134
300.8650729091995
310.1667316634185
364.8201933204336
406.4354163771605
301.5547096043792
315.452917995942
367.1453726084025
398.8574324520165
302.363860525135
315.1644391872986
357.6084765872084
384.6230619456513
301.7480673200982
311.2847216770344
343.458332175715
362.6643509870721
405.5122134646545
355.878928783251
305.8826242129176
300.4761970057121
403.1156953758259
343.8422287561721
303.0789752123063
300.2345406793517
400.1937378376813
333.1321340161018
301.5159320789816
300.1131035557011
396.033110958531
323.4327661110424
300.7136716761896
300.0461790659057
299.9994453468992
300.1322515390248
302.5705884603829
347.6795193648522
299.9993547210303
300.0573608589704
304.8478971945286
375.5180431581642
300.003831716808
300.1150536176434
309.3988056240607
386.0130147852992
300.0171741316573
300.2760774010901
315.3614776989201
391.6576604990331
300.010769068627
300.0285906289599
300.051677589366
300.0782981979332
300.2911618378355
300.4550457306565
300.5928470708451
300.7115895007068
302.7456281344029
303.212686574015
304.0525131639295
304.7510830803817
314.0740083525675
306.4498464059041
307.5802758116041
308.1937872824133
300.103621542581
300.8106559896046
305.4157456574226
308.684995670966
300.1215298550175
300.8620192269616
306.0308117015867
309.5831404843589
300.1243868752675
300.7847366239019
306.3029120580839
310.6456806088017
300.1080989085091
300.666888319449
306.3987838643052
311.3899711252777
300.003753156844
300.0463262835394
302.7628679787361
321.86718478626
300.0125223574515
300.1547377546627
304.7946141392808
318.283190451379
300.0335946769043
300.3303117217543
305.8220742429984
314.9216986763565
300.0714323081517
300.5225186092661
306.39729215374
312.5584874528325
323.5578954007769
301.5219257810768
300.0142078576253
300.001113160815
320.8099010939058
301.1002034924243
300.0100880064042
300.0009352365258
318.9420150196446
300.6918142294571
300.0037773597214
300.0008729590292
316.6853114509298
300.3386785973088
300.0004314972889
300.0000096003785
314.3170211713826
299.8689349311596
299.9998860739001
300.0000097138421
312.3403418341557
300.0824531215362
300.0000234102995
299.9999999364296
308.4020977669697
300.0012392969144
299.9999993689113
299.999999999965
303.110562053647
299.99958709044
300.0000014570077
300.0000000000031
300
300.0000000005947
300.0000005933101
300.0037537880561
300.0000000000001
299.9999999976793
300.0000013032788
300.0077731140582
300
299.9999999931848
300.0000024850641
300.0322472796905
300
299.9999998161246
300.0000847281256
300.2808649863642
300.0079974858803
300.0228494174582
300.1016622714312
300.8791782370288
300.0228494179264
300.0460370791361
300.1656379082182
302.2524542242584
300.101662269421
300.1656379060294
300.9040398119669
309.8779319150074
300.8791782442787
302.2524542347324
309.8779319309222
330.9839610330692
358.7068572126353
340.8225124393162
327.7870653135714
314.9144597359889
356.5945081387458
351.1849453639608
346.4738079954408
338.0019155530156
355.3625479729907
353.1125577535116
350.4660315530249
346.8715953063073
354.7953617162316
354.0056640560841
352.9943916823286
351.0933388461983
350.7973198052882
350.1962201068049
349.549089686848
350.209000525797
351.9248220995235
350.6087270345954
349.4408305347338
349.9330584035686
352.6894198727663
350.9615518422174
349.5385620921247
349.8684827058343
353.0240504909233
351.1023746190115
349.6573270735213
344.6653774115558
331.1091137873364
309.807946879407
300.2667160375422
297.8163381083282
322.8702162002094
303.3531399126741
298.6290526177399
298.0494562921548
313.363473643478
299.3055377649136
299.5040661248921
299.3562006929396
291.3546010736262
293.3090561366884
298.4766659122666
298.8479466727817
298.3241167087954
299.41909942537
300.2983327685132
301.0282311242075
298.7766390577478
299.9389290492823
300.944240646413
302.0686537801946
299.8032055281172
300.8133209822081
301.5158821916309
303.2163776137551
299.3062359906345
300.2960313285551
301.8479867745815
303.7998793726757
301.8200151672542
302.2870257835021
309.8265653281891
362.8929544414974
302.8458444197744
303.3975733327131
315.8250694259244
380.530329368025
303.8041299896574
304.5220922485401
327.0132355871922
392.0668348961986
304.1643539085656
304.8881092430579
335.0170837987645
397.8577292569264
432.2824520885883
440.6532335796009
438.2210371394194
433.59179345107
440.6456095316925
443.5708350138346
440.6447660233335
435.4905774658556
441.3630878969329
443.9012862708486
442.4388826679585
437.3568639279321
442.5281527521872
445.0778025066592
443.8614648865636
438.8252484075905
429.7115001070176
428.9430266589327
431.1373411190366
430.4728169541029
431.2053519651288
429.6756054354528
431.6808676701293
432.7069877756286
432.2680516694693
429.2482070096383
431.6258997416747
433.18274704216
433.7241033718274
430.2728480699201
432.4429275291789
433.7584803019456
428.8692702354581
416.7980290389435
400.2429451021411
379.5665980539333
430.7185954299987
418.7279750235528
402.1678943395574
396.3192040063165
431.8369709372307
420.6245388691899
408.3563343156282
415.2988993414766
431.5603827688464
424.2966592398298
420.0184986726689
400.7841981745183
350.6502347403888
297.824166972094
210.9942419130773
154.927995004784
343.8092220220279
262.8069264323766
158.9191217888454
108.6130002932032
309.3383984687287
201.7747925360755
123.6626705049702
105.302255062891
236.3363921336979
130.6711897555186
111.709232048456
101.4251903696871
171.3692890492814
229.7910783072211
284.3164067482365
311.4673744751663
139.6468838703318
198.1805337714156
255.4884760881318
288.3561571448536
135.5242381978775
184.4291694045743
236.2375779928898
271.5865991112107
138.1570021051595
188.840910361447
240.3001487825794
271.6841444207557
309.3076454245229
303.7764159918506
288.6744064057808
270.6106258824581
290.0427303869625
301.1717329310844
293.8766194756301
281.2749291122949
275.5521741895772
293.267640411709
295.3929149148022
297.396518017263
263.5387478930378
282.862316507453
293.0698911570254
315.6157174033481
245.1402713848396
226.7170774277666
228.6309294390109
242.6878851741822
256.2940824930844
232.8832417780747
239.7582038892077
234.6427363119725
261.8561197735872
229.4752196501553
241.9264458046366
232.0555609849242
249.4719374586336
219.7367183216665
229.168354229253
216.071274626005
198.5383288266596
189.9784593076256
189.1974748663887
189.7070607001559
214.427456947311
202.6960882464659
200.7622528973752
201.7735870154272
225.9796003850124
217.5421764147674
217.8764424884073
220.2525738799067
251.4355357296455
245.5925220704527
240.2513002960012
237.6898622848737
189.7070607003046
201.7735870156632
220.2525738801808
237.6898622848698
189.1974748667075
200.762252897884
217.8764424890594
240.2513002959352
189.9784593081152
202.6960882471362
217.5421764155238
245.5925220707859
198.5383288271562
214.4274569480348
225.9796003855209
251.4355357302524
242.6878851740474
228.6309294384642
226.7170774275324
245.1402713847698
234.6427363122956
239.7582038894529
232.8832417781594
256.2940824928131
232.0555609855671
241.9264458051492
229.4752196506724
261.8561197735506
216.071274626202
229.16835422931
219.7367183223765
249.4719374590242
315.6157174031978
293.0698911548541
282.8623165046267
263.5387478911841
297.3965180169251
295.3929149132158
293.267640409028
275.5521741876731
281.2749291119775
293.8766194744667
301.1717329290514
290.042730385241
270.610625882243
288.674406404871
303.7764159904703
309.3076454232994
311.4673744773067
284.3164067502257
229.79107830875
171.3692890494742
288.3561571450352
255.4884760894076
198.180533772282
139.6468838703916
271.5865991103638
236.2375779931832
184.4291694046525
135.5242381976444
271.684144419876
240.300148782421
188.8409103612755
138.1570021049275
154.9279950041192
210.9942419130109
297.8241669726646
350.6502347410923
108.613000292743
158.91912178859
262.8069264341584
343.809222025099
105.3022550624594
123.6626705043079
201.774792536074
309.3383984691951
101.4251903682534
111.7092320469413
130.6711897555682
236.3363921344805
379.566598054999
400.2429451033835
416.7980290391976
428.8692702353885
396.3192040078094
402.1678943408851
418.7279750237881
430.7185954299227
415.2988993429368
408.3563343170881
420.6245388695381
431.8369709370868
400.7841981759609
420.0184986740226
424.296659240951
431.5603827687665
430.4728169546983
431.1373411204621
428.9430266595816
429.7115001060873
432.7069877766579
431.6808676720682
429.6756054361795
431.2053519643688
433.1827470435107
431.6258997436345
429.24820701044
432.2680516689473
433.7584803028794
432.4429275311037
430.2728480704898
433.7241033713296
433.5917934519417
438.221037140732
440.6532335799899
432.2824520884143
435.4905774667448
440.6447660244525
443.5708350143761
440.645609531769
437.3568639291723
442.4388826688382
443.9012862714162
441.3630878963784
438.8252484088093
443.8614648873501
445.0778025071692
442.5281527516444
362.8929544405231
309.8265653274175
302.2870257844946
301.8200151684881
380.5303293669946
315.8250694242755
303.3975733336497
302.845844421073
392.0668348950869
327.0132355842256
304.5220922492906
303.8041299908026
397.8577292554637
335.0170837956539
304.8881092439554
304.1643539098425
301.0282311246833
300.298332768494
299.4190994250731
298.3241167081227
302.0686537805561
300.9442406460944
299.9389290488225
298.7766390569313
303.2163776140986
301.5158821916265
300.8133209816338
299.8032055271774
303.799879373167
301.847986774489
300.2960313280128
299.3062359896253
297.8163381072612
300.2667160358882
309.8079468775092
331.1091137863334
298.0494562909975
298.6290526161075
303.3531399110122
322.8702161991234
299.3562006915883
299.5040661233247
299.3055377634742
313.3634736415927
298.8479466712597
298.4766659110618
293.3090561361876
291.3546010730392
350.2090005236917
349.54908968477
350.1962201065401
350.7973198067923
349.9330584017405
349.4408305335032
350.6087270378597
351.9248221053039
349.8684827039811
349.5385620922569
350.9615518476042
352.6894198820177
344.665377409154
349.6573270745814
351.1023746243059
353.0240505003125
351.0933388565751
346.8715953140574
338.0019155546743
314.9144597338268
352.994391693862
350.4660315611074
346.4738079959545
327.7870653103121
354.0056640679055
353.1125577637492
351.184945366052
340.8225124356695
354.795361729205
355.3625479833535
356.5945081400644
358.7068572105106
278.3588582783843
295.8973335825469
299.7011024461493
299.9942662024899
270.0917729960369
294.164287193681
299.5177665399186
299.9890959578332
269.8783651939886
293.568819798019
299.4382838371479
299.9864760420301
272.9667392276776
293.7422960547285
299.4187978666017
299.9838875386669
299.9585595439041
299.4010570513955
297.6450587043682
290.0114065038619
299.9641996904489
299.3992105549278
296.9275685604805
287.6614575090757
299.9731245865002
299.4114191861353
295.8772498574166
283.681408964533
299.9790253209152
299.4161965111996
294.673866678724
278.8175918891885
299.9838875323499
299.9864760350982
299.9890959507967
299.9942661980901
299.4187978696181
299.43828383952
299.5177665403576
299.701102445423
293.7422960528095
293.5688197963083
294.1642871923793
295.8973335820813
272.9667392273549
269.8783651932078
270.091772995342
278.3588582781025
)
;

boundaryField
{
    back
    {
        type            empty;
    }
    inlet
    {
        type            zeroGradient;
    }
    front
    {
        type            empty;
    }
    top
    {
        type            zeroGradient;
    }
    outlet
    {
        type            fixedValue;
        value           uniform 300;
    }
    bottom
    {
        type            zeroGradient;
    }
    wall
    {
        type            zeroGradient;
    }
}


// ************************************************************************* //
