/*--------------------------------*- C++ -*----------------------------------*\
  =========                 |
  \\      /  F ield         | OpenFOAM: The Open Source CFD Toolbox
   \\    /   O peration     | Website:  https://openfoam.org
    \\  /    A nd           | Version:  11
     \\/     M anipulation  |
\*---------------------------------------------------------------------------*/
FoamFile
{
    format      ascii;
    class       volScalarField;
    location    "0.113";
    object      p;
}
// * * * * * * * * * * * * * * * * * * * * * * * * * * * * * * * * * * * * * //

dimensions      [0 2 -2 0 0 0 0];

internalField   nonuniform List<scalar> 
880
(
80
80
80.00000000001411
80.00030650678741
80
80
80.00000000032942
80.00125802015539
80
79.99999999999999
80.00000000606894
80.00672534520116
80
80
80.000000168605
80.01454565638328
80
80.00000000000001
79.99999999999994
79.99999999952087
79.99999999999999
80
79.99999999999983
80
79.99999854717981
80.00000649925748
80.02862657303814
79.95018668126012
80.95175818479935
83.62572650374663
85.78941394667153
86.70785598199507
80.00000518095401
80.00002369114506
80.00002984436416
80.00001880540272
80.0001059043185
80.00028299965406
80.00078975481972
80.00058092421901
80.05653883685287
80.12233217906611
80.21250956072225
80.22013463413366
87.75004432047233
89.12273603140433
90.49940147193624
92.2476711368315
91.57424011062704
89.00646732285465
87.03825046179279
85.80417810369106
80.38330118119192
80.73674483016461
80.92779983099669
80.83911228459755
80.00164584520103
80.00453952968046
80.00920384239588
80.0103930877074
80.000071630844
80.00017577679043
80.00033662039787
80.00034596239948
80.00024438160079
80.00009445904041
80.00001473108796
80.00000056196251
80.00873292710838
80.0052200422225
80.00163362871557
80.00021057350692
80.67898553231095
80.45915737770869
80.20580942081274
80.04884834715757
84.54259196697805
83.3012361078504
82.12856933283575
81.07257653855325
80.32739666859547
80.00529390844888
80.00000997992095
80.00000000992799
80.04665077321957
80.00039252252488
80.00000081290973
79.99999999592205
79.99957711367659
79.99967819685661
79.99999467236779
80.0000003549514
82.04945751220831
80.01014929957925
79.99976297665465
79.99997856340937
79.99996351282563
79.99988852982607
80.06963384400923
96.79297081911062
79.99999130892803
80.00071550574019
80.37151885093624
110.8620744888155
80.00008613025375
80.00199383329965
80.71637785901413
118.470542499291
80.00025537110548
80.00604081186799
81.29008345218388
125.2729107634678
131.1958115812585
81.80912849382079
80.00826652433457
80.00036853269803
138.6875260988119
82.59968365332617
80.01552191968985
80.00065748359899
144.3044355665194
83.11847598684597
80.01769273847111
80.0007084949366
150.6705132609356
83.97870184506723
80.02941347625129
80.00128816664058
80.00142462704852
80.03460453216726
85.00253521777687
156.8915413958004
80.00218491626488
80.05218993123978
86.32007467584164
158.4732638718851
80.00404593650325
80.07204007875788
86.61327130162192
149.1342345782543
79.99986389154174
80.02900477234159
83.97856439205192
125.9637992120434
80.00749169526061
80.17012772287956
84.36239378729357
97.989812823093
80.00903217367576
80.18717247138066
81.51182453616907
70.00788981250473
80.00079713118882
80.06403508277155
79.92016766489519
56.38663739594234
79.99844284659399
79.93616769021094
77.81027232080662
49.84399073402925
48.24334879318025
76.72750436665682
79.89937635950128
79.9990968934063
45.86250905660529
76.278050787436
79.89681118024926
79.99941043344333
44.35535848715826
76.26688344056221
79.93334020128376
79.99977032495777
41.15343071037283
75.94113522411189
79.93507218815989
79.99977642594358
47.29095723258918
77.72299374912841
79.97740647291312
79.99992359667812
55.12413026511653
79.05176759763303
79.99400475817708
79.99998242511538
61.51046010840307
79.574730858951
79.99794975536055
79.9999948759929
67.28944232856321
79.84486874574814
79.99941461722698
79.99999755030173
70.90343070493958
79.42022455902045
79.98895620452026
79.99992038982644
71.65872182567837
79.44165247559509
79.98904786839256
79.99992062305627
72.42605546380722
79.45880099935577
79.98886852749227
79.99991995243884
73.48798588891066
79.53170234852585
79.98847538452557
79.99992022773401
67.28944232841468
79.84486874529884
79.99941461669357
79.9999975510012
61.5104601080045
79.5747308585207
79.99794975386079
79.99999487598291
55.12413026481619
79.05176759801367
79.99400475810947
79.99998242529627
47.29095723276696
77.72299375015095
79.97740647290341
79.99992359629996
79.99909689411916
79.89937636064241
76.72750436713874
48.24334879305129
79.9994104338034
79.89681118079962
76.2780507880412
45.86250905690817
79.99977032406912
79.93334020235778
76.26688344026833
44.35535848727256
79.99977642625539
79.9350721883938
75.94113522542872
41.15343071006952
49.84399073329359
77.8102723197953
79.93616768923398
79.9984428462828
56.38663739490782
79.92016766408287
80.064035081798
80.00079712940456
70.00788981240672
81.51182453526317
80.18717247156384
80.00903217319546
97.98981282329191
84.36239378706634
80.17012772233646
80.00749169701263
80.00142462649305
80.03460453404485
85.00253521883616
156.8915413971642
80.00218491642147
80.05218993145589
86.32007467602507
158.4732638719349
80.00404593716861
80.07204007869855
86.61327130075918
149.1342345781685
79.99986389368247
80.02900477239454
83.97856439145556
125.9637992119009
150.6705132626581
83.97870184329085
80.02941347740638
80.00128816668895
144.3044355681154
83.11847598943721
80.01769273845854
80.00070849529438
138.6875260990505
82.59968365527808
80.01552192252731
80.00065748313108
131.1958115825917
81.80912849160323
80.00826652385619
80.00036853234839
79.99996351384185
79.99988853068892
80.06963384431802
96.79297081789156
79.99999130833815
80.00071550462353
80.371518850765
110.8620744892401
80.00008612958199
80.0019938332857
80.71637785979904
118.4705424995188
80.00025537037227
80.00604081171821
81.29008345176791
125.272910763583
79.99997856303423
80.00000035541439
79.99999999600035
80.00000000983194
79.99976297560153
79.99999467245276
80.00000081399385
80.00000997923023
80.0101492998795
79.99967819717628
80.00039252177844
80.00529390818396
82.04945751254894
79.99957711406493
80.0466507727478
80.32739666876117
80.00000056095101
80.00021057366887
80.04884834776615
81.07257653888294
80.00001473090329
80.00163362835184
80.20580942238874
82.12856933304046
80.00009445967987
80.00522004227072
80.45915737695775
83.30123610775406
80.00024438192685
80.00873292700379
80.67898553306337
84.54259196664218
80.00007162964475
80.0016458441699
80.3833011804895
91.57424011048188
80.00017577572716
80.00453952975342
80.73674483011092
89.00646732206643
80.00033661995015
80.00920384356931
80.92779983115167
87.03825046142175
80.00034596200055
80.01039308854054
80.83911228475969
85.80417810306741
92.24767113740954
80.22013463509316
80.00058092356764
80.00001880481626
90.49940147217735
80.21250956207471
80.00078975467019
80.00002984421788
89.12273603246256
80.12233218011198
80.00028299972827
80.0000236912437
87.75004432015774
80.05653883639306
80.0001059039914
80.00000518129687
86.70785598211401
79.95018668140149
80
79.99999999970859
85.78941394634556
80.02862657039239
80
79.99999999999999
83.6257265039
80.00000649901853
80
79.99999999999999
80.9517581843741
79.99999854677259
80
79.99999999999989
80
79.99999999999997
79.99999999999982
80.00030650610762
80.00000000000003
80.00000000000001
80.00000000033886
80.00125801381999
80
80
80.00000000613136
80.00672534254066
80
80
80.00000016801222
80.01454565601158
80.00059999032901
80.00231808599399
80.01184792868949
80.21865833645057
80.00231811411356
80.00286762898823
80.01004597571601
80.84167245391505
80.01184791691767
80.01004594593307
80.32591509205187
85.32700467260965
80.21865832108929
80.84167244326022
85.32700471782576
103.1454501944312
133.2320291496209
112.2604644639485
100.8434137592585
89.67674393518554
128.1482575923567
123.6750402936625
121.2964008457768
112.1954091994648
125.313985776057
123.8452726891375
123.5929663512923
119.4588981904217
125.5307134913756
124.4629229522783
124.3250460850786
121.5909000014799
123.3711041835293
123.8677220492697
124.8544173663506
127.3674445962062
124.7262293292279
125.0953633941732
125.9946612428077
128.6878184003792
125.1845427829935
125.3209795159484
126.1703324657696
128.2568280732079
125.6538258470581
125.3209167580047
126.1824440461578
126.5998146186744
106.932950957543
86.6508113655193
81.03648674059403
81.40444754670413
97.27858114392303
79.0187361484324
78.8248139652035
81.08713216417898
87.79812745889454
75.42471921081547
79.67013566266544
82.12920872505494
69.17082710705377
70.34294032929152
78.48826722647908
81.49029648620164
81.69489382805874
81.85984950836415
82.10118470480589
81.74699209525238
81.64048187523623
81.84365300216044
82.09075628405229
81.62578633165406
82.32616796310236
82.32183087035123
82.38733307730995
81.810445427723
81.77728896529882
81.72095789175644
82.05384388968156
81.51731832230753
80.87844939072421
80.23056360400535
80.00980878074644
105.1104339916109
80.83440917362783
80.26419259730685
80.00261886772915
118.1963684495556
80.96597644734263
80.32825114689862
80.050273495223
124.7263086249257
80.64976686623729
80.14222285629229
80.0897513802076
128.2027446308678
196.5113322836927
209.4104241022448
210.1171017607254
209.4894107727452
218.549384190567
219.3145927133828
214.7418864559537
211.8544586006001
216.2866225358034
213.781232761681
215.0080628680361
212.6337118693345
228.1548469974204
220.436120179837
216.1108915533214
212.9592606352948
208.588340861173
213.4790380774049
217.1200280305615
221.4949682374564
209.7949876841614
213.9635721713243
216.926633841719
221.0803407180184
209.8487972424846
213.4891777051131
216.7834708436538
220.9731517695813
210.013649316284
213.2729792994322
216.3713923294611
220.7019923904991
221.29461338832
214.186482120735
197.1385104746324
164.2063615602365
220.4599388136986
213.9927984283398
196.9098372465384
173.5860966408117
220.8556677895555
214.8341613221243
198.8475317005702
184.8728546596839
220.7492734612822
216.1507914886776
201.7386676294794
205.2978138275489
99.64639993152728
20.23992387265285
5.768982179372403
7.566503963439725
76.80250523204397
11.78413693185843
6.541072018962487
7.628864264772375
52.05298278591554
6.505259854373809
5.610885683671563
8.070970994766697
28.92910140482077
3.211292045910272
6.349037130920877
8.250257427629473
9.71548021335612
10.69423319618244
10.99308861963785
9.791930002656128
9.506201655973749
10.02680157973018
9.697469309453306
8.71514562768105
9.673514022749936
9.757007105804064
9.337913037214845
9.051034625995968
9.511583639344977
9.164123604749037
8.907340644199005
10.34537040134436
20.77394329741263
29.38420293230941
36.24534039010033
46.37796749052709
20.10575235586854
28.5840844434684
34.08486869388564
44.65407238881775
18.02619503744539
27.47026887806262
34.22711668735666
43.17855142652865
14.35567115043853
22.84856046299939
30.18192890505903
40.68335422649873
32.6933942231396
21.16256504908248
10.01229881624421
8.390433066566157
29.80842465770192
17.32420474927939
6.927913189059834
10.94242135077588
23.5694830819582
10.36856078973314
5.266203849097342
14.5695957423639
15.43445946414595
5.277162834746759
7.681923683218098
15.47711635049455
17.91590209555244
16.93726233016912
15.50511711982718
15.70596836287343
16.69940583275383
14.69107295122677
13.81128026586283
13.58924318628153
16.66291516277886
16.45437394904408
16.69280233187067
16.90509734735561
19.481308565832
28.14420769664252
28.17583523501275
27.96079306067876
15.70596836287612
13.58924318627776
16.90509734736481
27.96079306066462
15.50511711983527
13.81128026585723
16.69280233189222
28.17583523500199
16.93726233016638
14.69107295124803
16.45437394906951
28.14420769658529
17.91590209555308
16.69940583282573
16.662915162805
19.48130856575651
8.390433066518266
10.01229881616145
21.16256504894768
32.6933942228907
10.94242135074892
6.927913189030172
17.32420474925552
29.8084246575326
14.56959574240352
5.26620384908409
10.36856078967805
23.56948308192986
15.47711635049971
7.681923683230696
5.277162834733312
15.43445946409956
40.68335422639264
30.18192890494862
22.84856046274767
14.35567115020644
43.17855142645382
34.22711668730209
27.47026887785829
18.02619503717002
44.65407238873538
34.08486869385737
28.58408444332845
20.10575235560745
46.37796749043077
36.24534039001944
29.38420293213273
20.77394329720033
9.7919300025351
10.993088619706
10.69423319621672
9.715480213288892
8.715145627632799
9.697469309514405
10.02680157975531
9.506201655921917
9.051034625953898
9.337913037279481
9.757007105834996
9.673514022690046
10.34537040126856
8.907340644235449
9.164123604786385
9.511583639278934
7.566503963303726
5.76898217923543
20.23992387243888
99.6463999314133
7.628864264661805
6.541072018832082
11.78413693174455
76.80250523161419
8.070970994637301
5.610885683560184
6.505259854325825
52.05298278569253
8.250257427481039
6.349037130742109
3.211292045832219
28.92910140470725
164.2063615600119
197.1385104749108
214.1864821210645
221.2946133894049
173.5860966406628
196.9098372468343
213.99279842886
220.4599388150802
184.8728546595525
198.8475317008016
214.8341613228844
220.8556677908202
205.2978138274196
201.7386676299011
216.1507914894719
220.7492734625355
221.4949682389364
217.1200280309562
213.4790380770202
208.588340863323
221.0803407190991
216.9266338417767
213.9635721710663
209.7949876862234
220.9731517702826
216.7834708436383
213.4891777051316
209.8487972445074
220.7019923913372
216.3713923293531
213.2729792994086
210.013649318702
209.4894107752446
210.1171017585018
209.410424103029
196.5113322820231
211.8544586032818
214.7418864530365
219.3145927143396
218.5493841887359
212.633711871823
215.0080628642366
213.7812327616439
216.2866225326894
212.9592606371444
216.1108915498814
220.4361201798787
228.1548469928621
105.1104339904971
80.00980877781974
80.23056360502068
80.87844939069886
118.1963684473135
80.00261886484736
80.26419259922001
80.8344091730259
124.7263086213871
80.05027349341113
80.32825115003756
80.96597644597151
128.2027446264656
80.08975137860493
80.1422228613921
80.64976686353432
81.74699209533628
82.10118470463877
81.85984950811638
81.69489382797471
81.62578633177743
82.09075628376958
81.8436530019908
81.64048187507231
81.81044542806933
82.38733307701911
82.32183087041656
82.32616796279655
81.51731832310807
82.05384388918731
81.72095789220623
81.77728896489739
81.4044475459968
81.03648674037557
86.65081136491354
106.9329509576889
81.08713216346716
78.82481396509299
79.01873614787141
97.27858114406604
82.12920872439999
79.67013566260721
75.42471921039366
87.79812745891628
81.49029648549168
78.48826722651815
70.34294032882418
69.17082710677241
127.3674445959199
124.8544173652408
123.8677220499615
123.3711041854202
128.6878183994906
125.994661242016
125.0953633956048
124.7262293307929
128.2568280721387
126.1703324651077
125.3209795172505
125.1845427842207
126.5998146179722
126.1824440455281
125.3209167591615
125.65382584758
121.5909000015148
119.458898190151
112.1954091961781
89.67674393551466
124.3250460843256
123.5929663500506
121.2964008450162
100.8434137504733
124.4629229518096
123.8452726887873
123.6750402926894
112.2604644509318
125.5307134908836
125.313985775747
128.1482575883537
133.2320291467971
71.30201042639351
79.79874704000954
79.99831500080258
79.99999298963472
71.24736308022538
79.75617197344265
79.99734872526791
79.99998554946048
71.98473775177528
79.70862961263603
79.99578943079059
79.9999730212388
72.59570140780613
79.62405185703281
79.99137619204271
79.99994267784152
79.99992039031557
79.98895620478592
79.42022455829233
70.90343070384154
79.99992062348757
79.98904786910589
79.44165247463319
71.65872182563976
79.99991995173853
79.98886852804112
79.45880099904437
72.42605546334239
79.99992022579546
79.9884753852965
79.53170234724389
73.48798588846698
79.99994267712903
79.9999730204765
79.999985547089
79.99999298731011
79.9913761923868
79.99578943077516
79.99734872499927
79.99831500003107
79.62405185663685
79.70862961169024
79.756171974168
79.7987470397224
72.59570140759966
71.98473775086305
71.24736307968682
71.30201042682404
)
;

boundaryField
{
    back
    {
        type            empty;
    }
    inlet
    {
        type            zeroGradient;
    }
    front
    {
        type            empty;
    }
    top
    {
        type            zeroGradient;
    }
    outlet
    {
        type            fixedValue;
        value           uniform 80;
    }
    bottom
    {
        type            zeroGradient;
    }
    wall
    {
        type            zeroGradient;
    }
}


// ************************************************************************* //
