/*--------------------------------*- C++ -*----------------------------------*\
  =========                 |
  \\      /  F ield         | OpenFOAM: The Open Source CFD Toolbox
   \\    /   O peration     | Website:  https://openfoam.org
    \\  /    A nd           | Version:  11
     \\/     M anipulation  |
\*---------------------------------------------------------------------------*/
FoamFile
{
    format      ascii;
    class       volScalarField;
    location    "0.113";
    object      rho;
}
// * * * * * * * * * * * * * * * * * * * * * * * * * * * * * * * * * * * * * //

dimensions      [0 0 0 0 0 0 0];

internalField   nonuniform List<scalar> 
880
(
0.3733250556165154
0.3733250556165154
0.3733250556165154
0.3733260820858059
0.3733250556165154
0.3733250556165154
0.3733250556176668
0.3733288690201984
0.3733250556165154
0.3733250556165153
0.3733250556293387
0.3733466318817062
0.3733250556165154
0.3733250556165154
0.373325055900444
0.3733802160804641
0.3733250556165154
0.3733250556165155
0.3733250556165152
0.3733250556149081
0.3733250556165154
0.3733250556165154
0.3733250556165151
0.3733250556165154
0.37332505194922
0.3733250373964125
0.3734138392757411
0.3731781154139137
0.3764091965482059
0.3843928820175582
0.3904035811267923
0.3931367861817083
0.3733250728859622
0.3733251345049822
0.3733251549773595
0.3733251182370027
0.373325384987841
0.3733259160175703
0.3733275524630886
0.3733269326372634
0.3734858607824862
0.3736792970381171
0.373963737434207
0.3739953725959161
0.3959139148456456
0.3997319300044158
0.4039725471161622
0.409266951759634
0.4072690504500056
0.3993440018769186
0.3937267236691946
0.3907734189589785
0.3744867730404108
0.3756923714844643
0.3762604010359909
0.3760070576853894
0.3733302282989842
0.3733401585537152
0.3733560145669031
0.3733600224278686
0.3733252940802925
0.3733256413763266
0.3733261784534874
0.3733262098373073
0.373325871086749
0.3733253708428954
0.3733251047595809
0.3733250574889461
0.3733545629622252
0.3733427705491043
0.3733305792458133
0.3733257590004519
0.3755474093590221
0.3748653385208567
0.374026922336447
0.3734898725572369
0.3875833492626741
0.3840653391475837
0.3804003209587671
0.3769214528141472
0.3744236916054034
0.3733426339888649
0.3733250886487348
0.3733250556489627
0.373479904492774
0.3733263343627808
0.3733250583640532
0.3733250556030408
0.3733253049279465
0.3733240572061912
0.373325036627614
0.3733250568016263
0.379577905348548
0.373357115561351
0.3733242580976727
0.3733249844106771
0.3733249342747563
0.3733246779864958
0.3735492492652032
0.421442546418253
0.3733250268670123
0.3733274653092022
0.3744915626101426
0.4591937575607507
0.373325342914657
0.3733314564047875
0.3754630950215483
0.4763884754063701
0.3733259052721679
0.3733437649270249
0.3770516972428682
0.4910864631899227
0.5035953155337793
0.3784299279777465
0.3733505564129695
0.3733262836424594
0.521533140476741
0.3806459578443818
0.3733723397546288
0.3733272391916647
0.5356572292832648
0.382114392708451
0.3733800119632223
0.3733274187832768
0.5526117717284155
0.3845510856843248
0.3734147951723215
0.373329332986182
0.3733298036551758
0.373432183509087
0.387497052580447
0.5687539495307952
0.3733323331789311
0.3734840715741332
0.3910588207866991
0.5737440425505632
0.3733385032751688
0.3735449418614488
0.3919230043787712
0.5503496722107604
0.3733245948155613
0.373417308962587
0.3847000885216321
0.4916042277058023
0.3733498900318861
0.3738759122545322
0.3849112666779204
0.4061037610820742
0.3733568289427571
0.3738586006845828
0.3746707032433071
0.3093235151164955
0.3733292334449383
0.3734591716267252
0.3685249783000202
0.2521112609544837
0.3733236241913941
0.373097175922824
0.3611973943963159
0.2217583362181992
0.2182056169626217
0.3588547433855527
0.3730324162883037
0.3733233959296965
0.2125444366461445
0.3575867028425372
0.3730050376140268
0.3733232960091123
0.211237630511507
0.3582485361106748
0.3731001681904897
0.3733242966389321
0.2010825934844592
0.3568737209558123
0.373090914367501
0.3733242948214919
0.2331730689257724
0.3641486037117474
0.3732408826990739
0.3733247872453087
0.273105864525571
0.3695963130966891
0.3733027369374723
0.3733249935235753
0.3041679809804536
0.37177822537493
0.3733178761678995
0.3733250381440212
0.3288653746061999
0.3728152936536309
0.3733231701023418
0.3733250475925003
0.3342976618008751
0.3710372247248176
0.373285480290224
0.3733247833616939
0.3368221208919283
0.3711187214150357
0.3732861185467032
0.373324785249854
0.3396361222259971
0.3711993711534616
0.3732865025614959
0.373324785837654
0.3430121684246123
0.3714763757705213
0.3732907088627306
0.3733248045835558
0.3288653746060691
0.3728152936525026
0.373323170101334
0.3733250475932328
0.304167980978954
0.3717782253736199
0.3733178761638412
0.3733250381440114
0.2731058645243539
0.3695963130970542
0.3733027369366499
0.3733249935242453
0.2331730689262847
0.3641486037138079
0.3732408826988839
0.3733247872444652
0.3733233959329214
0.3730324162916976
0.3588547433873509
0.2182056169621424
0.3733232960082697
0.3730050376155014
0.357586702844477
0.2125444366471714
0.3733242966366246
0.3731001681931513
0.3582485361106633
0.2112376305117736
0.3733242948223363
0.3730909143678708
0.3568737209596857
0.2010825934834859
0.2217583362156997
0.3611973943937465
0.3730971759213923
0.3733236241918324
0.2521112609514853
0.3685249782977664
0.37345917162412
0.373329233440034
0.3093235151157491
0.3746707032406442
0.3738586006850851
0.3733568289399473
0.4061037610825328
0.3849112666774721
0.3738759122531113
0.373349890036129
0.3733298036539439
0.3734321835144883
0.3874970525834414
0.5687539495345882
0.3733323331798106
0.3734840715729743
0.3910588207861534
0.5737440425505453
0.3733385032767776
0.3735449418610568
0.3919230043762099
0.5503496722104155
0.3733245948214795
0.3734173089623627
0.3847000885200799
0.4916042277054521
0.5526117717326838
0.3845510856759647
0.3734147951751269
0.3733293329860343
0.5356572292872701
0.3821143927147095
0.3733800119651488
0.3733274187844107
0.5215331404782753
0.3806459578570066
0.3733723397585914
0.3733272391906083
0.5035953155374279
0.378429927969494
0.373350556417456
0.3733262836416578
0.3733249342775753
0.3733246779890552
0.373549249266397
0.4214425464142512
0.373325026865001
0.3733274653054536
0.374491562608377
0.4591937575623442
0.3733253429127696
0.3733314564074025
0.3754630950259919
0.4763884754072604
0.3733259052703755
0.3733437649215101
0.3770516972388835
0.4910864631899589
0.3733249844095126
0.3733250568028744
0.3733250556032482
0.3733250556488523
0.3733242580944034
0.3733250366276492
0.3733250583671664
0.3733250886470847
0.3733571155623057
0.3733240572072599
0.3733263343607326
0.3733426339877129
0.3795779053495589
0.3733253049290214
0.3734799044910961
0.3744236916057744
0.3733250574863266
0.3733257590007685
0.3734898725579378
0.3769214528151424
0.3733251047590084
0.3733305792447906
0.3740269223411542
0.3804003209598121
0.3733253708443264
0.3733427705489869
0.3748653385189201
0.3840653391476367
0.3733258710879687
0.3733545629616593
0.3755474093610469
0.3875833492619653
0.3733252940769506
0.3733302282959855
0.3744867730367963
0.4072690504492603
0.373325641373741
0.373340158554293
0.3756923714836343
0.3993440018744663
0.373326178452688
0.3733560145706499
0.3762604010365885
0.3937267236682805
0.3733262098365331
0.3733600224302974
0.3760070576861675
0.3907734189573443
0.4092669517610064
0.3739953725973323
0.3733269326352283
0.3733251182352743
0.4039725471166146
0.3739637374385503
0.3733275524626112
0.3733251549766883
0.3997319300077973
0.3736792970448755
0.3733259160175197
0.3733251345054796
0.3959139148445373
0.3734858607825858
0.3733253849871306
0.3733250728867633
0.3931367861816238
0.3731781154109556
0.3733250556165154
0.3733250556153508
0.3904035811260808
0.373413839269962
0.3733250556165154
0.3733250556165154
0.3843928820185392
0.3733250373958233
0.3733250556165154
0.3733250556165153
0.3764091965469873
0.373325051947957
0.3733250556165154
0.3733250556165151
0.3733250556165154
0.3733250556165154
0.3733250556165154
0.3733260820837228
0.3733250556165152
0.3733250556165155
0.3733250556177629
0.3733288689986624
0.3733250556165154
0.3733250556165154
0.3733250556294367
0.3733466318711431
0.3733250556165154
0.3733250556165154
0.3733250558989005
0.373380216078524
0.373327029243101
0.3733327655805267
0.3733648679637538
0.3740523199036828
0.3733327656700416
0.3733346410610386
0.3733594708635803
0.3760929795092043
0.3733648679235566
0.3733594707633994
0.3744059847077458
0.3903393799890651
0.374052319852874
0.3760929794723954
0.3903393801397818
0.4435356881170721
0.5260504540133815
0.4685599634105806
0.4381384808535099
0.4044930557370515
0.5116757110603875
0.5005408248933354
0.4972843369209724
0.4722521449160469
0.5052431392477656
0.5021774233483682
0.5039424885965996
0.4930596370930017
0.507814768897769
0.5053250436273919
0.5060330768128632
0.4978599604900621
0.5019485152404645
0.5027433013562383
0.5054146798008816
0.5119907061354886
0.5073754037142684
0.5083839303075995
0.5109693887895389
0.5181569777975878
0.5090457470791705
0.5101519126493883
0.5128190787427247
0.519042434915603
0.5104208933821349
0.5105413888349359
0.5131362343992606
0.5179927587639557
0.4516199617558432
0.3863682968081429
0.3712948613195917
0.3748288493804539
0.4223653874908631
0.3623265128307456
0.3636633581659223
0.3725901647698791
0.3939255337235549
0.3533231900161689
0.3665645443249009
0.3755225632525065
0.336673485324428
0.3377927761961984
0.3618960643834162
0.3730689476490785
0.3773182585369022
0.3787552297757833
0.3798400357213002
0.3790212646955979
0.3759859176009674
0.3780041031245405
0.3796117204487517
0.3786236459774772
0.3775687927701482
0.3791472551693668
0.3804505575378538
0.3792586809381673
0.3756523753913068
0.377187604317213
0.3793878162147243
0.3782985763916157
0.3762979736803709
0.3741082244142304
0.3733570589597137
0.4455142775995323
0.3761835383643297
0.3742324684810768
0.3733350477307543
0.477243665824907
0.3766413608369341
0.3744516812561035
0.3734923243528563
0.490726318048978
0.375600296176391
0.3738316238238525
0.3736007717365831
0.4977383606354295
0.6765363540984929
0.7016217683924122
0.6983830420144957
0.6908294482900511
0.7269383296621637
0.7243773934271236
0.7130251974607016
0.7034540653458483
0.7133965785275078
0.7097687560726901
0.716213942939128
0.7122582219925793
0.7368988426378554
0.7241098207384881
0.7205592144017863
0.7160022947675037
0.683775280973436
0.6919654249026262
0.6998976310457575
0.7108226076383543
0.6957159178159699
0.7033653397716365
0.7100698745527377
0.7202651524698681
0.7054127613481992
0.7135743746692256
0.7215869536214589
0.7318299015706005
0.7097155097981103
0.7176964494928985
0.7254830538497182
0.7361070101462227
0.7111796423764982
0.6964807281272133
0.658667442029186
0.5740837592706844
0.7188135551094715
0.7045514913080426
0.6635658909990327
0.5847696486895706
0.7313915194042524
0.7167598946638054
0.6709179447314878
0.6050302041556119
0.736391695931114
0.7241916326226659
0.6750439769141304
0.7032317504621237
0.3845382477252888
0.09561041900198797
0.03820781614688
0.05018829794864837
0.3076906073191381
0.06324765655182185
0.04713081692015997
0.05941779303021515
0.2314120346414164
0.04237361583629914
0.04593596128080487
0.07063732679398026
0.1680461522476758
0.02815896298115498
0.05208686077199522
0.07521172590966439
0.06198213477878493
0.06708602684308487
0.06843316844566276
0.06135353772749977
0.07161786350593098
0.07409297220924699
0.0691962083163586
0.05785853499747202
0.08512490343732461
0.08503991586088636
0.07438506774103507
0.05979187475770088
0.08995465593334248
0.08688394451695436
0.07432826276298007
0.06628618916047674
0.1104278007135105
0.1602090981084205
0.1994539151826293
0.2483485586654446
0.1023344948600437
0.1483103732349033
0.1827905883622056
0.2340794925576711
0.09415286336983703
0.1371107404321457
0.1737137256522269
0.2146319531463753
0.08125274788284564
0.1187873307086728
0.1534810502836292
0.1951720516877909
0.1906814637442841
0.1372595624984691
0.07676008750544606
0.06407987740678554
0.1714413269691459
0.1120966998892109
0.05739507679084863
0.07673964392455503
0.1360928574882433
0.07735367733446932
0.04677522743478099
0.09959247173177432
0.09964099936164157
0.05309554022657902
0.06340113819366792
0.1225916132520551
0.145269603029041
0.1370964570799663
0.126146563876112
0.1264336197660684
0.1259404412041202
0.1168185116219687
0.1101080659168346
0.1081783210300631
0.1080828000326197
0.1099102896827625
0.1116125592176835
0.1130665117550935
0.1105481477919429
0.1441785806376876
0.1476956464024158
0.1495419780219147
0.1264336197660437
0.1081783210300528
0.1130665117551756
0.1495419780220293
0.1261465638759965
0.1101080659168304
0.1116125592178386
0.1476956464025052
0.137096457079766
0.1168185116220484
0.1099102896829399
0.1441785806375505
0.1452696030289231
0.1259404412043806
0.1080828000327249
0.1105481477916206
0.06407987740648841
0.07676008750501195
0.1372595624979974
0.1906814637434226
0.07673964392433344
0.05739507679054742
0.1120966998890302
0.1714413269686559
0.09959247173185301
0.04677522743461225
0.07735367733421419
0.1360928574880535
0.122591613252102
0.06340113819379846
0.05309554022650137
0.09964099936144685
0.1951720516874162
0.1534810502832055
0.1187873307076804
0.08125274788197819
0.2146319531461327
0.1737137256520147
0.1371107404313668
0.09415286336893033
0.2340794925574437
0.1827905883620919
0.1483103732344685
0.1023344948592141
0.2483485586652199
0.1994539151822561
0.1602090981078718
0.1104278007128175
0.06135353772686771
0.06843316844590538
0.0670860268431786
0.06198213477844241
0.05785853499724111
0.06919620831649409
0.07409297220922056
0.07161786350567219
0.0597918747575137
0.07438506774128202
0.08503991586089528
0.08512490343685193
0.06628618916017606
0.07432826276316161
0.08688394451708693
0.08995465593271142
0.05018829794810251
0.03820781614623578
0.09561041900104193
0.384538247724714
0.05941779302977986
0.04713081691953182
0.0632476565513676
0.3076906073180479
0.07063732679325718
0.04593596128021772
0.04237361583606793
0.2314120346407274
0.07521172590865562
0.05208686077121021
0.02815896298074913
0.1680461522473886
0.5740837592698204
0.658667442029546
0.69648072812828
0.7111796423798548
0.5847696486888125
0.6635658909994498
0.7045514913094177
0.7188135551132553
0.6050302041548189
0.6709179447317677
0.7167598946655005
0.7313915194072118
0.7032317504617615
0.6750439769147973
0.7241916326243136
0.7363916959338028
0.7108226076431635
0.699897631047264
0.6919654248994922
0.683775280979312
0.7202651524731233
0.7100698745530938
0.7033653397697848
0.6957159178212347
0.7318299015722735
0.7215869536214017
0.7135743746688588
0.7054127613533284
0.736107010147913
0.7254830538493393
0.717696449492614
0.7097155098039425
0.6908294482974624
0.6983830420092074
0.7016217683954903
0.6765363540933503
0.7034540653536835
0.71302519745408
0.7243773934293768
0.7269383296581028
0.7122582219986051
0.7162139429302211
0.7097687560725785
0.7133965785209596
0.7160022947712049
0.7205592143937301
0.7241098207388237
0.7368988426282799
0.445514277597991
0.3733570589545461
0.374108224416058
0.3762979736805436
0.4772436658190423
0.3733350477229929
0.3742324684866745
0.3761835383624917
0.4907263180389551
0.3734923243472157
0.3744516812664902
0.3766413608324954
0.4977383606229555
0.3736007717311557
0.3738316238407
0.375600296167754
0.3790212646962248
0.3798400357211401
0.3787552297752409
0.3773182585367992
0.3786236459780588
0.3796117204480857
0.3780041031242631
0.3759859176006869
0.379258680939331
0.380450557537113
0.3791472551699011
0.3775687927694389
0.3782985763941813
0.379387816213366
0.377187604318947
0.3756523753902977
0.3748288493785602
0.3712948613191329
0.3863682968067566
0.451619961756736
0.3725901647677473
0.3636633581657409
0.3623265128295117
0.4223653874916662
0.375522563250494
0.3665645443248898
0.3533231900151506
0.3939255337239674
0.3730689476469083
0.3618960643836179
0.3377927761949366
0.3366734853237257
0.5119907061351467
0.5054146797965133
0.5027433013559667
0.5019485152453141
0.5181569777952322
0.510969388786328
0.5083839303106547
0.5073754037191684
0.5190424349125871
0.5128190787406331
0.5101519126529143
0.5090457470828312
0.5179927587622656
0.5131362343978493
0.5105413888381957
0.5104208933835011
0.4978599604921308
0.4930596370898211
0.4722521449063285
0.4044930557399845
0.5060330768120032
0.5039424885923077
0.497284336917966
0.4381384808263454
0.5053250436265823
0.5021774233478351
0.500540824890553
0.4685599633643094
0.5078147688966963
0.5052431392481959
0.5116757110500492
0.5260504540039687
0.3428772473318614
0.3726219656175761
0.3733192558370388
0.3733250317767373
0.3405784371158451
0.372432952166769
0.3733157442858061
0.3733250061825317
0.3400173162524605
0.3722122621741784
0.3733104081402681
0.3733249645795301
0.3388585610891737
0.3718360641402791
0.3733006733070029
0.3733248810675249
0.3733247833627438
0.3732854802914135
0.3710372247223377
0.334297661796971
0.3733247852508135
0.3732861185486024
0.3711187214124449
0.3368221208913811
0.3733247858361283
0.3732865025623097
0.3711993711534297
0.3396361222249478
0.373324804578938
0.373290708864444
0.3714763757681087
0.3430121684235398
0.3733248810655457
0.3733249645780851
0.3733250061774622
0.3733250317709789
0.3733006733079467
0.3733104081401807
0.3733157442851229
0.3733192558352449
0.3718360641392031
0.3722122621713574
0.3724329521686737
0.3726219656172738
0.3388585610891078
0.3400173162500755
0.3405784371142534
0.3428772473333878
)
;

boundaryField
{
    back
    {
        type            empty;
    }
    inlet
    {
        type            calculated;
        value           nonuniform List<scalar> 
16
(
0.3733250556165154
0.3733250556165154
0.3733250556165154
0.3733250556165154
0.3733250556165154
0.3733250556165155
0.3733250556165152
0.3733250556149081
0.3733250556153508
0.3733250556165154
0.3733250556165154
0.3733250556165151
0.3733250556165154
0.3733250556165152
0.3733250556165154
0.3733250556165154
)
;
    }
    front
    {
        type            empty;
    }
    top
    {
        type            calculated;
        value           nonuniform List<scalar> 
40
(
0.3733250728859622
0.3733251345049822
0.3733251549773595
0.3733251182370028
0.3733252940802925
0.3733256413763266
0.3733261784534874
0.3733262098373073
0.373325871086749
0.3733253708428954
0.3733251047595809
0.3733250574889461
0.3733250556489627
0.3733250556030408
0.3733250568016263
0.3733249844106771
0.3733249342747563
0.3733250268670123
0.373325342914657
0.3733259052721679
0.3733262836424594
0.3733272391916647
0.3733274187832767
0.373329332986182
0.3733298036551758
0.3733323331789311
0.3733385032751688
0.3733245948155613
0.3733498900318861
0.373356828942757
0.3733292334449383
0.3733236241913941
0.3733233959296964
0.3733232960091123
0.3733242966389321
0.3733242948214919
0.3733247872453087
0.3733249935235753
0.3733250381440212
0.3733250475925003
)
;
    }
    outlet
    {
        type            calculated;
        value           uniform 0.3733250556165154;
    }
    bottom
    {
        type            calculated;
        value           nonuniform List<scalar> 
40
(
0.3733250475932328
0.3733250381440114
0.3733249935242453
0.3733247872444652
0.3733233959329214
0.3733232960082697
0.3733242966366246
0.3733242948223363
0.3733236241918324
0.373329233440034
0.3733568289399473
0.373349890036129
0.3733298036539439
0.3733323331798106
0.3733385032767776
0.3733245948214795
0.3733293329860343
0.3733274187844107
0.3733272391906083
0.3733262836416578
0.3733249342775753
0.373325026865001
0.3733253429127696
0.3733259052703755
0.3733249844095126
0.3733250568028744
0.3733250556032482
0.3733250556488522
0.3733250574863266
0.3733251047590084
0.3733253708443264
0.3733258710879687
0.3733252940769506
0.373325641373741
0.373326178452688
0.3733262098365331
0.3733251182352743
0.3733251549766883
0.3733251345054796
0.3733250728867633
)
;
    }
    wall
    {
        type            calculated;
        value           nonuniform List<scalar> 
104
(
0.5260504540133815
0.5116757110603875
0.5052431392477656
0.507814768897769
0.5104208933821349
0.5105413888349359
0.5131362343992606
0.5179927587639557
0.336673485324428
0.3377927761961984
0.3618960643834162
0.3730689476490785
0.3756523753913068
0.377187604317213
0.3793878162147243
0.3782985763916157
0.3756002961763911
0.3738316238238525
0.3736007717365831
0.4977383606354295
0.7368988426378554
0.7241098207384881
0.7205592144017863
0.7160022947675037
0.7097155097981103
0.7176964494928985
0.7254830538497182
0.7361070101462227
0.736391695931114
0.7241916326226659
0.6750439769141304
0.7032317504621237
0.1680461522476758
0.02815896298115498
0.05208686077199522
0.07521172590966439
0.08995465593334248
0.08688394451695435
0.07432826276298007
0.06628618916047674
0.08125274788284564
0.1187873307086728
0.1534810502836292
0.1951720516877909
0.09964099936164157
0.05309554022657902
0.06340113819366792
0.1225916132520551
0.145269603029041
0.1370964570799663
0.126146563876112
0.1264336197660684
0.1264336197660437
0.1261465638759965
0.137096457079766
0.1452696030289231
0.122591613252102
0.06340113819379846
0.05309554022650137
0.09964099936144685
0.1951720516874162
0.1534810502832055
0.1187873307076804
0.08125274788197819
0.06628618916017606
0.07432826276316161
0.08688394451708693
0.08995465593271142
0.07521172590865562
0.05208686077121021
0.02815896298074913
0.1680461522473886
0.7032317504617615
0.6750439769147973
0.7241916326243136
0.7363916959338028
0.736107010147913
0.7254830538493393
0.717696449492614
0.7097155098039425
0.7160022947712049
0.7205592143937301
0.7241098207388237
0.7368988426282799
0.4977383606229554
0.3736007717311557
0.3738316238407
0.375600296167754
0.3782985763941813
0.379387816213366
0.377187604318947
0.3756523753902977
0.3730689476469083
0.3618960643836178
0.3377927761949366
0.3366734853237256
0.5179927587622656
0.5131362343978493
0.5105413888381957
0.5104208933835011
0.5078147688966963
0.5052431392481959
0.5116757110500492
0.5260504540039687
)
;
    }
}


// ************************************************************************* //
