/*--------------------------------*- C++ -*----------------------------------*\
  =========                 |
  \\      /  F ield         | OpenFOAM: The Open Source CFD Toolbox
   \\    /   O peration     | Website:  https://openfoam.org
    \\  /    A nd           | Version:  11
     \\/     M anipulation  |
\*---------------------------------------------------------------------------*/
FoamFile
{
    format      ascii;
    class       volVectorField;
    location    "7.175";
    object      U;
}
// * * * * * * * * * * * * * * * * * * * * * * * * * * * * * * * * * * * * * //

dimensions      [0 1 -1 0 0 0 0];

internalField   nonuniform List<vector> 
4455
(
(99.984288 0.33517507 0)
(99.95235 1.1992917 -1.4953935e-18)
(99.695389 2.1338102 5.1409982e-18)
(99.465896 3.1715632 2.5674281e-20)
(98.996293 4.1836778 4.8359444e-18)
(98.532404 5.5887723 -1.8338223e-17)
(97.533962 6.949683 8.1848679e-18)
(96.602059 9.0826083 0)
(93.95373 12.134314 -5.055112e-17)
(100.01171 0.38417238 -9.5925057e-18)
(99.999738 1.2877881 9.3775189e-18)
(99.75296 2.3072736 -1.1580553e-17)
(99.524806 3.3798229 1.9386747e-17)
(99.071317 4.4487252 -3.7350777e-17)
(98.621019 5.8731875 4.0870988e-17)
(97.731026 7.2183426 -3.937282e-18)
(96.677645 9.6393048 5.7447154e-18)
(93.698228 12.060818 2.2072811e-16)
(100.06148 0.41581723 -9.8527765e-18)
(100.02831 1.3688631 1.2542389e-17)
(99.828363 2.4425875 1.1345907e-17)
(99.535233 3.5349142 -1.1322993e-17)
(99.251476 4.7031733 4.9496361e-17)
(98.731331 6.2345965 -2.8119064e-17)
(97.834972 7.5425378 3.6023904e-18)
(96.896864 10.271663 -8.0549709e-17)
(93.548992 12.352074 -1.5657131e-16)
(100.09406 0.4395487 2.1411292e-19)
(100.07367 1.419792 -1.5879916e-18)
(99.86604 2.5255373 2.6501273e-17)
(99.65364 3.7337591 3.6588598e-18)
(99.319283 4.8841637 -2.1755453e-19)
(98.971692 6.5533971 -5.3406376e-18)
(98.058496 8.0335135 5.9405479e-17)
(96.920558 11.134003 1.6063245e-16)
(93.200868 13.023632 1.2991276e-16)
(100.14272 0.45780198 1.9058283e-17)
(100.09852 1.434343 -2.1440627e-17)
(99.912486 2.6268796 2.7049448e-17)
(99.758012 3.8175478 3.1458032e-20)
(99.471975 5.1168597 -3.360712e-17)
(99.092662 6.7745896 -1.0310584e-17)
(98.333159 8.2822385 -4.6836865e-17)
(97.213815 11.758311 -7.5230827e-17)
(92.9603 13.438873 -3.8268792e-16)
(100.16429 0.45162179 0)
(100.15253 1.4446937 0)
(99.949327 2.6679579 -4.7447604e-17)
(99.844477 3.9147775 -5.443319e-17)
(99.691114 5.3001718 0)
(99.335249 7.1140269 -7.3780767e-17)
(98.512019 8.7486626 -6.2876572e-18)
(97.282995 12.632745 -4.5547314e-18)
(92.699049 14.015729 4.7188305e-16)
(100.18809 0.44940492 0)
(100.17244 1.4204913 -1.2677903e-18)
(100.02693 2.7057824 1.4269564e-18)
(99.939925 3.944544 5.320303e-17)
(99.79539 5.3944414 -3.9280079e-18)
(99.578946 7.203512 1.5663005e-16)
(98.907867 8.9358436 0)
(97.621497 13.329354 0)
(92.521399 14.381158 2.1551978e-16)
(100.2236 0.42501697 3.4798594e-17)
(100.18001 1.384431 0)
(100.08212 2.7033699 0)
(100.09411 4.0223396 0)
(100.02879 5.5526604 0)
(99.734019 7.496339 -7.7920827e-17)
(99.130695 9.2716059 -8.3082161e-17)
(97.787013 14.201413 1.1943955e-16)
(92.446234 14.916215 -2.3956087e-19)
(100.23164 0.40488173 -3.4266628e-17)
(100.21494 1.326982 -1.2020159e-18)
(100.12418 2.6403143 -1.3744643e-18)
(100.16766 3.937062 3.0942962e-18)
(100.19955 5.562568 1.197547e-16)
(100.05266 7.5514867 1.3548269e-16)
(99.55197 9.430341 2.6342535e-16)
(98.154926 14.83036 -1.1724755e-16)
(92.529472 15.49 -3.6849797e-16)
(100.244 0.37478997 0)
(100.24467 0.35144227 6.2357741e-17)
(100.22642 0.30845973 -6.1860795e-17)
(100.22386 0.2758585 5.868065e-17)
(100.19661 0.23255667 -5.7363094e-17)
(100.17401 0.18577029 1.1373666e-16)
(100.14202 0.14524211 -1.1041461e-16)
(100.10609 0.096455858 0)
(100.03792 0.041232182 0)
(100.22987 1.267384 0)
(100.25881 1.1955874 1.0882523e-18)
(100.29319 1.1242959 0)
(100.28815 1.0091151 3.0739588e-18)
(100.31901 0.9292605 6.2226977e-17)
(100.32585 0.81677245 -1.8533668e-16)
(100.31267 0.70603737 1.1981796e-16)
(100.35964 0.60923211 -1.8185046e-18)
(100.27227 0.39806985 1.1443918e-16)
(100.21378 2.647478 8.0105362e-17)
(100.25891 2.573338 -1.573965e-16)
(100.34654 2.5115573 1.4934697e-16)
(100.42132 2.3955109 -5.0774361e-18)
(100.45915 2.2491622 -6.9850973e-17)
(100.5791 2.1272166 -2.1101384e-18)
(100.56114 1.9136023 0)
(100.71013 1.7793152 3.9396445e-18)
(100.66335 1.3988561 -1.9059716e-18)
(100.28946 3.9782518 8.4023965e-17)
(100.43544 3.9733117 -1.7021389e-16)
(100.51264 3.893875 1.6083681e-16)
(100.69344 3.861305 -7.7694257e-17)
(100.73351 3.6998155 -4.8225075e-18)
(100.92781 3.621057 2.3058645e-18)
(100.942 3.4209275 0)
(101.16007 3.2992673 -2.146239e-18)
(101.09725 2.9408572 1.284051e-16)
(100.36347 5.6330534 -9.6194663e-17)
(100.65756 5.7626132 0)
(100.8093 5.7248727 -8.7028669e-17)
(101.1212 5.7634261 8.9747136e-17)
(101.25001 5.6327933 -7.9969236e-17)
(101.56597 5.60211 8.2644997e-17)
(101.65023 5.3808939 0)
(101.99766 5.2758014 0)
(101.98438 4.8440852 4.5660792e-18)
(100.20016 7.767649 -1.1819431e-16)
(100.58921 8.0500078 -1.1120584e-16)
(100.7596 8.2092977 1.0689813e-16)
(101.14444 8.403818 1.0078722e-16)
(101.32662 8.4837905 -9.7155755e-17)
(101.71188 8.5868832 0)
(101.89562 8.5946098 1.7536738e-16)
(102.36033 8.6115572 -1.8412313e-18)
(102.38113 8.4119281 -3.224365e-16)
(99.850189 9.6053021 -1.3921176e-16)
(100.38728 10.015423 0)
(100.80103 10.100469 0)
(101.40231 10.443099 3.6454762e-18)
(101.84012 10.383188 0)
(102.37909 10.629265 0)
(102.75948 10.44531 0)
(103.27005 10.6805 0)
(103.573 10.3285 0)
(98.522338 15.665296 5.5132011e-18)
(99.173173 16.921299 0)
(99.609566 17.384733 4.6987473e-18)
(100.37847 18.094172 -8.5758847e-18)
(101.02027 17.992785 -1.2535263e-16)
(101.78117 18.161201 -1.160366e-16)
(102.40635 17.738157 2.2561596e-16)
(103.11773 17.688767 2.1328497e-16)
(103.75614 17.071344 -2.0189807e-16)
(93.119591 16.414578 6.7197248e-16)
(94.747515 17.111181 -4.2517035e-16)
(96.958191 16.803685 3.5633472e-16)
(99.683856 16.304532 -3.4852968e-16)
(101.58265 15.972382 -4.6389384e-16)
(103.64975 15.966175 8.5044723e-16)
(104.92741 16.237662 -5.3278383e-16)
(106.30753 16.322168 -2.4394688e-16)
(107.28668 16.406964 2.2945116e-16)
(100.07089 0.072931745 -1.5073304e-19)
(100.11553 0.10000632 1.5421399e-16)
(100.19207 0.14145169 -2.1144282e-19)
(100.29606 0.19035216 -1.5518907e-16)
(100.42377 0.24257131 1.511804e-19)
(100.57873 0.29666817 1.5534591e-16)
(100.76209 0.35176968 -1.5610073e-16)
(100.97594 0.40769011 -1.5119016e-19)
(101.23956 0.48183462 -7.7855068e-17)
(100.38686 0.45163264 -1.6424878e-16)
(100.4648 0.62433364 1.6498695e-16)
(100.65656 0.64115761 -1.6509444e-16)
(100.80606 0.85993692 0)
(101.06552 0.85573823 1.6522068e-16)
(101.25894 1.1225345 -4.31546e-19)
(101.5893 1.0762603 -3.6803343e-19)
(101.85839 1.3711631 -1.6503141e-16)
(102.24135 1.2781906 8.2314586e-17)
(100.88932 1.521019 1.7504122e-16)
(100.97405 1.8388898 -1.7573664e-16)
(101.2882 1.9171714 -1.7595441e-16)
(101.41197 2.2677331 1.7637879e-16)
(101.76479 2.3217678 -1.7665168e-16)
(101.92837 2.6895601 1.7604541e-16)
(102.32817 2.7256613 -1.7636552e-16)
(102.53888 3.1335008 6.8905615e-19)
(102.99626 3.1427651 1.7586215e-16)
(101.43282 3.0830252 -1.8774386e-16)
(101.54027 3.4722275 -7.3540786e-19)
(101.92492 3.5615277 7.3797869e-19)
(102.07049 3.9817199 0)
(102.50101 4.0529512 -5.5822254e-22)
(102.69279 4.5048617 -1.8685046e-16)
(103.16527 4.5517938 1.8994692e-16)
(103.40378 5.027984 7.3280993e-19)
(103.91296 5.0350137 7.308791e-19)
(102.37245 5.0563844 -7.9375642e-19)
(102.52562 5.5955697 -2.0346898e-16)
(102.97223 5.760782 4.0462965e-19)
(103.17177 6.3396702 2.0440006e-16)
(103.64125 6.4690457 2.0366779e-16)
(103.84767 7.0115132 -2.0470148e-16)
(104.34908 7.1006565 -7.9177556e-19)
(104.58704 7.6396231 -7.9033245e-19)
(105.12417 7.6703372 -7.8879188e-19)
(102.86682 8.6610724 2.2052089e-16)
(103.08167 9.157173 0)
(103.5051 9.2908024 0)
(103.71287 9.6897513 2.1732762e-16)
(104.15686 9.7358694 -2.2024738e-16)
(104.41291 10.086168 -2.1828503e-16)
(104.8983 10.102118 4.35596e-16)
(105.15485 10.424218 -1.7251411e-18)
(105.65926 10.439971 -4.33657e-16)
(103.99577 10.637075 -9.3694062e-19)
(104.50131 10.992168 0)
(104.93397 11.244959 9.2785868e-19)
(105.45836 11.567583 2.4190204e-16)
(105.95901 11.712798 -2.4330693e-16)
(106.36898 12.011899 2.4019522e-16)
(106.82027 12.112525 -2.4071311e-16)
(107.18334 12.450267 -9.0462476e-19)
(107.62687 12.570134 2.3680172e-16)
(104.17185 17.139324 -2.5538198e-16)
(104.53092 17.160457 2.5873063e-16)
(104.97976 17.128629 -2.5551092e-16)
(105.46511 17.206087 2.5420719e-16)
(105.96192 17.260542 -2.4819932e-16)
(106.44721 17.350038 2.2750922e-18)
(106.83452 17.415937 2.493645e-16)
(107.18829 17.309953 1.9374475e-18)
(107.57939 17.094974 1.2197515e-16)
(108.61488 16.533804 0)
(109.55995 17.060839 -2.7411378e-16)
(110.13325 17.642089 4.5337759e-18)
(110.86203 18.166592 5.5284817e-18)
(111.38055 17.942903 5.358296e-16)
(111.86938 17.655415 -2.6667695e-16)
(112.38499 16.870342 -2.6079307e-16)
(113.16242 15.900857 2.6194195e-16)
(113.9234 14.571315 1.2957723e-16)
(114.28263 13.014772 -1.51175e-16)
(114.53767 11.491135 0)
(114.7058 10.826659 1.5081703e-16)
(114.45157 10.121169 -1.5081616e-16)
(113.95952 10.108794 0)
(113.18012 9.6653717 0)
(112.45187 9.8300442 0)
(111.28864 9.286042 -1.6731961e-16)
(110.35165 9.488024 1.6736599e-16)
(107.87591 16.761299 -1.3890583e-16)
(108.21963 16.298634 0)
(108.46837 15.947055 0)
(108.68675 15.512489 0)
(108.8158 15.176144 0)
(108.88372 14.751996 0)
(108.75535 14.555261 0)
(108.63516 14.349105 1.3618555e-16)
(108.35199 14.314257 -2.7340551e-16)
(107.94537 12.875822 -2.2674399e-18)
(108.32166 13.121437 -2.5807054e-16)
(108.56224 13.324538 0)
(108.86816 13.481158 -1.260284e-16)
(109.05936 13.603217 1.2602696e-16)
(109.30669 13.686745 0)
(109.41924 13.756315 0)
(109.574 13.842536 0)
(109.60174 13.902142 0)
(105.92195 10.743474 2.323988e-16)
(106.46937 10.86869 0)
(106.74097 11.187628 1.132771e-16)
(107.30402 11.315713 -2.2556298e-16)
(107.56805 11.646536 1.1228456e-16)
(108.11659 11.766916 0)
(108.3417 12.105272 0)
(108.85371 12.213341 0)
(109.03351 12.563711 1.0786183e-16)
(105.38474 8.2069943 0)
(105.92379 8.2700796 2.0886826e-16)
(106.20336 8.78186 -3.1239196e-16)
(106.73666 8.8204129 1.0352374e-16)
(107.0585 9.3139992 1.0165254e-16)
(107.5636 9.3506686 -9.5159316e-19)
(107.93474 9.8174621 -2.0045042e-16)
(108.40603 9.8604009 1.9854385e-16)
(108.77836 10.333216 -9.8794313e-17)
(104.18164 5.5405816 0)
(104.74877 5.5568756 9.5629852e-17)
(105.06542 6.0937747 -9.5641612e-17)
(105.67149 6.0794917 0)
(106.02442 6.6223279 -1.8620229e-16)
(106.64344 6.5789376 1.8621898e-16)
(107.04052 7.1159999 9.1243877e-17)
(107.65275 7.0764203 -1.8150759e-16)
(108.11364 7.5595852 9.0263198e-17)
(103.24425 3.5912214 0)
(103.75724 3.5965317 0)
(104.0487 4.078273 0)
(104.61127 4.0601246 -8.715235e-17)
(104.94568 4.5685497 1.7355459e-16)
(105.54747 4.5257786 -1.7200897e-16)
(105.92291 5.0531775 8.5606339e-17)
(106.56662 4.985608 -8.3899031e-17)
(106.98312 5.534356 1.66884e-16)
(102.53638 1.5885197 -1.6639976e-16)
(102.98934 1.4869443 5.9314261e-19)
(103.35137 1.8583272 8.234617e-17)
(103.86148 1.7252221 -8.10303e-17)
(104.28461 2.12597 8.1029803e-17)
(104.84361 1.9516409 0)
(105.31714 2.3685114 7.8745997e-17)
(105.92695 2.1592438 -1.5663522e-16)
(106.45793 2.6041432 7.7891979e-17)
(101.4238 0.55223277 4.4473131e-19)
(101.7017 0.6191891 7.8486268e-17)
(102.14244 0.78618677 7.7484788e-17)
(102.44643 0.8401854 -7.7484795e-17)
(102.90612 0.98347776 0)
(103.2677 1.0152036 0)
(103.78445 1.1574549 -7.5181544e-17)
(104.23388 1.1912472 1.4965043e-16)
(104.82662 1.3482369 -7.4468859e-17)
(105.37792 1.3780108 0)
(106.02273 1.5452312 -7.1959749e-17)
(106.67155 1.5912532 9.5366356e-19)
(107.36853 1.7292989 1.0133225e-18)
(108.08688 1.7917979 1.0863231e-18)
(108.86472 1.9331297 6.8906435e-17)
(109.66171 1.9877806 6.6508062e-17)
(110.5131 2.1280024 -6.6508065e-17)
(111.40949 2.1970886 0)
(107.1282 2.3602967 0)
(107.70958 2.8370156 0)
(108.43333 2.5692671 -7.3961049e-17)
(109.07178 3.0418067 1.1256624e-18)
(109.8312 2.8554955 1.1854495e-18)
(110.55595 3.1841707 7.1655742e-17)
(111.35155 3.1500761 6.9088572e-17)
(112.1132 3.4144231 -6.9088558e-17)
(112.99709 3.4299724 0)
(107.66386 5.4439377 -8.298172e-17)
(108.14545 6.0211491 0)
(108.82678 5.9273505 0)
(109.42086 6.4870035 -7.8791953e-17)
(110.10407 6.4803066 1.5640799e-16)
(110.71282 6.9409668 -1.245276e-18)
(111.51615 7.0650191 -1.3003427e-18)
(112.10404 7.4413723 -7.5070406e-17)
(112.98504 7.663182 0)
(108.70443 7.5953403 -8.820152e-17)
(109.20927 8.0097953 8.8201494e-17)
(109.84851 8.0793178 0)
(110.32059 8.5283057 0)
(111.04593 8.5973335 8.3624828e-17)
(111.49491 9.0189045 -8.362482e-17)
(112.26874 9.2185536 8.1066065e-17)
(112.74942 9.5831214 -4.1215419e-17)
(113.54932 9.827548 -3.985063e-17)
(109.2874 10.367929 -9.6858598e-17)
(109.59835 10.880236 9.6858576e-17)
(110.179 10.929472 0)
(110.46054 11.477952 0)
(111.03314 11.552005 0)
(111.35921 12.148129 0)
(111.92443 12.274426 0)
(112.22593 12.926779 0)
(112.88064 13.09299 0)
(109.50774 12.683382 -1.078638e-16)
(109.63909 13.048244 1.0636809e-16)
(110.09698 13.19113 -1.0637767e-16)
(110.18441 13.596637 1.0494264e-16)
(110.64837 13.802977 -1.049384e-16)
(110.67669 14.273876 0)
(111.15523 14.564612 0)
(111.13085 15.122285 0)
(111.6501 15.49488 0)
(109.6807 14.016308 0)
(109.60862 14.128156 -1.2209899e-16)
(109.67039 14.331309 1.2220214e-16)
(109.50192 14.510518 0)
(109.55544 14.825548 1.2254424e-16)
(109.26383 15.130823 -1.2262057e-16)
(109.34419 15.548702 0)
(108.9825 16.048094 6.1599544e-17)
(109.1001 16.585756 -1.2328189e-16)
(108.11321 14.2395 1.3719124e-16)
(107.67505 14.331356 1.3992914e-16)
(107.35751 14.405147 -1.3994447e-16)
(106.73347 14.645766 1.432824e-16)
(106.39771 14.900109 -2.8837396e-16)
(105.641 15.313216 2.9206973e-16)
(105.29584 15.741279 -2.9592002e-16)
(104.38728 16.337665 1.4894373e-16)
(104.04729 16.937221 0)
(108.83523 8.8224943 -1.7605581e-16)
(107.79902 9.1346378 1.7617403e-16)
(106.17639 8.5420959 0)
(105.09525 9.1252384 0)
(103.43894 8.6240476 0)
(102.20017 9.4184374 0)
(100.6886 9.0755137 0)
(99.13734 10.023006 -1.0356525e-16)
(97.787824 10.03823 1.0356375e-16)
(95.865438 11.199982 1.0823438e-16)
(103.01143 17.766205 0)
(108.66094 17.301244 6.1681982e-17)
(111.59142 16.180458 0)
(113.18611 13.850949 0)
(114.10099 10.270406 0)
(113.64768 8.0371167 3.5351722e-17)
(113.8151 3.634656 3.2337029e-17)
(112.31633 2.3272758 3.1136214e-17)
(94.568383 11.699458 -1.0823179e-16)
(102.71953 18.558074 0)
(108.84446 17.958151 0)
(112.20168 16.634145 4.9810976e-17)
(113.82891 14.04926 0)
(114.89018 10.547779 -3.7565185e-17)
(114.56188 8.232502 -6.9884601e-17)
(114.7404 3.7729357 -6.384959e-17)
(113.31263 2.407291 -6.1470025e-17)
(92.485563 13.269831 0)
(101.59692 19.673944 0)
(108.39199 18.952938 6.1698745e-17)
(112.12977 17.481858 -4.9812374e-17)
(114.28897 14.911347 0)
(115.58897 10.97012 3.756518e-17)
(115.29515 8.7146019 3.4532723e-17)
(115.63283 3.9514605 3.1512424e-17)
(114.30377 2.5364176 3.0333805e-17)
(91.32023 14.24328 1.15135e-16)
(101.4025 20.66856 0)
(108.64743 19.72013 -1.2327282e-16)
(112.86852 18.008264 0)
(114.92434 15.173852 0)
(116.35069 11.405783 -3.57819e-17)
(116.30824 8.8720837 -3.2753885e-17)
(116.659 4.0618101 0)
(115.40098 2.6123423 -2.8563554e-17)
(89.203685 16.115456 -1.1513421e-16)
(100.25244 22.124395 -8.0864287e-17)
(108.23292 21.009749 6.1569659e-17)
(112.81753 19.047617 0)
(115.47428 16.144558 0)
(117.21165 11.756441 3.5781891e-17)
(117.05062 9.3418312 3.2753758e-17)
(117.57404 4.330687 0)
(116.46237 2.738082 2.8563551e-17)
(88.266161 17.428606 0)
(100.18917 23.304879 8.0863076e-17)
(108.60679 21.889168 -6.0958765e-17)
(113.70703 19.617313 0)
(116.21765 16.431521 0)
(117.98924 12.305552 -3.3711988e-17)
(118.24099 9.5781297 -3.0737708e-17)
(118.69917 4.4591906 0)
(117.66409 2.8263935 -2.655915e-17)
(86.095204 19.812543 0)
(99.065505 25.128056 0)
(108.28651 23.494691 6.0958697e-17)
(113.7704 20.906258 -2.3118812e-17)
(116.87684 17.542024 -1.9228877e-17)
(119.03852 12.694868 4.9990624e-17)
(118.9525 10.042631 4.5553864e-17)
(119.68968 4.6853852 0)
(118.80819 2.943984 3.9291035e-17)
(85.25779 21.643636 0)
(99.191912 26.488098 -4.0800787e-17)
(108.81387 24.4779 0)
(114.73602 21.458985 2.3108924e-17)
(117.68726 17.853422 1.9222737e-17)
(119.80428 13.209192 -6.2755307e-19)
(120.32204 10.226181 -2.9038897e-17)
(120.89671 4.8627497 0)
(120.0993 3.018037 -1.2731887e-17)
(83.158011 25.075511 -6.1025492e-17)
(98.155961 28.845776 4.0790227e-17)
(108.67272 26.557268 0)
(115.14276 23.116137 0)
(118.61405 19.121536 0)
(121.10499 13.700809 -3.0627499e-17)
(121.09977 10.702229 6.3285529e-19)
(121.92634 5.101174 0)
(121.31026 3.1158341 0)
(122.91275 3.1841088 0)
(123.24792 5.2401978 0)
(122.60801 10.944936 -1.4272891e-19)
(121.90513 14.170005 1.5696958e-17)
(119.43675 19.372038 0)
(116.09827 23.496788 -2.8954025e-18)
(109.48601 27.423582 -6.988149e-19)
(98.74876 30.283973 -3.3599606e-17)
(82.885676 27.972581 1.1338687e-16)
(124.35803 3.1886734 -5.1945659e-18)
(124.30256 5.355348 -7.1814571e-19)
(123.48279 11.081812 6.8454388e-18)
(123.38425 14.416972 -5.468457e-20)
(120.84896 20.323851 -7.141527e-18)
(117.16239 24.976774 9.9610585e-18)
(110.11445 29.614953 -3.8615109e-18)
(98.596189 33.317082 4.3031065e-17)
(82.230648 33.16458 -5.7517519e-17)
(125.77858 3.1659732 1.0125041e-17)
(125.7287 5.3823931 0)
(125.22924 11.341702 1.1962974e-17)
(124.35089 14.742019 -6.3877585e-18)
(121.86842 20.528364 7.195638e-18)
(118.33564 25.30892 -1.8512186e-17)
(111.60711 30.298308 -1.6794178e-17)
(100.8083 34.420501 9.6131032e-18)
(85.629729 35.127967 1.8919659e-18)
(127.25025 3.1361393 -4.9363967e-18)
(126.85569 5.4319055 -6.405388e-19)
(126.20583 11.360963 -5.1596261e-18)
(126.0266 15.056705 7.302077e-18)
(123.68773 21.427832 2.7562016e-18)
(120.00201 26.791209 9.714057e-18)
(113.00177 32.643957 1.3264952e-17)
(101.47386 37.477132 5.2362575e-18)
(86.157816 39.660218 -5.9974558e-18)
(128.77223 3.0997193 1.0384541e-18)
(128.37126 5.4271578 -1.1124152e-18)
(128.00911 11.562679 -6.6408441e-19)
(127.11311 15.163026 2.112052e-18)
(124.86075 21.515147 -2.7643113e-18)
(121.39558 26.947579 -3.1734367e-18)
(114.86877 33.060479 -3.4921928e-18)
(104.20749 38.249102 3.9428949e-18)
(89.304386 41.137567 -7.579059e-18)
(130.31269 3.0454419 -1.049985e-18)
(129.58938 5.4203566 1.1257902e-18)
(129.20832 11.478143 -6.1086743e-19)
(129.01512 15.424757 -3.3855481e-20)
(126.98265 22.329757 -7.8086539e-19)
(123.45493 28.346451 2.1622845e-18)
(116.60381 35.386218 -3.3243743e-18)
(105.22304 41.286896 3.7626376e-18)
(89.958558 45.073885 0)
(131.84501 2.9626103 -8.3486023e-19)
(131.18458 5.3695647 -4.9555712e-19)
(130.98147 11.573183 -4.8995938e-19)
(130.20294 15.422274 -6.4779419e-19)
(128.30153 22.163299 -7.006687e-19)
(124.98512 28.313965 2.1655827e-18)
(118.71086 35.52482 -5.5562065e-18)
(108.08296 41.762718 8.2627372e-18)
(93.236478 46.04377 -5.4423224e-18)
(133.34743 2.8469354 2.2966607e-18)
(132.41443 5.2955915 1.5997132e-18)
(132.32123 11.238136 2.347697e-18)
(132.24992 15.49564 2.5407728e-18)
(130.63023 22.845669 2.1553566e-18)
(127.39249 29.55754 -8.0022714e-19)
(120.79015 37.784242 -2.9184913e-18)
(109.50914 44.781698 -1.1678227e-18)
(94.27309 49.665873 -6.3655977e-18)
(134.80715 2.7052959 -3.9190629e-18)
(134.07082 5.1187843 -1.6196528e-18)
(134.06437 11.307319 -5.3180808e-18)
(133.50268 15.316214 -1.5718105e-18)
(132.08179 22.380311 3.6127968e-18)
(129.05989 29.257119 2.4550453e-18)
(123.08014 37.600422 -1.2990406e-17)
(112.5681 44.927455 3.0498918e-18)
(97.616399 50.257737 1.1882765e-17)
(98.998315 53.702471 -1.0912837e-17)
(114.45491 47.927161 3.9652986e-18)
(125.65575 39.711389 1.7404135e-17)
(131.82195 30.263222 -2.1046239e-18)
(134.5118 22.951762 1.2991777e-19)
(135.69571 15.120425 1.9667816e-18)
(135.57512 10.742947 3.4654618e-18)
(135.24846 4.993953 -1.5457307e-19)
(136.23925 2.534277 4.5964829e-18)
(102.44667 54.00143 3.9472969e-17)
(117.75049 47.704365 2.3959708e-18)
(128.09948 39.144915 -2.1194937e-17)
(133.56547 29.683255 -4.6955878e-19)
(136.22762 22.07004 -3.0905508e-18)
(136.9321 14.779183 -2.5055937e-18)
(137.10246 10.645438 -4.1560263e-18)
(136.88656 4.6635019 0)
(137.60485 2.3334078 -1.9995338e-18)
(104.10107 57.35622 -5.0184156e-17)
(120.11564 50.671528 2.3174719e-17)
(131.19613 41.010086 1.028355e-17)
(136.64458 30.348123 -3.399238e-19)
(138.59594 22.431595 3.4836679e-18)
(139.23442 14.303143 1.1540138e-20)
(138.72537 9.844609 1.65912e-18)
(138.01769 4.4918624 2.2904798e-18)
(138.8857 2.0996629 2.0154109e-18)
(107.57753 57.352217 -8.7757197e-18)
(123.61361 50.05548 3.5003529e-19)
(133.71569 40.014266 -1.3596031e-18)
(138.53166 29.390148 0)
(140.50077 21.114103 -3.4977863e-18)
(140.37325 13.743012 0)
(140.08264 9.545289 2.5859127e-18)
(139.492 3.9968767 -3.8375382e-18)
(140.06118 1.8367403 -9.8990283e-19)
(109.63612 60.666129 -2.9742021e-18)
(126.54342 52.961471 -1.3105678e-17)
(137.34709 41.504386 9.3568107e-19)
(141.79507 29.582266 0)
(142.79734 21.173074 3.7563004e-19)
(142.72698 12.949173 -2.0240852e-19)
(141.69059 8.5682616 4.2643185e-20)
(140.53514 3.7286432 1.879253e-18)
(141.11022 1.5438326 -1.0625451e-18)
(113.33058 60.296531 -3.0400145e-17)
(130.25482 51.842218 -4.7528561e-18)
(139.87575 39.990533 -5.4857229e-19)
(143.73329 28.202366 7.3345221e-20)
(144.7552 19.446204 2.0966288e-18)
(143.67525 12.06072 1.8738911e-18)
(142.75636 7.9829983 -3.9447046e-20)
(141.76636 3.0731205 -4.1856118e-19)
(142.00823 1.2263081 0)
(115.93948 63.667275 2.105048e-17)
(133.6359 54.471458 6.8421787e-18)
(144.02863 40.958846 -4.7983996e-19)
(147.06509 27.877543 4.6498872e-19)
(146.961 19.065124 -2.2874902e-18)
(145.92361 10.96061 -1.9127949e-18)
(144.31474 6.8554887 -8.9076101e-20)
(142.66219 2.6780893 8.1616738e-20)
(142.73166 0.88455053 0)
(119.86475 62.861826 0)
(137.8932 52.949223 7.2677931e-19)
(146.45882 38.796532 -6.1962523e-19)
(148.9533 26.003554 1.7286313e-17)
(148.70126 17.055876 3.8275019e-19)
(146.6518 9.7956695 -9.2923371e-18)
(145.01489 6.0334608 6.5334621e-18)
(143.55884 1.9513637 -5.0874177e-18)
(143.26292 0.52269737 -4.9034645e-18)
(123.28619 66.292561 1.8687612e-17)
(141.59858 54.991894 -2.63479e-17)
(150.97653 39.107306 1.2362365e-18)
(152.24576 25.126899 -1.8090249e-17)
(150.90259 16.093392 4.3589046e-19)
(148.70805 8.3724548 9.2855002e-18)
(146.33924 4.7214109 -7.0675478e-18)
(144.20148 1.3846118 5.3670684e-18)
(143.58562 0.16452175 -1.3428358e-18)
(143.67958 -0.10329788 6.2666381e-18)
(144.73246 0.55345754 -8.2643284e-18)
(146.67013 3.6991171 0)
(149.12164 7.0262328 9.5611494e-19)
(152.13681 13.750304 -2.1520272e-17)
(153.95044 22.588785 -2.7955823e-17)
(153.36115 36.050563 0)
(146.74593 52.788529 -1.4069305e-17)
(127.84333 64.661415 -1.7905648e-17)
(143.74308 -0.27380828 0)
(145.03796 -0.1059147 8.5385309e-18)
(147.64319 2.1817991 0)
(150.82488 5.0647347 1.1590302e-18)
(154.33352 11.894056 4.4054376e-17)
(157.23135 20.64636 3.0824502e-17)
(158.40263 34.97025 -4.72037e-17)
(151.60367 53.826126 3.7892715e-17)
(133.6956 68.536907 -1.9601221e-17)
(143.38168 -0.63806095 0)
(144.96207 -0.9703634 0)
(147.46263 1.0224748 1.4330607e-17)
(150.78244 3.4705565 0)
(154.83159 9.3396871 -2.4966066e-17)
(158.43598 17.327742 3.9539984e-17)
(160.70341 30.667926 4.2925371e-17)
(157.68401 50.241232 3.7968574e-18)
(139.39501 65.315856 -2.2225744e-17)
(142.85075 -1.0846019 0)
(144.84817 -1.782173 0)
(147.9331 -0.54572473 -1.4629292e-17)
(151.9447 1.3460783 -2.0410686e-17)
(156.61324 7.1179138 -3.0834901e-17)
(161.12781 14.868341 -4.3060419e-17)
(165.08152 28.395397 0)
(162.62452 49.690968 -9.0147007e-17)
(147.44125 68.607774 4.5541685e-17)
(141.86367 -1.1928017 -1.6675638e-19)
(144.22761 -2.6415963 1.8057807e-19)
(147.21263 -1.6781318 0)
(151.28709 -0.35673003 -1.2322943e-18)
(156.41332 4.3311399 6.8635112e-17)
(161.59379 11.096438 -2.6778043e-18)
(166.74743 23.024318 -7.193037e-17)
(168.49162 44.544978 9.9113794e-17)
(153.7647 63.476484 -1.1604315e-16)
(140.90326 -1.4163439 1.7060075e-19)
(143.77563 -3.5374769 -1.8502135e-19)
(147.14481 -3.1836345 0)
(151.93254 -2.4573261 2.6022534e-17)
(157.45018 2.1605069 -3.9627296e-17)
(163.40518 8.468014 2.9181326e-18)
(169.94224 19.781234 7.4400629e-17)
(172.73002 42.167971 0)
(164.54399 65.311839 1.1628412e-16)
(139.34511 -1.4927413 -1.7031921e-19)
(142.62536 -4.3467616 -1.3006873e-17)
(145.79938 -4.1836416 6.4644312e-19)
(150.68722 -4.2085113 -2.4990229e-17)
(156.6298 -0.80117038 -4.0611398e-17)
(162.93174 4.5689351 0)
(170.46809 13.755017 0)
(177.10811 35.228101 1.4107499e-16)
(171.20952 58.147729 0)
(137.84882 -1.7497863 0)
(141.84774 -5.2765849 1.3464196e-17)
(145.24351 -5.5673168 0)
(150.83505 -6.1691677 2.8753797e-17)
(156.93106 -2.7823897 3.7354408e-17)
(163.79473 2.1647087 -5.9881246e-17)
(171.88111 10.439378 0)
(179.37412 30.810014 -1.57569e-16)
(185.15847 57.078145 2.8268214e-16)
(135.73974 -1.8235382 0)
(140.19371 -5.9803679 0)
(143.20191 -6.4428221 6.6580074e-19)
(148.90008 -8.1712551 1.2762676e-18)
(155.4428 -6.0311995 -2.2622782e-18)
(162.37221 -2.3153519 6.1806002e-17)
(171.02759 3.2515694 0)
(181.11928 18.821645 0)
(188.48453 44.179003 -2.8388926e-16)
(132.91237 -2.2368204 2.8603335e-19)
(139.14848 -7.0370768 1.1473794e-19)
(142.55416 -7.4914399 -1.6088228e-17)
(149.02564 -9.5235297 0)
(155.36293 -7.3742766 0)
(163.51706 -2.8406001 4.1004823e-18)
(172.04645 3.2125067 8.411447e-17)
(181.49016 20.823275 -3.4396232e-18)
(200.56894 48.864386 0)
(130.80152 -2.4701992 2.5342934e-19)
(137.5215 -7.6390028 1.1461698e-19)
(140.52611 -8.2936101 1.4641948e-17)
(147.6616 -11.072558 0)
(155.51956 -8.3905805 0)
(164.01756 -4.7451534 -4.1869695e-18)
(174.84062 3.8833518 -2.6002666e-16)
(186.23213 24.637091 3.6379722e-18)
(196.51633 48.2026 -5.8306917e-16)
(128.42528 -2.6086844 0)
(136.31976 -8.743968 -2.0178458e-17)
(139.927 -9.4427081 0)
(147.95327 -12.708264 -1.8526023e-18)
(155.53953 -10.573276 2.0219714e-18)
(166.52457 -5.9083008 4.4439069e-18)
(177.03892 2.0943588 3.6437991e-16)
(188.14689 22.883311 -4.0259315e-18)
(182.60441 51.163171 5.5559558e-16)
(125.86836 -2.7253982 -3.9669665e-18)
(134.46171 -9.2827548 1.9349524e-17)
(137.90252 -10.467093 -2.4377071e-17)
(146.66577 -14.87301 -4.8707559e-17)
(156.10344 -12.459064 8.1268816e-17)
(167.16024 -8.8026178 -1.2724023e-16)
(181.03805 0.84441891 -1.935646e-16)
(190.58579 22.930188 -3.4946177e-16)
(162.90355 63.017371 0)
(123.20073 -2.8417964 5.2117205e-18)
(133.02667 -10.482575 -1.571227e-17)
(137.17563 -11.772437 2.35806e-17)
(146.77395 -16.547436 -4.1581844e-19)
(156.51803 -14.81486 -7.8348305e-17)
(170.1331 -10.7306 -5.5072785e-18)
(182.35749 -1.186254 0)
(190.16854 24.539636 3.3128241e-16)
(128.42474 83.504391 0)
(120.45903 -2.9540554 5.9731869e-19)
(130.81055 -10.877009 1.513777e-17)
(134.82218 -12.745103 -2.073357e-17)
(145.11869 -18.905728 4.686337e-17)
(156.2082 -16.85227 3.090012e-18)
(170.05857 -13.75692 1.2349418e-16)
(184.37826 -2.5405076 -2.1912439e-16)
(187.99654 27.177578 -4.0455948e-16)
(106.73489 99.412693 4.1342926e-16)
(117.65559 -3.028495 -1.5359029e-18)
(129.01413 -12.11693 -2.9403323e-19)
(133.84284 -13.998772 1.9378716e-17)
(144.77867 -20.537419 -1.8013351e-18)
(156.56715 -19.692584 1.9435116e-18)
(172.68342 -15.891105 1.3791035e-16)
(184.41605 -4.6831954 4.4742246e-16)
(181.89791 27.150245 3.8381668e-16)
(42.015947 57.290562 -3.916114e-16)
(114.75696 -2.9736179 2.4588964e-20)
(126.56438 -12.270469 -2.6389286e-20)
(131.17062 -14.864939 -1.4685822e-17)
(142.66777 -22.956132 -4.1371297e-17)
(155.61383 -22.04956 7.6367847e-17)
(172.08197 -19.524223 -2.7269919e-16)
(184.52199 -6.9938649 -4.652232e-16)
(167.86423 24.936526 -4.0069279e-16)
(-10.019584 15.444085 4.12435e-16)
(112.46634 -2.8160428 1.0064359e-17)
(124.54465 -13.397243 1.4917708e-19)
(129.9039 -16.103892 1.9365408e-18)
(141.91384 -24.378984 4.0125006e-17)
(156.19716 -24.29236 -7.0731303e-17)
(173.50306 -21.85695 1.3730917e-16)
(182.11841 -9.8448442 2.3134425e-16)
(144.82073 24.679923 3.8193788e-16)
(-17.325236 32.945557 -3.929724e-16)
(-25.425233 33.733177 -6.610387e-16)
(131.8693 24.312164 -4.3511064e-18)
(179.13543 -11.504872 4.2817286e-18)
(172.30976 -24.942235 -3.6547968e-18)
(154.31271 -27.17087 0)
(139.72554 -26.516504 4.3594933e-19)
(127.16779 -16.802573 2.3148621e-17)
(121.76033 -13.560963 2.9429458e-18)
(109.74626 -2.6054138 -2.3172722e-17)
(-28.019358 39.400303 6.4159645e-16)
(123.6787 20.375507 0)
(177.81443 -15.935863 0)
(172.6724 -28.160545 3.5457307e-16)
(153.99661 -29.761079 0)
(137.89925 -28.0365 -7.5440887e-17)
(125.63485 -17.784981 -2.7592307e-17)
(119.55358 -14.371486 -2.7365867e-18)
(106.84733 -2.2817821 -1.8443607e-17)
(-33.386493 39.618131 5.1815213e-18)
(113.04895 21.209401 -4.1755135e-18)
(174.31438 -16.862443 0)
(170.84835 -30.694566 -3.4676237e-16)
(152.26853 -31.828963 0)
(135.75954 -29.472974 7.4530832e-17)
(122.81163 -18.204558 1.6264879e-17)
(116.64384 -14.388569 -3.4139131e-20)
(103.96554 -2.1471385 3.111364e-17)
(-36.235277 44.00415 1.2141492e-15)
(105.12693 17.157433 -1.1337091e-15)
(172.13263 -21.264538 6.3342722e-18)
(170.32356 -33.663904 0)
(150.89929 -34.576676 -1.5833164e-16)
(133.18643 -30.874945 0)
(121.09998 -18.935922 -2.496222e-21)
(114.21902 -15.155004 -9.145964e-20)
(101.4205 -1.910979 8.6115676e-20)
(-39.423545 45.322194 -1.1665272e-15)
(94.638721 18.69309 -2.4962816e-17)
(168.01264 -21.869272 6.838755e-16)
(168.15368 -36.12597 -3.6085526e-18)
(149.64822 -35.86891 4.012673e-18)
(131.14202 -31.876272 0)
(118.14112 -19.234275 -1.5029604e-18)
(111.21196 -14.966633 0)
(98.790473 -1.7008218 0)
(-42.444101 48.592747 4.8041957e-18)
(87.55209 13.738235 1.0724817e-15)
(165.33927 -26.313608 -1.3232665e-15)
(167.12889 -39.018133 3.3223996e-16)
(147.38744 -39.014512 1.485157e-16)
(128.09907 -33.147556 4.8242275e-17)
(116.40664 -19.735249 1.3781252e-18)
(108.82594 -15.630598 -1.9858017e-19)
(96.627744 -1.1700865 4.6424562e-17)
(-43.461919 52.133 4.7087323e-18)
(76.933077 15.673959 -1.0791543e-15)
(160.92608 -26.711614 6.5531207e-16)
(164.76304 -41.548986 -3.2553896e-16)
(145.86906 -40.233785 7.4435148e-19)