/*--------------------------------*- C++ -*----------------------------------*\
  =========                 |
  \\      /  F ield         | OpenFOAM: The Open Source CFD Toolbox
   \\    /   O peration     | Website:  https://openfoam.org
    \\  /    A nd           | Version:  11
     \\/     M anipulation  |
\*---------------------------------------------------------------------------*/
FoamFile
{
    format      ascii;
    class       volScalarField;
    location    "9.25";
    object      p;
}
// * * * * * * * * * * * * * * * * * * * * * * * * * * * * * * * * * * * * * //

dimensions      [0 2 -2 0 0 0 0];

internalField   nonuniform List<scalar> 
4455
(
7297.8349
7304.5265
7320.5148
7348.0903
7387.068
7443.2372
7509.4923
7614.9528
7680.4132
7357.2425
7358.5548
7369.4698
7393.1276
7431.8997
7487.8782
7558.3686
7662.4696
7762.876
7410.8331
7407.4419
7414.053
7435.325
7472.7841
7529.0001
7598.6589
7708.2495
7804.8447
7457.95
7451.0528
7454.4245
7473.7955
7510.4326
7566.6971
7638.4031
7754.514
7857.2944
7498.5186
7489.4759
7490.666
7508.3009
7544.6797
7601.5439
7677.5519
7801.1098
7921.0507
7532.8864
7522.8798
7522.4341
7539.0315
7575.6544
7633.6359
7714.293
7849.2113
7985.4537
7561.5553
7551.2732
7550.1053
7566.3194
7603.0343
7661.9384
7748.2719
7897.2386
8054.6044
7585.0799
7575.1361
7574.053
7589.8295
7626.2265
7687.2185
7779.6471
7943.0848
8129.2913
7604.0777
7595.0244
7594.1579
7609.6189
7646.1965
7709.0052
7808.8782
7987.0512
8212.5039
7619.2252
7631.1219
7640.4025
7647.5805
7653.042
7657.1334
7660.2232
7662.6656
7664.7355
7611.3068
7624.5366
7635.2208
7643.625
7650.0087
7654.6177
7657.7503
7659.4919
7659.7203
7611.1433
7625.2307
7636.4242
7645.1792
7651.8375
7656.73
7660.4607
7663.6694
7667.4889
7626.8191
7641.2004
7652.7527
7661.868
7668.7521
7673.761
7676.7459
7677.1803
7675.191
7664.24
7679.3967
7691.256
7700.4593
7707.0864
7711.769
7715.1898
7718.3225
7722.544
7729.8593
7748.1877
7762.902
7774.2725
7781.7191
7785.3041
7785.044
7781.7447
7777.0649
7840.1591
7869.707
7894.85
7915.418
7929.7247
7937.6926
7941.0896
7941.6172
7940.2333
8035.9901
8083.4696
8120.871
8146.6417
8158.4751
8159.7792
8152.7365
8140.2421
8123.6885
8332.9249
8473.0821
8562.4289
8584.9982
8569.9514
8532.9048
8484.2311
8430.2932
8370.9547
7665.7874
7665.8752
7665.9381
7666.3049
7666.9084
7667.7169
7668.5654
7669.5216
7670.3108
7658.9477
7659.2006
7660.1652
7661.6092
7663.2337
7664.7726
7666.1121
7666.9173
7667.0489
7670.959
7674.3453
7677.7583
7680.554
7682.905
7685.0247
7686.7998
7688.5078
7690.0154
7672.1022
7674.0709
7678.9572
7684.6763
7690.227
7695.5981
7700.0333
7703.0256
7705.473
7726.6187
7733.8552
7742.3809
7750.5614
7757.6517
7763.5093
7768.5783
7773.1458
7777.2735
7774.064
7779.6309
7789.7682
7801.5523
7812.6122
7822.1837
7828.8393
7832.9996
7835.26
7938.4804
7944.729
7954.8218
7963.2078
7967.9503
7969.8956
7970.6709
7971.7138
7973.9328
8109.1344
8098.2983
8088.7544
8079.3722
8068.1303
8051.2185
8030.188
8010.3323
7992.4804
8313.1846
8256.9421
8200.6568
8149.7029
8103.7913
8056.5048
8014.2185
7985.0917
7958.8611
7947.2065
7946.2612
7962.6994
8006.337
8068.2794
8145.07
8238.3408
8339.0917
8444.6355
7979.9273
7972.7909
7968.7252
7969.9338
7980.0017
7997.7678
8022.5583
8055.7116
8094.5863
7976.8481
7981.0107
7987.5622
7995.4865
8003.5826
8012.6936
8023.9861
8038.1094
8055.2178
7836.7138
7838.9414
7841.4701
7844.3761
7847.3105
7849.9787
7852.2937
7854.6626
7856.5956
7781.004
7784.7004
7788.0126
7790.2587
7791.2562
7791.3475
7791.0417
7790.3748
7789.6708
7706.6525
7706.6762
7707.2017
7708.1468
7708.2242
7706.5664
7704.2445
7700.5012
7695.0286
7691.3323
7691.9474
7691.0688
7689.4097
7687.0262
7682.7055
7679.0148
7673.828
7667.4891
7666.4896
7665.4589
7664.0452
7662.1335
7659.0216
7655.1821
7650.1132
7643.3543
7634.027
7670.7269
7670.1095
7668.8607
7666.6227
7663.976
7661.2278
7658.0849
7654.1979
7648.9132
7641.4022
7631.7319
7619.6826
7605.4309
7588.8394
7569.7109
7547.404
7521.655
7491.9487
7623.9732
7613.118
7598.139
7581.6317
7563.1255
7541.3258
7516.5724
7488.6949
7457.1453
7661.9088
7652.4184
7639.8623
7626.7517
7612.976
7595.034
7574.7721
7553.1521
7526.5139
7688.6415
7681.3636
7672.1336
7661.6074
7649.693
7634.9219
7616.6538
7596.5039
7574.5688
7788.2125
7787.2781
7785.3005
7781.7345
7778.6823
7773.0049
7767.625
7760.0592
7750.2451
7860.1287
7864.1292
7869.014
7874.9495
7880.1166
7886.2951
7892.3413
7896.2776
7898.9491
8075.737
8100.2399
8127.2464
8155.7815
8186.1336
8217.0166
8248.3598
8279.1837
8309.9874
8138.6198
8187.8747
8243.1782
8301.8852
8362.3246
8425.3287
8493.3608
8562.9687
8632.9065
8556.3011
8669.6622
8784.8907
8901.8097
9015.8971
9128.3876
9245.3816
9367.7324
9490.4684
9612.2488
8702.1395
8339.2215
7899.2773
7739.0202
7547.7737
7496.793
7421.5233
7457.3536
9731.5091
8769.6847
8366.0452
7897.6182
7722.5355
7516.7021
7463.7983
7382.6296
7418.2188
9847.5685
8834.2592
8389.9873
7892.3052
7704.6169
7482.5668
7426.6189
7337.3889
7373.3259
9959.8319
8895.2513
8409.5345
7882.2069
7682.4475
7442.0866
7383.5011
7287.5141
7322.7992
10069.396
8949.4042
8425.4766
7866.1551
7653.5749
7395.8592
7335.6511
7231.6091
7265.345
10173.03
8995.1409
8437.3167
7842.7741
7621.4274
7343.9107
7281.2553
7169.7834
7201.5602
10271.186
9030.8063
8441.386
7812.1326
7581.5618
7284.1074
7221.708
7101.3642
7130.3189
10370.13
9055.8259
8435.8308
7772.0223
7535.2543
7218.6933
7153.2437
7025.5763
7052.1301
10445.674
9066.7236
8416.5445
7720.0375
7479.9071
7144.2846
7077.6421
6942.9058
6966.6855
6877.2277
6852.6626
6990.7998
7061.4596
7409.3008
7656.1424
8377.1011
9056.6058
10503.688
6785.5951
6754.2471
6892.8051
6968.9134
7319.0805
7570.3706
8297.9586
8983.1499
10403.751
6678.7718
6645.4731
6781.8696
6862.7072
7208.51
7461.3271
8181.8595
8849.5919
10199.245
6546.2556
6526.3013
6658.6388
6747.296
7081.2764
7334.1232
8038.6441
8689.201
9981.6562
6395.3937
6393.9837
6524.0843
6614.8482
6941.9271
7188.84
7876.6935
8513.1592
9756.6523
6231.2974
6250.5734
6377.6749
6473.2991
6787.968
7031.7773
7700.4721
8324.2712
9527.8934
6058.9764
6095.2953
6219.9242
6318.7362
6622.4939
6863.9505
7511.0183
8119.1957
9290.1468
5875.192
5929.3931
6051.6577
6153.3818
6448.5226
6682.9407
7309.7976
7898.8767
9046.621
5680.1112
5752.3781
5873.2871
5977.1216
6261.7803
6489.1261
7095.4389
7662.6732
8797.0182
8541.5443
7412.8406
6868.5727
6284.0579
6066.4533
5789.2462
5682.2865
5565.4252
5470.9918
8276.4303
7148.9249
6629.1204
6065.9213
5861.1264
5593.8131
5481.4761
5367.6157
5248.5579
8002.3305
6872.714
6377.3298
5836.6941
5643.5883
5385.6205
5271.0409
5161.255
5013.8104
7720.7377
6582.2902
6113.9682
5598.2815
5418.3574
5170.0184
5047.8513
4944.0488
4768.2844
7430.2021
6276.6009
5840.4267
5352.3122
5182.9061
4946.2325
4816.7955
4719.0615
4514.1535
7123.9046
5958.104
5558.9655
5098.2298
4940.821
4710.4421
4578.1054
4485.7643
4250.7544
6802.0776
5626.1896
5272.0188
4840.8746
4691.6635
4469.9911
4333.3817
4244.2077
3980.9007
6460.2695
5282.3072
4980.8109
4579.2211
4435.5204
4224.9405
4082.3885
3996.2622
3705.5151
6099.2569
4928.6541
4689.8726
4315.5017
4176.9244
3975.1582
3828.8665
3742.4613
3432.1265
3171.4863
3481.8002
3568.3226
3714.5855
3908.9106
4041.2759
4386.1812
4545.3471
5673.9179
2913.8719
3215.3484
3304.0222
3448.4526
3628.9769
3755.4997
4072.7162
4127.3621
5146.1227
2635.396
2945.1698
3037.2604
3177.5902
3347.5314
3469.0729
3773.9304
3719.1985
4548.6142
2357.1472
2677.6424
2772.119
2908.9389
3063.9265
3184.1617
3496.7304
3350.2166
3878.6626
2091.0853
2413.9957
2508.3779
2638.6647
2784.491
2896.6473
3240.074
3045.1791
3109.6606
1841.8108
2158.8096
2247.6371
2369.6556
2506.9328
2608.211
2996.252
2828.8957
2245.2757
1609.2279
1912.2292
1997.9266
2113.4624
2233.2952
2321.1713
2765.6399
2721.0746
1338.1006
1398.4098
1677.2328
1758.8886
1866.8052
1969.4314
2021.6343
2529.2252
2742.4423
458.14309
1182.0225
1457.582
1534.6353
1637.3599
1718.3949
1720.2866
2277.3452
2938.7896
-160.0739
989.44588
1257.9305
1320.8827
1413.3412
1469.3751
1397.7895
1875.6296
3180.6315
-594.52512
841.94778
1079.3881
1116.4705
1188.5531
1228.7066
1090.6819
1392.0796
3448.6941
-1300.0029
737.81998
919.72149
927.13745
967.79361
995.29388
824.42495
900.90475
3552.4234
-1963.4339
658.03648
774.27559
753.10189
750.99662
753.54982
575.00593
497.26512
3427.3028
-1143.7836
579.51327
643.32069
594.86437
527.09614
485.05557
320.36516
321.16169
3060.3651
-484.38644
516.83878
521.77498
443.23283
297.82615
195.2194
39.1407
146.21411
2573.7647
-1125.4238
475.15219
407.86765
311.15453
75.68214
-103.98659
-282.24163
-48.139456
2243.4743
-1356.4076
460.35877
304.95897
193.09052
-132.53257
-401.93788
-638.28855
-175.39941
2001.1775
-1718.351
463.76518
226.04817
87.407899
-329.84563
-692.92594
-1028.6893
-192.89863
1547.6133
-1920.5108
-2062.5558
1310.5658
-89.99992
-1404.7535
-950.81439
-492.25862
-1.9934001
174.92356
486.82402
-2125.2382
1165.4098
-83.39331
-1762.3578
-1178.5974
-630.93929
-77.564249
147.93474
521.65932
-2208.602
989.92966
-172.89739
-2127.3918
-1395.106
-757.48686
-137.48369
140.47096
572.47706
-2302.0102
772.43935
-331.22894
-2483.3735
-1597.4807
-871.94262
-181.3569
152.09053
629.57734
-2416.441
506.72787
-536.44497
-2821.0373
-1785.4815
-969.97745
-208.84925
183.81591
698.42281
-2545.332
223.38719
-775.59079
-3130.4797
-1960.8685
-1051.2586
-221.69449
233.11146
775.34114
-2656.645
-51.174395
-1046.1171
-3422.1308
-2124.1428
-1118.4955
-221.35198
297.91266
859.68387
-2797.9452
-350.75829
-1327.8486
-3678.1796
-2276.5456
-1171.5924
-206.63151
377.08799
946.42473
-2926.1693
-635.40447
-1631.6239
-3939.3153
-2413.8156
-1208.2022
-178.46822
470.1972
1046.2887
-3018.2449
-903.79729
-2044.3654
-4238.4554
-2575.5544
-1212.2808
-95.09279
646.89476
1199.4075
-3015.6383
-1163.0521
-2846.5195
-4800.7986
-2702.2822
-1119.9134
91.499132
906.35462
1325.8079
-3106.4566
-1387.846
-3471.7522
-5269.3172
-2687.539
-933.78033
339.93572
1160.3753
1396.5401
-3163.4471
-1570.4812
-4122.1587
-5602.8899
-2543.2778
-633.83923
620.33762
1416.4666
1406.1805
-3141.5479
-1756.62
-4691.0693
-5770.7098
-2274.6583
-313.15992
904.45381
1589.1751
1368.4647
-3165.6482
-1960.9816
-5210.1746
-5810.4034
-1908.7466
37.201152
1162.2021
1658.612
1244.4313
-3302.5177
-2143.0133
-5624.9227
-5766.6176
-1468.9299
361.00787
1357.6385
1649.4789
1079.6667
-3473.6129
-2294.4518
-5959.882
-5690.7837
-950.40671
637.30952
1490.5127
1533.5558
868.7118
-3647.4295
-2403.2551
-6043.9963
-5601.1972
-377.7468
813.87453
1545.309
1336.3079
641.6343
-8610.5501
-7485.88
-4787.623
-5190.6073
-2484.2895
-1161.8841
-3.7871478
391.84498
188.0493
-8332.9182
-7298.2007
-4828.3786
-5790.4456
-2739.1604
-1285.7379
47.068661
609.36079
403.28564
-8055.1464
-7098.2498
-4858.9365
-6321.8624
-2933.802
-1370.7738
146.91913
772.53975
582.66568
-7777.2281
-6886.3866
-4879.5421
-6772.6888
-3065.655
-1412.0163
294.07181
856.89504
729.7262
-7496.3821
-6667.694
-4888.6638
-7142.3863
-3141.9952
-1406.3275
487.36258
868.00019
859.61379
-7223.0624
-6443.2542
-4881.9494
-7432.1182
-3162.3583
-1353.1895
714.5415
836.41558
995.6733
-6946.6096
-6203.9748
-4857.3609
-7643.8691
-3124.8249
-1250.0209
958.59538
797.81594
1141.8449
-6665.2219
-5944.0096
-4811.8581
-7782.3867
-3037.7159
-1091.8347
1195.666
794.3133
1272.8681
-6388.5882
-5665.7969
-4727.9486
-7854.4963
-2911.0368
-867.89362
1393.9906
864.8034
1358.3707
-12947.33
-9164.3572
594.0752
3406.8988
4246.9378
4932.5741
4523.8838
2596.8723
1224.9605
-13239.856
-9545.3383
-411.43631
3242.4383
4432.905
4976.9169
4843.2771
3406.5744
1753.7188
-13128.575
-9938.7394
-1434.472
2725.2625
4324.3122
5053.8769
5147.119
4131.9784
2389.4177
-13193.561
-10382.345
-2411.7187
2136.5679
4083.0189
4949.2503
5279.8101
4731.1126
3104.678
-13344.335
-10898.552
-3334.0422
1494.3006
3748.1685
4800.8782
5279.4809
5149.692
3729.1755
-13929.542
-11527.902
-4202.0501
707.19153
3338.8752
4569.9481
5089.151
5342.8455
4315.8417
-14923.877
-12321.976
-5015.0705
-173.00628
2782.5946
4224.2958
4818.5945
5341.0024
4692.9922
-16071.713
-13228.953
-5697.6388
-988.83448
2153.7095
3784.255
4387.3051
5137.0707
4872.2865
-16679.655
-14161.821
-6253.4043
-1681.8503
1570.3452
3322.5772
4001.0394
4838.8181
4875.7101
3668.942
2933.9126
2299.1234
1480.2262
-196.18127
-2855.9222
-6461.7
-15260.228
-16798.267
3851.347
3144.1933
2458.3754
1652.9114
-81.187644
-2832.9968
-6634.1362
-15441.68
-16927.286
4018.8249
3357.3772
2626.1292
1841.2542
68.85233
-2760.8856
-6720.1299
-15572.497
-16989.327
4179.3939
3571.7429
2799.7652
2036.5029
235.75982
-2668.2765
-6765.4632
-15625.718
-17011.369
4330.661
3782.2652
2977.3883
2233.2621
412.24332
-2572.4481
-6790.5181
-15623.994
-16982.033
4467.1191
3987.7194
3155.5263
2425.0988
592.20321
-2473.1181
-6799.215
-15559.42
-16949.521
4587.6254
4185.1647
3332.7265
2616.0444
774.26667
-2362.968
-6788.7435
-15434.598
-16858.532
4689.9048
4375.8021
3509.871
2803.8923
962.37801
-2238.6617
-6760.216
-15241.139
-16814.104
4772.9589
4554.7495
3687.6986
2993.3606
1167.0316
-2079.4505
-6702.7643
-15017.232
-16766.118
-16844.706
-15030.375
-6096.3228
-2808.7615
-282.90633
1320.2659
2140.0946
2724.6452
3464.5604
-16330.272
-14343.129
-5579.2367
-2677.2707
-345.78953
1161.7087
1983.4766
2517.7527
3259.3047
-15151.032
-13040.675
-5085.1244
-2515.3628
-394.41776
1019.2423
1834.0278
2319.1043
3060.4578
-13763.66
-11463.709
-4669.6687
-2341.0454
-422.92826
886.91277
1692.2679
2129.9647
2857.4495
-14507.218
-9820.7473
-4266.536
-2153.0102
-431.82967
774.58043
1560.2551
1952.3694
2655.771
-18427.26
-8336.371
-3788.3007
-1941.9817
-411.62323
684.42694
1439.9582
1788.0889
2452.3827
-19138.695
-6905.2318
-3247.1551
-1712.1462
-372.04375
620.85568
1332.1289
1635.8821
2253.5737
-16688.552
-5368.8257
-2742.958
-1526.6365
-340.72161
554.99321
1217.5289
1493.7192
2065.9407
-14549.681
-4459.987
-2526.9222
-1450.6086
-380.76254
451.46444
1081.2072
1355.1048
1900.4446
906.6492
758.62118
483.73565
61.506303
-513.99122
-1224.3654
-2012.7003
-2324.8257
-574.23126
918.51974
733.69397
438.68076
-18.97177
-650.90674
-1459.2991
-2439.1931
-3156.2596
-1525.5836
959.25451
733.95913
425.20245
-63.838326
-743.69014
-1635.074
-2796.2871
-3991.9246
-2619.7009
1027.5714
758.14074
443.775
-72.596042
-790.33057
-1742.5732
-3063.3753
-4773.6764
-3901.7637
1124.3262
808.31904
490.57963
-49.646121
-796.21392
-1783.6857
-3222.5418
-5437.4366
-5451.2184
1244.1433
881.62077
566.77663
3.0704936
-761.64532
-1763.5895
-3246.2618
-5883.0323
-7327.2192
1386.8119
976.91495
666.0473
82.305264
-696.0489
-1697.6753
-3128.7199
-6036.7832
-9534.6824
1548.4384
1090.3183
789.3264
186.77666
-603.64827
-1601.0182
-2901.0148
-5844.508
-11599.906
1724.8234
1217.951
928.02603
311.76104
-495.30129
-1505.6959
-2666.4919
-5203.5029
-13118.286
174.44603
-1571.6174
-1552.8231
-948.08277
-339.10405
174.45521
558.05647
808.14164
923.03659
797.34614
-899.56383
-1097.2305
-652.82171
-142.0481
311.88868
656.98195
879.45148
968.10043
1372.6811
-263.1032
-630.69305
-334.3473
78.986946
471.15561
777.61191
973.96974
1043.234
1915.7299
340.22819
-164.89442
-0.82210908
319.12369
649.03824
918.23013
1088.8237
1142.5363
2427.8038
906.24331
297.53274
342.60184
575.12913
844.54985
1076.283
1222.6919
1261.7553
2908.953
1433.9714
745.75105
689.27377
840.14663
1050.8306
1248.5044
1371.1327
1400.3783
3351.4041
1933.3179
1184.2161
1035.4055
1112.8194
1267.2207
1431.0861
1530.7493
1555.0816
3759.185
2399.7659
1600.8255
1375.2997
1386.2804
1489.3642
1624.1155
1701.8768
1723.1436
4141.7645
2837.8912
1998.8904
1707.2495
1659.6837
1715.0042
1820.9395
1879.9891
1901.6856
3576.8382
3487.9939
3537.6263
3553.4266
3728.8478
4031.3418
4616.4075
5610.6651
7082.8121
3422.8766
3325.5755
3370.0642
3383.5194
3553.3374
3852.9402
4438.622
5438.6327
6808.1613
3246.1161
3158.1979
3191.8488
3202.0796
3360.282
3646.5207
4212.6425
5196.1141
6481.964
3056.3385
2984.4431
3010.1747
3012.3889
3153.2827
3420.2795
3956.6274
4918.4301
6165.4564
2861.5326
2804.6318
2820.2777
2810.2917
2929.1118
3169.809
3677.1355
4623.3184
5854.7645
2667.0824
2620.5603
2623.4497
2599.8953
2691.7917
2904.0966
3381.6214
4312.3848
5537.8645
2472.4269
2435.4222
2425.5056
2384.6961
2445.3824
2626.3778
3066.7319
3981.8561
5209.9509
2278.6206
2248.3456
2224.4572
2164.4223
2192.097
2333.4215
2733.4463
3628.6319
4868.3202
2087.6477
2062.073
2021.276
1939.627
1927.9773
2026.1297
2376.9173
3247.8135
4512.3598
3734.6144
3894.6031
4050.2261
4200.4177
4344.66
4482.2565
4613.8636
4738.7283
4858.0836
3644.3996
3795.7012
3941.1362
4082.1245
4217.4609
4345.0639
4469.1506
4587.8311
4700.8745
3694.4294
3846.8705
3990.7431
4127.2304
4257.8478
4382.0579
4500.5035
4613.9716
4722.0426
3710.9273
3861.4675
4002.1928
4134.4305
4260.6292
4379.6743
4492.3363
4599.1669
4700.8684
3886.0108
4028.4285
4161.2345
4283.9144
4396.9696
4503.5818
4604.1307
4697.4567
4786.4165
4179.743
4310.1446
4426.4464
4531.1676
4627.2801
4713.8399
4793.838
4868.4688
4938.1572
4746.3686
4850.506
4935.5865
5007.2716
5067.9245
5119.097
5163.8918
5202.6986
5237.0389
5696.5728
5743.1884
5765.7007
5771.9231
5767.4245
5754.9185
5736.0504
5713.6094
5689.3236
7121.3173
7106.2953
7048.8696
6973.6126
6881.7697
6785.6318
6687.4246
6589.9313
6493.4956
4971.2346
4809.8982
4825.3589
4798.1633
4870.6393
5004.157
5270.029
5664.3392
6401.4689
5078.66
4913.8572
4924.139
4891.4101
4951.0295
5067.0744
5299.3251
5640.9107
6310.5348
5180.4684
5013.3988
5018.7615
4981.2635
5028.5943
5127.8725
5328.3916
5618.6714
6222.2805
5277.0836
5108.9099
5109.2868
5067.7971
5103.6083
5187.067
5357.2254
5600.0689
6138.0545
5367.8088
5199.8706
5195.8867
5151.389
5176.7989
5245.7108
5387.1121
5583.7809
6055.2621
5453.8315
5286.886
5278.5645
5232.0614
5248.281
5303.827
5417.0927
5571.4463
5975.8918
5534.8679
5369.9868
5357.8845
5310.1157
5318.4749
5362.0126
5449.2641
5564.2566
5900.3735
5611.0177
5449.2949
5433.7786
5385.5112
5387.299
5420.0875
5484.2131
5560.8988
5824.8279
5682.4226
5524.6995
5506.2155
5458.3195
5454.6855
5478.1706
5521.1159
5563.8869
5754.0001
6136.6607
6041.8606
6012.2108
5993.6677
5984.9154
5998.7218
5993.4612
5898.2879
5572.603
6097.3286
5998.2583
5967.7195
5945.0553
5933.3447
5942.6281
5933.1727
5831.3454
5506.5524
6057.2486
5950.9267
5920.3821
5893.4453
5879.3727
5885.093
5872.9731
5770.3538
5459.6064
6015.5963
5899.7091
5870.4801
5839.1562
5823.5117
5827.1835
5813.9161
5717.1486
5444.4752
5971.3953
5845.6642
5817.8779
5782.3522
5765.954
5769.1763
5757.2485
5672.0075
5461.3673
5922.8974
5788.59
5762.0424
5722.9901
5706.9455
5711.1363
5703.5895
5635.3046
5501.8801
5869.5825
5728.2988
5703.1454
5660.8305
5646.3785
5652.9098
5652.9623
5606.7541
5558.0328
5811.6411
5664.2351
5640.9523
5595.956
5584.2636
5594.6872
5605.6955
5585.6934
5619.0461
5749.4003
5596.3877
5575.2537
5528.4369
5520.3521
5536.4667
5561.968
5572.3785
5684.637
5644.2764
5971.219
6056.0358
6054.6131
6035.0997
6040.0552
6054.5086
6082.752
6170.2629
5742.7209
6053.2694
6120.3403
6110.0601
6083.4202
6084.2597
6094.1116
6120.0078
6196.413
5849.3532
6138.7702
6182.4198
6162.8778
6128.4169
6125.3884
6130.3465
6153.8399
6218.9377
5958.0656
6225.066
6241.0962
6212.3022
6169.9621
6163.5352
6162.9495
6184.4983
6238.4464
6068.1305
6311.529
6295.9745
6258.4491
6208.1314
6198.7363
6193.0357
6212.1952
6255.1038
6180.8244
6396.7282
6347.1535
6301.329
6243.3341
6231.2857
6221.4054
6237.6425
6268.6097
6296.6692
6482.0443
6395.1869
6341.5318
6276.2959
6261.3936
6246.961
6259.6863
6279.7365
6411.5538
6567.3844
6441.871
6380.2831
6308.4753
6289.5566
6270.0026
6278.429
6287.0249
6525.5724
6649.404
6491.5159
6419.9993
6342.3804
6317.0749
6292.21
6292.8269
6290.7799
6656.7177
6735.2564
6556.7775
6471.1773
6388.1532
6351.8998
6320.98
6306.1462
6293.4332
6813.8186
6826.6237
6635.6386
6532.9229
6445.9114
6399.5089
6362.2074
6330.9285
6305.5968
6978.8105
6915.8782
6714.3895
6595.596
6504.2021
6449.602
6405.1858
6361.5893
6324.8911
7144.7969
7003.6778
6792.5378
6660.2362
6564.0327
6502.3663
6451.042
6398.0103
6350.984
7305.417
7089.5416
6868.0851
6725.5359
6624.7525
6557.5315
6499.9485
6439.7874
6383.7713
7455.7472
7172.0077
6940.4188
6790.7041
6686.3304
6614.7493
6552.1706
6486.4592
6423.0778
7591.3786
7248.5427
7008.2448
6855.1753
6748.6661
6673.9506
6607.5092
6537.6664
6468.9753
7699.4067
7317.4011
7072.7681
6919.2892
6811.7966
6735.0453
6665.706
6593.2371
6521.1272
7759.106
7375.5019
7134.338
6982.1177
6875.1834
6797.4283
6726.4746
6652.7864
6579.2924
7232.7204
7246.0957
7269.3845
7302.6997
7345.2403
7405.3126
7476.8417
7589.529
7656.8141
7162.7049
7183.8188
7215.236
7255.3333
7304.5502
7370.3671
7456.4885
7580.2963
7700.9608
7089.0168
7118.5064
7158.377
7205.2262
7259.5202
7331.7228
7427.928
7565.4283
7707.7934
7012.5837
7051.3006
7099.1115
7151.8764
7211.0954
7289.8543
7394.7501
7547.0313
7715.5179
6935.2037
6983.0084
7038.1138
7096.1033
7159.771
7244.0938
7359.0035
7526.0575
7731.0376
6858.2083
6914.5954
6975.9027
7038.028
7105.9002
7195.911
7320.6529
7503.3414
7743.267
6783.0732
6846.5607
6912.8817
6978.39
7050.044
7145.5261
7279.4919
7477.8781
7754.5498
6710.8906
6779.7308
6850.0262
6918.4679
6993.1583
7093.0658
7234.3231
7448.2936
7761.1708
6642.7195
6715.066
6788.0712
6858.6221
6935.4494
7039.4203
7186.8894
7415.1559
7762.9432
7933.2034
7983.7305
8036.4402
8097.2863
8164.7026
8235.5033
8299.9487
8345.586
8363.2532
8006.8357
8053.3318
8107.8936
8171.1439
8240.1412
8309.9928
8371.8302
8413.9001
8426.468
8080.0412
8131.3208
8190.1832
8255.7765
8325.1123
8393.6748
8451.9091
8491.4124
8499.9595
8170.2553
8225.5536
8287.0673
8353.4993
8421.8595
8488.622
8543.7851
8580.7727
8584.7423
8277.0751
8335.262
8399.0212
8466.4453
8533.6233
8598.1668
8650.4767
8683.245
8679.2957
8399.0031
8461.2067
8526.9728
8595.1463
8662.1163
8725.0316
8775.7734
8804.9366
8789.6557
8543.6549
8607.9701
8675.8841
8745.6362
8812.8371
8876.1501
8926.9813
8950.3805
8922.2054
8715.6104
8780.8287
8850.1137
8923.1141
8995.9066
9062.5365
9118.9122
9134.3812
9117.071
8914.3636
8978.1942
9051.1364
9132.7851
9219.8142
9296.4956
9355.6797
9333.2891
9276.8301
11131.951
10452.271
10192.679
9889.5532
9673.6241
9499.0269
9367.2258
9265.2311
9186.7687
9828.0448
9900.5322
9892.8413
9839.5448
9766.3979
9666.5943
9566.7944
9459.5241
9370.2671
9354.5439
9413.4084
9434.1766
9446.253
9445.5878
9428.2665
9397.2328
9349.9037
9290.3688
9140.3175
9159.6671
9161.2971
9167.159
9168.7942
9165.0067
9159.5556
9146.4195
9119.5882
8978.4561
8991.7664
8988.4974
8989.1418
8986.2678
8980.6128
8976.4593
8973.5167
8959.5177
8843.5355
8852.0899
8848.5092
8849.4103
8845.4499
8840.3517
8833.5855
8829.3782
8818.9872
8729.8339
8733.0997
8728.8999
8729.1932
8724.7281
8721.5848
8715.2215
8711.0006
8702.7614
8622.5535
8621.3657
8616.0136
8613.7801
8608.3146
8603.9698
8597.1863
8591.6004
8583.5478
8514.0216
8508.9646
8501.351
8496.1156
8489.183
8483.1738
8476.0072
8469.7925
8460.5462
8350.6616
8254.9565
8134.8401
7992.1191
7816.4508
7623.6014
7424.3024
7177.744
6943.5309
8359.2031
8262.5446
8140.6832
7996.3156
7815.6337
7611.0556
7395.8051
7148.0918
6885.5879
8363.6596
8261.4112
8135.4447
7988.4461
7804.0967
7587.8962
7359.541
7095.4341
6803.0721
8370.3815
8265.5437
8139.5588
7989.2857
7802.1151
7580.2219
7335.201
7036.4274
6706.3807
8376.137
8268.5255
8139.8289
7988.4649
7798.8628
7572.374
7314.8572
6976.6542
6597.3191
8383.8862
8274.5337
8146.9134
7992.113
7805.4476
7568.2598
7299.7389
6925.4675
6481.3742
8388.4629
8279.192
8148.7651
7996.7281
7806.7465
7572.7742
7285.0989
6893.5099
6383.3673
8396.8374
8285.983
8156.3024
8001.9797
7813.733
7574.644
7283.8466
6881.5389
6330.1208
8404.4855
8295.025
8166.3787
8014.8517
7829.1315
7594.2085
7298.1221
6897.4162
6336.0194
6969.837
7164.2566
7470.3075
7692.802
7896.1196
8089.3857
8221.4152
8382.489
8560.7765
6878.9846
7078.6248
7430.6137
7677.5529
7899.8383
8087.7813
8221.5717
8382.613
8558.18
6762.1569
6996.4666
7393.79
7670.146
7909.2508
8085.5145
8220.5743
8385.5253
8555.4336
6611.0691
6917.04
7363.3689
7680.9327
7913.0478
8082.5488
8221.0933
8386.9196
8556.3611
6435.928
6793.9085
7302.5056
7677.7281
7913.1173
8079.8762
8217.4014
8379.4712
8547.7587
6209.3661
6802.3656
7356.5334
7693.0274
7925.3898
8099.2841
8234.8697
8391.2901
8551.0505
5828.5581
6561.0661
7281.6917
7668.5219
7900.6352
8086.7503
8227.8348
8380.778
8537.4399
5530.9641
6686.3769
7357.7079
7702.7481
7943.802
8119.1434
8249.2789
8394.5683
8538.9014
4385.6337
6484.6603
7332.0756
7663.2102
7925.1078
8121.5193
8250.4624
8393.0123
8538.7795
8710.2743
8868.7851
9022.1838
9133.7321
9230.4347
9352.7708
9521.1228
9700.4391
9865.9165
8709.3605
8870.1129
9028.7706
9142.8063
9234.5766
9353.1766
9523.5156
9710.2897
9880.585
8707.8469
8876.1764
9039.4438
9153.0634
9239.1886
9353.3524
9526.5408
9721.0588
9896.3193
8709.1162
8884.2789
9052.374
9164.4556
9244.9374
9356.1932
9532.209
9732.9176
9912.3781
8702.2038
8888.5491
9062.6204
9171.557
9242.1406
9350.0574
9530.9195
9739.4852
9925.5267
8704.8662
8899.9085
9082.0247
9187.0267
9248.7431
9351.9224
9535.2569
9747.4512
9940.4128
8698.0988
8902.1953
9088.0593
9188.1795
9240.9746
9346.0459
9535.0267
9752.915
9948.3431
8697.3818
8911.7544
9110.8918
9204.683
9244.2299
9342.5851
9534.4461
9755.9464
9958.5336
8698.5299
8911.6092
9106.2808
9204.7882
9247.8109
9347.3834
9537.1367
9756.4642
9955.383
10022.465
10170.267
10317.602
10458.761
10582.063
10701.24
10807.797
10944.239
10863.306
10040.192
10191.278
10343.01
10486.524
10612.056
10732.344
10841.964
10977.946
10862.346
10058.9
10213.631
10369.573
10512.648
10642.802
10762.787
10875.076
11004.024
10838.177
10078.362
10236.941
10396.157
10539.309
10673.04
10786.229
10903.529
11028.369
10802.417
10094.555
10255.748
10416.609
10563.743
10697.591
10800.314
10925.306
11047.2
10776.451
10113.527
10274.974
10442.088
10591.894
10722.633
10817.859
10947.976
11070.667
10697.661
10120.517
10284.871
10454.884
10602.946
10729.381
10815.76
10954.932
11086.616
10721.835
10133.908
10297.691
10469.72
10621.289
10747.041
10821.629
10957.785
11088.205
10658.286
10131.798
10295.884
10464.841
10616.727
10745.105
10825.233
10954.639
11090.656
10762.774
11553.947
11464.424
11253.07
10961.075
10630.385
10304.606
9991.638
9690.5563
9392.1394
11604.403
11530.603
11329.816
11034.739
10696.219
10362.798
10043.418
9737.3367
9437.2242
11640.989
11587.03
11402.894
11101.966
10760.318
10419.509
10095.097
9783.9406
9483.4082
11658.918
11637.562
11476.072
11167.915
10825.715
10476.742
10147.543
9826.8346
9525.4459
11657.557
11681.376
11546.414
11230.039
10889.934
10537.237
10204.495
9881.1205
9574.1059
11638.842
11720.16
11611.967
11285.739
10946.407
10581.578
10245.594
9911.3519
9607.7533
11598.12
11747.314
11670.238
11346.308
11012.891
10648.562
10309.909
9974.0992
9665.9129
11584.343
11766.144
11713.527
11381.45
11047.221
10673.651
10334.427
9990.7308
9683.7052
11510.93
11766.483
11756.768
11448.579
11122.075
10750.048
10408.056
10062.167
9752.4378
9099.0366
8811.4625
8526.6008
8239.4369
7945.917
7644.4631
7333.7892
7014.0013
6689.3355
9140.2976
8849.8249
8560.8097
8273.0883
7977.7019
7676.588
7365.4085
7045.6473
6719.1778
9184.2803
8892.1582
8601.1092
8313.1747
8018.015
7718.0208
7408.419
7090.8622
6766.3506
9221.0131
8930.662
8634.1028
8349.532
8049.8539
7754.8778
7441.1304
7129.1831
6800.9209
9269.6285
8974.7869
8679.5284
8391.1294
8094.0758
7796.69
7486.04
7172.5829
6848.0024
9295.2155
9004.6231
8701.949
8418.603
8116.0938
7825.3244
7509.741
7203.5912
6873.0758
9353.9128
9061.2695
8759.5126
8473.845
8172.3576
7880.8343
7566.3055
7261.1119
6929.9893
9365.7181
9074.643
8768.3583
8485.2005
8181.0665
7892.5359
7576.5821
7274.235
6942.5442
9433.7051
9141.268
8834.7831
8550.7989
8247.0481
7959.2537
7644.1634
7345.4727
7009.9443
6317.5584
5906.3366
5490.0713
5052.7015
4617.3836
4189.6864
3605.3306
2829.606
1572.1273
6351.7901
5948.5327
5551.2896
5130.3017
4703.0977
4309.9041
3755.4184
3041.4249
1819.21
6403.001
6005.295
5611.2889
5199.8548
4751.5012
4336.457
3788.4294
3128.2404
2050.0953
6448.8374
6056.2301
5669.5589
5268.2176
4817.1472
4400.4419
3884.2878
3273.1437
2326.8488
6497.2484
6112.6568
5732.6494
5341.3678
4900.2267
4475.2837
4007.9147
3446.1252
2728.8217
6537.0044
6159.6255
5787.1264
5405.7356
4971.3122
4532.8234
4090.6777
3623.0251
3250.6714
6596.6007
6228.7574
5871.3691
5496.4826
5083.7499
4629.7617
4216.0726
3661.8108
4227.5771
6619.0865
6259.6834
5901.387
5543.4602
5130.8496
4680.6692
4181.9792
3820.7461
3700.8237
6695.5402
6351.2491
6016.2249
5670.7377
5302.9624
4877.7917
4461.8377
3329.8258
7041.7369
124.50303
-1712.72
-2442.9185
-2132.0293
-2429.6841
-2312.8995
-1867.1365
-1479.4688
-1399.5234
169.32775
-1875.4204
-2437.9165
-2037.4091
-2230.9974
-2151.0705
-1819.8984
-1486.7441
-1377.3704
93.493127
-2125.8092
-2381.3415
-2100.7795
-2396.4527
-2102.9397
-1769.422
-1481.8786
-1365.893
-162.05206
-2448.6904
-2324.0493
-2103.9141
-2205.592
-2033.1163
-1726.8169
-1461.5133
-1353.4939
-585.232
-2747.9748
-2151.5298
-2119.0125
-2284.3864
-1987.8569
-1686.4652
-1441.1917
-1336.3398
-694.07224
-2658.4321
-2083.8331
-2170.1504
-2145.0448
-1910.6058
-1651.0916
-1419.7056
-1318.7278
-161.11903
-2229.6463
-2111.5795
-2151.883
-2147.3102
-1854.1739
-1618.0076
-1396.7889
-1302.8349
-880.91902
-3582.5054
-2051.5777
-2200.5265
-2092.0744
-1806.8349
-1594.4772
-1377.7419
-1288.8649
-9264.5021
-1431.782
-2092.2424
-2153.9175
-2023.3985
-1738.7655
-1558.3287
-1355.9365
-1279.9401
-1424.7753
-1553.2984
-1745.8782
-2059.7529
-2359.2472
-2589.6871
-2687.0306
-2832.0066
-2743.6656
-1380.8249
-1515.6929
-1714.932
-2022.0401
-2327.1165
-2554.5916
-2670.0332
-2793.4817
-2723.6306
-1376.3051
-1505.6013
-1719.0523
-2035.2782
-2345.586
-2560.646
-2679.1068
-2771.3347
-2660.8776
-1366.5729
-1501.0234
-1723.2467
-2043.7629
-2357.7105
-2557.2221
-2662.2645
-2731.9034
-2537.0976
-1352.3941
-1488.0358
-1719.4378
-2047.8154
-2361.1737
-2558.0784
-2655.5412
-2674.2368
-2381.3015
-1336.5038
-1473.2883
-1712.7244
-2044.9774
-2361.4991
-2548.6699
-2632.3571
-2567.4922
-2193.9406
-1323.0491
-1461.9234
-1710.9146
-2055.8644
-2371.0856
-2546.0199
-2589.2234
-2409.5763
-1963.5457
-1312.3567
-1455.9684
-1711.5379
-2057.647
-2368.4142
-2529.9605
-2540.2727
-2310.0048
-1847.7951
-1306.9527
-1461.3028
-1733.2679
-2096.1275
-2400.9354
-2527.1673
-2461.8096