/*--------------------------------*- C++ -*----------------------------------*\
  =========                 |
  \\      /  F ield         | OpenFOAM: The Open Source CFD Toolbox
   \\    /   O peration     | Website:  https://openfoam.org
    \\  /    A nd           | Version:  11
     \\/     M anipulation  |
\*---------------------------------------------------------------------------*/
FoamFile
{
    format      ascii;
    class       volVectorField;
    location    "9.25";
    object      U;
}
// * * * * * * * * * * * * * * * * * * * * * * * * * * * * * * * * * * * * * //

dimensions      [0 1 -1 0 0 0 0];

internalField   nonuniform List<vector> 
4455
(
(99.960746 -0.4282341 0)
(99.922052 -1.1351264 -1.8901677e-18)
(99.672327 -1.9093457 6.4911687e-18)
(99.444756 -2.3220057 2.3082051e-20)
(98.884898 -2.6645742 6.1529596e-18)
(98.403535 -2.9813728 -2.3107929e-17)
(97.559516 -3.099922 1.0257334e-17)
(96.674381 -3.5963817 0)
(95.17173 -3.4249901 -6.2605345e-17)
(99.945443 -0.38060481 -1.2482813e-17)
(99.868548 -1.0843606 1.2173257e-17)
(99.686475 -1.7737571 -1.4951959e-17)
(99.344241 -2.1588732 2.4878792e-17)
(98.820446 -2.5385955 -4.7645909e-17)
(98.28537 -2.8850106 5.202459e-17)
(97.35222 -3.1532968 -4.9613802e-18)
(96.406312 -3.7454427 7.2412789e-18)
(94.488554 -4.3403337 2.7241878e-16)
(99.927385 -0.34497788 -1.3266485e-17)
(99.862508 -0.99214778 1.6717229e-17)
(99.637506 -1.63033 1.4617913e-17)
(99.333287 -1.9484492 -1.4530319e-17)
(98.745684 -2.3785777 6.3946735e-17)
(98.207618 -2.6301992 -3.595665e-17)
(97.190525 -2.8572914 4.6424144e-18)
(96.192514 -3.6690601 -1.0296517e-16)
(94.396682 -3.6672047 -1.9286446e-16)
(99.913812 -0.31017127 -1.5288492e-19)
(99.856738 -0.8767682 -1.659029e-18)
(99.620568 -1.4896577 3.5142319e-17)
(99.317149 -1.7700643 4.7847493e-18)
(98.691299 -2.1327077 2.5253853e-19)
(98.118705 -2.4082755 -6.9578996e-18)
(97.104286 -2.4327134 7.7278189e-17)
(95.788932 -3.4546016 2.0626032e-16)
(93.758509 -2.9750696 1.6151752e-16)
(99.903684 -0.27371052 2.5647064e-17)
(99.85451 -0.76632272 -2.86454e-17)
(99.625573 -1.3487764 3.675927e-17)
(99.284852 -1.5523897 1.7019193e-20)
(98.655072 -1.9355606 -4.415604e-17)
(98.034353 -2.1285699 -1.3566076e-17)
(96.973574 -2.2246755 -6.0905158e-17)
(95.630259 -3.1917633 -9.7294593e-17)
(93.362546 -2.6816876 -4.7805132e-16)
(99.901686 -0.23498023 0)
(99.85378 -0.66922849 0)
(99.631985 -1.1893918 -6.3781856e-17)
(99.281567 -1.3594018 -7.3600309e-17)
(98.659827 -1.6930324 0)
(97.97711 -1.8699112 -9.8909331e-17)
(96.831601 -1.7893013 -8.3557983e-18)
(95.23102 -2.8675819 -5.8444875e-18)
(92.598015 -2.0873953 5.9243968e-16)
(99.905662 -0.2002179 0)
(99.85859 -0.57712699 -1.7460791e-18)
(99.635825 -1.0220364 1.9652934e-18)
(99.289539 -1.1831087 7.1933364e-17)
(98.620671 -1.5097893 -5.3055972e-18)
(97.976351 -1.5805918 2.1109887e-16)
(96.79856 -1.5704073 0)
(95.093382 -2.5508876 0)
(92.141059 -1.5011232 2.7538974e-16)
(99.912487 -0.1678085 4.9667585e-17)
(99.865457 -0.48723553 0)
(99.643703 -0.88742046 0)
(99.293997 -0.98047646 0)
(98.680018 -1.2705713 0)
(97.925189 -1.2980912 -1.0565108e-16)
(96.66489 -1.1147523 -1.1366566e-16)
(94.743981 -2.100947 1.6385868e-16)
(91.260157 -0.79576765 4.9299424e-18)
(99.921107 -0.13729483 -4.8908321e-17)
(99.87764 -0.40519846 -1.6966122e-18)
(99.662133 -0.74668116 -1.9052106e-18)
(99.32371 -0.8218413 4.3290185e-18)
(98.685746 -1.0727926 1.6675656e-16)
(98.005828 -1.0474608 1.8788515e-16)
(96.706726 -0.91686631 3.631591e-16)
(94.638738 -1.6504177 -1.6090836e-16)
(90.695788 -0.092231818 -4.744462e-16)
(99.931215 -0.1145595 0)
(99.942153 -0.093577071 9.198105e-17)
(99.952477 -0.076939162 -9.1232316e-17)
(99.961545 -0.062519967 8.7902443e-17)
(99.970016 -0.05040255 -8.5918774e-17)
(99.976098 -0.041046893 1.7223626e-16)
(99.981492 -0.033285357 -1.6721327e-16)
(99.982908 -0.031118961 0)
(99.988849 -0.025954001 0)
(99.887076 -0.33267612 0)
(99.899311 -0.27165656 1.5879017e-18)
(99.908959 -0.21903363 0)
(99.918226 -0.17455146 4.5349754e-18)
(99.92835 -0.13498407 9.2989026e-17)
(99.939762 -0.099375453 -2.7811499e-16)
(99.952172 -0.069440226 1.8014514e-16)
(99.965667 -0.04392706 -2.7515451e-18)
(99.982283 -0.015693885 1.7429968e-16)
(99.685553 -0.61602768 1.1441307e-16)
(99.702831 -0.50049622 -2.2590064e-16)
(99.727855 -0.39354593 2.1650764e-16)
(99.750534 -0.29886309 -6.485795e-18)
(99.77632 -0.22075831 -1.0264165e-16)
(99.803795 -0.15004074 -3.13034e-18)
(99.828886 -0.10492071 0)
(99.845394 -0.061970555 5.9454815e-18)
(99.859198 -0.046296316 -2.9000438e-18)
(99.351661 -0.65035703 1.1909061e-16)
(99.393864 -0.48929324 -2.4235396e-16)
(99.435447 -0.36407567 2.314853e-16)
(99.493067 -0.24105298 -1.1235179e-16)
(99.535897 -0.14794622 -7.0649384e-18)
(99.607435 -0.046265236 3.4215061e-18)
(99.651889 0.014203327 0)
(99.742896 0.11820421 -3.2374914e-18)
(99.797526 0.15838771 1.9529926e-16)
(98.750553 -0.86706241 -1.3391448e-16)
(98.792485 -0.63958238 0)
(98.86478 -0.43928031 -1.25407e-16)
(98.932866 -0.24552889 1.2927063e-16)
(98.987474 -0.098609576 -1.1751269e-16)
(99.079654 0.072113347 1.2138285e-16)
(99.120829 0.15630928 0)
(99.208843 0.31504949 0)
(99.231334 0.31775384 6.9176971e-18)
(97.947184 -0.71565307 -1.6389447e-16)
(98.065945 -0.35209212 -1.5807166e-16)
(98.050786 -0.033326089 1.5194845e-16)
(98.224126 0.31053189 1.4669057e-16)
(98.297715 0.53678149 -1.4140938e-16)
(98.522289 0.89217179 0)
(98.639858 1.0472438 2.639086e-16)
(98.899759 1.3914364 -1.3073647e-19)
(99.01332 1.4373692 -4.9365846e-16)
(96.603901 -0.4847747 -1.9267299e-16)
(96.668854 -0.05723444 0)
(96.654344 0.29966898 0)
(96.755143 0.74747701 5.3968255e-18)
(96.766294 1.0447559 0)
(96.923683 1.5612218 0)
(97.033265 1.8215103 0)
(97.238877 2.346511 0)
(97.334393 2.4421635 0)
(94.306162 -1.1125726 7.4995764e-18)
(94.231283 0.046342929 0)
(94.041588 0.81465348 6.8557346e-18)
(94.16678 2.1052705 -1.2807345e-17)
(94.415978 2.7871792 -1.9423175e-16)
(94.791603 4.048721 -1.8535905e-16)
(95.289344 4.501065 3.5479027e-16)
(95.889055 5.6124646 3.445282e-16)
(96.449891 5.6748152 -3.2607856e-16)
(89.255819 0.93273507 9.0846066e-16)
(88.310516 3.1615744 -5.5939661e-16)
(87.66617 4.7499288 5.3694367e-16)
(87.928773 7.2057073 -5.0345948e-16)
(88.443436 8.479188 -7.2318718e-16)
(89.413066 10.503682 1.3641959e-15)
(90.318751 11.387115 -8.6249736e-16)
(91.590237 12.842063 -4.1173575e-16)
(92.434976 13.155654 3.8737178e-16)
(99.983602 -0.045472265 -2.2960582e-19)
(99.985085 -0.057321574 2.3562749e-16)
(99.987813 -0.068773977 6.6312511e-21)
(99.990733 -0.080707776 -2.3745424e-16)
(99.994523 -0.092622073 2.3275538e-19)
(100.00084 -0.10379939 2.3936559e-16)
(100.0109 -0.11372646 -2.4053505e-16)
(100.02692 -0.12230885 -2.3559051e-19)
(100.05272 -0.12780311 -1.2137013e-16)
(100.00497 5.3381834e-05 -2.5047323e-16)
(100.00256 0.025344621 2.5253759e-16)
(100.02467 0.04224005 -2.525532e-16)
(100.02015 0.074150607 0)
(100.04909 0.096005626 2.5534845e-16)
(100.04642 0.14627647 5.4921723e-19)
(100.09381 0.17662857 7.9061406e-19)
(100.09967 0.2605996 -2.5767097e-16)
(100.1822 0.29823133 1.3004863e-16)
(99.858319 -0.023257169 2.6819085e-16)
(99.833378 0.0013676546 -2.6836386e-16)
(99.846026 0.027727491 -2.7075007e-16)
(99.828559 0.085198581 2.7139539e-16)
(99.876825 0.1306686 -2.7441044e-16)
(99.863518 0.23209953 2.7355361e-16)
(99.952069 0.29292042 -2.7717631e-16)
(99.951263 0.43593041 -5.979618e-19)
(100.07493 0.49870342 2.7820121e-16)
(99.879905 0.25557464 -2.8572885e-16)
(99.920569 0.40780623 -1.1267767e-18)
(99.891042 0.51987013 1.1365067e-18)
(99.991165 0.63866143 0)
(99.918992 0.80380001 -5.6128957e-21)
(100.02895 0.96170367 -2.9362577e-16)
(99.972247 1.1565504 2.9851283e-16)
(100.11655 1.4031832 1.1686879e-18)
(100.13598 1.5677183 1.1745882e-18)
(99.325659 0.49582189 -1.2083343e-18)
(99.227667 0.69376023 -3.127645e-16)
(99.319172 0.85861677 -1.5631042e-18)
(99.219745 1.0998173 3.1629813e-16)
(99.377671 1.2792837 3.1977017e-16)
(99.314326 1.5874489 -3.2140313e-16)
(99.540518 1.7646001 -1.252887e-18)
(99.516167 2.1149096 -1.2596299e-18)
(99.800303 2.2778006 -1.2667846e-18)
(99.275878 1.7412422 3.3807165e-16)
(99.205931 2.1679586 0)
(99.422427 2.448779 0)
(99.296565 2.8504517 3.4402895e-16)
(99.514613 3.1357738 -3.4861169e-16)
(99.402611 3.5998802 -3.513679e-16)
(99.663093 3.8857928 7.0411185e-16)
(99.620395 4.4396476 1.4514679e-19)
(99.921454 4.6990225 -7.1299153e-16)
(97.555748 2.9067326 -1.4864201e-18)
(97.521637 3.5415444 0)
(97.629047 3.8678821 1.5034529e-18)
(97.621502 4.4117225 3.859086e-16)
(97.889222 4.7009488 -3.882741e-16)
(98.009688 5.2178928 3.9079919e-16)
(98.403301 5.4608816 -3.9165567e-16)
(98.591221 5.916101 -1.5433134e-18)
(99.01255 6.1158673 3.9686203e-16)
(96.950605 6.5290306 -4.2059376e-16)
(97.384454 7.2659386 4.2617604e-16)
(97.83025 7.8404046 -4.295597e-16)
(98.276252 8.4144111 4.2734038e-16)
(98.695816 8.9797545 -4.2720724e-16)
(99.15001 9.6262256 -6.7150541e-19)
(99.620438 10.297684 4.33591e-16)
(100.0953 10.894189 3.4038703e-18)
(100.51144 11.370173 2.174912e-16)
(93.466026 14.091634 0)
(94.047821 14.542676 -4.7997239e-16)
(95.04155 15.462998 3.1398704e-18)
(95.529517 16.054797 4.723526e-18)
(96.623474 16.678956 9.6238814e-16)
(97.474286 16.59266 -4.8147147e-16)
(99.041169 16.6128 -4.8195321e-16)
(99.590869 15.656318 4.8360902e-16)
(101.30054 14.201311 2.4356324e-16)
(102.00643 12.540966 -2.8475748e-16)
(102.6236 10.854073 0)
(102.75328 9.3313851 2.8567645e-16)
(102.78906 7.9871582 -2.8567443e-16)
(102.29188 7.3765771 0)
(101.90456 6.9935062 0)
(101.15988 6.8615616 0)
(100.67102 6.928205 -3.0018861e-16)
(99.880277 7.0531758 3.0018765e-16)
(100.91833 11.762019 -2.4776203e-16)
(101.26119 12.007739 0)
(101.529 12.146583 0)
(101.77523 12.208933 0)
(101.83976 12.224348 0)
(101.85498 12.304936 0)
(101.78188 12.336597 0)
(101.72539 12.474974 2.4945338e-16)
(101.50163 12.56885 -5.0133237e-16)
(99.196306 6.481109 1.9001589e-19)
(99.646591 6.8636402 -4.3657001e-16)
(99.785862 7.1952133 0)
(100.21999 7.487369 -2.1884741e-16)
(100.33746 7.7831791 2.1884695e-16)
(100.74392 8.0923652 0)
(100.78752 8.3990006 0)
(101.12824 8.7092062 0)
(101.09784 9.0290198 0)
(99.937674 5.2816437 3.8372652e-16)
(100.23161 5.6088191 0)
(100.26921 6.1758504 1.9200045e-16)
(100.58246 6.4788887 -3.8407187e-16)
(100.62763 7.041817 1.920678e-16)
(100.95721 7.3472838 0)
(101.01571 7.9315723 0)
(101.37247 8.2352967 0)
(101.42862 8.8434076 1.9236401e-16)
(99.788567 2.6559979 0)
(100.10999 2.8544342 3.4473139e-16)
(100.10792 3.2752871 -5.1708768e-16)
(100.48151 3.4853596 1.724123e-16)
(100.49949 3.959894 1.7247197e-16)
(100.93285 4.1878436 -2.3744576e-21)
(100.95849 4.7047951 -3.4497975e-16)
(101.43101 4.9472626 3.4495412e-16)
(101.4607 5.5016609 -1.7249184e-16)
(100.27045 1.8972033 0)
(100.34532 2.0898109 1.5586267e-16)
(100.53047 2.4329863 -1.5586266e-16)
(100.60735 2.6309528 0)
(100.82219 3.0151859 -3.1166352e-16)
(100.93198 3.2420049 3.1172565e-16)
(101.21093 3.6632582 1.5576123e-16)
(101.33772 3.9238278 -3.1140293e-16)
(101.70959 4.3641325 1.5565482e-16)
(100.09088 0.67730786 0)
(100.26174 0.74992818 0)
(100.2988 0.96649669 0)
(100.53819 1.0799468 -1.4300978e-16)
(100.60467 1.2662412 2.8598418e-16)
(100.86829 1.5174562 -2.8584734e-16)
(101.05038 1.6366432 1.428687e-16)
(101.22866 1.9917126 -1.4267893e-16)
(101.58797 2.0934458 2.8521343e-16)
(100.20559 0.4217696 -2.6383168e-16)
(100.32893 0.46117144 2.1036044e-20)
(100.37435 0.61702366 1.3192266e-16)
(100.53807 0.65223167 -1.3184301e-16)
(100.61539 0.84845833 1.318527e-16)
(100.82672 0.87326515 0)
(100.94334 1.0999939 1.3163135e-16)
(101.22212 1.1130594 -2.631308e-16)
(101.3893 1.3950127 1.3154468e-16)
(100.07236 -0.12158946 1.6124237e-21)
(100.12455 -0.13070025 1.2285209e-16)
(100.17156 -0.10386666 1.2291914e-16)
(100.28103 -0.098522558 -1.2291922e-16)
(100.34735 -0.039236965 0)
(100.49269 -0.032781675 0)
(100.5795 0.037201053 -1.2276841e-16)
(100.77377 0.051965699 2.4546337e-16)
(100.89651 0.11022552 -1.2268976e-16)
(101.17195 0.15252191 0)
(101.34253 0.24596394 -1.2229686e-16)
(101.71073 0.28808452 2.1090006e-19)
(101.95128 0.40585028 2.4735407e-19)
(102.40535 0.47501225 2.8646549e-19)
(102.71559 0.59526898 1.2156768e-16)
(103.27067 0.67186445 1.2084997e-16)
(103.68259 0.80898863 -1.2084998e-16)
(104.32949 0.90942373 0)
(101.75035 1.4086434 0)
(101.94437 1.6685439 0)
(102.39913 1.7086616 -1.3072066e-16)
(102.68218 2.0647545 3.0159912e-19)
(103.15616 2.0196427 3.4718623e-19)
(103.61174 2.4115866 1.301066e-16)
(104.07453 2.4570419 1.2925226e-16)
(104.71629 2.8065471 -1.2925223e-16)
(105.17054 2.9327582 0)
(101.70951 2.5054789 -1.4244145e-16)
(102.18008 2.6090213 0)
(102.34902 3.1103873 0)
(102.88861 3.2322535 -1.4177075e-16)
(103.06879 3.7573113 2.8317273e-16)
(103.73256 3.9676998 -3.5530814e-19)
(103.9543 4.5159135 -3.895605e-19)
(104.68953 4.7431132 -1.4071107e-16)
(104.95856 5.3249622 0)
(101.87115 4.6344471 -1.55399e-16)
(102.27579 5.1266664 1.5539895e-16)
(102.4527 5.4588936 0)
(102.97672 5.8757771 0)
(103.11803 6.3703091 1.5452458e-16)
(103.76944 6.7154966 -1.5452494e-16)
(103.94836 7.2400162 1.5383267e-16)
(104.65572 7.7147541 -7.7129105e-17)
(104.91177 8.1508119 -7.6690014e-17)
(101.94588 5.750576 -1.7245406e-16)
(102.02708 6.3794561 1.7244963e-16)
(102.44655 6.6240085 0)
(102.65463 7.3164339 0)
(103.02707 7.6071336 0)
(103.24319 8.3566506 0)
(103.73328 8.7019704 0)
(103.83155 9.5354792 0)
(104.48743 9.9569865 0)
(101.82195 9.1731635 -1.9236359e-16)
(101.79857 9.7713305 1.9253167e-16)
(102.25047 10.155321 -1.925261e-16)
(102.14725 10.768618 1.9276338e-16)
(102.63552 11.200365 -1.92798e-16)
(102.52385 11.906045 0)
(102.99638 12.36042 0)
(102.9108 13.178962 0)
(103.43269 13.703803 0)
(101.39294 9.3501072 0)
(101.27703 9.6799631 -2.2182148e-16)
(101.52316 10.079639 2.2180945e-16)
(101.29438 10.469411 0)
(101.51694 10.985132 2.2414879e-16)
(101.1551 11.471664 -2.240949e-16)
(101.40771 12.123902 0)
(100.93379 12.749297 1.1335692e-16)
(101.24443 13.55521 -2.271493e-16)
(101.41312 12.829245 2.5161108e-16)
(101.05455 13.062902 2.5470133e-16)
(100.88902 13.351757 -2.5452581e-16)
(100.36292 13.56934 2.5812917e-16)
(100.17435 13.995193 -5.1804023e-16)
(99.446425 14.444716 5.2199123e-16)
(99.2598 15.098475 -5.2665833e-16)
(98.392381 15.788733 2.6439301e-16)
(98.266699 16.592945 0)
(99.487824 7.0432352 -3.0807336e-16)
(98.770731 6.7993001 3.0811242e-16)
(98.311463 6.5462874 0)
(97.349032 6.5041591 0)
(96.838438 6.7541814 0)
(95.674502 7.049423 0)
(94.958898 7.9169636 0)
(93.352057 8.4846039 -1.686742e-16)
(92.408384 9.7163533 1.6867306e-16)
(90.749476 9.8601251 1.7301647e-16)
(97.393557 17.42807 0)
(100.66483 14.340513 1.1380867e-16)
(103.3328 14.651673 0)
(104.52202 10.895755 0)
(105.65389 8.8072732 0)
(105.8198 5.6365481 6.9582881e-17)
(106.01414 3.2322841 6.3759925e-17)
(104.87895 1.0525378 5.9649123e-17)
(89.881201 10.735295 -1.7293925e-16)
(97.271146 18.303255 0)
(101.06091 15.23384 0)
(103.92969 15.264226 9.6610424e-17)
(105.27384 11.354039 0)
(106.03921 9.1978945 -7.5826816e-17)
(106.13862 6.2315894 -1.3882963e-16)
(106.48398 3.4460681 -1.2713556e-16)
(105.63335 1.1780874 -1.1896131e-16)
(88.211185 10.60203 0)
(96.288202 19.308963 0)
(100.45172 16.213007 1.148582e-16)
(103.79508 16.355931 -9.6611135e-17)
(105.41135 12.476518 0)
(106.82283 9.9951243 7.5826799e-17)
(107.1018 6.5653294 6.9251629e-17)
(107.49883 3.7430979 6.3386626e-17)
(106.31931 1.3309557 5.9312179e-17)
(87.546689 11.692252 1.7896283e-16)
(96.099436 20.240355 0)
(100.91823 17.162306 -2.3001443e-16)
(104.49649 17.038068 0)
(106.09581 12.946924 0)
(107.30357 10.410705 -7.5009689e-17)
(107.49343 7.2398631 -6.8457148e-17)
(108.03416 4.0495829 0)
(107.21314 1.4689098 -5.8496572e-17)
(85.661531 12.041568 -1.7885381e-16)
(94.966826 21.483328 -1.3907924e-16)
(100.33543 18.387447 1.1512916e-16)
(104.37761 18.299189 0)
(106.4522 14.209897 0)
(108.23208 11.315566 7.500966e-17)
(108.60348 7.5663546 6.845712e-17)
(109.21475 4.2715043 0)
(108.04474 1.6371561 5.8496565e-17)
(85.256672 13.690058 0)
(94.830024 22.561541 1.3904723e-16)
(100.80052 19.404801 -1.1541354e-16)
(105.19698 19.048155 0)
(107.15154 14.733567 0)
(108.80066 11.76821 -7.3948549e-17)
(109.06735 8.3561417 -6.7451899e-17)
(109.82468 4.7132937 0)
(109.0778 1.7927407 -5.7468972e-17)
(83.063233 14.641843 0)
(93.653791 24.216613 0)
(100.20491 20.922496 1.1541341e-16)
(105.13934 20.536665 -4.7676608e-17)
(107.5939 16.127607 -4.1846211e-17)
(109.8229 12.827157 1.1060626e-16)
(110.33466 8.6681169 1.0088013e-16)
(111.17617 4.9022116 0)
(110.06775 1.9686118 8.5903857e-17)
(82.714119 17.453918 0)
(93.671001 25.548968 -7.0230296e-17)
(100.78525 22.035429 0)
(106.04561 21.309438 4.766415e-17)
(108.44987 16.679981 4.182849e-17)
(110.6006 13.222658 -3.5332798e-19)
(110.8929 9.4878693 -6.6529082e-17)
(111.87148 5.4284145 0)
(111.24517 2.1231592 -2.8434888e-17)
(80.099341 18.986415 -9.3640945e-17)
(92.623105 27.789317 7.0213152e-17)
(100.26361 24.04956 0)
(106.15807 23.089635 0)
(108.99015 18.327718 0)
(111.6472 14.545793 -7.2189997e-17)
(112.3313 9.8744272 3.7676858e-19)
(113.39265 5.6224165 0)
(112.3868 2.3031428 0)
(113.92475 2.4785591 0)
(114.20398 6.1292809 0)
(113.05148 10.708833 -1.601363e-18)
(112.67241 14.753999 3.7670985e-17)
(110.00418 18.688359 0)
(107.23076 23.763074 -5.9706905e-18)
(101.19733 25.030135 -5.767298e-19)
(92.944792 29.365852 -5.844632e-17)
(79.985062 21.489464 1.7518099e-16)
(115.37345 2.6038887 -1.3596265e-17)
(115.86467 6.2578117 -1.8559945e-18)
(114.7361 10.943591 1.6455962e-17)
(113.72019 16.050601 -6.8056243e-20)
(110.92436 20.212346 -1.7555623e-17)
(107.55222 25.50814 2.2733424e-17)
(101.169 27.216064 -7.2442748e-18)
(92.251925 32.184883 7.5943529e-17)
(78.737298 26.277831 -8.9516639e-17)
(116.86527 2.7067199 2.7212219e-17)
(116.84551 6.6907873 0)
(115.59461 11.654492 3.2119091e-17)
(115.07765 16.0959 -1.7454717e-17)
(112.17445 20.466113 1.7750571e-17)
(109.07378 26.051002 -4.3027398e-17)
(102.85141 28.017397 -3.4941541e-17)
(93.995566 33.568911 1.7321789e-17)
(81.409911 28.580122 1.8401973e-18)
(118.46849 2.8092856 -1.3635081e-17)
(118.67367 6.7971185 -1.8352524e-18)
(117.55107 12.043653 -1.4144964e-17)
(116.28705 17.518754 1.9942076e-17)
(113.53227 22.038428 7.4974477e-18)
(109.6963 27.938247 2.3111467e-17)
(103.3385 30.373842 2.8184937e-17)
(94.155305 36.356502 9.1532638e-18)
(81.507518 33.241517 -1.0481673e-17)
(120.19209 2.9140662 3.2928838e-18)
(119.84546 7.2206705 -3.5613531e-18)
(118.56119 12.539791 -1.9955104e-18)
(117.7518 17.427529 6.4790408e-18)
(114.92205 22.189097 -7.5572377e-18)
(111.53907 28.261783 -8.4528072e-18)
(105.42181 30.948604 -7.259437e-18)
(96.338669 37.428668 8.1971668e-18)
(84.235386 35.221999 -1.2172273e-17)
(122.01404 3.0192718 -3.3316808e-18)
(121.86485 7.3323207 3.6041737e-18)
(120.72933 13.072587 -1.977123e-18)
(119.35675 18.799428 -9.5804002e-21)
(116.50855 23.766678 -2.4263397e-18)
(112.42269 30.193513 5.7437141e-18)
(106.24655 33.368581 -7.2331853e-18)
(96.855229 40.183226 8.187253e-18)
(84.674203 39.266401 0)
(123.92174 3.1162761 -3.1856236e-18)
(123.20921 7.7649092 -1.7767748e-18)
(121.88108 13.409971 -1.905529e-18)
(120.76769 18.704607 -2.1942615e-18)
(118.1311 23.723438 -2.4512063e-18)
(114.39301 30.32126 5.9120185e-18)
(108.47872 33.696171 -1.3807572e-17)
(99.231405 40.979295 1.7260785e-17)
(87.494928 40.385186 -1.0519911e-17)
(125.90873 3.1989453 9.4633582e-18)
(125.3939 7.8341888 6.8234841e-18)
(124.23892 13.898254 9.4818334e-18)
(122.77949 19.917577 1.0442195e-17)
(119.83025 25.339221 7.4123565e-18)
(115.54006 32.244633 -2.7465567e-18)
(109.61652 36.059369 -7.1361871e-18)
(100.10994 43.694866 -9.3505167e-19)
(88.277366 43.764974 -1.1582316e-17)
(127.97751 3.2619642 -1.849925e-17)
(126.87037 8.2222902 -6.9085688e-18)
(125.50276 14.147669 -2.4328747e-17)
(124.15227 19.87073 -6.3986388e-18)
(121.59 25.097231 1.6467287e-17)
(117.65796 32.170757 8.5025468e-18)
(111.96756 36.122236 -4.0280219e-17)
(102.64921 44.167839 8.0621517e-18)
(91.094988 44.387772 2.2679595e-17)
(92.158706 47.434805 -2.2288647e-17)
(103.86101 46.764305 8.9290758e-18)
(113.39678 38.406714 6.0039325e-17)
(119.07321 34.107544 -8.3838355e-18)
(123.50766 26.657779 4.0952893e-18)
(126.44821 20.844648 1.1995005e-17)
(128.07131 14.577882 1.6860902e-17)
(129.21233 8.3126182 -8.2628242e-19)
(130.12705 3.3013425 2.494468e-17)
(95.041838 47.785588 8.7404118e-17)
(106.52123 46.917995 7.8893594e-18)
(115.85674 38.230276 -8.5625555e-17)
(121.28146 33.797505 -2.6339895e-18)
(125.32154 26.261263 -1.6545335e-17)
(127.92036 20.715411 -1.4380072e-17)
(129.43683 14.68533 -3.0123636e-17)
(130.78343 8.5876598 0)
(132.35477 3.3190083 -1.1993734e-17)
(96.424386 50.831154 -1.1202165e-16)
(108.01445 49.381018 7.9593638e-17)
(117.57986 40.469541 4.6214242e-17)
(123.01032 35.678899 -2.5834265e-18)
(127.5112 27.725463 3.5761465e-17)
(130.32512 21.751647 6.8475431e-20)
(132.14976 15.139483 4.6762915e-18)
(133.27655 8.686397 2.3231171e-17)
(134.64668 3.3155978 2.2152143e-17)
(99.336658 51.056821 -2.1900896e-17)
(110.82413 49.265525 1.3383049e-17)
(120.11268 40.044184 -6.6108573e-18)
(125.29862 35.119188 0)
(129.38908 27.14092 -3.6287982e-17)
(132.01301 21.226347 0)
(133.63849 14.909571 2.6245924e-17)
(134.90984 8.8306592 -4.7663278e-17)
(136.98988 3.2856037 -1.1452182e-18)
(100.99862 54.121675 -1.0081819e-17)
(112.60297 51.720905 -6.2429666e-17)
(122.16094 42.197722 6.4514156e-18)
(127.27526 36.915957 0)
(131.794 28.491883 -3.5908471e-17)
(134.44569 22.344815 2.9167142e-17)
(136.4726 15.346909 1.6763553e-18)
(137.53377 8.9653313 4.7601143e-17)
(139.36806 3.2263095 -2.1529305e-17)
(103.92559 54.019678 -9.589399e-17)
(115.58086 51.397487 -5.1384906e-17)
(124.70076 41.481463 -4.6791562e-19)
(129.62447 36.061549 -5.0891121e-18)
(133.76301 27.662619 -3.8118459e-19)
(136.29621 21.515753 -5.76199e-17)
(138.06745 14.964616 1.6183835e-18)
(139.1779 8.9634997 -2.3535419e-17)
(141.77239 3.1373397 0)
(106.00015 56.909651 6.5946622e-17)
(117.6081 53.67478 7.5508744e-17)
(127.08712 43.446027 -4.371032e-19)
(131.8451 37.72213 -4.9278657e-18)
(136.32761 28.93214 3.1343971e-17)
(138.80863 22.548624 3.03602e-17)
(140.90146 15.248445 1.5166868e-18)
(141.9135 9.0764836 -1.3897509e-18)
(144.18311 3.0165055 0)
(108.98982 56.396295 0)
(120.82104 53.155721 -6.872535e-18)
(129.57814 42.387197 5.8574635e-18)
(134.17433 36.587879 -6.8473726e-17)
(138.33701 27.811327 -1.986263e-18)
(140.78282 21.549186 5.0257965e-17)
(142.59875 14.678861 -4.3939463e-17)
(143.56909 8.9260843 4.0669378e-17)
(146.57783 2.8612971 3.4324654e-17)
(111.59333 59.118008 1.4872513e-16)
(123.03401 55.026034 1.1880615e-16)
(132.26486 44.085021 -5.6200252e-18)
(136.63809 38.095777 7.2204697e-17)
(141.09451 28.916469 -1.8299856e-18)
(143.2497 22.385623 -5.1133596e-17)
(145.40972 14.848271 4.7504509e-17)
(146.32019 8.9761453 -4.249986e-17)
(148.92388 2.683826 -2.5956665e-18)
(151.38529 2.4104995 -3.1853927e-17)
(148.01168 8.7031364 3.5204993e-17)
(147.10529 13.993952 0)
(145.38079 21.14327 -3.0078611e-18)
(143.02586 27.529305 5.560579e-17)
(138.92194 36.575007 6.0081507e-17)
(134.72545 42.517678 0)
(126.59339 54.134081 -8.200822e-18)
(115.00073 58.045303 -1.454358e-16)
(153.45648 2.0929715 0)
(150.73535 8.5087288 -3.6418984e-17)
(149.98535 14.053721 0)
(147.97306 21.639988 -2.8537159e-18)
(146.16968 28.279539 -9.9997762e-17)
(141.84195 37.821515 -6.5585218e-17)
(137.83078 43.820771 7.450031e-17)
(129.39262 55.385454 -8.8950445e-17)
(119.13146 61.050713 1.0772654e-16)
(155.51659 1.7102916 0)
(152.4523 8.0368361 0)
(151.57638 12.849072 -3.4971679e-17)
(150.04811 20.14202 0)
(148.11799 26.541008 5.0799682e-17)
(144.16643 35.910029 -5.4118233e-17)
(140.53081 41.89583 -6.799137e-17)
(133.3302 53.822468 -4.9762249e-18)
(123.3596 59.099955 -2.4416918e-17)
(157.45273 1.3097865 0)
(155.02397 7.7052551 0)
(154.43844 12.817061 3.5697631e-17)
(152.80335 20.474444 3.4879399e-17)
(151.29876 27.099928 4.3529336e-17)
(147.15728 36.919858 5.8918388e-17)
(143.39186 42.68199 0)
(135.93908 54.083975 7.0475766e-17)
(128.91159 61.788369 -1.1844548e-16)
(159.21088 0.90783817 3.6900865e-19)
(156.6219 7.1635556 -4.0553565e-19)
(155.89669 11.461207 0)
(154.55035 18.60911 -3.7209619e-18)
(153.26224 25.052096 -8.804126e-17)
(149.4697 34.805102 3.058251e-18)
(145.94141 40.602919 6.1266253e-17)
(139.46794 51.978296 -7.7609308e-17)
(133.45413 59.11935 8.6311276e-17)
(160.77459 0.50722279 -3.3365794e-19)
(158.96397 6.685284 3.6730413e-19)
(158.60595 11.213467 0)
(157.44175 18.687886 -3.7526436e-17)
(156.16691 25.289288 4.6516184e-17)
(152.61404 35.562758 -2.836269e-18)
(148.52116 41.232303 -6.3374822e-17)
(141.42037 51.411744 0)
(140.79104 60.46651 -8.4128962e-17)
(162.12919 0.11070892 2.9914786e-19)
(160.28402 5.9911393 2.1160108e-17)
(159.898 9.6662811 -8.4244437e-19)
(158.87944 16.599433 2.7760513e-17)
(158.29307 23.005473 3.6138764e-17)
(154.78995 33.20143 0)
(151.16736 39.298068 0)
(143.96902 48.632442 -6.7771614e-17)
(144.81938 57.703332 0)
(163.33745 -0.32574577 0)
(162.37259 5.4422399 -2.1933294e-17)
(162.22366 9.3158808 0)
(161.4924 16.516705 -3.1258361e-17)
(160.78683 22.843791 -3.2845995e-17)
(157.9215 33.632879 3.5245693e-17)
(153.42672 40.038591 0)
(144.91221 47.805884 7.3107589e-17)
(152.16055 57.217902 -7.7013032e-18)
(163.88125 -0.6756842 0)
(163.34462 4.5580433 0)
(163.38396 7.6589421 -6.8000554e-19)
(162.91843 13.855776 -8.4008911e-19)
(163.23038 19.835143 1.7891192e-18)
(160.57542 30.681077 -3.6382916e-17)
(157.4271 38.063724 0)
(146.37211 45.198229 0)
(153.23824 52.293125 4.8810053e-18)
(164.95933 -0.8350532 -3.9807789e-19)
(164.9913 3.9871836 -6.2656866e-20)
(165.14817 7.1780844 1.6634002e-17)
(164.88207 14.403204 0)
(164.61965 20.241719 0)
(163.00992 31.107044 -1.8059861e-18)
(158.14781 40.104742 -3.1800095e-17)
(145.67466 47.54298 1.7705966e-18)
(158.67677 51.86015 0)
(165.6582 -1.0195794 -3.2971607e-19)
(165.69235 3.6915154 -5.0104153e-20)
(166.48691 6.8005243 -1.5083749e-17)
(166.27621 13.129148 0)
(166.88367 20.109817 0)
(165.4132 31.999466 1.3042151e-18)
(160.66714 41.608883 7.3534902e-17)
(145.826 49.140631 -1.6112573e-18)
(154.45799 48.844455 -7.795191e-17)
(165.76149 -1.4413479 0)
(166.938 2.9538261 1.932142e-17)
(167.67711 5.8823696 0)
(168.3099 13.440993 8.1714277e-19)
(168.25407 20.621185 -8.9213571e-19)
(167.04978 32.52607 -8.6382305e-19)
(161.39038 44.037201 -6.6019069e-17)
(143.0353 50.663526 1.4062124e-18)
(139.48024 44.979154 7.4100428e-17)
(165.68293 -1.6906738 1.2357435e-17)
(167.28742 2.3579691 -1.8464485e-17)
(168.85033 5.3628723 1.6011101e-17)
(169.71275 12.192896 1.6417299e-17)
(170.41622 20.285612 -1.7897062e-17)
(168.66913 33.513727 1.3859788e-17)
(164.05622 45.337264 2.537772e-17)
(137.31143 48.935136 1.218949e-16)
(120.3043 50.398174 0)
(165.48089 -1.9760365 -2.3057695e-17)
(168.26394 1.4233474 1.24789e-17)
(169.82455 4.4944443 -1.548869e-17)
(171.55787 12.077051 -5.6105832e-18)
(171.93023 20.5288 1.6994598e-17)
(170.28582 33.944737 -8.2298458e-18)
(164.69276 47.143219 0)
(131.34256 51.750382 -1.1691089e-16)
(87.934986 62.572266 0)
(165.05708 -2.2431218 1.9903593e-17)
(168.29362 0.65506111 -1.1937602e-17)
(170.609 3.6309624 8.6533466e-18)
(173.04364 10.464593 -1.0157787e-17)
(174.40736 19.772378 -9.3843993e-20)
(172.16822 34.885711 -4.9889055e-18)
(163.74047 50.486031 8.6748501e-19)
(120.91876 51.142412 8.3212211e-17)
(48.959291 35.974937 4.7618751e-17)
(164.38105 -2.4796617 -9.4005007e-18)
(169.01826 -0.65954084 2.5223446e-19)
(171.5043 2.5905219 -8.2601799e-18)
(174.87273 9.955233 -1.1052443e-20)
(176.11133 19.745798 1.1922943e-20)
(173.70051 35.537549 1.2437683e-17)
(160.84369 51.12733 1.8159338e-18)
(98.481729 41.967742 -7.8593275e-17)
(-7.151939 -7.7391192 -4.5138195e-17)
(163.45564 -2.7005202 -1.0859763e-19)
(168.82885 -1.4263358 1.1705163e-19)
(171.58745 1.3985407 2.939141e-18)
(176.09684 8.172474 -5.1663712e-18)
(178.45582 18.836106 1.3173684e-17)
(175.4061 35.91746 -3.3687286e-17)
(155.49484 52.71852 -8.3670995e-18)
(69.719884 33.474503 5.5441997e-17)
(-11.633469 -5.4427432 6.292969e-17)
(162.31 -2.9156652 8.4305987e-18)
(169.13712 -2.9508642 -4.6531659e-20)
(172.65854 0.50497667 -1.9704867e-18)
(177.68359 7.2389743 5.0100922e-18)
(180.03332 18.552324 -1.2119841e-17)
(176.00923 36.220583 2.0755316e-17)
(145.20723 52.223442 4.2110897e-18)
(34.291916 13.594509 -5.2791837e-17)
(-17.517763 -1.4723491 -5.9955666e-17)
(-19.671553 -3.6655679 -1.1526658e-16)
(13.311948 3.8022761 -1.5148616e-19)
(135.49481 53.824628 4.1428028e-19)
(176.29941 35.952512 -3.540177e-19)
(181.80829 17.593829 0)
(178.45266 5.3117711 9.4354515e-20)
(172.1811 -1.0442585 -8.5942022e-20)
(168.54211 -3.6319563 -3.2354478e-18)
(160.94989 -3.1137529 -1.7232901e-17)
(-20.747017 -2.885559 1.1075609e-16)
(0.80522803 -0.32140274 0)
(126.32306 52.987917 0)
(177.05512 34.924268 1.1756875e-16)
(182.96183 15.70804 0)
(179.41137 3.7720422 -3.2589451e-17)
(172.75808 -2.2556922 -5.5083917e-18)
(168.12486 -5.1882362 3.1034225e-18)
(159.39148 -3.2861759 -1.0268934e-17)
(-20.671281 -3.0775926 2.6593372e-19)
(-3.5595101 4.7543922 -2.1472289e-19)
(115.40819 52.666473 0)
(176.71048 34.294378 -1.1472928e-16)
(184.25036 14.528064 0)
(179.98759 1.7810397 3.2159655e-17)
(172.15712 -3.7931525 4.4878595e-18)
(167.16002 -5.8388559 -5.2280925e-20)
(157.65382 -3.4321513 1.885106e-17)
(-20.949476 -2.2291152 2.3235196e-16)
(-0.55922797 15.657122 5.1306123e-17)
(107.50368 50.850558 -1.2426515e-19)
(176.44861 32.764227 0)
(184.97858 12.361507 -8.6320879e-17)
(180.53103 0.11871105 0)
(172.20942 -5.1731258 -5.5315177e-21)
(166.28932 -7.3730887 -5.1705417e-20)
(155.77149 -3.5277441 5.1370478e-20)
(-19.88318 -0.56944994 -2.2384261e-16)
(1.7353348 25.645899 -2.1610096e-17)
(98.383011 50.91133 4.3845519e-17)
(175.33085 32.03604 -7.2933918e-19)
(185.92029 11.050296 -9.1029677e-18)
(180.72279 -2.2334369 0)
(171.4347 -6.7027483 -8.7213149e-18)
(164.9025 -7.9623767 0)
(153.83465 -3.5537696 0)
(-18.116818 2.055208 4.3281053e-19)
(2.093737 31.786164 -2.7947256e-17)
(92.212642 49.628195 -1.0027377e-16)
(174.35286 30.301412 1.8154064e-16)
(186.22311 8.6595798 9.2110774e-17)
(180.78667 -3.8903103 4.8024752e-17)
(170.8558 -8.2157693 8.3923648e-18)