/*--------------------------------*- C++ -*----------------------------------*\
  =========                 |
  \\      /  F ield         | OpenFOAM: The Open Source CFD Toolbox
   \\    /   O peration     | Website:  https://openfoam.org
    \\  /    A nd           | Version:  11
     \\/     M anipulation  |
\*---------------------------------------------------------------------------*/
FoamFile
{
    format      ascii;
    class       surfaceScalarField;
    location    "0.067";
    object      phi;
}
// * * * * * * * * * * * * * * * * * * * * * * * * * * * * * * * * * * * * * //

dimensions      [0 3 -1 0 0 0 0];

internalField   nonuniform List<scalar> 
1652
(
2.843686947071611
0.8895636090847481
0
1.954123337988149
0.8895636090834618
0
1.064559728903287
0.8895636090848447
0
0.8895630694113279
-1.620450440498189e-10
0.17499617276582
2.843686947076741
1.779127218162428
1.954123337998014
1.779127218162189
1.064559728910188
1.779127218172453
1.779115950512405
0.1749970914157039
2.843686947090741
2.668690827246526
1.954123338008367
2.668690827244562
1.064559728914373
2.668690827259634
2.6686185690852
0.1750036676087106
2.843686947092868
3.558254436328659
1.954123338013008
3.558254436324421
1.064559728937146
3.558254436204281
3.558165772996443
0.1749966310989573
4.418652025448567
2.872852967045247
5.279049614570543
2.872852967043177
6.139447203693361
2.872852967042502
2.872852967039999
6.999844792764179
4.41865202543751
2.012455377932159
5.279049614550976
2.012455377929712
6.139447203664213
2.012455377929244
2.012455377926215
6.999844792778006
4.418652023958944
1.152057791248916
5.279049717920362
1.152057764801889
6.138587569647956
1.152086000835092
1.151989788305652
7.001312811672817
4.432581104146134
0.2606763242326966
5.374040936036526
0.141604911680794
6.351219587508747
0.06150726681919572
7.324936088642097
0.02605078687927453
6.941512738543445
0.0583319246323436
6.883180691305219
0.0583318372531314
6.82484865292862
0.05833178471970935
0.05833193597647313
6.766516628335804
6.941515345553656
0.1166580086577929
6.883184161049364
0.116656519833003
6.824852073430064
0.1166548836618034
0.1166574660969654
6.766522272868227
6.943546669006299
0.1722250329785875
6.88558014540364
0.1715387114219587
6.827236419837141
0.1709810260573389
0.1708137419695536
6.769817210145674
7.341775724981325
0.003685181036558238
7.332964472970602
-0.002192687185722408
7.277284145060053
-0.002098507984511611
7.224965826553301
-0.02205537222220211
7.241757863447501
0.00776117958076139
-0.1888774439693268
7.150209414547452
0.01277917635636316
-0.05062215698278455
7.015960460964079
0.01587102821752079
-0.007676309975420348
0.006584291908563078
6.884839494280088
-0.002477645637566306
6.771846523597036
2.523229877293698e-05
6.772524880310711
3.975330089012186e-05
6.772373450089722
4.685389346736901e-05
2.402699128956076e-05
6.768893677837752
6.766527592868647
7.081119864915664e-07
6.766528608216683
9.448227492603323e-07
6.766528075905678
9.126488219601825e-07
4.952584332640342e-07
6.766521159208352
6.766516598236286
6.766516585859679
6.766516586150022
6.766516609526448
6.766516629176887
-1.14259586680987e-07
6.766516632932145
-8.671696805073736e-09
6.766516633047916
-1.405133787102386e-10
2.531530540750282e-12
6.766516633049349
6.766517199950271
-5.395434695576462e-06
6.76651664825248
-4.541665237223214e-07
6.766516632801281
-9.515610521759754e-09
1.10841391620653e-09
6.766516632751029
6.766885675696479
-0.001447983475675485
6.766530633151796
-0.0001479497347229297
6.766516696300586
-4.15041780321701e-06
-1.730974036329158e-08
6.766516620201728
6.796003918462391
-0.002594227023072493
6.768827799194438
-0.0009062950890950661
6.766549403646895
-7.899178712011956e-05
6.766516433050867
-8.56931056780752e-07
-1.811341587831805e-08
6.766516393586071
2.407748628252548e-08
-1.483277944913652e-10
6.766516619231381
-2.637889906509372e-13
6.766516632986954
6.766516633049351
-2.984191838084627e-09
6.766516196454846
8.933382478204521e-09
-2.089356798684605e-09
6.766516621717853
-1.496378576604229e-10
6.766516632246045
6.766516633025793
-2.522913621960665e-06
6.766604078639877
1.076658619425519e-06
2.716613920483724e-07
6.766517786529751
4.745798720673378e-08
6.766516772877877
6.766516636649598
0.0001711817387199388
6.785277276642502
-0.06318722122170911
-4.941704568439675e-05
6.766333841686757
-4.10165297393128e-07
6.766500200551106
6.766516582453276
0.1555527930028042
6.610964527788077
0.3111142261129357
6.610959178206604
0.4645950964328318
6.611477242597518
6.755459840286693
0.1937119640987819
0.1555520616420187
6.455412525114326
0.3110882736228698
6.455417895436467
0.4592304213236458
6.4579140654571
6.671032304983784
0.121191323190709
0.1555507594001027
6.299860514009713
0.3110634251623324
6.299871127866624
0.4527898136355354
6.304539613656128
6.631106362102719
0.07882652247116073
0.1555501151566567
6.144308474237691
0.3110433637055458
6.144320407211859
0.4476187571402245
6.14941989237908
6.517838554240168
0.03627001015725306
-0.4444968103886815
6.351608401383825
0.01690893313508801
-0.3110294032754862
5.994843595659253
-0.1555497283906327
5.988772079062274
5.988756340055704
-0.4407853338268439
6.132084227067056
0.01866006228435901
-0.3110066243975434
5.838745448954537
-0.1555488880858132
5.833219197708271
5.833204213012159
-0.4373224978321946
5.921720609609044
0.01693326248779392
-0.3109869355504695
5.684361763981889
-0.1555482193492888
5.677674945263478
5.677652140621445
-0.4318570511695215
5.693667333392137
0.02018487439688543
-0.3109379946786551
5.52826789597145
-0.1555459894873885
5.522120592599205
5.522100093710513
0.199295308471266
5.322799024159241
0.3984391455741609
5.322818322134954
0.556306227321604
5.328822955696788
5.43487735810896
0.0441021868340139
0.1992936859776407
5.123498106221022
0.3983914091417958
5.123520028416393
0.5491617226826061
5.129225266416193
5.152875298695377
0.07039532916298641
0.1992916260259096
4.924197269751276
0.3983489123704313
4.924214910674903
0.5481662394170239
4.928498809760788
4.902991626079948
0.1702957132960655
0.1992939165990728
4.724896177647102
0.3984457071097127
4.725001725187923
0.5675056851738216
4.735438999016927
4.68448281285697
0.39692211918781
-0.3354241137238366
5.060305378519269
-0.6715767210428659
5.060299553904179
-1.0498510336027
5.076477146497107
4.938923323543508
-1.43935985134249
-0.3354054203608704
5.395714925739378
-0.6706552534395457
5.395549455599592
-0.9896606841484212
5.38662527256861
4.638555923179739
-0.5059072226140925
-0.335405436864945
5.73112252185861
-0.6699197689851049
5.730823189829353
-0.9315441325237139
5.685047907729699
4.086040376068861
-0.05701501530021018
-0.3354041870329725
6.066531626107518
-0.6689223181273484
6.066149093146152
-0.8578932078886481
5.964877541263598
3.648205284182204
0.00346083287330809
0.4301363167650917
3.653603167038507
0.01054849564661619
0.34884241663052
6.142813834486661
0.174992698653514
6.241154152584683
6.241527782191843
0.4371467167087104
3.815478245025894
0.007681790162508285
0.3490687224836613
6.340834234129959
0.1749934994771278
6.416334463402853
6.416524202657743
0.4562928993915598
4.092031484407386
0.002668924167395281
0.3494573830982675
6.52804826490333
0.1749947767533065
6.591354875500276
6.591520330077265
0.4515990999193146
4.384374922768006
0.01334794583592792
0.3493967364242773
6.715861901577665
0.1749946252695301
6.766392336743577
6.766516487207682
-0.03850115371511742
5.44098556670849
0.208183687817039
-0.0003310118000361406
6.755551098018755
-9.945506223019152e-07
6.766499322437311
6.766516614134433
-0.01252364021422503
6.242055557808571
0.1652268929803288
-6.526075198665104e-05
6.765049230100624
-1.497010813089616e-07
6.766515173211791
6.766516632037355
-0.004165116344940212
6.673311849351768
0.1474208871709354
-1.601419440278029e-05
6.766796832353113
-3.19414252825112e-08
6.766518006709991
6.766516633073033
-0.002813262951156914
0.1190218222140512
6.756817774521322
-1.372786376419022e-05
6.766207490724691
-3.631975409312815e-08
6.76651387626563
6.766516632802764
1.08666766208395
-0.8223463439849628
-0.03014675090465781
-1.597655341356585e-11
1.982973779167229
-0.8737329026165495
-1.098854340852995e-11
2.858268211541152
-0.8749721061673035
1.260325177554478e-11
-0.8749805733544496
-5.216271858898835e-12
1.087095723144532
-1.650861421756038
-0.03291212889659899
1.982974686429529
-1.74748029800944
2.85826821116934
-1.74994406436381
-1.749961144711486
1.087397265380604
-2.488565557663366
-0.04201576244212099
1.982974503338091
-2.621267368083102
2.858268204210196
-2.624916210596756
-2.624941717117795
1.088219463308233
-0.05300806114229442
-3.354280004901517
1.982979088186311
-3.49549726871304
2.858268216597287
-3.499892442046375
-3.499922309809658
-0.002813262952167439
-6.673311849353787
0.1190218222134057
6.756817774520167
-1.372786509268309e-05
-6.766796832359677
6.76620749072621
-3.632592449065442e-08
-6.766518006716743
6.766513876268396
-6.766516633071893
6.766516632817787
-0.004165116344916453
-6.242055557821955
0.1474208871711635
-1.601419757069067e-05
-6.765049230102804
-3.19418353988965e-08
-6.766515173224199
-6.766516632037367
-0.01252364022029706
-5.44098556670647
0.1652268929825129
-6.526075752688598e-05
-6.755551098025288
-1.497007986461796e-07
-6.766499322440474
-6.766516614135607
-0.03850115371454932
-4.384374922760522
0.2081836878146513
-0.0003310117983537086
-6.715861901576361
-9.945498142815978e-07
-6.766392336739922
-6.766516487206925
-0.1749926986459224
6.241527782240477
-6.066531626141048
-0.3488424166051228
6.241154152630128
-6.066149093201571
-0.4301363167567969
6.142813834448721
-5.964877541198191
3.653603167005461
-3.648205284128125
0.0105484956464745
-0.1749934994610117
6.416524202682133
-0.3490687224628414
6.41633446342413
-0.437146716699391
6.340834234110876
3.81547824499841
0.007681790162688495
-0.1749947767410638
6.591520330089477
-0.3494573830763873
6.591354875507262
-0.4562928993817822
6.528048264897423
4.092031484400199
0.0026689241682527
-0.1749946252584385
-0.3493967363980651
-0.4515990999080374
0.01334794583500189
0.8578932078972152
-4.086040376037145
0.003460832871909736
0.6689223181602084
-5.68504790769749
0.3354041870498368
-5.730823189863455
-5.73112252188746
0.9315441325310395
-4.638555923157187
-0.0570150152995077
0.6699197690065951
-5.386625272551394
0.3354054368766149
-5.395549455626854
-5.395714925758874
0.9896606841604122
-4.93892332353545
-0.5059072226122663
0.6706552534624373
-5.076477146490397
0.3354054203655165
-5.060299553916919
-5.060305378526706
1.049851033615335
-4.684482812856062
-1.439359851346838
0.6715767210610918
-4.735438999017445
0.3354241137327749
-4.725001725191233
-4.724896177647912
0.199295308476631
5.322799024178893
-5.52210009373688
0.3984391455876538
5.322818322147727
-5.522120592627846
0.556306227330032
5.328822955671077
-5.528267895951306
5.434877358085915
-5.693667333362229
0.04410218683500355
0.1992936859832648
5.123498106233727
0.3983914091550692
5.12352002843166
0.5491617226904879
5.129225266401946
5.152875298679618
0.07039532916225766
0.1992916260324979
4.924197269756212
0.3983489123843981
4.924214910683847
0.5481662394230731
4.928498809754215
4.902991626072145
0.1702957132964735
0.1992939166055552
0.3984457071235959
0.5675056851791231
0.3969221191898543
-0.4318570511620941
-5.92172060959335
0.02018487440214789
-0.3109379946650644
-5.684361763951836
-0.1555459894806562
-5.677674945286917
-5.677652140640622
-0.4373224978213507
-6.132084227070864
0.01693326248996163
-0.3109869355376882
-5.838745448908833
-0.1555482193434348
-5.833219197736412
-5.833204213024967
-0.440785333823574
-6.35160840135303
0.01866006228356587
-0.3110066243820036
-5.994843595688775
-0.1555488880786605
-5.988772079053788
-5.988756340060721
-0.4444968103860539
-6.517838554190956
0.01690893312550434
-0.3110294032621692
-6.149419892406772
-0.1555497283841774
-6.144320407232224
-6.144308474236809
0.155552793002631
6.610964527790228
-6.766516582452812
0.311114226113828
6.610959178209289
-6.766500200543698
0.4645950964347492
6.61147724258637
-6.766333841687088
6.755459840292077
-6.785277276642395
0.1937119640951936
0.1555520616416705
6.455412525108662
0.3110882736231272
6.455417895437658
0.4592304213215651
6.457914065477252
6.671032304971724
0.121191323194517
0.1555507593997627
6.299860514009099
0.3110634251615697
6.299871127859382
0.4527898136382361
6.304539613611491
6.631106362130279
0.07882652246311161
0.1555501151560454
0.311043363704796
0.447618757132746
0.03627001017472309
-6.766516636650859
4.10165861941536e-07
-6.766516633026145
-4.745670090233745e-08
-6.766516633049342
1.47155621021966e-10
3.035349749325178e-13
-6.76651663304934
-6.766516772875226
4.941704237215738e-05
-6.766516632251443
-2.716632536703401e-07
-6.766516632986193
2.093057838159496e-09
1.482953759790462e-10
-6.766516632750446
-6.766517786533769
-0.0001711817391432668
-6.766516621714818
2.522914557323563e-06
-6.766516619229764
2.983806479672779e-09
1.811248834249213e-08
-6.766516620200577
-6.766604078642211
-0.06318722122232528
-6.766516196455015
1.076654444487346e-06
-6.766516393584285
8.933338124794687e-09
-6.766516433049127
2.407864801989845e-08
2.518985020572018e-12
-6.766516633047901
1.107425373625404e-09
-6.76651663280073
-1.731060556009467e-08
-6.766516696299934
-6.766549403645202
-8.569307037853413e-07
-1.404399929683109e-10
-6.766516632932053
-9.515781718150151e-09
-6.766516648252113
-4.150417854287269e-06
-6.76653063315502
-6.768827799195164
-7.899178886144886e-05
-8.671705575835631e-09
-6.766516629177463
-4.541663479740166e-07
-6.766517199947597
-0.0001479497329189283
-6.766885675693973
-6.796003918463811
-0.0009062950891910448
-1.142600210002342e-07
-6.766516609525832
-5.395435915045432e-06
-6.766521159214509
-0.001447983476513537
-6.768893677834072
-6.884839494282694
-0.002594227023252516
-7.081179335122201e-07
6.766516598220634
-6.766516628319819
-2.523230942541588e-05
6.766527592850207
-6.766522272843359
-0.007761179589319767
6.771846523618454
-6.769817210175042
7.241757863453426
-7.224965826569298
-0.1888774439685544
-9.448268459832931e-07
6.766516585849351
-3.975330887862061e-05
6.766528608209457
-0.01277917635904974
6.772524880322032
7.150209414554921
-0.05062215698467198
-9.126525589708834e-07
6.766516586143972
-4.685390166681014e-05
6.766528075912625
-0.01587102822230907
6.772373450095532
7.015960460973202
-0.007676309975484241
-4.952650303202688e-07
-2.402700365589094e-05
-0.006584291910553042
-0.002477645639382631
-0.1708137419713312
-7.277284145077549
-0.0220553722207999
-0.1166574661152084
-6.827236419844472
-0.05833193597927122
-6.824852073422703
-6.824848667279178
-0.1709810260644409
-7.332964472987792
-0.002098507983749109
-0.11665488368168
-6.885580145378562
-0.05833178472478506
-6.883184161060742
-6.883180691289573
-0.1715387114370253
-7.341775724989669
-0.002192687182524744
-0.1166565198512349
-6.943546668898973
-0.05833183725595359
-6.94151534559376
-6.941512738534239
-0.1722250330052417
-7.324936088627743
0.003685181036863328
-0.116658008680818
-7.00131281164265
-0.05833192463795711
-6.999844792821183
-6.99984479276131
-1.151989788299497
-6.35121958749368
0.02605078687960494
-2.012455377910968
-6.138587569745762
-2.872852967039921
-6.13944720369222
-6.139447203690503
-1.152086000826841
-5.37404093601958
0.0615072668193003
-2.01245537791648
-5.27904971791382
-2.872852967042259
-5.279049614566445
-5.27904961456744
-1.15205776480151
-4.432581104121507
0.1416049116793031
-2.012455377921992
-4.418652023957657
-2.872852967044603
-4.418652025443835
-4.418652025446892
-1.152057791247156
-3.558165772999745
0.260676324232401
-2.012455377927508
-3.558254436202262
-2.872852967046921
-3.558254436324423
-3.55825443632866
2.843686947076677
0.8895636090796828
1.954123337995112
0.8895636090815642
1.064559728908975
0.8895636090861194
0.8895630693053178
0.1749961728497051
2.843686947077599
1.7791272181565
1.954123337999196
1.779127218159969
1.064559728911151
1.779127218173924
1.779115950561248
0.174997091399692
2.843686947089469
2.668690827241873
1.95412333800662
2.668690827242819
1.064559728912956
2.668690827261334
2.668618569124959
0.1750036677152784
2.843686947088214
1.954123338006611
1.064559728931622
0.1749966311086038
0.1749961091799903
0.174996109239648
0.1749957593330577
0.1749968632879747
0.1749945148691585
0.1750024760375354
0.1748486004928175
0.1750555262630048
0.1749968633414333
0.1749957593431345
0.1749964653641008
0.174996465342633
0.1750051369399311
0.1749921885362592
0.1744525632619718
0.1750638349508265
0.1750024759716835
0.1749945149073736
0.1749921885139144
0.1750051369188685
0.1749362079553507
0.1749362079915791
0.1722562999917143
0.1760035603697625
0.1748486005072606
0.1750555262707645
0.1744525632751254
0.1750638349257614
0.1722563000062765
0.1760035603834947
0.1714101620220029
0.1714101620336536
-0.08051557282815608
0.2482141094537878
-0.1493680879768515
0.2397455851501924
-0.2173865305880262
0.2378965942772421
0.214131133262165
-0.0175449632060608
0.2653349042362311
-0.0446464288638867
0.2645036112782537
-0.08339512582853292
0.2716410625284072
0.2642680543597369
-0.00868052448831691
0.2720411180056924
-0.02597838060036672
0.2809224237300596
-0.03963909253415243
0.2858685896939822
0.2861618944342696
-0.00484359907103582
0.2785426142629862
-0.01509828829148385
0.2937484866404588
-0.02193503773604522
0.297000257964895
0.2968739351677122
0.3011445296637187
0.006048531355291431
0.302928218721808
0.001411979874781755
0.3034910517866579
0.00190734502236406
-0.01709841328192657
0.3046581038080446
0.3037296992974371
0.006363804627390779
0.3070302461901708
0.003703804928805787
0.3080896407079062
0.004805776209688972
-0.01718584620741226
0.3132596335302835
0.3013316965116752
0.002016411623714076
0.3044554925238523
0.001539161204479889
0.3060758088240645
0.002337552865703252
-0.03676081093356137
0.328417802286129
0.2854072751679446
0.2887065789832855
0.2903609597617661
0.2520360849367901
0.2811167048769133
-0.158610792538562
0.2577841961857836
-0.01563605719096817
0.2467428428877944
0.009039718279828635
0.00348593244326767
0.2408846382924116
0.268911552122827
-0.1238827856301661
0.2516959251058769
0.00180105258178509
0.2479106998889084
0.01378896121454748
0.007132555124902407
0.2425892894323939
0.270878083457518
-0.07411410667376195
0.2525035856457583
0.005407133847361079
0.2504281674618675
0.01539996182057846
0.01053114167698765
0.2462449447505585
0.1883143304042795
0.2011949049480042
0.2191464382743819
0.2300340417189271
0.2360699637709643
-0.0006277162500355482
0.2337162497859522
-0.0006141506628462579
0.2333414193903333
-7.924774354334252e-05
-1.715342457797586e-06
0.2333282218470621
0.2373766971599368
0.002130870540561769
0.2340833281246395
0.0005503582144510966
0.2333616403498147
7.599198456254008e-05
3.331164241227036e-06
0.2333283669889409
0.2400132230634407
0.005838956869444079
0.2347598628412966
0.003015330588564291
0.2334002851035557
0.000567871620466176
2.606799874166343e-05
0.2333286733835431
0.2320564053393485
0.2328416801887037
0.2332709230758208
0.233327574857311
0.2333281559224676
1.410468825069344e-08
0.2333281558986722
-1.961680096140839e-09
0.2333285234469666
6.51561347764229e-07
-0.08546938237869067
0.2447320193641584
0.2333281546784776
3.891267646993768e-08
0.2333281545252435
-6.425432408363463e-09
0.2333283979905138
3.899441489707556e-07
-0.08776923159603073
0.2192706440976734
0.2333281536694449
1.5651214541057e-07
0.233328153283184
-1.876483968210607e-09
0.233328535561302
1.37491380280963e-07
-0.06188425201625886
0.1899711505791415
0.2333281465758418
0.2333281815950404
0.233328541326123
0.1593510182972638
0.2758155383798511
0.1500601848846875
0.2882789384165341
0.1019609581419263
0.2982796983579275
0.06634708919188714
0.02904998204733333
0.3068723235980558
0.2607301196111854
0.1004984653073328
0.2850952784964307
0.06954154740657448
0.3035058235256792
0.04406591267412041
0.01849215625201139
0.3167441729085008
0.2250960341293749
0.06208397353633865
0.2672322106095498
0.02383391656267064
0.2989017778227184
0.01062640846595997
0.008351019088366218
0.314999892402071
0.2205752378817053
0.2417783138580169
0.2575770839126458
0.2788070013323551
0.3098534981656316
0.00831661740548284
0.3102519627481363
0.008219263830851031
0.3096120912818595
0.007310042030742592
0.009086552820463778
0.3092932904541816
0.3218951883629163
0.001556353422814571
0.3227523592083009
0.0003677399034015538
0.3228354213166277
0.0002290005392782124
0.002019494110706566
0.3227733273541263
0.3203716313954604
0.0003524853240267634
0.3211918594642877
-0.002350309901604342
0.321324622345978
-0.001910654377368926
6.594823920513804e-05
0.3215353603812265
0.2901631478887154
0.2922556891446825
0.2922005585471883
0.2930971142742044
0.3155357585840447
0.02608646185933683
0.3271858649205133
0.05275019953137217
0.3553843421332378
0.1487274523694477
0.3315803742083223
0.4320249527003205
0.3290145909274488
0.01647898734972952
0.3434216899034775
0.03894586370782327
0.3710817261277446
0.1323977487477406
0.2371847129337955
0.4777919854285242
0.327886390565439
0.006920402261021863
0.3429590365265434
0.02134659574311581
0.3810267871805699
0.09191469273939246
0.07560075670161936
0.5404500616376963
0.3033674645156819
0.3290992188165878
0.4261720578872895
0.4973598070076319
0.237418874602479
-1.241690716492131
0.03343427514068593
-0.2837947134037295
0.004138109889046395
-0.01824565569713795
0.01158613104541745
-0.0004878961942671126
0.1624282589004379
-0.9127848827603586
0.01679994249691336
-0.1217759801824666
0.002167704029992537
-0.002865821879216961
0.005795898168925902
0.0002945472629520551
0.08776178379747687
-0.4636665991773862
0.009860036484703424
-0.03242343464586745
0.003407218369717677
0.007718837789300832
0.001809466530218309
0.0007723492231969994
0.02955473352367518
-0.005376761092264475
0.002597368150553761
0.001461173304204763
0.0007291035351529897
0.009437831892518199
0.0004401396541487152
0.006357995812095354
0.00221221711289849
-0.0005173752477291294
-0.0006648340885097061
0.01653479324730331
-0.002209918312800762
0.005363830877579481
-0.005067264940215739
0.001377894222150587
-0.003193316575446005
-0.005920039854896822
-0.003086198907772019
-0.0002373723630412182
-0.002347010503186132
0.000544930347737338
-0.005543766612500957
-0.002552046219878534
-0.003755468337861907
-0.007113847603705009
-0.001556691209290036
-0.002645716541270389
-0.003095403980446554
-0.007310882438187003
-0.007023449577034628
-0.007374561992167832
0.1325402013859041
0.1188696007108709
0.191909038525399
0.1401593487357465
0.2220928666796825
0.1522511430275359
0.1168280167793849
0.2441004735707183
0.0838412283594562
0.04462003359474601
0.1597816394659493
0.09175293380886751
0.2012974058311257
0.1383622826450164
0.1014598720139418
0.2381870678940111
0.03020694738164291
0.01205347387846931
0.1094437034747196
0.02849059797313278
0.1747022764135177
0.08892339838104071
0.06214369055059518
0.2342711765580388
-0.003083935232069165
0.02029368513965343
0.1136201060562018
0.1935755478568365
0.2002138729257017
-0.2648858678870797
0.3287993709469681
0.1591642740785542
-0.1842581731143724
0.2579850598110745
0.1281153298815791
-0.1150132631265717
0.2021920101724213
-0.07590052728750442
0.1034513483265472
0.1456450333864025
0.1919615126360452
-0.2059915975031694
0.1199694020887045
-0.1140394430691588
0.07288369435943538
-0.06108151746715696
-0.0301905496123565
0.07346800526377296
0.1547920984877556
-0.1208647784304861
0.08173641709977138
-0.04372048547787253
0.0415505762482689
-0.0121278490876659
-0.01090495487477991
0.02894439967258126
0.08038784376758067
0.02606569467026231
0.02046236701541216
0.02771784186416137
0.03087086613079645
0.005582466761629707
0.02909104289223021
-0.001196424215063318
0.01677500257688449
-0.007806878145252485
-0.01911042114259961
-2.377958940869007e-14
0.03831564268876527
0.008085558564584223
0.05232987279782471
-5.424697214610752e-05
0.03928138687606434
-0.0008595158688767951
-0.001595391609900097
8.698597397938101e-14
0.08754038346182176
0.02891450001173279
0.09070047863738555
0.02151110256064609
0.07413646042800739
0.0172375835438809
0.0249075551860513
1.382505221414476e-13
0.09374263473951013
0.07965449652679571
0.05324835255945544
1.762617829470514e-13
-0.01911042114260326
-0.01677500257694691
-0.001595391609875582
-0.03928138687599621
0.02490755518609802
-0.07413646042782895
-0.05324835255909675
0.03014675090466815
-0.007806878145208345
-0.02909104289221494
-0.0008595158688884351
-0.05232987279779554
0.01723758354395877
-0.09070047863734067
-0.07965449652642767
0.03291212889662837
-0.001196424215044125
-0.03087086613075993
-5.424697208078824e-05
-0.03831564268874779
0.02151110256066953
-0.08754038346177843
-0.09374263473917974
0.04201576244216094
0.005582466761615
-0.02771784186412093
0.008085558564597859
-0.0289443996725355
0.02891450001180325
-0.07346800526380778
-0.1034513483261967
0.05300806114222915
-0.1281153298809752
-0.07590052728746711
0.1456450333861089
-0.1591642740780032
-0.1150132631263849
0.2021920101721916
-0.2002138729256037
-0.1842581731143699
0.2579850598112455
-0.2648858678871454
-0.2441004735708588
0.3287993709469718
-0.07288369435943982
-0.03019054961235004
-0.1199694020884122
-0.06108151746710126
-0.1919615126357214
-0.1140394430690586
-0.2059915975032053
-0.238187067893996
-0.04155057624819497
-0.01090495487478493
-0.08173641709963979
-0.01212784908766407
-0.1547920984876061
-0.04372048547783833
-0.1208647784305224
-0.2342711765579734
-0.02046236701543187
-0.02606569467027737
-0.08038784376758205
-0.1935755478569189
-0.1136201060566836
-0.06214369055039456
-0.02029368514006423
-0.08892339838125796
0.003083935232273488
-0.02849059797360992
-0.01205347387801974
0.007374561992195681
-0.1747022764138609
-0.1014598720135705
-0.109443703475236
-0.138362282645331
-0.03020694738130276
-0.09175293381006364
-0.04462003359356703
0.002645716541320491
-0.2012974058313651
-0.1168280167787876
-0.1597816394664166
-0.1522511430281643
-0.08384122835900316
-0.1401593487375776
-0.1188696007089401
0.0002373723627045014
-0.2220928666797339
-0.1919090385257537
-0.1325402013856582
-0.01653479324733923
-0.002212217113277203
-0.000664834088959558
-0.0004401396540850023
-0.0005173752472703713
-0.0007291035351109452
0.00635799581220468
0.009437831892362747
0.0004878961944105517
0.003193316575319382
-0.003086198908098779
0.005067264940184659
-0.005920039854599934
0.002209918312842631
0.001377894222194698
0.00536383087744996
-0.0002945472629165627
0.003755468337845959
-0.001556691209363324
0.00554376661246757
-0.007113847603569687
0.00234701050317351
-0.002552046219870215
0.0005449303476483119
-0.0007723492231867836
0.007023449577024058
0.007310882438206288
0.003095403980438059
-0.001461173304163472
-0.004138109888921512
0.01158613104458402
-0.03343427513984511
-0.0182456556967801
-0.2374188746008809
-0.2837947134021288
-1.241690716493708
-0.43202495270078
-0.002167704030027166
0.005795898168101228
-0.01679994249665853
-0.002865821879297827
-0.1624282588991031
-0.1217759801818629
-0.9127848827609719
-0.4777919854285789
-0.003407218369713562
0.001809466529676229
-0.009860036484530512
0.00771883778901624
-0.08776178379677864
-0.03242343464575868
-0.4636665991778251
-0.5404500616377278
-0.002597368150588739
0.005376761092210421
-0.0295547335235617
-0.4973598070080693
-0.3553843421331998
0.3315803742099324
-0.3271858649196486
0.1487274523683925
-0.3155357585829883
0.05275019953007409
0.02608646186106633
-0.3092932904530426
-0.371081726127272
0.2371847129341927
-0.3434216899028622
0.1323977487440712
-0.3290145909275511
0.03894586370726771
0.01647898735261877
-0.3227733273544023
-0.381026787181471
0.07560075670195721
-0.3429590365260669
0.09191469273394604
-0.3278863905658955
0.02134659574339326
0.006920402262748815
-0.3215353603814056
-0.4261720578876535
-0.3290992188188849
-0.3033674645182868
-0.2930971142767438
-0.3096120912820429
0.009086552825735006
-0.3102519627502623
0.007310042034069153
-0.3098534981642831
0.008219263829317369
0.008316617396365023
-0.3068723235968798
-0.3228354213169727
0.002019494115666265
-0.3227523592085031
0.0002290005414636864
-0.321895188362026
0.0003677399031082329
0.001556353417123124
-0.3167441729089417
-0.3213246223460572
6.594824326955351e-05
-0.3211918594644454
-0.001910654376278242
-0.3203716313950654
-0.002350309901394398
0.0003524853237498737
-0.3149998924028024
-0.2922005585486043
-0.2922556891456795
-0.2901631478888654
-0.2788070013340048
-0.2982796983579583
0.02904998206087317
-0.2882789384161845
0.06634708918503418
-0.2758155383806676
0.1019609581462596
0.1500601848816909
-0.2447320193644772
-0.303505823525663
0.01849215626074696
-0.2850952784962177
0.04406591266968474
-0.2607301196113323
0.06954154740935714
0.1004984653057357
-0.2192706440980567
-0.2989017778228117
0.008351019092724177
-0.2672322106093221
0.01062640846361806
-0.2250960341290057
0.02383391656473155
0.06208397353534512
-0.1899711505791839
-0.2575770839123781
-0.2417783138581009
-0.2205752378812169
-0.1593510182966514
-0.2333285234470536
-0.08546938238047536
-0.2333281558985455
6.51558317299461e-07
-0.233328155922343
-1.962499440733012e-09
1.41055292446346e-08
-0.2333282218469072
-0.2333283979913287
-0.08776923159780264
-0.2333281545250737
3.899421822106675e-07
-0.2333281546783121
-6.426189191888199e-09
3.891361921581904e-08
-0.2333283669890647
-0.2333285355604477
-0.06188425201607045
-0.2333281532830799
1.374975889811836e-07
-0.2333281536693452
-1.877258459792586e-09
1.565127016323054e-07
-0.2333286733837481
-0.233328541324474
-0.2333281815944774
-0.2333281465759635
-0.2333275748579938
-0.2333414193900993
-1.715342230423911e-06
-0.233716249786227
-7.924774445305927e-05
-0.2360699637712668
-0.0006141506629542826
-0.0006277162497149158
-0.240884638292775
-0.2333616403491719
3.33116412570833e-06
-0.2340833281252301
7.59919846333168e-05
-0.2373766971589053
0.0005503582135194529
0.002130870541795282
-0.2425892894323156
-0.2334002851026878
2.606799839388607e-05
-0.2347598628420503
0.0005678716209600032
-0.240013223062108
0.003015330587257614
0.005838956871712264
-0.2462449447504885
-0.2332709230756534
-0.2328416801894883
-0.2320564053395371