/*--------------------------------*- C++ -*----------------------------------*\
  =========                 |
  \\      /  F ield         | OpenFOAM: The Open Source CFD Toolbox
   \\    /   O peration     | Website:  https://openfoam.org
    \\  /    A nd           | Version:  11
     \\/     M anipulation  |
\*---------------------------------------------------------------------------*/
FoamFile
{
    format      ascii;
    class       volScalarField;
    location    "6.3";
    object      p;
}
// * * * * * * * * * * * * * * * * * * * * * * * * * * * * * * * * * * * * * //

dimensions      [0 2 -2 0 0 0 0];

internalField   nonuniform List<scalar> 
5472
(
97.457899
95.094847
92.716791
90.34904
88.010721
85.707054
83.477418
81.338528
79.264113
77.297941
75.446182
73.712531
72.121573
70.644634
69.368468
68.211023
67.265555
66.524433
66.008403
98.140282
95.950829
93.724269
91.489834
89.264441
87.063746
84.914359
82.832554
80.815722
78.880592
77.042174
75.320701
73.729134
72.260146
70.98833
69.834292
68.875692
68.059653
67.430264
98.809158
96.784808
94.706413
92.607423
90.498767
88.405767
86.336274
84.310395
82.343533
80.438694
78.620645
76.916789
75.319974
73.871521
72.581242
71.428431
70.45793
69.632295
69.028848
99.413199
97.541322
95.608685
93.661011
91.672001
89.67883
87.69522
85.747405
83.834937
81.964488
80.170367
78.473432
76.895941
75.46176
74.160508
73.014843
72.036494
71.224918
70.619611
99.938458
98.227733
96.451123
94.620408
92.734839
90.850262
88.974443
87.111277
85.252126
83.430935
81.667283
79.992188
78.430279
76.996286
75.708739
74.574577
73.598597
72.791746
72.185168
100.41354
98.833254
97.19869
95.500349
93.748902
91.969301
90.188952
88.399095
86.608882
84.851928
83.115964
81.476961
79.943206
78.52669
77.243386
76.11142
75.148202
74.351817
73.751738
100.82005
99.392764
97.874228
96.278883
94.664151
93.007805
91.332428
89.62178
87.889507
86.179916
84.499507
82.899656
81.385496
80.002988
78.736172
77.617079
76.664728
75.877025
75.27502
101.16693
99.859384
98.472532
97.009238
95.510287
93.952904
92.376407
90.762422
89.124523
87.47113
85.843495
84.280752
82.79943
81.439555
80.185183
79.094638
78.148647
77.373921
76.7931
101.48465
100.30564
99.013345
97.661238
96.275221
94.830737
93.341828
91.80849
90.264443
88.677104
87.109862
85.60082
84.165586
82.82635
81.602734
80.531651
79.58576
78.83571
78.26089
101.74281
100.66391
99.504885
98.271397
96.96249
95.619932
94.254016
92.819844
91.336943
89.813096
88.313773
86.844854
85.455358
84.154267
82.971148
81.913521
80.994197
80.257777
79.688771
101.99568
101.006
99.927587
98.796543
97.594399
96.352733
95.057212
93.72118
92.328977
90.889793
89.459161
88.048728
86.705875
85.433141
84.277243
83.237382
82.358215
81.636982
81.089368
102.1821
101.2859
100.31396
99.266451
98.165723
97.030292
95.820738
94.563359
93.234995
91.874943
90.511645
89.176623
87.882179
86.659099
85.538933
84.512258
83.655963
82.949695
82.429842
102.37054
101.54933
100.65331
99.700216
98.695415
97.633189
96.506896
95.334697
94.096334
92.815282
91.502329
90.224505
88.982489
87.815171
86.731306
85.748538
84.909395
84.216325
83.716098
102.50547
101.76413
100.95827
100.07692
99.152795
98.172848
97.130847
96.032393
94.882947
93.678696
92.440366
91.21975
90.019159
88.898135
87.844591
86.907509
86.101731
85.447974
84.959107
102.6441
101.97828
101.23854
100.4317
99.579805
98.669142
97.701708
96.664681
95.584384
94.453851
93.301797
92.152292
91.019514
89.933788
88.916699
88.001494
87.213727
86.589029
86.122456
102.75054
102.15033
101.47291
100.73515
99.95298
99.125371
98.231161
97.259725
96.236942
95.162622
94.078516
92.989531
91.923321
90.88751
89.923108
89.042925
88.291693
87.686086
87.23264
102.86454
102.31034
101.69096
101.0147
100.28581
99.519047
98.696572
97.804476
96.84946
95.842595
94.818257
93.783229
92.760927
91.769045
90.842096
89.992082
89.270731
88.690191
88.263579
102.96631
102.46196
101.89982
101.2775
100.60199
99.883821
99.10819
98.274212
97.382224
96.446469
95.489773
94.520965
93.547852
92.599062
91.70686
90.898176
90.213084
89.647231
89.237525
103.06577
102.60488
102.08222
101.50864
100.89697
100.23374
99.504825
98.719871
97.874798
96.99182
96.088942
95.17088
94.249917
93.347069
92.489453
91.721748
91.061539
90.523299
90.126473
103.16208
102.74233
102.25776
101.7257
101.15722
100.53976
99.865841
99.132139
98.337355
97.504888
96.651076
95.778874
94.903937
94.044996
93.221161
92.475819
91.841328
91.325701
90.942422
103.26627
102.88494
102.44123
101.94475
101.40391
100.82244
100.19105
99.498079
98.750398
97.963649
97.151111
96.318501
95.48004
94.664253
93.893867
93.192991
92.567149
92.064092
91.696107
103.36046
103.01935
102.61298
102.15725
101.65719
101.10891
100.50711
99.848142
99.140812
98.396691
97.621334
96.821271
96.003604
95.196617
94.435238
93.744619
93.164523
92.680169
92.321819
103.46113
103.15494
102.78402
102.36095
101.89304
101.37667
100.80757
100.18075
99.502985
98.786375
98.047991
97.293299
96.529106
95.777978
95.043031
94.369126
93.775388
93.295934
92.947566
103.5692
103.30012
102.97046
102.58425
102.14635
101.65952
101.11647
100.51368
99.852091
99.142406
98.399585
97.632992
96.852305
96.082794
95.36049
94.719547
94.164249
93.696658
93.355093
103.6551
103.43497
103.15064
102.80269
102.39857
101.94524
101.44126
100.8847
100.26942
99.605742
98.906662
98.18243
97.445399
96.704716
95.975818
95.266655
94.661866
94.175314
93.831749
103.74385
103.58117
103.34365
103.02974
102.64562
102.19449
101.67976
101.10105
100.46603
99.778285
99.049348
98.295858
97.530576
96.776647
96.052607
95.40811
94.829602
94.349786
94.018723
103.80866
103.73687
103.59624
103.38273
103.0968
102.73453
102.29448
101.77901
101.18596
100.52161
99.795764
99.020426
98.22155
97.408466
96.598576
95.825965
95.140061
94.609317
94.255301
65.493333
65.136613
65.103661
65.204836
65.524656
65.922015
66.544096
67.256585
68.072394
69.069039
70.085691
71.315023
72.610348
74.060674
75.617547
77.233196
78.932277
80.651118
82.460043
66.975583
66.738842
66.748838
66.917001
67.320553
67.831082
68.624554
69.488204
70.573096
71.756034
73.061647
74.553061
76.098484
77.825823
79.578144
81.451399
83.349491
85.322659
87.325325
68.56229
68.370381
68.387968
68.646569
69.121528
69.809189
70.729114
71.78845
73.080776
74.441347
76.021181
77.684556
79.489384
81.378406
83.336879
85.404416
87.485189
89.671652
91.819795
70.154334
69.972904
70.029651
70.367274
70.944754
71.79139
72.834483
74.099873
75.530915
77.10419
78.856464
80.685211
82.657599
84.661363
86.789449
88.948944
91.167837
93.424459
95.637556
71.728516
71.562138
71.668836
72.085986
72.781139
73.748772
74.941943
76.349798
77.922241
79.665892
81.53523
83.513611
85.568009
87.68661
89.86678
92.060998
94.281544
96.469014
98.603868
73.29066
73.145534
73.30398
73.800022
74.596692
75.687246
77.009083
78.544462
80.263798
82.117029
84.096637
86.156898
88.263235
90.427363
92.58015
94.733553
96.826852
98.839413
100.71728
74.829717
74.705018
74.913374
75.487769
76.398433
77.593037
79.02337
80.672558
82.483867
84.433353
86.48382
88.5827
90.705713
92.829841
94.89804
96.909945
98.780942
100.53118
102.09428
76.348703
76.244635
76.510138
77.160463
78.156606
79.426026
80.975287
82.716466
84.617666
86.626238
88.698371
90.792326
92.858803
94.879369
96.80363
98.601899
100.227
101.70428
102.95211
77.832731
77.746336
78.058498
78.794968
79.863489
81.219396
82.852448
84.649479
86.610264
88.631214
90.700291
92.723724
94.698814
96.576964
98.306352
99.881497
101.26366
102.46043
103.44378
79.283906
79.216673
79.59598
80.381927
81.501578
82.94424
84.637798
86.489119
88.470903
90.472581
92.479903
94.39842
96.253119
97.935722
99.465875
100.81195
101.95806
102.91824
103.68979
80.681302
80.646939
81.079287
81.895195
83.078524
84.585794
86.312325
88.195878
90.154202
92.106978
94.02089
95.826899
97.514307
98.995876
100.3267
101.43396
102.37861
103.11693
103.65958
82.036512
82.055154
82.492459
83.344951
84.593719
86.14664
87.889273
89.765708
91.672158
93.556596
95.351557
97.009969
98.508311
99.800376
100.91808
101.79312
102.51445
102.96193
103.22436
83.336559
83.379424
83.823575
84.74094
86.030623
87.597333
89.343103
91.19156
93.022702
94.810111
96.465541
97.960962
99.266036
100.36159
101.24714
101.89126
102.353
102.5421
102.57701
84.595059
84.638451
85.113075
86.072467
87.378614
88.951645
90.675789
92.462392
94.20523
95.874806
97.374692
98.699895
99.811516
100.69969
101.36186
101.80358
102.04773
102.11149
102.05668
85.776318
85.818219
86.335031
87.320055
88.630178
90.191186
91.881627
93.593167
95.237374
96.768921
98.111041
99.265403
100.17877
100.87287
101.36557
101.67036
101.81006
101.8757
101.89681
86.894691
86.948271
87.515167
88.481462
89.785393
91.321301
92.952799
94.577488
96.114532
97.499161
98.692585
99.679436
100.42215
100.97234
101.36108
101.61918
101.76654
101.90494
102.07319
87.928851
88.020608
88.588842
89.542237
90.856196
92.351771
93.916374
95.450677
96.871592
98.118711
99.168877
99.999205
100.61283
101.07714
101.42601
101.70587
101.91815
102.14545
102.3827
88.911815
89.015957
89.556998
90.529721
91.826436
93.257852
94.756207
96.197557
97.504352
98.631237
99.544954
100.25404
100.78856
101.22911
101.58518
101.91181
102.18591
102.46103
102.71618
89.818729
89.919889
90.475856
91.467199
92.702519
94.091486
95.523236
96.864536
98.065236
99.07761
99.886202
100.51009
101.02067
101.45801
101.83936
102.19729
102.50016
102.78376
103.03533
90.640052
90.729793
91.287995
92.242053
93.454352
94.813555
96.170803
97.424071
98.535892
99.443849
100.18904
100.77336
101.29696
101.73146
102.11995
102.47261
102.77901
103.06556
103.29712
91.41155
91.51711
92.094588
93.028949
94.214332
95.501751
96.771971
97.954193
98.973887
99.833741
100.52321
101.09667
101.60931
102.02942
102.3973
102.71231
103.00251
103.22708
103.36297
92.03356
92.127913
92.671678
93.59716
94.777923
96.032058
97.259403
98.385485
99.351805
100.18804
100.85304
101.41831
101.88934
102.29042
102.63308
102.88376
103.07909
103.17612
103.15212
92.677807
92.803585
93.385575
94.32518
95.443313
96.638518
97.814532
98.874759
99.792046
100.56704
101.19283
101.71549
102.13734
102.47902
102.70924
102.85496
102.90469
102.81529
102.64923
93.079673
93.174648
93.730777
94.646125
95.792805
97.031323
98.206996
99.26081
100.15854
100.90197
101.51095
101.99071
102.35915
102.6075
102.73416
102.7485
102.61567
102.39245
102.15189
93.56838
93.727384
94.364762
95.330092
96.476918
97.656925
98.7828
99.779355
100.60274
101.26493
101.78074
102.15585
102.39842
102.50961
102.50236
102.38052
102.18547
101.98321
101.7398
93.750627
93.883237
94.489942
95.452528
96.620309
97.885984
99.079723
100.08791
100.89756
101.53907
102.02298
102.35052
102.51995
102.54382
102.43384
102.23204
101.97064
101.64801
101.30333
93.986352
94.207963
94.981365
96.110414
97.439325
98.747666
99.878438
100.77671
101.45145
101.93786
102.25092
102.38892
102.35168
102.1838
101.94427
101.66599
101.37754
101.1068
100.89404
84.263157
86.130196
87.937343
89.789158
91.668008
93.451423
95.225993
96.790398
98.026242
98.777032
98.857539
97.807681
94.974724
90.086866
83.6585
74.862257
64.231075
51.965239
38.032223
89.322893
91.272099
93.085075
95.059601
96.938239
98.889146
100.78092
102.43107
103.88156
104.63313
104.37705
102.83184
99.771402
94.732304
87.560196
78.144875
67.013081
55.642288
44.692597
93.997727
95.934414
97.809235
99.741674
101.62621
103.64617
105.43693
107.16746
108.42221
108.9564
108.55577
106.51895
102.9121
98.370201
92.266913
84.55298
75.696472
66.383055
57.762962
97.824278
99.706246
101.49394
103.25227
105.10705
106.91332
108.56997
110.02611
110.99603
111.48838
110.72732
108.3194
104.6749
100.40561
95.120151
89.018867
82.424322
75.822398
69.958846
100.60516
102.26824
103.78217
105.32416
106.94074
108.46151
109.86437
110.95973
111.72298
112.00378
111.43723
109.53506
106.4007
102.55487
97.943572
93.013694
88.016877
83.277164
79.258102
102.39544
103.74986
104.98601
106.25329
107.54163
108.70184
109.73862
110.47319
111.06049
111.35189
111.08435
109.71251
107.16209
103.79447
99.758541
95.606976
91.774863
88.429588
85.62454
103.42772
104.52166
105.4865
106.47112
107.4329
108.23966
108.94827
109.43781
109.93524
110.03001
109.52231
108.0065
105.57913
102.52631
99.172437
95.710311
92.548676
90.142661
88.571135
104.00575
104.85867
105.58338
106.37183
107.06583
107.65167
108.19892
108.56465
108.55988
107.99246
106.77603
104.56689
101.67614
98.407609
95.311084
92.826819
90.467755
88.387743
87.269056
104.28138
104.90275
105.47341
106.04474
106.42484
106.57027
106.2201
106.44731
105.87122
104.40932
101.87527
98.446831
94.491667
90.638093
87.287887
84.96884
83.860051
83.862045
84.452502
104.32842
104.78834
105.27205
105.63951
105.76024
105.43818
104.47854
102.9758
100.68865
97.504626
93.398136
88.47857
83.048526
78.135571
74.935391
73.315818
73.211238
74.772381
77.374054
104.02744
104.39239
104.77927
104.99843
104.91003
104.31371
102.81843
100.31608
96.099643
89.991058
83.015665
75.405706
67.68394
60.884398
55.861096
53.318643
53.743248
56.649012
61.404968
103.31664
103.51825
103.74891
103.78358
103.52581
102.87088
101.69203
99.570396
94.988257
86.96646
76.835157
65.079971
52.666577
40.739634
30.726103
25.405548
26.510772
33.649194
43.932927
102.39431
102.35054
102.31859
102.02577
101.3513
100.10211
98.137513
95.051625
90.279268
82.981046
73.533976
62.622227
51.248839
40.708147
33.264807
30.3545
32.673155
39.875265
49.653824
101.80239
101.70159
101.56818
101.23079
100.5184
99.425339
97.898932
95.66043
92.605903
88.407742
82.971072
76.733509
70.265066
63.949031
59.172262
56.638898
56.813356
59.969041
65.42584
101.81933
101.80765
101.73396
101.50144
101.01995
100.42858
99.590229
98.425356
96.913418
94.874087
92.272642
89.326301
86.022451
82.875991
80.275827
77.797388
76.359779
76.887131
79.038296
102.17084
102.23056
102.20371
102.05348
101.79619
101.48817
101.01789
100.37926
99.51112
98.307213
96.870463
95.123398
93.037594
90.918076
88.799736
87.316364
86.763427
86.627251
86.541632
102.59014
102.70556
102.71349
102.65799
102.52494
102.3785
102.12069
101.74004
101.20121
100.45081
99.525815
98.306294
96.950624
95.553914
93.903953
92.185618
90.640192
89.398486
88.250855
103.00666
103.19205
103.27899
103.28056
103.29369
103.2799
103.17529
102.96005
102.5825
102.04405
101.25612
100.22747
99.079572
97.630733
95.77089
93.625013
91.346706
88.937278
86.180974
103.40016
103.62379
103.72889
103.8047
103.95287
104.07013
104.10546
104.05719
103.93315
103.66033
102.91907
101.56092
99.985859
98.040329
95.601728
92.659685
88.771727
83.743675
78.078736
103.61565
103.79776
103.93043
104.11374
104.28279
104.43891
104.44924
104.42526
103.99159
102.9177
102.47581
102.7317
102.38558
101.01716
97.542341
94.540479
90.617004
85.859906
80.713891
103.53602
103.6688
103.84158
104.07074
104.25549
104.38265
104.45019
104.27108
104.41602
103.62472
102.25034
101.49334
100.44023
98.904537
96.902824
94.589692
91.906883
89.086307
86.409765
103.08704
103.20254
103.41799
103.61093
103.76438
103.85605
103.95334
103.68919
103.45779
102.28148
100.23514
99.061044
98.337756
97.167988
95.811754
94.39689
93.02564
91.983532
91.404486
102.44284
102.53191
102.67259
102.78676
102.88315
102.93719
103.01677
102.9854
102.91298
102.41702
100.93144
98.471148
95.120471
91.419395
88.626316
87.413863
87.347738
88.298464
90.03702
101.88866
101.87836
101.91274
101.93615
101.88206
101.77833
101.59104
101.26125
100.71486
99.545587
97.392413
94.812127
92.492829
90.652913
88.905133
87.259972
86.340371
86.584341
88.158013
101.54307
101.50169
101.47792
101.42491
101.32208
101.24774
101.14391
101.03669
100.97625
100.84208
100.47254
99.814342
98.768587
97.175001
95.163327
93.254939
92.260256
92.205162
92.976122
101.06081
101.09783
101.17673
101.22245
101.24113
101.24387
101.21776
101.11865
100.88784
100.54985
100.16631
99.367765
98.3186
98.35558
99.174983
99.657593
99.57068
99.172276
98.652823
100.70613
100.7927
100.86362
100.89807
100.90816
100.94529
101.00639
101.11866
101.24618
101.41613
101.72176
102.08934
102.3838
102.07
101.21269
100.36282
99.778777
99.382012
99.069429
24.558077
15.201439
10.516384
11.338531
16.80392
25.445196
36.287532
47.473566
57.772784
66.882199
74.7857
81.02877
85.76416
89.446591
92.109783
94.085366
95.448686
96.360188
96.960757
35.154566
28.395963
25.27033
26.378646
31.002446
37.897225
46.0316
54.452927
62.5083
69.758363
75.941915
81.237727
85.342744
88.67885
91.255292
93.210727
94.688561
95.707348
96.481711
50.771362
46.114217
44.07568
44.741037
47.712572
52.434611
58.068982
63.89351
69.413971
74.608721
79.127437
82.983418
86.283835
88.974304
91.216045
93.020239
94.418264
95.510572
96.346085
65.309744
62.280989
61.104859
61.692722
63.525586
66.203713
69.545178
73.204799
76.891034
80.251261
83.377117
86.053374
88.503665
90.594058
92.327219
93.821008
95.007696
95.897267
96.635935
76.2368
74.483845
73.840622
74.071533
75.235887
77.070211
79.23904
81.395427
83.635362
85.838976
87.930781
89.760512
91.420123
92.976602
94.24614
95.3618
96.299773
96.902514
97.408832
83.730553
82.642181
82.141491
82.617969
83.605126
84.889124
86.339752
87.891274
89.489826
90.943704
92.231128
93.439883
94.510284
95.558023
96.4942
97.260162
97.902936
98.36451
98.618568
87.547882
87.074111
87.233736
87.844733
88.80973
90.082754
91.444159
92.578524
93.749957
94.946561
95.906449
96.746517
97.416326
98.095445
98.733267
99.259313
99.70728
100.03197
100.09099
87.081855
87.712564
89.01964
90.581753
91.976543
93.218357
94.601167
95.882458
96.930614
97.941697
98.706294
99.368325
99.899155
100.30532
100.75772
101.1345
101.45526
101.64808
101.60204
85.662599
87.211359
89.078428
91.351957
93.56167
95.382938
96.845151
98.186103
99.278153
100.22969
100.99635
101.50513
101.89912
102.17787
102.45222
102.70038
102.93362
103.04613
102.93696
80.649262
84.01794
87.143962
90.382402
93.623654
96.363726
98.376552
99.945663
101.21879
102.07067
102.73364
103.2466
103.55568
103.72615
103.8746
104.02204
104.14257
104.21701
104.06352
67.65876
74.391742
80.844091
86.509429
91.578124
95.67545
98.591806
100.61201
102.24429
103.35099
104.00047
104.42949
104.724
104.88774
104.95094
105.033
105.09495
105.1229
104.98001
55.378176
66.28816
75.652911
83.298133
89.541833
94.536049
98.083993
100.47933
102.31921
103.60933
104.48278
104.96956
105.28002
105.47947
105.57657
105.64535
105.69648
105.70794
105.60689
59.960271
69.952691
78.670369
85.8042
91.480747
95.852188
98.891205
100.91654
102.54544
103.71124
104.52022
105.09072
105.47881
105.73123
105.87317
105.96384
106.02698
106.02275
105.95356
71.94155
78.595324
84.848093
90.301293
94.754677
98.201925
100.66441
102.21023
103.56679
104.75514
105.24752
105.57159
105.85377
106.07317
106.18856
106.23302
106.28449
106.26663
106.15999
82.144926
85.553567
89.282694
92.924507
96.205844
99.050673
101.37732
103.22196
104.71419
105.07715
105.56839
106.2682
106.44527
106.53054
106.57882
106.55774
106.53937
106.50413
106.37396
86.952222
88.090824
89.82048
91.987534
94.253158
96.64578
99.182723
101.472
103.37416
104.7511
105.51547
105.74914
106.19616
106.51229
106.64954
106.66966
106.61206
106.57475
106.46437
87.245538
86.908906
87.217765
88.080605
89.423967
91.10888
93.360835
96.128038
98.944388
101.36302
103.52675
105.20886
105.94295
106.42824
106.55986
106.59177
106.52017
106.42206
106.36528
83.424728
80.792501
78.504238
77.446246
78.141823
80.276442
83.470159
87.847602
93.262598
98.624255
102.6267
104.51441
105.31574
105.82933
106.01073
106.06695
106.02025
105.89289
105.85526
72.569698
68.160425
65.937877
66.281536
69.09629
74.093895
81.416512
88.304618
93.970454
98.315841
101.37134
103.19873
104.13557
104.60232
104.87625
105.06658
105.1256
105.09927
105.08327
75.463795
70.982395
68.761036
69.181054
71.965043
76.552056
82.318986
88.167167
93.301623
97.300331
99.989281
101.64605
102.6795
103.36873
103.82739
104.16587
104.34994
104.43426
104.50817
84.27491
83.073747
83.100782
84.335964
86.698487
89.85695
93.198606
96.213433
98.718851
100.58506
101.84282
102.68805
103.24044
103.62804
103.8873
104.08301
104.21741
104.27437
104.3368
91.526327
92.556169
94.35877
96.148892
97.643811
99.187512
100.79491
102.13315
103.07704
103.66349
103.98989
104.21365
104.30439
104.34964
104.33775
104.31946
104.32368
104.29357
104.28205
92.08737
94.14225
96.224277
98.433528
100.35572
101.67902
102.72456
103.81629
104.51448
104.7358
104.78722
104.70244
104.60458
104.49298
104.40176
104.30165
104.21258
104.14751
104.06753
90.196561
93.018951
95.673265
98.093039
100.26639
101.85126
102.79835
103.14433
103.70817
104.28651
104.42846
104.37735
104.33121
104.1721
104.07022
103.95909
103.84927
103.74363
103.69142
94.289405
95.889365
97.583736
99.198966
100.53632
101.39411
101.8557
101.83028
102.9547
103.79016
103.65033
103.68662
103.54702
103.47256
103.36656
103.25706
103.14871
102.97623
102.90377
98.081169
97.593223
97.410816
97.635704
98.326839
99.653238
101.55935
103.36327
103.69418
102.84665
102.26765
102.31937
102.25016
102.21298
102.1635
102.1041
102.04064
101.92962
101.91745
98.903879
98.915981
99.038673
99.154059
99.149795
99.085227
98.824832
98.780293
99.256288
100.23186
100.82828
100.88336
100.85751
100.82227
100.81294
100.81553
100.82697
100.81762
100.79663
97.230243
97.307153
97.189499
96.904521
96.446579
95.923027
95.306525
94.659089
93.953701
93.267277
92.57816
91.904359
91.274552
90.649658
90.068417
89.58939
89.190474
88.897582
88.72403
96.985787
97.24658
97.332856
97.238359
96.956292
96.580168
96.081864
95.535411
94.922527
94.236376
93.584742
92.875302
92.215432
91.587605
91.001603
90.515263
90.123592
89.837855
89.673917
96.992719
97.395582
97.630313
97.664312
97.533612
97.271609
96.8782
96.38836
95.851373
95.18674
94.53469
93.833081
93.133751
92.49629
91.910841
91.41208
91.013356
90.756334
90.617116
97.267475
97.665006
97.911072
98.04256
97.998833
97.81987
97.528968
97.101276
96.627902
96.032602
95.399964
94.733193
94.033408
93.382826
92.788521
92.287709
91.889134
91.638939
91.551388
97.861606
98.126363
98.310297
98.435976
98.421437
98.299228
98.077484
97.720847
97.294619
96.770546
96.18593
95.56131
94.894239
94.245793
93.659305
93.142568
92.772814
92.508797
92.455224
98.803789
98.876922
98.931551
98.972889
98.923389
98.81072
98.612201
98.31787
97.940888
97.46708
96.923106
96.335207
95.704555
95.067084
94.498604
93.983221
93.616433
93.386734
93.3384
99.998042
99.887665
99.781451
99.674606
99.553941
99.386481
99.180598
98.908842
98.551824
98.127717
97.621766
97.058524
96.475494
95.859796
95.290053
94.802412
94.426286
94.241089
94.200579
101.3356
101.04441
100.7837
100.53174
100.29551
100.06006
99.809281
99.519728
99.173682
98.770245
98.300357
97.760103
97.188614
96.623037
96.053512
95.595651
95.226434
95.054457
95.048743
102.60796
102.22012
101.82917
101.46065
101.12867
100.79945
100.48272
100.15461
99.788783
99.39812
98.941825
98.443847
97.877754
97.340039
96.789427
96.342311
95.993816
95.850015
95.867555
103.7105
103.29655
102.8609
102.40079
101.97645
101.5904
101.19546
100.82793
100.42626
100.02298
99.568752
99.08463
98.551216
98.026468
97.502639
97.06863
96.731004
96.597155
96.659279
104.63109
104.21762
103.76658
103.3014
102.81211
102.36855
101.92352
101.50813
101.07924
100.6469
100.18451
99.706867
99.189635
98.68019
98.184957
97.755962
97.449392
97.302425
97.428373
105.32682
104.97604
104.53628
104.08786
103.59531
103.11836
102.63858
102.17699
101.71879
101.26743
100.79342
100.31244
99.8038
99.297243
98.839677
98.411876
98.153563
98.007808
98.143278
105.75339
105.50534
105.15384
104.74185
104.27949
103.79806
103.3072
102.82756
102.34079
101.86474
101.38272
100.89074
100.39935
99.879746
99.456628
99.041941
98.790131
98.6854
98.810272
105.97939
105.8258
105.57523
105.24691
104.84134
104.3879
103.90262
103.42384
102.93194
102.43952
101.95706
101.44272
100.96759
100.44625
100.01995
99.654592
99.388986
99.328995
99.455875
106.15742
106.04582
105.84474
105.59768
105.2678
104.87159
104.42822
103.95668
103.47354
102.96472
102.48351
101.96948
101.47718
100.98939
100.54387
100.24041
99.956152
99.919297
100.06556
106.27562
106.17298
106.00624
105.80738
105.55841
105.23535
104.85165
104.40066
103.95144
103.45482
102.96739
102.47154
101.97163
101.49879
101.03128
100.67607
100.47711
100.46029
100.6346
106.26576
106.20332
106.08257
105.93144
105.75395
105.48978
105.18292
104.77855
104.35087
103.89481
103.41551
102.92725
102.42347
101.97092
101.51546
101.17108
100.97435
100.97119
101.17028
105.95438
106.02345
106.01625
105.935
105.828
105.62918
105.38567
105.06423
104.67257
104.24399
103.78475
103.32384
102.8342
102.3937
101.96613
101.61888
101.42939
101.43164
101.64953
105.39319
105.59902
105.75705
105.79748
105.7835
105.68292
105.50309
105.26579
104.93692
104.56036
104.1322
103.70012
103.22939
102.77053
102.36799
102.03012
101.86034
101.87481
102.09842
104.82431
105.09125
105.33404
105.50014
105.58707
105.5983
105.50041
105.34215
105.09034
104.77218
104.38302
103.95814
103.53272
103.09965
102.71774
102.39077
102.22301
102.23069
102.48118
104.49476
104.69677
104.92718
105.15557
105.3243
105.42994
105.42931
105.35302
105.18163
104.93018
104.62441
104.24875
103.85348
103.42621
103.04008
102.73122
102.56343
102.60964
102.85572
104.31429
104.4742
104.64449
104.84734
105.04268
105.19699
105.28061
105.2773
105.18408
104.98815
104.72727
104.39658
104.01826
103.64163
103.2822
102.99961
102.84776
102.88714
103.15224
104.05572
104.24686
104.41134
104.58946
104.77342
104.95188
105.10038
105.16944
105.15386
105.03594
104.8424
104.60364
104.28711
103.92386
103.55473
103.25675
103.1094
103.16487
103.43715
103.78444
104.03347
104.23434
104.43507
104.61735
104.77868
104.93539
105.04307
105.07366
105.0199
104.86038
104.61205
104.32987
104.00481
103.68453
103.41955
103.2865
103.35779
103.6465
103.20948
103.55501
103.82166
104.04932
104.26521
104.4679
104.66978
104.85354
104.97642
105.00274
104.93017
104.77396
104.54571
104.2622
103.92708
103.62687
103.45992
103.5372
103.83468
102.47394
103.04687
103.53914
103.92787
104.23404
104.46063
104.62596
104.79498
104.9068
104.94813
104.90316
104.7571
104.53592
104.2581
103.9579
103.6823
103.52543
103.61637
103.95309
101.29583
101.82365
102.37212
102.90334
103.38068
103.79228
104.14777
104.43745
104.67985
104.85177
104.91761
104.87551
104.72836
104.49159
104.1956
103.86126
103.61636
103.66073
104.02268
88.697394
88.854534
89.099759
89.500263
89.99983
90.682732
91.518549
92.470665
93.582059
94.789299
96.077008
97.516967
99.008709
100.59068
102.22998
103.90238
105.62131
107.33078
109.05826
89.675411
89.816311
90.085741
90.542707
91.113349
91.818082
92.654605
93.633426
94.724739
95.913118
97.198897
98.612838
100.05341
101.56113
103.13034
104.69725
106.29979
107.87921
109.45581
90.656652
90.804237
91.114133
91.586475
92.193586
92.923912
93.775663
94.767166
95.83186
97.020068
98.286832
99.63633
101.05667
102.49593
103.96478
105.44115
106.92347
108.38476
109.80716
91.613412
91.811667
92.133414
92.628361
93.241792
93.99762
94.853955
95.840842
96.906582
98.06715
99.327703
100.62518
101.99092
103.38517
104.7706
106.1255
107.46396
108.80442
110.10606
92.547835
92.771388
93.130013
93.62485
94.271367
95.028643
95.898953
96.882455
97.945912
99.079026
100.29026
101.56131
102.86679
104.17774
105.47888
106.72433
107.93097
109.11439
110.30328
93.484386
93.716021
94.11239
94.617864
95.260285
96.03432
96.913541
97.87968
98.920578
100.03926
101.22053
102.41548
103.65592
104.89034
106.08817
107.24151
108.32379
109.38253
110.45735
94.369751
94.641173
95.026368
95.561805
96.225312
96.986957
97.867609
98.818111
99.845621
100.91519
102.04587
103.21735
104.36731
105.51585
106.61462
107.66171
108.66228
109.61215
110.54687
95.239942
95.532253
95.972183
96.484651
97.153066
97.911425
98.776691
99.717064
100.71601
101.76134
102.81906
103.92507
105.02585
106.08213
107.08164
108.0256
108.91547
109.77293
110.60326
96.095493
96.39335
96.821283
97.362939
98.018243
98.781382
99.625691
100.54509
101.50233
102.51361
103.54025
104.56377
105.5761
106.5513
107.46047
108.31656
109.13048
109.89372
110.62661
96.902217
97.223726
97.654459
98.205561
98.853346
99.608667
100.44016
101.34519
102.27192
103.2193
104.17607
105.13342
106.06914
106.96811
107.807
108.57205
109.27427
109.95059
110.63203
97.675499
98.020144
98.456255
99.00536
99.647352
100.38641
101.19537
102.0576
102.94635
103.84047
104.73961
105.62951
106.49646
107.32136
108.07709
108.7602
109.38488
109.97735
110.57741
98.413156
98.76492
99.214462
99.75304
100.38416
101.09561
101.88032
102.71496
103.57234
104.42181
105.26951
106.10126
106.88502
107.62009
108.29815
108.91001
109.47835
109.99441
110.50849
99.116412
99.46578
99.922035
100.44912
101.07403
101.77841
102.53923
103.33876
104.14705
104.93924
105.72057
106.46386
107.17601
107.84889
108.47043
109.02422
109.52714
109.99156
110.43571
99.780342
100.13488
100.59362
101.11892
101.72619
102.39978
103.1166
103.86996
104.63551
105.37423
106.1042
106.80197
107.46491
108.0849
108.63899
109.12358
109.55554
109.96076
110.34818
100.40008
100.75648
101.21168
101.73096
102.30812
102.96047
103.65153
104.37125
105.10137
105.80325
106.47221
107.10407
107.6937
108.23976
108.72625
109.16177
109.54527
109.89473
110.22755
100.97705
101.33417
101.77881
102.27859
102.85171
103.48405
104.13962
104.81972
105.50208
106.15515
106.75745
107.32192
107.86203
108.37464
108.82716
109.22689
109.5691
109.87142
110.16564
101.51708
101.87224
102.3089
102.80394
103.35436
103.95114
104.5689
105.21141
105.84692
106.45856
107.02357
107.54993
108.04484
108.50766
108.91282
109.25048
109.53025
109.78085
110.03275
102.00148
102.35589
102.78023
103.25968
103.77783
104.36431
104.95933
105.57129
106.17284
106.74069
107.2634
107.73952
108.17885
108.58021
108.94175
109.24956
109.51539
109.7435
109.95984
102.4555
102.80905
103.22613
103.70073
104.21922
104.76622
105.32433
105.89274
106.44989
106.96879
107.44638
107.88434
108.28761
108.65943
108.99921
109.2831
109.5152
109.70696
109.87959
102.85189
103.20344
103.60728
104.06565
104.55982
105.07035
105.62076
106.16237
106.68289
107.17253
107.62005
108.03232
108.40696
108.73855
109.04227
109.29166
109.49098
109.65638
109.80413
103.22772
103.57231
103.97082
104.42156
104.90937
105.41142
105.92526
106.42421
106.91276
107.37179
107.7884
108.15653
108.4953
108.79682
109.07279
109.3063
109.49312
109.65213
109.78924