/*--------------------------------*- C++ -*----------------------------------*\
  =========                 |
  \\      /  F ield         | OpenFOAM: The Open Source CFD Toolbox
   \\    /   O peration     | Website:  https://openfoam.org
    \\  /    A nd           | Version:  11
     \\/     M anipulation  |
\*---------------------------------------------------------------------------*/
FoamFile
{
    format      ascii;
    class       surfaceScalarField;
    location    "0.1975";
    object      phi;
}
// * * * * * * * * * * * * * * * * * * * * * * * * * * * * * * * * * * * * * //

dimensions      [0 3 -1 0 0 0 0];

internalField   nonuniform List<scalar> 
1652
(
1.706212168242967
0.5337381654508389
0
1.172474002826113
0.5337381651470829
4.178879464689089e-13
0.6387378677759873
0.5337229283748117
9.015010959956271e-14
0.5309822559778408
-3.382405466823002e-12
0.1051870408383979
1.706212168246045
1.067476330897647
1.172474002771639
1.067476331166259
0.6387405447512183
1.06742914091788
1.058239305503813
0.1066026790068171
1.706212168254438
1.601214496347431
1.172474003602833
1.60121449675113
0.6387474499318542
1.601085033699709
1.580826866381594
0.1081742904594237
1.706212168255741
2.134952661793573
1.172474002890708
2.134952658198553
0.6387617356344727
2.134607555317555
2.101553756694631
0.1060671480331916
2.651191215308168
1.72371178022522
3.167429768965428
1.723711780172077
3.683668333336425
1.723711779971111
1.723711842168745
4.199906073814376
2.651191184827899
1.207473237505831
3.167429492149256
1.207473177829993
3.683658498300626
1.207473429069339
1.207477230280775
4.199892358900983
2.650919232034531
0.690671610605851
3.167455230973047
0.689940178255219
3.6842762655038
0.6891142161859803
0.6896712558687685
4.199346023854529
2.646867315733669
0.1238415593218982
3.261575494622731
0.04842328840835974
3.891000285095883
0.02368042943388843
4.525366774761475
0.01482195014833704
4.164906633118767
0.03499777483518052
4.129904567512742
0.03499984593986005
4.094910267340831
0.03500249368374153
0.03492392963078517
4.059896131080744
4.164944841763085
0.06988471372784189
4.130061009467969
0.06968804385871097
4.095419858708559
0.06924157505953754
0.06883944674966802
4.060785240257613
4.172624674037097
0.09133063966811533
4.148736076626746
0.08446067232044541
4.128882705244754
0.07767411430030369
0.07152474546781706
4.110486162686908
4.573490770930102
0.008910620563110261
4.615836158314033
0.006729390078019259
4.65669971968039
0.00748186395465672
4.695756722343447
0.007187290299591531
4.672922212059965
0.08826501052004537
-0.06781792408202311
4.61201262389551
0.08159299120198438
-0.01639943378196548
4.558133486331633
0.07473087216711227
-0.009204466872119677
0.066032404927446
4.511590853603348
-0.008733017559338752
4.169931999277717
0.005075056001991152
4.216061471190421
0.01001361287799435
4.250861779439236
0.01544788130347868
0.02009650038535382
4.273231313294145
4.062861404531344
0.0003105739922603101
4.067211437294728
0.0008919785837356864
4.073933360405724
0.001876688733597032
0.003026403420266499
4.082200846354461
4.059886061208245
4.059957157319135
4.060158183275525
4.060164977407005
4.060174124828108
-0.003980841239937583
4.059885272037243
-0.004280663787354588
4.05959227514631
-0.003999799743724775
-0.00346170563513537
4.05938560326851
4.090215069981179
-0.02256972573609317
4.093705498016618
-0.02257530658675921
4.092504511296115
-0.01998319945112254
-0.01662827095579916
4.088945300800683
4.2871664490632
-0.05595145361866377
4.288301207919073
-0.04562280300563687
4.277479942560158
-0.03596849060101032
-0.02728722079191148
4.258297578152648
4.4767479100131
-0.006761955082616955
4.462722293400242
-0.003398552400325439
4.456917165022378
-0.000378544778343759
4.438234312490091
0.002593843605671942
0.02293864979912802
4.410147138011511
0.002166763747037947
0.0133346124210415
4.232324607398673
0.002702826304415984
4.083309069629875
4.059330039893269
0.01754903238231725
4.374666620466156
-0.003296733405262264
0.0102087916656699
4.200488352606361
0.001906183071875511
4.076639848340836
4.059399772322274
0.01089995848310021
4.390020417373287
-0.09999843316250162
0.004194747897222684
4.162063550469043
0.0008814146788187482
4.068553041033049
4.059554565061505
0.03862405548588699
4.259512662671756
-0.1364621014378762
0.002366769344196662
4.129701935379342
0.0002857215141670588
4.062817041566575
4.05971205486719
0.09311965890879509
3.966534243235299
0.1840752721782594
3.968099828244915
0.2027498792134941
4.017185437375998
4.045619283531895
0.1337537596732624
0.09299697398177537
3.873291615330896
0.1817898210929095
3.87480814139823
0.1679255823187826
3.921239051728647
3.851707837573591
0.09886900466370685
0.09233808946644062
3.780220013500559
0.1753960190803949
3.783037803063202
0.1092367999662032
3.838083712661553
3.657121147172538
0.06160516551841499
0.09099548372966676
3.687289287533641
0.1632116600772551
3.692792096281709
0.0479806716918193
3.761304225250149
3.468387274064772
0.04233429492501295
0.02296237003534252
3.255418780786117
0.04805835459758279
-0.1408400494919793
3.67921013560831
-0.08793782536673583
3.604364259568776
3.595059103071434
0.08887519383862497
3.046317396394595
0.0369079215647341
-0.1046615821273627
3.586475337637035
-0.08285012903254668
3.517684058670409
3.503424328034999
0.1241224036278
2.866012388117702
0.0151804801236709
-0.05365411951287935
3.453435144419824
-0.07390631938195835
3.431965432415511
3.413283603523071
0.1519654143142213
2.700733924385106
-0.003720831816397152
0.002692664344053242
3.339836534580485
-0.06041526151794785
3.341007487447898
3.324655866990593
0.06537126541557692
3.212991032602225
-0.01983276641251475
3.23239587880842
-0.09547764063715092
3.228457068167073
2.680492446363465
-0.02395807704487196
0.05946432209089447
3.09871539246498
0.0190657585839914
3.108859472769793
-0.004031522315502412
3.156380690320217
2.716634833270997
0.01333544004904796
0.07180914661188875
2.976294536912859
0.07640818451399145
2.985819925060984
0.0957932341353942
3.071691036259176
2.777352684126207
0.09524652927467125
0.08817171808876212
2.849490692896913
0.1373828942786406
2.858753832825125
0.2020754492033326
2.95144574881067
2.805760649471486
0.2325311514916708
-0.2371649520201476
3.050114415511
-0.5119296836618058
3.080701640354728
-0.7322609390975423
3.177979014512224
2.940442781823408
-0.7955080573850672
-0.228614030409301
3.252095772482047
-0.4793311988410247
3.302680328217183
-0.6590676595555958
3.381576797025502
2.67581904660867
-0.268737646749485
-0.2173940247969999
3.451343540699449
-0.4366923333735586
3.504193010713533
-0.5832773476908816
3.562341254934909
2.297316522177975
-0.04261598863944036
-0.2090184526390171
3.649523817448929
-0.4081020129547097
3.694764438998248
-0.4960904583616523
3.691974241923829
1.980427212288775
-0.02600218210190597
0.2032004190997328
1.879218339452588
-0.01185151855504992
0.1964233899655057
3.750417976242071
0.09925131224541939
3.787608692672451
3.747728960061186
0.1690761322052073
1.814527134460054
-0.007465502303637045
0.1859020327190844
3.802546908228879
0.1036140061029948
3.870132565040484
3.85091585064888
0.1388234015328918
1.816643704906631
-0.004973491408540663
0.1815355196037603
3.833996046641271
0.1036214558783014
3.954887913299148
3.955238581882527
0.1072407677036398
1.848144383282325
-0.004092037565925619
0.176349408443948
3.854947251497075
0.1033582622080224
4.04438297632637
4.05964058783823
-0.2393913068042026
2.276894051852506
0.03143220729467935
-0.05358481404160176
3.80624917985479
-0.002621672494532712
4.040340234268286
4.059524960377402
-0.1852001502141136
2.520847047437303
0.09530173994179893
-0.03592713876358211
3.798417538894496
-0.001289604856194337
4.045324108534177
4.059744805443984
-0.1278965391042351
2.609780272860383
0.1072692556710206
-0.02107185860088212
3.835407615584137
-0.0005614619575684543
4.05355361502448
4.059860225463506
-0.1017980511954641
0.1249208813731684
2.646804319985415
-0.01313490999076394
3.883668717805975
-0.0002293074410975038
4.053249254897595
4.059884835099865
0.527194430097249
-0.1401912850681173
-0.007539095778595056
-2.033928581113287e-12
1.165987191686396
-0.4926330127279428
-1.484590228528759e-12
1.713497827495525
-0.5238160225739441
9.096723374568683e-12
-0.5249475902463825
-8.112177596331094e-12
0.5124303192049318
-0.3390761290439812
-0.008875621102194791
1.164900227488392
-0.975988718325882
1.713618169497793
-1.046587910102879
-1.049894949433063
0.4943019207373779
-0.6157710926076683
-0.01168917814364741
1.161895325187511
-1.451359816118929
1.713706780255148
-1.5691392288635
-1.574853058446538
0.4788862664689241
-0.01596457556583322
-0.9683436040966704
1.159000123083678
-1.930554755915849
1.713778458069525
-2.091486235315235
-2.099819640652999
-0.1017980511938484
-2.60978027285819
0.1249208813729977
2.646804319983108
-0.01313490998668554
-3.835407615587613
3.883668717803027
-0.0002293074392953898
-4.053553615021244
4.053249254890064
-4.059860225465158
4.059884835096625
-0.1278965391033584
-2.520847047434072
0.1072692556710278
-0.02107185860220451
-3.798417538900653
-0.0005614619617746452
-4.045324108537585
-4.059744805446404
-0.1852001502148087
-2.276894051850001
0.09530173994157116
-0.03592713876718767
-3.806249179861704
-0.001289604857403592
-4.04034023427207
-4.059524960378089
-0.2393913068036244
-1.848144383277933
0.03143220729461137
-0.05358481404427362
-3.854947251504528
-0.002621672496434524
-4.044382976325522
-4.059640587838343
-0.099251312240209
3.747728960085082
-3.649523817479364
-0.1964233899535078
3.787608692693883
-3.694764439024746
-0.2032004190940794
3.750417976216883
-3.691974241891379
1.87921833943226
-1.980427212265708
-0.01185151855518983
-0.1036140060954291
3.850915850663688
-0.1859020327057804
3.870132565056481
-0.1690761321995717
3.80254690821483
1.814527134444826
-0.007465502303633242
-0.1036214558711849
3.955238581891411
-0.1815355195891601
3.95488791330522
-0.1388234015271496
3.833996046637283
1.816643704896974
-0.004973491408377051
-0.103358262201233
-0.1763494084285995
-0.1072407676983585
-0.004092037565743216
0.4960904583649761
-2.297316522159206
-0.02600218210178714
0.4081020129687797
-3.562341254912726
0.2090184526439982
-3.504193010729944
-3.451343540728364
0.5832773476956898
-2.675819046595089
-0.04261598863884319
0.4366923333878734
-3.381576797012937
0.2173940248033124
-3.302680328223054
-3.252095772507829
0.6590676595633965
-2.940442781818822
-0.2687376467483108
0.4793311988549888
-3.177979014506177
0.2286140304130204
-3.080701640352745
-3.050114415523197
0.7322609391051484
-2.805760649472573
-0.795508057387342
0.5119296836723876
-2.951445748811369
0.2371649520267783
-2.858753832822772
-2.849490692876064
0.0653712654204871
3.212991032611821
-3.324655867006692
-0.0198327664045248
3.232395878817734
-3.341007487455328
-0.09547764063429698
3.228457068153662
-3.339836534557899
2.680492446357375
-2.700733924379666
-0.0239580770434441
0.05946432209608654
3.098715392469684
0.01906575859274173
3.108859472777836
-0.004031522311243152
3.156380690316864
2.716634833268426
0.01333544004984266
0.07180914662076576
2.97629453688404
0.07640818451942355
2.985819925068911
0.09579323413969798
3.071691036256226
2.777352684124899
0.09524652927537636
0.08817171809007929
0.1373828942864877
0.2020754492067245
0.2325311514919523
0.1519654143186371
-2.866012388114363
-0.003720831814676751
0.00269266435884985
-3.453435144416101
-0.06041526151542975
-3.431965432443254
-3.413283603529921
0.1241224036281448
-3.046317396386311
0.01518048012477191
-0.05365411950916532
-3.586475337642955
-0.07390631937554698
-3.517684058715657
-3.503424328036979
0.08887519384183262
-3.255418780778684
0.03690792156424494
-0.1046615821269857
-3.679210135591505
-0.08285012903341127
-3.604364259559705
-3.59505910308008
0.02296237004202972
-3.468387274073145
0.04805835459999586
-0.1408400494690263
-3.761304225256085
-0.08793782535608713
-3.692792096288958
-3.687289287529132
0.09311965890890311
3.966534243235677
-4.059712054867187
0.1840752721784953
3.968099828244881
-4.062817041565595
0.2027498792118573
4.017185437374438
-4.129701935380262
4.045619283530662
-4.259512662672265
0.1337537596732061
0.09299697398248269
3.873291615332423
0.1817898210943607
3.874808141392432
0.1679255823169928
3.92123905172351
3.851707837568135
0.09886900466262472
0.09233808946465921
3.780220013503851
0.1753960190767421
3.783037803067922
0.1092367999658095
3.838083712666541
3.657121147174204
0.06160516551797102
0.09099548373284583
0.1632116600843887
0.04798067169497289
0.04233429492189589
-4.059554565062126
-0.0002857215127216595
-4.05939977232351
-0.0008814146789147825
-4.059330039894526
-0.001906183071094358
-0.002702826305319928
-4.059385603269055
-4.068553041031457
-0.002366769342646735
-4.076639848340553
-0.004194747898453588
-4.083309069630411
-0.01020879166619859
-0.01333461242213574
-4.08894530080113
-4.162063550469195
-0.03862405548516451
-4.200488352606252
-0.01089995848303593
-4.232324607397903
-0.01754903238287148
-0.02293864979952009
-4.258297578153065
-4.390020417373288
-0.1364621014378072
-4.374666620466529
-0.09999843316174506
-4.410147138011386
-0.003296733405198649
-4.438234312489729
0.00216676374687208
-0.003461705634915546
-4.059592275144897
-0.01662827095535835
-4.092504511297175
-0.02728722079072421
-4.277479942562141
-4.456917165022038
0.002593843606261026
-0.003999799743721999
-4.059885272036231
-0.01998319944972243
-4.09370549801707
-0.03596849060047513
-4.288301207920946
-4.462722293397578
-0.0003785447781576301
-0.00428066378713865
-4.060174124826953
-0.02257530658620405
-4.090215069980055
-0.04562280300589672
-4.287166449068702
-4.476747910013431
-0.003398552400775523
-0.003980841240328714
-4.060164977406759
-0.022569725736927
-4.082200846352679
-0.05595145361846932
-4.273231313300691
-4.51159085360202
-0.0067619550824779
-0.0003105739942064201
4.059886061200467
-4.059896131070933
-0.005075056007243395
4.062861404514316
-4.060785240238722
-0.08826501052388658
4.169931999290434
-4.11048616269989
4.672922212068252
-4.695756722354012
-0.06781792408150503
-0.0008919785861659646
4.059957157312368
-0.01001361288287145
4.067211437282777
-0.08159299120554625
4.216061471204068
4.612012623901657
-0.01639943378209974
-0.001876688735590881
4.060158183272685
-0.01544788131152391
4.073933360398671
-0.07473087217163094
4.250861779449566
4.558133486333285
-0.009204466872689471
-0.003026403422855983
-0.02009650039224337
-0.06603240493045565
-0.008733017559681894
-0.07152474547079751
-4.65669971968694
0.007187290299631999
-0.06883944676364762
-4.128882705248873
-0.03492392963553959
-4.095419858697891
-4.09491026733848
-0.0776741143067548
-4.61583615831618
0.007481863954524992
-0.06924157507366097
-4.148736076622231
-0.03500249368405139
-4.130061009469007
-4.129904567510017
-0.08446067232551868
-4.573490770925814
0.006729390077753583
-0.06968804387027644
-4.1726246740255
-0.03499984593975336
-4.164944841777739
-4.164906633116733
-0.09133063967233146
-4.525366774755301
0.008910620562774585
-0.06988471374053584
-4.199346023838499
-0.03499777483850042
-4.199892358928446
-4.199906073813219
-0.6896712558676351
-3.891000285094069
0.01482195014881688
-1.207477230272509
-3.684276265491827
-1.723711842170906
-3.683658498319657
-3.683668333334555
-0.6891142161844275
-3.261575494624252
0.02368042943408166
-1.207473429062305
-3.16745523096608
-1.723711779971203
-3.1674294921601
-3.167429768964598
-0.6899401782548276
-2.646867315736341
0.04842328840819288
-1.20747317782549
-2.650919232031212
-1.723711780172767
-2.651191184832883
-2.651191215310174
-0.6906716106052588
-2.101553756697274
0.1238415593211251
-1.207473237502272
-2.134607555319107
-1.723711780227947
-2.13495265819926
-2.134952661793019
1.706212168246006
0.533738165447798
1.172474002830155
0.5337381651480195
0.6387378677793171
0.5337229283768541
0.5309822559787034
0.105187040837755
1.706212168246561
1.067476330894156
1.172474002771511
1.067476331164803
0.6387405447514557
1.067429140920046
1.058239305507668
0.1066026790051737
1.706212168253672
1.601214496344363
1.172474003600234
1.601214496748805
0.638747449930496
1.601085033701006
1.580826866386736
0.1081742904582544
1.706212168252962
1.172474002887849
0.6387617356312664
0.1060671480316968
0.1050115471587556
0.1050115471586719
0.1045887709159691
0.1065374606168318
0.1049611234513536
0.1071622619176217
0.1041680511548858
0.1060088041699596
0.10653746061789
0.1045887709164395
0.1062299963652934
0.1062299963654008
0.1064862273780614
0.1060987547164155
0.100284378454644
0.1094459521929176
0.1071622619189955
0.1049611234515842
0.1060987547175197
0.1064862273784363
0.105643273971736
0.1056432739706828
0.09681485360979332
0.108260949232697
0.104168051156406
0.1060088041702108
0.1002843784558665
0.1094459521936008
0.09681485361102675
0.1082609492316577
0.09648841063366473
0.09648841063471084
-0.03957900382987367
0.1348352556140502
-0.0650903139741642
0.1323231434373789
-0.09419267134040182
0.1369288074085657
0.1339597655183604
-0.008003113122850125
0.1415211230790557
-0.01874381549817272
0.1416580209236195
-0.03069530127514736
0.1474014775624261
0.1500297807656357
-0.003707312950072594
0.1437925235904438
-0.01106456345364543
0.1474846583994264
-0.01751335437588614
0.1524215026952341
0.1546298282880545
-0.002193793412964551
0.1451343121897588
-0.007695187687167426
0.1519513585257234
-0.01166760988118676
0.155256743743917
0.1564716394915039
0.1566922764123542
0.008089181941945356
0.157207058313759
0.005715607264202949
0.158105903491889
0.006525572166659444
0.006749532464763786
0.1588543053946124
0.1560271811515953
0.006778543407659599
0.1569289045737211
0.004386423760554425
0.158294404767677
0.005193457839776539
0.003091498941940551
0.1622766464734333
0.1540966846880371
0.004059280717793101
0.1557825245399297
0.002289569585751772
0.1580297533963053
0.00308643626311994
-0.01074703096085444
0.1722741779982149
0.1485977277861109
0.1504913282222615
0.1537657853161192
0.143351288927655
0.1469398709776025
-0.05510377120099832
0.139146911789006
-0.007745583545323287
0.1386215362977639
-0.007354279937857672
-0.008204048817195692
0.1394950519735407
0.1499679335917804
-0.04208727289685063
0.1458445923646577
-0.002670445366785262
0.1442907107854642
-0.004325608232566586
-0.00545293214637288
0.1430075422475622
0.1560572310859103
-0.02532848083666459
0.1518547535205147
0.002679306807508663
0.1490861976567771
3.640897022086365e-05
-0.0009514562190318376
0.1460721838505839
0.1184596044373471
0.1224603117749034
0.1241759913944361
0.1247225044733635
0.1406933113500416
-0.006511810086350878
0.1423190974437147
-0.00341196524696108
0.1443034133545956
-0.0008228136882013348
0.00215014384271206
0.1459466562351454
0.1424992473252964
-0.004474063023551911
0.1425982084050189
-0.00188563089581939
0.1440139496182191
-0.000660469217423576
0.001723482242165175
0.1455614702846689
0.1437663042444319
-0.0006557153257699677
0.1429668420714547
0.0004227449239252723
0.1431208056048577
0.0008214391219679706
0.00159056180838224
0.1446090906046324
0.1256293289070383
0.1276501919203583
0.13012979961244
0.1330712076937448
0.1466989080215094
0.002197967876604145
0.148065982628654
-0.005610247659719347
0.1527392017206223
-0.1107274302410421
-0.1152298388895747
0.1246639688210831
0.1463588686058491
0.002182835847568509
0.1458419729607091
-0.006890849769621343
0.1353461754570048
-0.1061485945109373
-0.07959121164689353
0.0947747795276678
0.1456951846593217
0.001898134586858669
0.1425809691402509
-0.006029415659402459
0.09260083500297417
-0.06238123340841589
-0.04718014353842187
0.05607365679372209
0.1359571341361563
0.1274593530912427
0.05848240622304088
0.007391631060109191
0.1355371544179461
0.1181143471128419
0.1378239519720884
0.09271630997921654
0.1412725226207474
0.05408613668635576
0.0341592257937775
0.1451004394565421
0.1243662838043699
0.08422172236186865
0.1353255411641911
0.0780860981846131
0.1403141204448637
0.04507054709879899
0.02604517522401728
0.143965950076221
0.09691774189245544
0.03875498351575357
0.124038752260243
0.04723248046895878
0.1343684210061231
0.03091257910786227
0.01664409262858357
0.1396543978808532
0.04169816343691493
0.0849714277169122
0.1121092350665967
0.1245938617974337
0.1483808555998108
0.03821338474176872
0.1492345159108177
0.0333312705536708
0.1485799940631457
0.01377249467961372
-0.002066326229491766
0.1487713071318111
0.149200512887999
0.02682059251961533
0.1523310491618009
0.0263176330673488
0.1522201645258233
0.01138576390847013
0.0009558380363787755
0.1503658381272197
0.1460425780161438
0.01493881271598851
0.1519758830926355
0.01576035064305004
0.1529548191392357
0.005520231882273463
0.0004924697455656046
0.1525515035684989
0.1339873373142143
0.144439117485164
0.1471235269999845
0.1479606996745055
0.1477728986803633
-0.01648951165830603
0.1603388641560438
0.00752950206701386
0.1889067052632433
0.07496071613053135
0.1810272847979016
0.2458150966878813
0.1497582605897977
-0.008122624926261368
0.1604213393034915
0.006074085169965326
0.1863063531372613
0.05840528182430776
0.1225180331078518
0.2518966280727986
0.1539523981843307
-0.002024057769303922
0.1587956100245141
0.0114432325761431
0.1873579998985091
0.0400031280245875
0.03013345085428698
0.2879896952825109
0.153590479731387
0.1755347602175877
0.227350092204667
0.2680511437307569
0.1243784571452729
-0.668081357716737
0.01471488947784425
-0.1567395745867124
-0.0008014384058613209
-0.02539085723188285
-0.01919425435218227
-0.004077747985636624
0.08829374828564913
-0.4976739043856424
0.004555737491773411
-0.07142241312159062
-0.004972976865937419
-0.01431867537933668
-0.01225006558762692
-0.008668781786918666
0.04790553920685102
-0.2532265567346688
0.0002893928474330841
-0.0228800724910311
-0.0074507930825092
-0.005012691612491384
-0.005605103062515781
-0.01082987973009055
0.01751683360178688
-0.004521435598862141
-0.007981590085813344
-0.01109752568084255
-0.002829293244498211
-0.01027721335932413
-0.00117773832915348
-0.006310311879926804
-0.0003525440806135503
-0.002861442510031696
-0.002127594791209546
-0.0006326647505883812
-0.007854121732901877
-0.007840043263718541
-0.006201631973704909
-0.00500486093204959
-0.004477619355528172
-0.001762860118731606
-0.0003388699801068484
-0.004862112061576145
-0.0103890008457749
-0.004393708187201847
-0.00906372104353196
-0.003036510779376264
-0.007218141839941468
-0.001046914239149509
0.001379138369240654
-0.007771719583316801
-0.01138905611146671
-0.01104382153060358
-0.009945493527962403
-0.007678895596150214
0.02377408128171325
0.01002170521024584
0.05081289037114811
0.06938120503459992
0.07284948315939162
0.08521612029442557
0.1044212669498659
0.09298304353893827
0.008662777616152348
-0.0005873318377409426
0.04008414768349616
0.03975499547760669
0.06604554882262396
0.05948991249427267
0.0786359956152952
0.09137723198543468
-0.002313681129435738
-0.003730741484144331
0.02488306742238823
0.01446200097130666
0.05389958945657916
0.03102268861765935
0.04790465214729403
0.08351132640325727
-0.009187573786536458
0.007880982737212876
0.04042656839987663
0.08835029680456206
0.07973952338483366
-0.06961779770019652
0.08052141360944219
0.06350919583774388
-0.06138453452095764
0.07382695781725065
0.04586757749529473
-0.05262146884595933
0.06825560393749325
-0.03423344359311722
0.02755995400242619
0.05121127193917216
0.07527003117823272
-0.05388808166133506
0.05839566664613677
-0.04553605676024864
0.04021814175495306
-0.03639327913642208
-0.02079283880892972
0.02545061212312729
0.06535442173164172
-0.03587770835972219
0.04827126507279746
-0.02751694602378197
0.02924509586069855
-0.01773559284158113
-0.007069456792557039
0.01579555388611983
0.05284326226861093
0.02649445911014606
0.009541062593217492
0.002909183853276466
0.001654993451285794
0.0008011745675069425
0.001071391356084139
-0.001069813882139059
0.0006171701374341546
-0.002313859465179979
-0.002934954173984303
-2.060851489460447e-14
0.0107933452805441
0.005449915338113592
0.007119736667244962
0.00105650939011603
0.003903325285616689
-0.001629817342271869
-0.002433325254421647
-2.278038868652743e-14
0.01967492314099066
0.01005459893598637
0.0137952479135187
0.005228990809093052
0.007226479093067069
0.003025476909103021
0.002760999129350149
-2.807476473520865e-14
0.02042878240471944
0.01285471427668775
0.005860485905726902
1.032507412901396e-14
-0.002934954173996428
-0.0006171701374616811
-0.002433325254438023
-0.003903325285666635
0.002760999129318546
-0.007226479093111221
-0.005860485905707938
0.007539095778558536
-0.002313859465189812
-0.001071391356102583
-0.001629817342281584
-0.007119736667281558
0.00302547690910902
-0.01379524791356827
-0.01285471427667527
0.008875621102224462
-0.001069813882139892
-0.001654993451300706
0.001056509390111801
-0.01079334528056712
0.005228990809110726
-0.01967492314104845
-0.02042878240471451
0.01168917814370524
0.0008011745675161365
-0.002909183853300017
0.005449915338110779
-0.01579555388614631
0.01005459893599933
-0.0254506121231828
-0.02755995400247062
0.01596457556594825
-0.04586757749536671
-0.03423344359312027
0.05121127193921753
-0.06350919583778722
-0.05262146884597875
0.06825560393754669
-0.07973952338484484
-0.0613845345210167
0.07382695781734143
-0.06961779770021893
-0.09298304353890569
0.08052141360946068
-0.0402181417550071
-0.02079283880893307
-0.05839566664617693
-0.03639327913643266
-0.07527003117826227
-0.04553605676029501
-0.05388808166137678
-0.09137723198543922
-0.02924509586071722
-0.00706945679256556
-0.04827126507283641
-0.01773559284158674
-0.0653544217316947
-0.02751694602378339
-0.03587770835976348
-0.08351132640328876
-0.009541062593240238
-0.026494459110168
-0.05284326226862356
-0.08835029680460467
-0.04042656839987478
-0.04790465214727938
-0.007880982737203494
-0.03102268861756981
0.009187573786470275
-0.01446200097115853
0.003730741484148051
0.00767889559612436
-0.05389958945657887
-0.07863599561524739
-0.02488306742233908
-0.05948991249419514
0.00231368112942356
-0.03975499547733662
0.0005873318378013248
0.007771719583282058
-0.06604554882263937
-0.1044212669497905
-0.04008414768343102
-0.08521612029438132
-0.008662777616075139
-0.0693812050343055
-0.01002170521011837
0.004862112061604022
-0.0728494831594196
-0.05081289037109939
-0.02377408128161738
0.0006326647507945739
0.0003525440807303978
-0.002127594790962535
0.001177738329251356
-0.002861442509855837
0.0028292932445759
-0.006310311879908999
-0.01027721335941507
0.004077747985653478
0.004477619355616597
-0.0003388699799323006
0.006201631973788936
-0.001762860118559369
0.0078541217329715
-0.005004860932016859
-0.007840043263788603
0.008668781786961514
0.007218141840014156
0.001379138369288976
0.00906372104360992
-0.001046914239033747
0.0103890008458431
-0.003036510779358091
-0.00439370818724439
0.01082987973013726
0.009945493527999838
0.01104382153070407
0.01138905611158181
0.01109752568089576
0.0008014384059372281
-0.01919425435212902
-0.01471488947732711
-0.02539085723170702
-0.1243784571442764
-0.15673957458599
-0.6680813577178057
-0.245815096688051
0.004972976865993541
-0.01225006558764173
-0.004555737491577615
-0.01431867537930494
-0.08829374828496009
-0.07142241312132828
-0.4976739043858644
-0.2518966280728387
0.007450793082550738
-0.005605103062588629
-0.0002893928473528826
-0.005012691612496786
-0.04790553920654687
-0.02288007249097705
-0.2532265567346553
-0.2879896952824259
0.007981590085854166
0.004521435598905615
-0.01751683360170562
-0.2680511437306303
-0.1889067052634274
0.1810272847980039
-0.1603388641561658
0.07496071613089539
-0.1477728986805919
0.007529502067745941
-0.01648951165683632
-0.1487713071320407
-0.1863063531373297
0.1225180331079023
-0.1604213393035694
0.05840528182449506
-0.1497582605900144
0.006074085170700294
-0.008122624924918331
-0.1503658381275529
-0.1873579998984956
0.03013345085433344
-0.1587956100245744
0.0400031280246273
-0.1539523981844658
0.01144323257663982
-0.00202405776835024
-0.1525515035687086
-0.2273500922044563
-0.1755347602174746
-0.1535904797314428
-0.1479606996745927
-0.1485799940634832
-0.002066326227559201
-0.1492345159107416
0.01377249468055963
-0.1483808555999108
0.03333127055347451
0.03821338474388136
-0.1451004394560147
-0.1522201645261617
0.0009558380383100085
-0.1523310491620449
0.01138576390960522
-0.1492005128882455
0.02631763306733415
0.02682059252115709
-0.1439659500756801
-0.1529548191394953
0.0004924697469540495
-0.1519758830928641
0.005520231883061166
-0.1460425780164793
0.01576035064323156
0.01493881271682429
-0.1396543978802926
-0.1471235269999662
-0.1444391174851332
-0.1339873373141836
-0.1245938617963875
-0.14127252262062
0.03415922579135311
-0.1378239519719124
0.05408613668589335
-0.1355371544179923
0.09271630997834868
0.1181143471128621
-0.1246639688212046
-0.140314120444751
0.02604517522224148
-0.1353255411640102
0.04507054709844183
-0.1243662838044398
0.07808609818401069
0.08422172236196401
-0.09477477952784151
-0.1343684210059204
0.01664409262758249
-0.1240387522601049
0.03091257910754364
-0.09691774189264293
0.04723248046873929
0.03875498351593143
-0.05607365679394873
-0.1121092350663134
-0.08497142771687888
-0.04169816343712984
-0.007391631060183854
-0.1527392017206401
-0.1152298388896149
-0.1480659826286581
-0.1107274302403396
-0.1466989080215402
-0.005610247659602996
0.002197967876435392
-0.1459466562352403
-0.1353461754573246
-0.0795912116468202
-0.1458419729607809
-0.1061485945105755
-0.1463588686058691
-0.006890849769584706
0.002182835847429676
-0.1455614702847821
-0.09260083500333073
-0.04718014353825367
-0.1425809691403071
-0.06238123340843316
-0.1456951846593245
-0.006029415659440374
0.001898134586842848
-0.1446090906047311
-0.05848240622296309
-0.127459353091296
-0.1359571341362243
-0.1330712076938165
-0.1443034133545965
0.002150143843141716
-0.1423190974436353
-0.0008228136880431003
-0.1406933113501209
-0.003411965247250293
-0.006511810086335057
-0.139495051973399
-0.1440139496181948
0.001723482242416363
-0.1425982084049218
-0.0006604692173150517
-0.1424992473252787
-0.001885630896023865
-0.004474063023560598
-0.1430075422474753
-0.1431208056048352
0.00159056180856465
-0.1429668420713582
0.0008214391220392192