/*--------------------------------*- C++ -*----------------------------------*\
  =========                 |
  \\      /  F ield         | OpenFOAM: The Open Source CFD Toolbox
   \\    /   O peration     | Website:  https://openfoam.org
    \\  /    A nd           | Version:  11
     \\/     M anipulation  |
\*---------------------------------------------------------------------------*/
FoamFile
{
    format      ascii;
    class       volVectorField;
    location    "0.115";
    object      U;
}
// * * * * * * * * * * * * * * * * * * * * * * * * * * * * * * * * * * * * * //

dimensions      [0 1 -1 0 0 0 0];

internalField   nonuniform List<vector> 
880
(
(25 -2.147058196983069e-15 0)
(24.99999999999858 -6.269968600620821e-12 0)
(24.99999883243058 -1.951591741086789e-06 0)
(24.99981150855616 -8.156149510883055e-05 0)
(25 -1.239933663326356e-15 0)
(24.99999999999485 -6.448739802897925e-11 0)
(24.99999520118704 -8.845605743375268e-06 0)
(24.99799855458757 -0.006724154521970749 0)
(25 5.600201749733809e-14 0)
(25.00000000084124 1.03145022708169e-09 0)
(24.99997860222985 -1.786164897418939e-05 0)
(24.99003563180311 -0.03208508717278669 0)
(25.00000000000002 -8.19294899497106e-13 0)
(24.99999999086527 -6.752985679840407e-10 0)
(24.99972253406833 -0.0001713639977034932 0)
(24.89534760489556 -0.09478466118745649 0)
(25.00000000000001 -1.813715602525197e-12 0)
(24.99999999995236 2.936009251056542e-11 0)
(24.99999999981085 -5.415214020238552e-10 0)
(24.99999997962084 -1.184584276193159e-07 0)
(25.00000002157178 4.89299973817099e-10 0)
(24.99999998218428 -1.166800476281197e-09 0)
(25.0000002186083 1.201605706377188e-07 0)
(24.99999499954041 -1.33122521057055e-06 0)
(24.9984581493169 7.47135055769966e-05 0)
(24.99672236932386 0.0009814120163143317 0)
(24.99611556155059 0.0104579807384178 0)
(24.99915925847152 -0.01503687000473865 0)
(24.52262239363144 0.08637137666806451 0)
(24.14285980776091 0.5404227691063342 0)
(24.03235992596865 0.9778299067085412 0)
(24.01264426152778 1.226496948397809 0)
(24.99999931503137 -1.305270959187191e-06 0)
(24.99999608104745 -1.53317579450465e-06 0)
(24.99997502395379 -4.170284849720698e-05 0)
(24.99997824622712 -2.390267299644963e-05 0)
(24.99993010038995 1.372412876598159e-05 0)
(24.99979868788738 0.000162531465591452 0)
(24.99980537916575 0.0005802953242786564 0)
(24.99981621534523 0.0004693397395843318 0)
(24.97229869395718 0.01363552190395802 0)
(24.95952866237353 0.04259182993413047 0)
(24.96178362797342 0.07531236955342673 0)
(24.96323434639691 0.08153233697043755 0)
(24.01217085794516 1.524499144722727 0)
(23.95579922610411 1.848730005277633 0)
(24.04688164434034 2.026035324090545 0)
(24.09267595997327 2.381315073797442 0)
(24.90431830339203 2.531355939374513 0)
(25.30738967454733 2.243927642723524 0)
(25.53746043844638 1.719550707067947 0)
(25.68839571076762 1.192550194666354 0)
(24.91456735472522 0.1596246929688356 0)
(24.93513769952539 0.2937114772672929 0)
(25.02294667750313 0.3233686050154113 0)
(25.07008624740963 0.2921709815955331 0)
(24.99915104147476 0.001477558350771184 0)
(24.99791080310411 0.004347321445396276 0)
(24.99899038365207 0.007399660861414479 0)
(25.00072331274269 0.007645498759725128 0)
(24.9999426845944 -7.002574593302838e-05 0)
(24.99986454432768 -0.0001953948241844669 0)
(24.99972760003927 -0.0002961390639131629 0)
(24.99968154567925 -0.0002904050607229003 0)
(24.9997084409307 -0.0002251084778157378 0)
(24.99980363616645 -0.000123524644445484 0)
(24.99991587759561 -4.504749435213804e-05 0)
(24.99997951059991 -9.846357413873956e-06 0)
(25.00159120108396 0.006670648579125906 0)
(25.00180793523148 0.004323843820364976 0)
(25.00110798047321 0.001847395872573257 0)
(25.00034945772233 0.0004573441781303074 0)
(25.09346215765302 0.2318290674095967 0)
(25.09095788681993 0.1586372385269627 0)
(25.06509264880516 0.08856753646493605 0)
(25.03224913997332 0.03500789354416552 0)
(25.69079506831584 0.8072096259882404 0)
(25.60806343824406 0.5540650831775372 0)
(25.48881623241125 0.3798691199790928 0)
(25.34690928844375 0.2410660684920709 0)
(25.20038665068792 0.1203966556618313 0)
(25.01000910695877 0.009294863113990623 0)
(25.00005236977617 6.146292014030014e-05 0)
(24.99999754293043 -1.102348483041152e-06 0)
(25.05982522095784 0.02354325185733101 0)
(25.00147822245801 0.001043947205819509 0)
(25.0000033257703 3.449919941023662e-06 0)
(24.99999988184503 -4.415696471772906e-08 0)
(24.97948796274839 0.05830086430795204 0)
(24.9999390050707 0.0003472619714039991 0)
(24.99999985699915 7.435414896557298e-07 0)
(24.99999998615194 -1.56846901126355e-08 0)
(23.90510360865294 0.563487658394044 0)
(24.9854972771104 0.01286495265091112 0)
(24.99997422275109 6.369488086174149e-05 0)
(25.00000071032649 -3.166335326236719e-06 0)
(24.9999951411169 -8.541673148547342e-06 0)
(24.99964755167601 0.0001788120828030352 0)
(24.89108316659464 0.03975415356968497 0)
(20.21233156325405 1.545370257134176 0)
(24.99997312053162 -4.031647716195768e-05 0)
(24.99904128782079 0.0007929226100737132 0)
(24.79680913610857 0.1182960772297031 0)
(19.86981697756852 3.09523839849695 0)
(24.99994612709174 -0.0001329795766618183 0)
(24.99744384044671 0.002511768966210596 0)
(24.66153484808904 0.2726180306417404 0)
(19.26920782872662 4.690433417293075 0)
(24.99976771999108 -0.0003006265386135701 0)
(24.99665783910124 0.005634780482680782 0)
(24.55675954503753 0.4664392740428513 0)
(19.11038817080118 6.027924797991202 0)
(18.94695123037397 7.217829757045284 0)
(24.42438970310959 0.7445671122465691 0)
(24.99381385874192 0.01032444532382695 0)
(24.99970898127668 -0.0004646827562569912 0)
(19.06256094763409 7.933732569837336 0)
(24.36383888048583 0.9880927941576187 0)
(24.99405586673734 0.01674809068630646 0)
(24.99928914410711 -0.0008780428565272278 0)
(19.01160444654683 8.567646563234943 0)
(24.21720264352711 1.283117028180992 0)
(24.9889549397186 0.02309331113468261 0)
(24.99926624405445 -0.00116126799371192 0)
(18.91983793348599 9.074033632049106 0)
(24.08942074799144 1.582781797408135 0)
(24.98758569962404 0.03547835396714711 0)
(24.99854809006346 -0.001749884753005474 0)
(24.99827591886031 -0.002475065172548856 0)
(24.97758221435446 0.04772316950399213 0)
(23.82440291906769 1.988620658518788 0)
(19.03666680152929 9.497948964640345 0)
(24.99693759276448 -0.003932727480754599 0)
(24.97539045722933 0.07573828567481357 0)
(23.93680866096532 2.226196482712703 0)
(19.99912629578498 9.244213526140985 0)
(24.99830274905561 -0.005104255074662236 0)
(24.98405717819795 0.07051878214655145 0)
(24.41900084899784 1.832880340061995 0)
(22.1637111722852 8.157883406149267 0)
(24.99532625378568 -0.0027105138784315 0)
(24.99059170268789 0.03753016064286714 0)
(24.93879358629366 1.168309163785776 0)
(24.56748681516688 5.732020154933994 0)
(24.99614628960549 -0.00273221437976014 0)
(25.00250593436792 0.09689488708788183 0)
(25.5204757564203 0.9491383951851518 0)
(28.1648604957566 3.169459311329846 0)
(24.9961586194058 -0.001892543891807454 0)
(25.07210999699976 0.04596172004626582 0)
(25.6828092495887 0.3357646160400424 0)
(28.89446790458356 0.7901287335074039 0)
(24.99975285077846 -0.0006164901846928663 0)
(25.03659619642842 -0.001286893325791758 0)
(25.44984248049799 -0.2772591881166698 0)
(26.44431865654404 -2.468447797523236 0)
(24.99992031698665 -0.0006101601695449521 0)
(24.99674669248337 -0.03096964142870329 0)
(24.87396658402443 -0.7460757527156126 0)
(21.58173716398666 -4.550009848739379 0)
(18.86794150518864 -5.140104026426344 0)
(24.4779062305204 -0.8207061977369657 0)
(24.98314676467024 -0.03402963109726632 0)
(24.99984034715417 -0.000330097102892149 0)
(17.406605525831 -4.800772405284344 0)
(24.20888876142346 -0.7822662288959905 0)
(24.97403191522684 -0.03194232750295418 0)
(24.9997910153962 -0.0002782112013042062 0)
(16.92039760037672 -3.513868932408733 0)
(24.10402449602629 -0.57861983166542 0)
(24.97860172203716 -0.01894876348127919 0)
(24.99994013503689 -0.0001017100123972534 0)
(15.7287307125433 -2.408635511561579 0)
(23.95796646224679 -0.4804688950350298 0)
(24.97624620460237 -0.01678398072369836 0)
(24.99990720371256 -0.0001057236416935545 0)
(17.42633533770831 -0.6856517035368171 0)
(24.27001141270545 -0.272590946080195 0)
(24.98787818079698 -0.008393208151933264 0)
(24.99996259026543 -4.560413651650689e-05 0)
(19.78419856163144 0.4758229387287747 0)
(24.5974233750786 -0.1362413307614902 0)
(24.99557760894918 -0.002927356748410904 0)
(24.99998741610763 -1.294352386609641e-05 0)
(21.75945121389793 0.6308957193653181 0)
(24.80692053651865 -0.08411502736607246 0)
(24.99853864352118 -0.001268961610634832 0)
(24.99999666206382 -5.304521167474505e-06 0)
(23.13538300600636 0.578168912621031 0)
(24.93314343893994 -0.0774501083153299 0)
(24.99982141126259 -0.0008321727825649132 0)
(24.99999938341287 -2.890644740331624e-06 0)
(22.84321907200164 -0.236334486127135 0)
(24.83963006211914 -0.006808968423022677 0)
(24.99580954919326 -6.757921310707638e-05 0)
(24.9999626940772 -2.531319193684789e-07 0)
(23.00351363930596 -0.6310249952310136 0)
(24.84962608807414 -0.01771841904432303 0)
(24.99594074989837 -0.000179614768031077 0)
(24.99996336179787 -7.013675933307862e-07 0)
(22.95148745295638 -0.9576474761454354 0)
(24.85062929260336 -0.03495123298024574 0)
(24.99608024432608 -0.0003842042934535552 0)
(24.99996448800172 -1.558962045721487e-06 0)
(22.94117922796299 -0.9689294820777095 0)
(24.86207307317398 -0.04699160272146113 0)
(24.99654902531788 -0.000685446236081876 0)
(24.99996905180424 -3.740427080144299e-06 0)
(23.13538300600721 -0.578168912633822 0)
(24.93314343896184 0.07745010830549523 0)
(24.99982141129534 0.0008321727617973454 0)
(24.99999938344077 2.890643592356189e-06 0)
(21.75945121389962 -0.6308957193862471 0)
(24.80692053654521 0.08411502736560526 0)
(24.99853864354364 0.001268961619347373 0)
(24.99999666207499 5.304528120756555e-06 0)
(19.78419856163051 -0.4758229387211766 0)
(24.59742337509666 0.1362413307711732 0)
(24.99557760894944 0.002927356764418771 0)
(24.99998741611472 1.294352551678804e-05 0)
(17.42633533768975 0.6856517035273767 0)
(24.27001141271864 0.2725909460948614 0)
(24.987878180788 0.008393208151862345 0)
(24.99996259026361 4.560413883134976e-05 0)
(24.99984034713353 0.000330097117102146 0)
(24.98314676466283 0.03402963108999326 0)
(24.47790623049567 0.8207061977387063 0)
(18.86794150513504 5.140104026491956 0)
(24.9997910153868 0.0002782112116388836 0)
(24.97403191522856 0.03194232750707798 0)
(24.20888876140986 0.7822662288993077 0)
(17.40660552578418 4.800772405323647 0)
(24.99994013503374 0.0001017100116656971 0)
(24.97860172204156 0.01894876347621006 0)
(24.10402449604245 0.5786198316824879 0)
(16.92039760033614 3.513868932419879 0)
(24.99990720371028 0.00010572364139694 0)
(24.97624620458543 0.01678398071406793 0)
(23.95796646225138 0.4804688950455968 0)
(15.72873071252271 2.408635511561044 0)
(21.58173716394478 4.550009848767685 0)
(24.87396658401245 0.7460757527332567 0)
(24.99674669248984 0.03096964144644676 0)
(24.99992031699707 0.0006101601486547053 0)
(26.44431865652308 2.468447797544124 0)
(25.44984248050418 0.2772591881203206 0)
(25.03659619642321 0.00128689331559982 0)
(24.99975285078079 0.0006164901856580729 0)
(28.89446790458272 -0.7901287334902688 0)
(25.68280924959236 -0.3357646160494501 0)
(25.07210999699899 -0.04596172004638296 0)
(24.99615861939278 0.001892543896560667 0)
(28.16486049575656 -3.16945931132004 0)
(25.52047575643386 -0.9491383951825664 0)
(25.00250593438216 -0.09689488707112008 0)
(24.99614628959182 0.00273221437535066 0)
(24.9982759188749 0.002475065178410083 0)
(24.9775822142427 -0.04772316951109273 0)
(23.82440291902309 -1.988620658547919 0)
(19.03666680151883 -9.497948964664443 0)
(24.99693759276081 0.003932727479338025 0)
(24.97539045720676 -0.07573828565168123 0)
(23.93680866093768 -2.226196482732033 0)
(19.99912629577577 -9.244213526155574 0)
(24.99830274904778 0.005104255110211148 0)
(24.98405717819544 -0.07051878215648315 0)
(24.41900084899661 -1.832880340062538 0)
(22.16371117229523 -8.157883406148089 0)
(24.99532625380241 0.002710513835312913 0)
(24.99059170270441 -0.03753016063445299 0)
(24.93879358629531 -1.16830916378389 0)
(24.56748681516897 -5.732020154926691 0)
(18.91983793347996 -9.074033632075944 0)
(24.08942074799958 -1.582781797392791 0)
(24.98758569977154 -0.03547835392887488 0)
(24.99854809001148 0.001749884750943139 0)
(19.01160444652805 -8.567646563253035 0)
(24.21720264349076 -1.283117028215647 0)
(24.98895493961552 -0.02309331118247375 0)
(24.99926624406286 0.001161267997078488 0)
(19.06256094763166 -7.933732569846084 0)
(24.36383888049094 -0.9880927941467517 0)
(24.99405586679238 -0.01674809067921303 0)
(24.99928914410067 0.0008780428746673573 0)
(18.94695123038158 -7.217829757039197 0)
(24.42438970308765 -0.7445671122648672 0)
(24.9938138587224 -0.01032444533250132 0)
(24.99970898127122 0.0004646827362324166 0)
(24.99999514111464 8.541673827906731e-06 0)
(24.99964755165491 -0.000178812083092947 0)
(24.891083166572 -0.03975415358864733 0)
(20.21233156323983 -1.545370257148901 0)
(24.999973120506 4.031647775606911e-05 0)
(24.99904128784069 -0.0007929226014777254 0)
(24.79680913618231 -0.1182960771875067 0)
(19.86981697759601 -3.095238398486298 0)
(24.99994612706497 0.0001329795777866541 0)
(24.99744384041987 -0.002511768974509657 0)
(24.66153484803238 -0.2726180307168309 0)
(19.26920782871912 -4.690433417314898 0)
(24.99976771998973 0.0003006265386197634 0)
(24.99665783910653 -0.005634780471203764 0)
(24.55675954509548 -0.4664392739885976 0)
(19.11038817081957 -6.027924797972984 0)
(25.00000071032407 3.166335193596983e-06 0)
(24.99999998615339 1.568357369876676e-08 0)
(24.99999988183239 4.415929742588355e-08 0)
(24.9999975429328 1.102349844475196e-06 0)
(24.99997422277592 -6.369487806138855e-05 0)
(24.9999998570099 -7.435396004942067e-07 0)
(25.00000332577835 -3.449915923843307e-06 0)
(25.000052369779 -6.146292436974716e-05 0)
(24.9854972771231 -0.01286495265564961 0)
(24.99993900506673 -0.0003472619716590386 0)
(25.00147822246562 -0.001043947206532499 0)
(25.01000910696429 -0.009294863116180389 0)
(23.90510360866234 -0.5634876584005792 0)
(24.97948796274521 -0.05830086430888734 0)
(25.05982522095269 -0.02354325186015185 0)
(25.20038665068784 -0.1203966556619431 0)
(24.9999795105922 9.846356372842986e-06 0)
(25.00034945771277 -0.0004573441834709276 0)
(25.03224913996578 -0.03500789354331362 0)
(25.34690928844335 -0.2410660684866528 0)
(24.99991587760097 4.504749621163279e-05 0)
(25.00110798046046 -0.001847395874048189 0)
(25.06509264880596 -0.08856753645229008 0)
(25.48881623240763 -0.3798691199665473 0)
(24.99980363616361 0.0001235246474029481 0)
(25.00180793522918 -0.004323843816162076 0)
(25.09095788683107 -0.1586372385336681 0)
(25.60806343825877 -0.554065083186345 0)
(24.99970844093424 0.000225108479725779 0)
(25.00159120108998 -0.006670648580693109 0)
(25.09346215764835 -0.2318290674133656 0)
(25.69079506832074 -0.8072096259791128 0)
(24.99994268465613 7.002581909118199e-05 0)
(24.99915104149521 -0.001477558364089318 0)
(24.9145673547196 -0.1596246929667229 0)
(24.90431830338457 -2.531355939361638 0)
(24.99986454437317 0.0001953948402773533 0)
(24.99791080309834 -0.004347321424369281 0)
(24.9351376995152 -0.2937114772694323 0)
(25.30738967454532 -2.243927642717605 0)
(24.9997276000403 0.000296139074402157 0)
(24.99899038365393 -0.007399660855105772 0)
(25.0229466775139 -0.323368605027332 0)
(25.53746043845311 -1.719550707074826 0)
(24.99968154568287 0.0002904050638579622 0)
(25.00072331274746 -0.007645498757903164 0)
(25.07008624741272 -0.2921709815938269 0)
(25.68839571077933 -1.192550194664913 0)
(24.09267595997805 -2.381315073796724 0)
(24.96323434639203 -0.08153233697139176 0)
(24.9998162153873 -0.0004693397444681446 0)
(24.99997824622869 2.390283603661589e-05 0)
(24.04688164434758 -2.026035324092759 0)
(24.96178362796201 -0.07531236955256602 0)
(24.99980537919233 -0.0005802953331817773 0)
(24.9999750242974 4.170219267675474e-05 0)
(23.95579922610867 -1.848730005265825 0)
(24.95952866238214 -0.04259182995346296 0)
(24.99979868790327 -0.0001625315534456392 0)
(24.99999608063412 1.533993469252024e-06 0)
(24.01217085795311 -1.524499144722087 0)
(24.97229869397235 -0.01363552191593512 0)
(24.99993010041473 -1.372404833167781e-05 0)
(24.99999931497162 1.304871439917871e-06 0)
(24.01264426153051 -1.226496948404206 0)
(24.99915925843397 0.01503687000124236 0)
(24.99999499953806 1.331241393724668e-06 0)
(24.99999997960381 1.184795898284512e-07 0)
(24.0323599259757 -0.9778299067090528 0)
(24.99611556157033 -0.01045798072731999 0)
(25.00000021861553 -1.201818452305131e-07 0)
(24.99999999981069 5.414968048790537e-10 0)
(24.14285980776796 -0.5404227691074857 0)
(24.99672236933469 -0.0009814120124586234 0)
(24.99999998221288 1.173015415257733e-09 0)
(24.9999999999536 -2.928848161479047e-11 0)
(24.52262239364018 -0.08637137666604551 0)
(24.99845814932371 -7.471350723431278e-05 0)
(25.00000002155679 -4.876621403572214e-10 0)
(25.00000000000003 1.900751719755866e-12 0)
(25.00000000000001 2.147410809594953e-15 0)
(24.99999999999842 5.532438746300637e-12 0)
(24.99999883242348 1.951593475249576e-06 0)
(24.99981150855145 8.156149782601487e-05 0)
(25 -1.737870441582045e-15 0)
(25.00000000000027 6.328708924068233e-11 0)
(24.99999520118516 8.845603624710902e-06 0)
(24.9979985545967 0.006724154503716531 0)
(25 -4.164552189526208e-14 0)
(25.00000000084531 -1.033697685623276e-09 0)
(24.99997860222828 1.78616473602608e-05 0)
(24.99003563180102 0.03208508717961686 0)
(25 7.087830933824675e-13 0)
(24.99999999088172 6.752043343356874e-10 0)
(24.99972253407483 0.0001713639941165531 0)
(24.89534760489928 0.09478466117533273 0)
(24.99938953805509 -6.744182032811895e-12 0)
(24.9949174876844 0.01450177984220082 0)
(24.95314354555455 0.04676591743180422 0)
(24.62394186409656 0.006240499903458362 0)
(24.99491748768219 -0.01450177985992485 0)
(24.96541575396627 -7.611271581189863e-12 0)
(24.7699846421303 -0.01339396060314847 0)
(23.86591850205803 -0.3166183627106859 0)
(24.9531435455626 -0.04676591741783731 0)
(24.76998464214921 0.01339396061205013 0)
(23.97048363201519 -7.366924294374015e-12 0)
(22.0156921924336 -0.4977713976058108 0)
(24.62394186410976 -0.006240499909141166 0)
(23.86591850208734 0.3166183626991653 0)
(22.01569219246572 0.497771397576637 0)
(19.54371567364122 1.433461648759879e-12 0)
(18.75037662969874 2.673543462295065 0)
(19.47890880243972 3.146247459874889 0)
(21.37944669802653 2.712371995729677 0)
(22.97646166060962 1.71884368612225 0)
(19.7244862535298 4.530525907676546 0)
(19.95148556644043 4.498696754312073 0)
(20.85462448044534 4.444450053298365 0)
(22.08860472114615 4.047217710905522 0)
(20.3641979270373 5.36449380988872 0)
(20.76543930612385 4.768477162239349 0)
(21.52680818204904 4.879704784015211 0)
(22.36313770889502 4.749040757235419 0)
(21.02379190365249 5.825895798652025 0)
(21.38854864420681 5.062801995591639 0)
(21.94997476003383 5.120812452949286 0)
(22.48246006722442 5.040552946669281 0)
(22.7975556393024 5.267921193426694 0)
(22.95578626461445 5.418639566091727 0)
(23.08720697889832 5.477689379958385 0)
(23.35301445773347 5.658703966538448 0)
(22.50515610596931 5.437138048462683 0)
(22.89323192616423 5.537028356733185 0)
(23.06147988783454 5.532386043943221 0)
(23.84506513136404 5.861322399663634 0)
(22.04511481480997 5.354986793499545 0)
(22.71299023704628 5.582511794398506 0)
(22.9794481379577 5.586767596336644 0)
(25.2328935832526 6.251877904187543 0)
(21.09949504899311 6.251643121177443 0)
(21.29127431442623 6.054927679872075 0)
(21.68486920994225 5.679034874584588 0)
(26.84439943165048 7.357190288237867 0)
(27.27664607885634 3.430285677219223 0)
(27.25359371972117 0.9440000744886141 0)
(26.44147846583847 0.5091850286522526 0)
(26.17700340810257 0.3475104138505119 0)
(28.97633512398695 2.472555059803616 0)
(28.75069344645091 0.3685662921252776 0)
(27.57153482739978 0.3961479927390048 0)
(26.88387475879872 0.3118907809460914 0)
(31.76158082151506 2.017219341661533 0)
(29.77293931319695 0.1476966229848591 0)
(28.18096467274722 0.1233135502789356 0)
(27.30036055370775 0.05603207254940439 0)
(25.08761302928639 2.204523519432123 0)
(23.47271325361264 0.5084531766383101 0)
(23.12425269129142 -0.1290678551252831 0)
(23.30415249417909 -0.5071593791516771 0)
(25.98701437999495 0.2388795940963668 0)
(25.79233199634045 0.2035061985275713 0)
(25.64255741191374 0.1535859668318341 0)
(25.54499755406751 0.05013517126457549 0)
(26.45996103737621 0.2052974359246944 0)
(26.11904912028275 0.1731335419604566 0)
(25.88794079830587 0.1110868789365509 0)
(25.72548816901591 0.03393394768114555 0)
(26.75456871414389 0.003565745993445055 0)
(26.35355702714461 0.01495618227624228 0)
(26.07259702394006 0.0008168047148179004 0)
(25.867202347384 -0.02015474842925858 0)
(23.72327027770781 -0.7937642498774989 0)
(24.2032882898865 -0.8356884897859677 0)
(24.66234292807561 -0.6683433469242133 0)
(24.92115334473804 -0.4568483539281747 0)
(25.39682618007143 0.06331202558875959 0)
(25.14326902810375 0.04364300402970513 0)
(24.61811947491789 0.9572488691274661 0)
(19.31671854783457 4.339767182327392 0)
(25.51801180839569 0.02354880946207403 0)
(25.18839650742477 0.02853183495781073 0)
(24.03407242940013 1.512411482788273 0)
(15.81535414520242 4.067743857350007 0)
(25.62043350673813 -0.02633673053618558 0)
(25.23002856691378 -0.006168573123965368 0)
(22.92716795894229 1.630091638580458 0)
(12.80752951035379 2.155506567300336 0)
(24.9871348377884 -0.3284062658727167 0)
(25.09632008939268 -0.1044080754468852 0)
(20.29285679864063 0.09678599882168631 0)
(6.974003859043997 0.9193836307619641 0)
(14.03668716097545 6.794527279328268 0)
(15.19970572062549 7.87080638185996 0)
(15.57588675045647 9.024864005644099 0)
(16.04799750244913 9.944506939873555 0)
(12.50641411170641 6.953516254865034 0)
(14.62143402066222 7.915373897953455 0)
(15.38123604381886 9.203828258154642 0)
(15.95777036660808 10.00416484360266 0)
(10.03498414857814 5.773347773881805 0)
(12.96498497788251 7.543343324818526 0)
(14.54646109032071 9.152567483973687 0)
(15.59687844123959 9.988169634941265 0)
(5.191183151871709 3.092989590978755 0)
(8.621843319699799 4.443618612918126 0)
(11.62168200689787 6.367744964736827 0)
(13.21309075374338 8.515418011155015 0)
(16.19941256442262 10.61929634503509 0)
(16.32123307788656 10.88476048649803 0)
(16.51694523860693 11.05177231965195 0)
(16.77665002034157 11.18995299500993 0)
(16.1250676497823 10.51945189077751 0)
(16.25376560009348 10.75367840808887 0)
(16.47068193721619 10.92817564502618 0)
(16.74391348769569 11.08196851097908 0)
(15.9908536014683 10.45681239617864 0)
(16.15784552873275 10.6906408435313 0)
(16.37407412364506 10.87839719040256 0)
(16.64313547084364 11.03949609737973 0)
(14.42426849821196 9.863253979530242 0)
(14.93021948698387 10.62960250030621 0)
(15.34616307727865 10.80537454238469 0)
(15.67396728212456 10.76727520575436 0)
(17.13150796632389 11.37121075328452 0)
(18.16220855598002 11.34673014388518 0)
(20.28157663717861 10.92509251579702 0)
(23.36141022095957 9.180471887746599 0)
(17.11214780594668 11.28025055375813 0)
(18.0785804896463 11.30008798379136 0)
(20.17394980136721 11.11333209036881 0)
(23.96678600846438 11.44720628224382 0)
(17.01155440391549 11.24450400425767 0)
(17.79057434040299 11.30055089710372 0)
(20.36992673850798 11.89618163450039 0)
(29.74265962251103 17.42651050755622 0)
(16.29240309674812 11.04736974212295 0)
(17.53166859561887 10.67256180195747 0)
(20.96673982556883 12.35733205065725 0)
(40.92139750482214 23.87972282565341 0)
(28.62962447553822 4.335598123392975 0)
(30.30178346656194 -4.697009282898525 0)
(8.755062407762546 -4.127635503208516 0)
(3.942618820574094 -2.088224126408312 0)
(30.37704504989273 3.675387590953849 0)
(24.2323166071982 -2.723282067790094 0)
(3.323231546507622 -3.26655118511797 0)
(1.730433463842453 0.2068450982068839 0)
(31.05465883729935 2.840776438889352 0)
(15.02037675373022 -5.110063775705741 0)
(1.558135704732698 0.4471924681994668 0)
(1.132036328393951 1.008634583353003 0)
(20.65559449839723 -9.085450013655368 0)
(4.346735290827473 -4.721300548051157 0)
(-0.4031335550102343 1.999309649184384 0)
(0.189757979751523 0.830115814944579 0)
(1.951600062736924 -1.884822667201782 0)
(0.576399073088522 -1.73157479991968 0)
(-0.06475185512580861 -1.03915262416637 0)
(-0.8795705105730236 0.2554325556854062 0)
(0.7757983207454696 0.2244100268372602 0)
(-0.2732508890760368 0.2386555627183803 0)
(-0.7054264470001756 0.8581957242137997 0)
(-0.6624462129358337 1.944119346080969 0)
(0.4637295608591037 0.6156767190574111 0)
(0.03075591276665707 1.072011296773518 0)
(0.1449299996781624 2.012121804641512 0)
(-0.269734181469793 3.127788932446178 0)
(0.1065534924012608 0.5068005010596887 0)
(-0.06406035776259987 1.291243400375264 0)
(-0.1358396518608662 2.67704909461841 0)
(-0.7488471887281881 3.295545750363868 0)
(5.945337234304391 -3.73963558343021 0)
(13.66440323228798 -5.296698734018755 0)
(18.76363215076818 -5.147803113986552 0)
(22.44723339306171 -5.615433886157143 0)
(2.474473319932138 -1.145700471104617 0)
(10.09341039362867 -3.290128934793857 0)
(16.20345466955112 -4.374775626131489 0)
(20.98930469176899 -6.039904795157409 0)
(-1.00054393671615 -0.9137355644290187 0)
(4.281150861091468 -2.835740823466761 0)
(11.67323754106481 -4.008734160448618 0)
(20.15486249648979 -4.179320879659638 0)
(-1.851490385761656 0.9779452632323479 0)
(1.35501268865731 0.4240870351831296 0)
(9.397001534235734 1.396396632807275 0)
(22.03297968860758 -2.424421064051897 0)
(24.07444926720452 -10.75806868265893 0)
(26.0565425705884 -16.55046422159477 0)
(25.95885121541767 -14.32120631132034 0)
(19.79049701161112 -7.902438833675391 0)
(22.18336160571775 -11.28044143383466 0)
(23.91835114770243 -12.69305441662032 0)
(21.66770507801065 -6.666511813747574 0)
(13.96967565311679 -3.42862028717591 0)
(21.29889211688878 -10.37904876285153 0)
(18.46604568030281 -7.451215364810071 0)
(12.70296171894497 -1.905620701609756 0)
(5.712106463110452 0.6527337779396911 0)
(13.9887865822703 -10.10278604483165 0)
(8.264441603142751 -1.669606246860637 0)
(4.08049348291884 2.387662904936923 0)
(1.541583644501631 4.166760304841781 0)
(-0.759819068634849 4.342238084448193 0)
(-2.063005295130672 3.468011317912342 0)
(-2.561786387872707 2.183094165549373 0)
(-2.464277165836 0.7992934124839942 0)
(0.93100766423416 3.36173696469673 0)
(-2.086470256794059 3.048481932369317 0)
(-3.538045752235028 1.867433565969109 0)
(-3.575960400184361 0.5318885106652708 0)
(3.929073944761619 -1.82621187176212 0)
(-1.53146489816746 -0.666239963509516 0)
(-3.281917516056782 -0.03223315885533459 0)
(-3.531866990791245 -0.06422146333971349 0)
(11.48063230138225 -5.34273007792509 0)
(6.313682298920403 -4.200526018569225 0)
(4.276974114765023 -2.399964928722898 0)
(4.13490486345756 -0.7558263065516643 0)
(-2.464277165835711 -0.7992934124800729 0)
(-3.57596040018415 -0.5318885106613581 0)
(-3.531866990791936 0.0642214633412569 0)
(4.134904863450043 0.7558263065489558 0)
(-2.561786387872065 -2.183094165545648 0)
(-3.538045752233623 -1.86743356596551 0)
(-3.281917516056656 0.03223315885547356 0)
(4.276974114767076 2.399964928719979 0)
(-2.063005295128649 -3.468011317909112 0)
(-2.086470256792108 -3.048481932367367 0)
(-1.531464898166795 0.6662399635077785 0)
(6.313682298922164 4.200526018567955 0)
(-0.7598190686324499 -4.342238084446127 0)
(0.9310076642359895 -3.361736964697229 0)
(3.929073944760084 1.826211871760647 0)
(11.48063230137855 5.342730077929504 0)
(19.79049701159804 7.902438833675557 0)
(25.95885121541035 14.3212063113108 0)
(26.0565425705841 16.5504642215927 0)
(24.07444926719355 10.75806868265847 0)
(13.96967565311413 3.428620287172157 0)
(21.66770507800734 6.666511813745813 0)
(23.91835114769938 12.69305441661931 0)
(22.18336160570994 11.28044143383292 0)
(5.712106463110518 -0.6527337779401334 0)
(12.70296171894554 1.905620701608737 0)
(18.46604568030152 7.451215364807155 0)
(21.29889211688535 10.37904876284729 0)
(1.541583644503404 -4.166760304840713 0)
(4.080493482918595 -2.3876629049361 0)
(8.264441603140266 1.66960624686132 0)
(13.98878658226799 10.10278604483049 0)
(22.0329796886047 2.424421064050072 0)
(9.397001534234347 -1.396396632807372 0)
(1.355012688657983 -0.4240870351814116 0)
(-1.851490385760309 -0.9779452632296909 0)
(20.15486249648501 4.179320879657182 0)
(11.67323754106103 4.008734160443128 0)
(4.281150861088899 2.835740823466871 0)
(-1.000543936720066 0.9137355644278975 0)
(20.98930469175885 6.039904795156725 0)
(16.20345466954232 4.374775626127049 0)
(10.09341039361749 3.290128934794869 0)
(2.474473319914121 1.145700471102634 0)
(22.44723339304907 5.615433886153712 0)
(18.76363215075916 5.147803113978611 0)
(13.66440323227106 5.296698734023959 0)
(5.945337234273465 3.739635583429714 0)
(-0.8795705105947741 -0.2554325556908211 0)
(-0.06475185516660484 1.039152624160349 0)
(0.5763990730596774 1.731574799918597 0)
(1.951600062715662 1.884822667229311 0)
(-0.6624462129469106 -1.944119346071178 0)
(-0.7054264470223293 -0.8581957242192205 0)
(-0.2732508890774642 -0.2386555627248695 0)
(0.775798320757575 -0.2244100268296649 0)
(-0.2697341814787338 -3.127788932439938 0)
(0.1449299996664872 -2.012121804646676 0)
(0.03075591275950496 -1.07201129678116 0)
(0.4637295608640143 -0.6156767190549977 0)
(-0.748847188730453 -3.295545750360291 0)
(-0.1358396518683398 -2.677049094626123 0)
(-0.06406035776882081 -1.291243400381384 0)
(0.1065534924006256 -0.5068005010558989 0)
(3.942618820547968 2.088224126416961 0)
(8.755062407683312 4.127635503189913 0)
(30.30178346645421 4.697009282945315 0)
(28.62962447552684 -4.335598123382102 0)
(1.730433463856935 -0.2068450982098718 0)
(3.323231546500933 3.266551185080367 0)
(24.23231660715996 2.723282067782067 0)
(30.37704504989443 -3.675387590943734 0)
(1.132036328399877 -1.00863458335315 0)
(1.55813570474717 -0.4471924682208936 0)
(15.02037675370749 5.110063775714345 0)
(31.05465883729794 -2.840776438898432 0)
(0.1897579797556809 -0.8301158149440576 0)
(-0.4031335549921935 -1.999309649199004 0)