/*--------------------------------*- C++ -*----------------------------------*\
  =========                 |
  \\      /  F ield         | OpenFOAM: The Open Source CFD Toolbox
   \\    /   O peration     | Website:  https://openfoam.org
    \\  /    A nd           | Version:  11
     \\/     M anipulation  |
\*---------------------------------------------------------------------------*/
FoamFile
{
    format      ascii;
    class       volVectorField;
    location    "0.4";
    object      U;
}
// * * * * * * * * * * * * * * * * * * * * * * * * * * * * * * * * * * * * * //

dimensions      [0 1 -1 0 0 0 0];

internalField   nonuniform List<vector> 
4455
(
(25.152977 0.019344855 0)
(23.651541 -0.081518368 0)
(22.713734 -0.093572923 0)
(23.050633 0.17982077 0)
(22.972725 0.18781105 0)
(22.312017 -0.98936361 0)
(20.117393 -0.3044994 0)
(20.67794 -0.057728792 0)
(24.790198 -0.94107705 0)
(25.10782 0.0034662015 0)
(23.668981 0.0054688137 0)
(22.970063 -0.088001801 0)
(23.068953 -0.28187746 0)
(22.249807 0.0030568271 0)
(21.932337 0.17859934 0)
(21.282425 0.81901934 0)
(24.337365 -0.16691586 0)
(27.909094 0.0069475351 0)
(25.16064 0.053482635 0)
(23.602546 -0.27545708 0)
(22.598384 -0.1357096 0)
(23.095426 0.19501964 0)
(23.243808 0.13873863 0)
(22.478615 0.52154655 0)
(20.065938 -0.71396884 0)
(21.5066 -0.60967808 0)
(22.539685 -1.1896364 0)
(24.991952 0.0023344903 0)
(23.707482 0.019153184 0)
(23.351977 -0.19000662 0)
(22.958539 -0.064568131 0)
(22.006211 -0.2663433 0)
(21.327373 -0.33088715 0)
(21.193184 0.39195547 0)
(25.779585 0.16826499 0)
(26.791625 -0.34583482 0)
(25.243352 0.08465764 0)
(23.425489 -0.25671798 0)
(22.523313 -0.25276589 0)
(23.223762 0.084257569 0)
(23.283402 0.57875713 0)
(22.531847 -0.13455421 0)
(20.555579 -0.46658911 0)
(22.677413 -0.67627276 0)
(23.119043 -1.882161 0)
(24.76234 -0.085230854 0)
(23.602803 -0.13931086 0)
(23.516781 0.076904908 0)
(23.043282 -0.18506401 0)
(21.817507 -0.16191631 0)
(21.140896 0.64630065 0)
(21.340939 0.26699402 0)
(25.261099 -0.4353177 0)
(25.434283 -0.82824529 0)
(25.314303 0.12181779 0)
(23.679106 -0.26903744 0)
(22.734203 -0.21636897 0)
(23.138588 0.4165341 0)
(23.212242 -0.061224744 0)
(22.258085 -0.50545286 0)
(20.602315 -0.86579185 0)
(23.683988 -0.4722691 0)
(23.335745 -1.9981267 0)
(24.724535 0.03565571 0)
(23.338031 0.011109354 0)
(23.491487 -0.42766602 0)
(23.060638 -0.3495386 0)
(21.789456 0.026882445 0)
(21.136989 0.16597258 0)
(22.117827 0.33922308 0)
(25.76207 -0.33538444 0)
(25.244215 -1.5452808 0)
(25.04601 -0.20633534 0)
(23.705393 -0.29510193 0)
(23.021768 0.48589776 0)
(23.136752 0.58375477 0)
(22.923654 0.43005769 0)
(21.693323 -0.48746794 0)
(20.673776 -1.0247644 0)
(23.883038 -0.78439073 0)
(23.051126 -1.4399115 0)
(24.84576 0.1807137 0)
(25.087853 0.0017462879 0)
(24.593614 -0.11308774 0)
(25.002351 -0.093376044 0)
(24.629676 0.14146116 0)
(25.059943 -0.20643802 0)
(24.748699 -0.057299169 0)
(24.593167 -0.049305052 0)
(24.751143 -0.34840226 0)
(23.491078 -0.19407598 0)
(23.753602 -0.29757686 0)
(23.381227 -0.064699946 0)
(23.883877 -0.049894564 0)
(23.833022 -0.6627109 0)
(23.800235 -0.079157766 0)
(23.747177 0.039255658 0)
(23.978986 -0.15572363 0)
(24.348085 -0.62180635 0)
(23.60176 -0.45699513 0)
(23.102286 0.1159348 0)
(23.638994 -0.16170437 0)
(23.212614 0.14085525 0)
(23.882021 -0.18026562 0)
(22.957586 0.22193392 0)
(23.708574 -0.11406851 0)
(23.604636 -0.14092146 0)
(23.89965 0.33539043 0)
(23.059882 -0.59483083 0)
(22.775957 0.62137445 0)
(23.21042 -0.014645955 0)
(22.733093 -0.21476601 0)
(22.784982 0.25902534 0)
(22.353884 0.17720922 0)
(23.251738 0.033415647 0)
(22.713253 0.14280049 0)
(22.266226 0.43962938 0)
(21.981146 -0.45854713 0)
(22.01188 0.038108396 0)
(22.15016 0.18014168 0)
(22.258963 -0.19366097 0)
(21.165501 0.30089708 0)
(21.836644 -0.62344334 0)
(22.125642 0.064573918 0)
(21.480553 0.14283561 0)
(20.985098 -0.12000676 0)
(21.509185 0.18595604 0)
(21.107899 -0.42533137 0)
(21.262813 -0.15531953 0)
(21.791421 -0.40951039 0)
(20.883017 0.1937706 0)
(21.984335 -0.82841528 0)
(21.361063 -0.45997027 0)
(22.345298 -0.29905085 0)
(22.361797 -0.43860788 0)
(22.571621 -0.13448765 0)
(21.362302 -0.46626929 0)
(22.802927 -0.64312178 0)
(22.915578 -0.72713579 0)
(23.466533 -0.6212597 0)
(24.068775 -0.23522641 0)
(24.291731 -0.53473846 0)
(25.38063 -0.42774368 0)
(25.182764 -0.054713421 0)
(25.854907 -0.45072723 0)
(24.829085 -0.44719864 0)
(26.334821 -0.59889415 0)
(25.764604 -0.26775182 0)
(26.448315 -0.22679538 0)
(26.0875 0.43322496 0)
(26.634235 0.26703381 0)
(26.453839 1.3697232 0)
(26.543319 1.3583094 0)
(25.945711 -1.1932002 0)
(24.427409 2.0839847 0)
(24.138453 0.78884618 0)
(23.569332 3.5183956 0)
(23.206684 1.4049294 0)
(23.149197 2.9366096 0)
(21.482342 1.3179536 0)
(18.48435 1.4222549 0)
(15.316066 -0.3389853 0)
(24.810054 -0.52655523 0)
(24.613173 -0.13587438 0)
(24.185154 -0.060624787 0)
(24.759845 -0.19061284 0)
(25.813358 -0.16449865 0)
(25.936071 0.070487546 0)
(24.867546 0.25244475 0)
(23.889258 0.56700765 0)
(24.214711 0.98975212 0)
(24.082906 -0.085932186 0)
(23.993586 0.509895 0)
(24.063196 0.52052963 0)
(24.215544 0.031838121 0)
(24.5672 0.074903073 0)
(24.499899 1.0041411 0)
(23.32992 1.6974707 0)
(21.636887 1.3987791 0)
(21.431528 0.67333232 0)
(23.398075 0.66012798 0)
(22.684114 0.12938913 0)
(22.85073 -0.27817464 0)
(24.046302 0.42271877 0)
(24.081018 1.1656363 0)
(21.474819 0.62861105 0)
(18.577372 -0.63436748 0)
(20.764189 0.13767137 0)
(24.956208 1.7472741 0)
(21.519042 -0.18949451 0)
(21.957206 -0.42043458 0)
(23.56626 0.50827901 0)
(22.924269 0.75040074 0)
(19.472538 -0.62091118 0)
(18.417337 -1.1140557 0)
(23.311219 1.3739162 0)
(26.13179 2.5475977 0)
(22.668111 -0.1211936 0)
(22.122243 -0.069303367 0)
(22.706165 0.19576364 0)
(20.932958 -0.92032329 0)
(18.774167 -1.8947703 0)
(22.662178 0.74081344 0)
(25.844295 1.8803087 0)
(24.034919 -0.99112391 0)
(20.428202 -3.673361 0)
(25.257401 0.93719616 0)
(22.287447 -0.99751751 0)
(22.122241 -0.63039969 0)
(24.394197 1.1271794 0)
(25.504512 0.60946221 0)
(24.904538 -1.8946439 0)
(25.402852 -1.614914 0)
(28.421516 1.5853616 0)
(27.538704 0.8878499 0)
(24.602731 -1.5374806 0)
(25.932853 0.61197944 0)
(26.285173 -0.02050088 0)
(27.37892 -0.2463053 0)
(28.087981 0.55526096 0)
(27.11833 0.82786989 0)
(25.265161 1.313801 0)
(25.38319 4.0884634 0)
(23.52788 5.3178932 0)
(16.749904 2.443365 0)
(26.317854 1.4014228 0)
(24.659294 1.6586975 0)
(22.637235 2.7084733 0)
(19.888137 3.198808 0)
(15.672184 2.1763345 0)
(8.7621714 -1.2147979 0)
(2.9357195 -3.2617509 0)
(0.74455034 -2.4079531 0)
(0.62601867 -0.44858996 0)
(11.150568 -0.26623176 0)
(7.1087642 -1.2773262 0)
(4.1689744 -1.5101381 0)
(1.8654485 -1.7264786 0)
(1.0367868 -0.67712582 0)
(0.49423428 -0.24249504 0)
(0.401987 0.16734673 0)
(0.15655578 -0.031197043 0)
(0.10798364 0.02082658 0)
(-0.0027960419 -0.065016303 0)
(0.017978713 0.014901434 0)
(-0.0064692552 -0.012827585 0)
(0.015602837 0.021116873 0)
(-0.0057970515 -0.0072509572 0)
(0.0062545707 0.010291787 0)
(-0.0051454063 -0.0027471226 0)
(0.0038398391 0.0070552235 0)
(-0.0015884821 0.00070053144 0)
(0.38110611 0.28131405 0)
(0.30783103 0.2764093 0)
(0.055818537 -0.056316679 0)
(0.024884348 -0.025961322 0)
(-0.020192248 -0.049082011 0)
(0.021019184 0.0053597804 0)
(-0.006290486 -0.023272031 0)
(0.0059974495 -0.0080226443 0)
(-0.011562293 -0.019699288 0)
(2.9759206 -4.6027591 0)
(-2.7214714 -5.3684299 0)
(-0.6447308 -1.4163208 0)
(0.28972799 0.40880018 0)
(0.16011388 0.21513915 0)
(0.082442509 0.085077497 0)
(-0.019545354 0.011128643 0)
(0.031984638 0.065651142 0)
(0.02047702 0.045513317 0)
(25.877711 2.3030315 0)
(28.109626 7.1461433 0)
(22.477864 5.2016783 0)
(6.0993453 -3.5630651 0)
(-2.7675008 -5.7099417 0)
(-0.45732253 -1.5051702 0)
(0.069702937 -0.16735499 0)
(0.05093607 -0.09449364 0)
(-0.099740552 -0.17255106 0)
(29.295282 3.5843809 0)
(26.408515 0.1356639 0)
(21.570981 -2.9737382 0)
(26.751277 3.4664685 0)
(29.295109 7.1135119 0)
(22.012024 3.9485385 0)
(6.0073967 -2.5149966 0)
(0.10673794 -2.0521663 0)
(0.2469052 -0.11265152 0)
(16.583221 -4.0349897 0)
(22.428317 -0.13885702 0)
(28.721032 3.7530818 0)
(26.880459 2.2594736 0)
(20.811157 -1.6149162 0)
(25.284249 1.2895659 0)
(30.816157 4.8058147 0)
(26.93796 3.6859941 0)
(12.684019 -0.67078881 0)
(24.911503 1.340392 0)
(19.692358 -1.5038797 0)
(17.445029 -2.1756606 0)
(24.138742 2.1016083 0)
(26.976018 4.1713133 0)
(22.559617 2.4762717 0)
(19.017436 1.2114658 0)
(25.55446 4.2012554 0)
(29.121422 5.4410449 0)
(23.368565 0.88293436 0)
(25.191707 1.7948872 0)
(24.04893 1.9467985 0)
(20.097021 0.77417811 0)
(20.1824 1.4021871 0)
(24.849597 4.4188293 0)
(25.402839 5.1660416 0)
(20.694558 2.1422926 0)
(21.513236 -0.071351695 0)
(24.905705 1.0646365 0)
(24.93011 0.58788258 0)
(24.282228 0.039266195 0)
(23.483126 0.22763244 0)
(23.262023 1.5717121 0)
(23.760653 3.1887306 0)
(23.887462 4.0082258 0)
(22.451757 4.1321682 0)
(20.345749 4.2187436 0)
(21.128796 4.7645808 0)
(24.273981 5.8992093 0)
(24.552215 6.6538309 0)
(19.163751 5.8570052 0)
(9.510892 3.2534044 0)
(2.4374166 0.88761712 0)
(0.39612188 0.14021107 0)
(0.056383408 0.018502086 0)
(0.007902827 0.0023652083 0)
(29.764963 2.3492965 0)
(30.572293 3.4771388 0)
(20.708836 1.7966445 0)
(5.7826651 -0.60470793 0)
(0.23446169 -0.64084263 0)
(-0.12113946 -0.18031576 0)
(-0.043936386 -0.036137214 0)
(-0.010878569 -0.0066137374 0)
(-0.0023510296 -0.0011604906 0)
(23.867836 3.5431751 0)
(11.310337 0.54774116 0)
(2.5721288 -0.1024103 0)
(0.57508354 0.19028387 0)
(0.18823445 0.12069552 0)
(0.062659696 0.039793837 0)
(0.018726733 0.01062718 0)
(0.005046009 0.0025400969 0)
(0.0012820078 0.00056979365 0)
(1.3087522 -2.0976827 0)
(-0.3387265 -0.87425546 0)
(-0.26500389 -0.30138498 0)
(-0.14505251 -0.12295771 0)
(-0.063559874 -0.046096353 0)
(-0.024783237 -0.015536265 0)
(-0.008307959 -0.0046281065 0)
(-0.0026465647 -0.0013025518 0)
(-0.00075353038 -0.0003341326 0)
(0.33217594 0.2955014 0)
(0.22141807 0.19642671 0)
(0.13482051 0.10791459 0)
(0.065270469 0.048136736 0)
(0.030725816 0.020143986 0)
(0.011920018 0.0071320786 0)
(0.004622752 0.0024661964 0)
(0.0015139344 0.00073910858 0)
(0.00051271869 0.00022338077 0)
(-0.093418227 -0.12043907 0)
(-0.085359359 -0.082802595 0)
(-0.047492475 -0.041334635 0)
(-0.028965905 -0.021491967 0)
(-0.012803468 -0.0086905698 0)
(-0.0062356327 -0.0037131228 0)
(-0.0023098859 -0.001266338 0)
(-0.00096293507 -0.00046755462 0)
(-0.00030942576 -0.0001384691 0)
(0.03906939 0.046854599 0)
(0.022854764 0.025274805 0)
(0.020232011 0.017493303 0)
(0.0097850417 0.0078097644 0)
(0.0063411799 0.00428369 0)
(0.0025876587 0.0016199345 0)
(0.0013826287 0.00075281753 0)
(0.00048803323 0.00024634698 0)
(0.00022782308 0.00010073413 0)
(-0.004615858 -0.0097082692 0)
(-0.0095755415 -0.010409215 0)
(-0.0044905404 -0.0047854758 0)
(-0.0045411551 -0.0036415879 0)
(-0.0019393886 -0.0014799408 0)
(-0.0014469637 -0.00090846631 0)
(-0.00054797623 -0.00032575237 0)
(-0.00033958745 -0.0001708665 0)
(-0.00011451217 -5.453438e-05 0)
(0.0032487984 0.0044115831 0)
(0.0003431375 0.0011600333 0)
(0.0021191232 0.0020677666 0)
(0.00055930157 0.00061117545 0)
(0.0009762258 0.0007206076 0)
(0.00028121201 0.0002033911 0)
(0.00033199608 0.00019279583 0)
(9.1116362e-05 4.9292792e-05 0)
(8.7821216e-05 4.0969549e-05 0)
(2.2065479e-05 9.2823932e-06 0)
(-6.2297143e-05 -2.5138115e-05 0)
(7.0913185e-05 2.8946694e-05 0)
(-0.00011504194 -4.5509424e-05 0)
(0.00014733603 5.8706759e-05 0)
(-0.00021193432 -8.3441613e-05 0)
(0.00030473228 0.00012056661 0)
(-0.00047576329 -0.00019771939 0)
(0.0011114124 0.00029900324 0)
(1.8823488e-05 7.0974943e-06 0)
(-1.8873694e-05 -7.2160143e-06 0)
(2.9919519e-05 1.0637746e-05 0)
(-3.279364e-05 -1.190502e-05 0)
(4.5130908e-05 1.593584e-05 0)
(-5.3747641e-05 -1.9099534e-05 0)
(7.0478821e-05 2.4590623e-05 0)
(-9.2072345e-05 -3.2816595e-05 0)
(0.0001569612 3.7233483e-05 0)
(4.2716631e-06 1.4077673e-06 0)
(-9.2998484e-06 -2.9499595e-06 0)
(8.3270926e-06 2.7060083e-06 0)
(-1.1157861e-05 -3.5364932e-06 0)
(1.1634089e-05 3.732637e-06 0)
(-1.3830418e-05 -4.3287618e-06 0)
(1.5379578e-05 4.76498e-06 0)
(-1.7354507e-05 -5.3019065e-06 0)
(2.2245844e-05 4.5424678e-06 0)
(3.3691465e-06 1.0194991e-06 0)
(-2.5543683e-06 -7.7011263e-07 0)
(3.2466611e-06 9.0214706e-07 0)
(-2.8637517e-06 -8.2429612e-07 0)
(3.2926684e-06 9.2030908e-07 0)
(-3.1930361e-06 -8.9471733e-07 0)
(3.3243646e-06 8.960692e-07 0)
(-3.1758276e-06 -8.326789e-07 0)
(3.1533137e-06 5.332396e-07 0)
(6.8796717e-07 1.7530661e-07 0)
(-1.1625683e-06 -2.7625386e-07 0)
(8.1630063e-07 2.0339207e-07 0)
(-9.0735199e-07 -2.2214197e-07 0)
(7.7186419e-07 1.932295e-07 0)
(-7.6601996e-07 -1.8500455e-07 0)
(6.7591429e-07 1.5948733e-07 0)
(-5.7253294e-07 -1.2617821e-07 0)
(4.4717189e-07 5.9499345e-08 0)
(5.150003e-07 1.2236331e-07 0)
(-2.9194858e-07 -6.649374e-08 0)
(2.9882902e-07 6.1318161e-08 0)
(-2.1191724e-07 -4.6203095e-08 0)
(2.0476177e-07 4.3229963e-08 0)
(-1.6289825e-07 -3.4535649e-08 0)
(1.3822636e-07 2.7492998e-08 0)
(-1.0027626e-07 -1.8433069e-08 0)
(6.3169244e-08 5.9444501e-09 0)
(9.4692209e-08 1.8016798e-08 0)
(-1.2436704e-07 -1.9959152e-08 0)
(6.8422336e-08 1.2130462e-08 0)
(-6.3323029e-08 -1.1162945e-08 0)
(4.4061181e-08 8.1062004e-09 0)
(-3.687304e-08 -6.4554384e-09 0)
(2.6364879e-08 4.4453845e-09 0)
(-1.742287e-08 -2.5383384e-09 0)
(8.9147682e-09 4.9123806e-10 0)
(6.8402154e-08 1.2223512e-08 0)
(-2.8798824e-08 -4.5323598e-09 0)
(2.381813e-08 3.2149364e-09 0)
(-1.3573663e-08 -2.0515172e-09 0)
(1.1074182e-08 1.6128234e-09 0)
(-7.2778235e-09 -1.074341e-09 0)
(5.1398798e-09 6.8363701e-10 0)
(-2.9288542e-09 -3.3047155e-10 0)
(1.2501584e-09 1.5147776e-11 0)
(1.116771e-08 1.4758264e-09 0)
(-1.1530523e-08 -9.4834598e-10 0)
(4.9699017e-09 5.3372054e-10 0)
(-3.8525377e-09 -4.2184651e-10 0)
(2.1977359e-09 2.6375135e-10 0)
(-1.5659303e-09 -1.7440601e-10 0)
(9.2231087e-10 9.687821e-11 0)
(-4.91626e-10 -3.7437874e-11 0)
(1.7494264e-10 -5.1000107e-12 0)
(2.4596142e-11 -1.8553803e-12 0)
(-8.0232662e-11 -3.7458449e-12 0)
(1.7361192e-10 1.2099953e-11 0)
(-2.8989588e-10 -2.456211e-11 0)
(5.3117097e-10 4.2908307e-11 0)
(-7.6520191e-10 -6.4888351e-11 0)
(1.6863143e-09 1.0675341e-10 0)
(-2.4652542e-09 -2.2038711e-10 0)
(7.8993725e-09 9.9351982e-10 0)
(3.4341951e-12 -3.164442e-13 0)
(-1.3069805e-11 -1.0996695e-13 0)
(2.9268104e-11 1.2739655e-12 0)
(-5.9922376e-11 -2.8599017e-12 0)
(9.7770097e-11 5.5425622e-12 0)
(-2.0999199e-10 -8.7122043e-12 0)
(3.2405629e-10 1.2218152e-11 0)
(-9.8221945e-10 -9.7247614e-12 0)
(1.1427792e-09 9.1800891e-11 0)
(3.8102031e-13 -7.0820178e-14 0)
(-1.8632434e-12 3.5349949e-14 0)
(5.2812739e-12 9.8893455e-14 0)
(-1.0037157e-11 -2.0540894e-13 0)
(2.2776692e-11 3.8892976e-13 0)
(-3.8320785e-11 -6.9854434e-13 0)
(1.0776868e-10 -1.0785817e-12 0)
(-1.890799e-10 -4.1988695e-12 0)
(7.71185e-10 6.3426299e-11 0)
(-3.6057726e-14 -4.5995254e-15 0)
(-3.5251411e-13 1.2271223e-14 0)
(7.1857118e-13 -3.5204386e-14 0)
(-1.9917911e-12 9.8470574e-14 0)
(3.9881592e-12 4.4996735e-15 0)
(-1.0202744e-11 2.7702499e-13 0)
(1.9436904e-11 -6.8598809e-13 0)
(-7.7511967e-11 4.5414667e-12 0)
(1.0736781e-10 4.2970232e-12 0)
(0 0 0)
(-3.4323262e-14 -5.1915047e-16 0)
(1.074764e-13 1.9812562e-15 0)
(-3.3415541e-13 -1.0413064e-14 0)
(1.1088818e-12 -6.0001395e-14 0)
(-1.6923716e-12 1.1240225e-13 0)
(6.5408986e-12 -5.4269817e-13 0)
(-1.3791262e-11 7.050404e-13 0)
(6.9333689e-11 2.9117972e-12 0)
(1.8632997e-14 0 0)
(-2.0014944e-14 0 0)
(2.2383543e-14 -1.0802868e-14 0)
(1.4892514e-14 2.7520052e-15 0)
(7.6168989e-15 -1.2709817e-14 0)
(-4.8361736e-13 5.574799e-14 0)
(9.9864703e-13 -1.0612793e-13 0)
(-5.7793658e-12 7.9915156e-13 0)
(9.8253244e-12 -9.4385712e-14 0)
(1.0972667e-14 -3.8460894e-15 0)
(2.0258426e-14 1.4256867e-14 0)
(0 0 0)
(0 -1.1891499e-14 0)
(3.5993747e-14 5.6562302e-15 0)
(-4.5530108e-14 8.2320383e-15 0)
(3.3787332e-13 -6.1040951e-14 0)
(-9.2638287e-13 1.0959367e-13 0)
(6.4441079e-12 -1.918995e-13 0)
(-3.0158171e-14 0 0)
(-1.0253994e-17 -1.2811084e-15 0)
(-4.4351748e-14 1.3856455e-15 0)
(-2.4152198e-14 0 0)
(2.6533851e-14 -1.1595306e-14 0)
(-5.9242156e-14 7.7430409e-15 0)
(5.9766848e-15 -3.0202428e-15 0)
(-3.5720293e-13 6.2631582e-14 0)
(1.4446838e-12 1.6486956e-14 0)
(1.9290245e-14 -9.6403e-15 0)
(2.0742935e-14 7.7837914e-15 0)
(6.7397623e-14 8.4204877e-15 0)
(2.4507651e-14 -2.448927e-14 0)
(-5.384536e-14 6.0909365e-15 0)
(0 1.1645604e-14 0)
(3.5777391e-14 8.1338974e-15 0)
(1.1401485e-13 -1.1690403e-13 0)
(3.8764482e-13 -8.6105487e-14 0)
(-8.7892115e-15 2.3375233e-13 0)
(-4.5589818e-14 2.1549232e-14 0)
(-3.4268304e-14 -4.283538e-15 0)
(6.0890976e-14 -7.6113719e-15 0)
(8.2027722e-14 -1.3682695e-14 0)
(0 2.4861402e-14 0)
(1.1386327e-13 -7.1926539e-16 0)
(2.1015438e-14 -1.7878629e-14 0)
(0 -7.1625105e-15 0)
(-2.3377331e-13 -5.2649019e-14 0)
(7.182308e-14 -1.6283246e-13 0)
(3.4988909e-14 4.3692378e-15 0)
(-3.1012666e-14 3.8742573e-14 0)
(-5.560413e-14 6.9505163e-15 0)
(-2.5251039e-14 -1.2606581e-14 0)
(-9.2349809e-14 1.4436156e-14 0)
(-2.1348064e-14 -1.0688672e-14 0)
(3.9485837e-14 -7.6917897e-15 0)
(2.6706245e-13 -7.485476e-14 0)
(6.1555826e-14 6.1427156e-14 0)
(7.0944324e-14 -7.9427964e-15 0)
(2.2041863e-14 -1.4461516e-14 0)
(-1.6962002e-13 3.5366405e-14 0)
(2.56399e-14 -6.4099749e-15 0)
(-9.363786e-14 2.3412394e-14 0)
(-2.1473677e-14 1.7650263e-14 0)
(-3.9959788e-14 9.9974414e-15 0)
(2.3044372e-14 -7.8370233e-14 0)
(5.0767758e-14 -2.0162505e-13 0)
(-1.0904428e-13 1.8116187e-14 0)
(-5.4680934e-14 -2.6213025e-14 0)
(2.8771069e-14 -7.2359669e-15 0)
(-5.2186058e-14 3.2547929e-14 0)
(4.7493094e-14 -1.3236754e-14 0)
(-4.3696725e-14 -2.1799191e-15 0)
(0 -8.9962628e-15 0)
(2.7860447e-14 -7.3659015e-14 0)
(-1.5232352e-13 8.8604513e-14 0)
(7.4707376e-14 -3.5924552e-14 0)
(0 1.7204238e-15 0)
(1.1705118e-13 -3.0354471e-14 0)
(-2.634881e-14 6.6533391e-15 0)
(2.4084363e-14 6.0331451e-15 0)
(6.6411445e-14 -5.5333644e-15 0)
(2.0476451e-14 2.0461094e-14 0)
(-1.1364298e-12 4.4787873e-13 0)
(2.4200443e-13 -2.3101939e-13 0)
(-8.0110749e-14 4.7589645e-14 0)
(6.6984966e-14 -2.3925596e-14 0)
(-2.983186e-14 -1.565054e-14 0)
(1.0750037e-13 -2.535627e-14 0)
(-2.4438207e-14 2.890876e-14 0)
(2.2398097e-14 -2.1859466e-14 0)
(-4.1442069e-14 -2.9158714e-14 0)
(3.4096229e-13 -3.739119e-13 0)
(-2.7706848e-13 2.8643014e-13 0)
(1.5256295e-15 -2.4229149e-14 0)
(-3.4163291e-14 1.708592e-14 0)
(9.1082871e-14 3.7970181e-18 0)
(3.8730267e-14 -5.1435433e-15 0)
(-2.4827443e-14 -6.2006538e-15 0)
(1.3621366e-13 -3.4050572e-14 0)
(4.1954046e-14 -2.0982271e-14 0)
(8.3324894e-13 -2.0084284e-13 0)
(8.6802627e-14 -2.0779774e-13 0)
(8.2723709e-14 4.0460507e-15 0)
(-1.7457327e-17 1.743987e-14 0)
(-3.0940577e-17 7.7351443e-15 0)
(-8.1058476e-14 4.2223744e-15 0)
(1.0098947e-13 1.2469314e-14 0)
(-4.5979722e-14 3.0728108e-14 0)
(-1.0641067e-14 -4.5126203e-14 0)
(1.2435253e-13 -2.5875382e-13 0)
(1.0435972e-13 4.1639941e-14 0)
(-1.8307222e-14 4.1458059e-15 0)
(3.5662441e-14 -2.1299393e-14 0)
(-6.2974088e-14 -1.4108087e-15 0)
(-1.6370937e-14 4.5178983e-14 0)
(5.1130089e-14 1.278892e-14 0)
(-1.3923357e-13 2.0383346e-14 0)
(1.0789452e-14 1.6146491e-14 0)
(-4.3527398e-14 0 0)
(2.2511421e-14 -5.2774692e-14 0)
(-2.5592546e-14 -1.2631241e-14 0)
(-8.3546367e-14 3.1684749e-14 0)
(1.5217121e-14 -7.6085605e-15 0)
(-3.3830799e-14 -1.349678e-14 0)
(-3.8075944e-14 -2.046582e-15 0)
(1.141522e-13 -2.2501928e-13 0)
(-4.6807819e-13 5.1407358e-13 0)
(2.2134411e-14 1.1067206e-17 0)
(3.5801467e-14 -1.7882833e-14 0)
(-5.1764817e-14 1.0551063e-13 0)
(3.1186183e-14 7.0395308e-15 0)
(4.6778413e-14 -4.6739418e-14 0)
(0 0 0)
(4.846289e-14 -8.404026e-15 0)
(8.8574451e-14 9.6936689e-14 0)
(-1.5981883e-12 6.0042612e-13 0)
(-2.2517924e-14 1.2593149e-14 0)
(-4.8628354e-14 -1.5439502e-15 0)
(-2.6395405e-14 2.3541847e-14 0)
(8.6644191e-14 -7.2215546e-14 0)
(-3.1963371e-14 9.2853592e-15 0)
(-3.5707917e-14 -2.3710057e-14 0)
(-1.8888367e-14 -2.8008981e-15 0)
(-1.6529537e-13 1.147904e-13 0)
(6.1108355e-13 8.9593378e-14 0)
(2.291503e-14 0 0)
(8.6598468e-14 -4.9506077e-14 0)
(-1.3485117e-17 -1.3464889e-14 0)
(-4.2903122e-16 2.219127e-16 0)
(3.2769385e-14 -1.6384692e-14 0)
(0 1.8541939e-14 0)
(-3.193518e-14 2.0830921e-14 0)
(2.8659264e-14 -2.6083558e-14 0)
(2.1748786e-12 -2.1579718e-12 0)
(4.6629367e-14 -6.9897398e-14 0)
(-5.2148138e-14 2.4811096e-14 0)
(-5.9559327e-14 5.9290794e-14 0)
(-2.9808463e-14 3.4637767e-14 0)
(-3.3617063e-14 3.0826846e-14 0)
(3.8728955e-14 -2.0781391e-15 0)
(7.2201321e-14 -5.7957303e-14 0)
(4.4294276e-13 -3.3186167e-13 0)
(2.4795688e-13 2.9729561e-13 0)
(-2.3764577e-14 3.562905e-14 0)
(-1.526159e-13 8.9329696e-14 0)
(-2.3199949e-14 2.6386601e-14 0)
(9.293796e-14 -6.1976723e-14 0)
(-3.4492558e-14 -2.5218046e-14 0)
(0 1.9457926e-14 0)
(4.0128155e-14 -1.1141753e-13 0)
(5.1602174e-13 -3.9618805e-13 0)
(-3.3478287e-12 3.2457177e-12 0)
(2.4207051e-14 3.6231942e-14 0)
(2.6307425e-14 -2.6281143e-17 0)
(5.7191211e-14 -7.182336e-14 0)
(0 -1.1408914e-14 0)
(3.5433508e-14 2.5489437e-14 0)
(8.2721743e-14 -8.7535811e-14 0)
(6.4122357e-14 -1.0345967e-13 0)
(8.456148e-14 1.0496677e-13 0)
(-1.0605408e-12 5.8876581e-13 0)
(6.1634962e-17 3.6937833e-14 0)
(1.3360838e-13 -5.3378977e-14 0)
(0 1.4705956e-14 0)
(-6.5057466e-14 3.2536871e-14 0)
(1.8241001e-14 -3.6427334e-14 0)
(-3.6220793e-15 1.2584139e-14 0)
(1.0490216e-13 -1.0063901e-13 0)
(-6.0130786e-13 4.1049541e-13 0)
(1.8122519e-12 -2.8383982e-12 0)
(0 -1.2364318e-14 0)
(-2.7238273e-14 -1.3728692e-14 0)
(0 0 0)
(0 -8.6228523e-15 0)
(1.6123759e-15 1.0424198e-14 0)
(-6.6914883e-14 3.3393306e-14 0)
(6.8632447e-15 -6.4591588e-14 0)
(-4.0837873e-13 4.7070679e-13 0)
(1.412327e-12 -9.1857938e-13 0)
(-6.2101874e-17 2.485317e-14 0)
(-1.0860339e-13 8.0332263e-14 0)
(-2.8983944e-14 6.2460399e-15 0)
(0 0 0)
(-5.3657187e-14 0 0)
(0 1.9327376e-14 0)
(-1.4532799e-13 3.7446476e-14 0)
(-1.6064677e-13 -7.2568194e-14 0)
(5.0553148e-13 -8.560302e-13 0)
(-4.8109026e-14 8.0851562e-14 0)
(1.7712074e-15 -1.5527154e-14 0)
(2.7935368e-14 -5.5800898e-14 0)
(0 0 0)
(0 0 0)
(7.3568578e-14 -3.6793492e-14 0)
(4.8583939e-15 -7.6169735e-15 0)
(-2.1136748e-13 1.476373e-13 0)
(-1.1114648e-12 6.5943419e-13 0)
(0 1.1663728e-14 0)
(7.5007684e-14 -7.5095251e-14 0)
(5.7006941e-14 -2.1756728e-14 0)
(2.9183373e-14 -2.9197987e-14 0)
(6.101325e-14 -6.101325e-14 0)
(1.7568392e-17 3.5119215e-14 0)
(-6.9245443e-14 2.2710473e-14 0)
(-8.1103184e-14 3.7215417e-14 0)
(-4.8947577e-13 -2.3804293e-14 0)
(4.5274818e-14 -3.3964609e-14 0)
(4.8455883e-14 1.4322294e-14 0)
(-1.561723e-14 -3.0478997e-15 0)
(8.4455552e-14 -5.4308947e-14 0)
(-2.7978271e-14 5.0532497e-14 0)
(-6.718152e-14 3.359076e-14 0)
(-3.7205209e-14 0 0)
(-1.0228853e-13 5.8498207e-14 0)
(1.4000967e-12 -5.8224387e-13 0)
(3.2715861e-14 -8.4403179e-15 0)
(-2.3508346e-14 1.3043232e-33 0)
(-2.6111337e-13 1.7908625e-13 0)
(-5.4299955e-14 8.1456725e-14 0)
(-8.9440473e-14 8.9425735e-14 0)
(-3.220577e-14 0 0)
(0 0 0)
(-1.1899257e-14 -1.0319937e-13 0)
(-5.6613498e-13 1.1084615e-13 0)
(-3.1809277e-14 3.1434799e-14 0)
(3.0031173e-14 9.1473083e-14 0)
(-3.8558023e-14 3.7093794e-14 0)
(-7.0538207e-14 -4.5026342e-14 0)
(1.0220721e-15 -2.0441442e-15 0)
(6.1832789e-14 0 0)
(6.7870056e-14 0 0)
(-1.2165851e-14 -6.1111305e-15 0)
(-1.0770208e-12 6.3699837e-13 0)
(-1.7052996e-14 1.3091662e-14 0)
(-4.4264068e-14 4.3566386e-14 0)
(2.9586841e-13 -2.5973353e-13 0)
(-2.394981e-14 2.394981e-14 0)
(5.4754315e-14 -2.7370311e-14 0)
(2.9651852e-14 -2.9681578e-14 0)
(-6.1437197e-15 -3.5529553e-14 0)
(1.230015e-14 -1.2067057e-14 0)
(4.8209477e-13 -8.69462e-13 0)
(-1.2763128e-14 1.2763128e-14 0)
(-4.8660238e-15 -2.5794233e-14 0)
(8.5557425e-14 -4.736358e-14 0)
(-2.8889188e-14 7.3568511e-14 0)
(-2.2397225e-13 1.7117256e-13 0)
(4.2936324e-17 -2.8638528e-14 0)
(4.3514645e-15 -4.3514645e-15 0)
(-2.2984211e-13 8.275961e-15 0)
(1.7096033e-13 3.8511815e-14 0)
(8.8508143e-15 1.0870894e-14 0)
(4.1862608e-14 -2.0915594e-14 0)
(-2.184463e-15 3.8406426e-14 0)
(4.756453e-14 3.5310173e-14 0)
(-1.0712519e-29 4.6665926e-15 0)
(-5.5146963e-14 -4.0960007e-14 0)
(-7.2991456e-14 9.6542407e-14 0)
(-8.1047366e-15 7.4452013e-14 0)
(-9.5441937e-13 5.720737e-13 0)
(6.0862712e-13 -5.2138666e-13 0)
(-5.8189113e-14 -4.8514993e-14 0)
(1.1822656e-14 -4.3143724e-14 0)
(6.8071544e-14 -3.4035772e-14 0)
(2.089801e-13 -1.9605059e-13 0)
(2.6300236e-14 -2.6326563e-14 0)
(-4.7284847e-14 -2.5776686e-14 0)
(-2.1464696e-14 -4.2907928e-14 0)
(1.9650246e-17 -9.8202104e-15 0)
(2.2951252e-13 -2.7692222e-13 0)
(-9.1409711e-14 -9.6490618e-15 0)
(1.0421417e-13 -8.5984455e-14 0)
(-6.9535863e-15 3.3553549e-14 0)
(5.829747e-14 -6.2328523e-14 0)
(3.8191848e-14 -4.6482052e-14 0)
(-7.0876737e-14 1.0390599e-13 0)
(2.2004151e-15 1.8957422e-14 0)
(-1.4447621e-15 -1.6532345e-15 0)
(5.5982873e-13 -4.6360346e-13 0)
(-9.3544585e-15 -8.6314086e-15 0)
(-1.8898744e-14 -1.8917662e-17 0)
(-9.1077226e-14 3.6313749e-14 0)
(9.3851697e-14 -1.4984017e-13 0)
(-2.3362908e-14 -1.2393273e-14 0)
(2.4050314e-14 -4.0939386e-14 0)
(-4.3857374e-14 -4.9333027e-15 0)
(-3.6838664e-14 3.9901375e-14 0)
(2.3221396e-13 -3.6319745e-14 0)
(-9.8600387e-14 1.1039648e-13 0)
(-4.0950338e-15 1.6656827e-14 0)
(-1.244914e-14 5.9809999e-14 0)
(-5.2170797e-14 1.2808869e-13 0)
(-1.6892651e-13 2.0660319e-13 0)
(1.2795247e-14 3.23379e-14 0)
(-1.5756405e-14 3.6336409e-14 0)
(1.8897535e-14 -9.4487674e-18 0)
(-3.5557554e-13 4.7491762e-13 0)
(1.277688e-14 -1.7572469e-13 0)
(1.0793082e-13 -3.6012934e-14 0)
(0 0 0)
(-8.2423265e-14 4.7766467e-14 0)
(-3.6891247e-14 1.8777424e-14 0)
(-5.7025107e-14 6.3748979e-14 0)
(-2.1910814e-15 2.1778943e-14 0)
(-1.8659281e-14 9.3296404e-15 0)
(-1.0053545e-13 -1.3957101e-13 0)
(4.0674009e-14 -9.7866013e-14 0)
(-1.8940652e-14 3.0642391e-14 0)
(1.9689123e-15 -1.9536494e-15 0)
(5.3965025e-14 5.3965025e-14 0)
(1.9336194e-13 -1.6942742e-13 0)
(0 -2.314699e-14 0)
(-2.5116823e-15 -1.0106769e-14 0)
(3.6853918e-14 3.6844705e-14 0)
(3.3435536e-13 -1.0365607e-13 0)
(-2.7666742e-14 -1.3410517e-14 0)
(-2.7271389e-14 -2.9931594e-14 0)
(3.1209921e-14 -6.167212e-14 0)
(-2.6499424e-14 -5.2998848e-14 0)
(2.3787735e-17 -4.757547e-14 0)
(-2.1579484e-17 -4.3115808e-14 0)
(1.973653e-14 -3.9492806e-14 0)
(-3.6400706e-14 -3.6400706e-14 0)
(9.359505e-14 2.1697664e-13 0)
(-1.2937685e-13 5.4887149e-14 0)
(2.4992679e-15 2.7609362e-14 0)
(7.2543508e-14 -1.1345459e-13 0)
(7.7995645e-14 -1.0400287e-13 0)
(-2.3411385e-14 -2.3434797e-14 0)
(4.255989e-14 -2.126931e-17 0)
(1.9447397e-14 0 0)
(0 3.5958467e-14 0)
(-8.2364123e-14 2.1937107e-15 0)
(-6.9779225e-14 5.7022651e-14 0)
(-1.1064674e-13 3.8577101e-14 0)
(-8.9892003e-14 8.8914604e-14 0)
(5.1115401e-14 -5.1089818e-14 0)
(0 4.6093757e-14 0)
(-2.0968047e-17 -4.1915126e-14 0)
(-3.6677705e-14 -1.7117544e-15 0)
(2.0356923e-14 -6.215434e-14 0)
(-6.5092437e-13 1.2134601e-12 0)
(-1.1477493e-14 -4.5014269e-14 0)
(0 3.4096373e-15 0)
(-2.8299936e-14 2.8739333e-14 0)
(-4.6869342e-14 4.685761e-14 0)
(0 2.0481961e-14 0)
(0 0 0)
(-7.3489249e-16 7.1039607e-16 0)
(7.4141722e-15 3.703379e-15 0)
(-6.4836798e-14 -7.1006548e-14 0)
(-1.7893204e-14 1.4299982e-13 0)
(0 -2.3172292e-16 0)
(5.2247168e-14 -1.4252972e-14 0)
(0 -2.2631029e-14 0)
(0 -2.0481939e-14 0)
(0 3.6335746e-14 0)
(0 -8.1573101e-15 0)
(-2.2198023e-14 2.7929176e-14 0)
(2.9502473e-13 -3.9568976e-13 0)
(2.1309369e-14 -4.2097981e-14 0)
(6.6173388e-14 -5.4934836e-14 0)
(-4.8649526e-14 5.4073337e-14 0)
(-2.3440537e-14 2.3428805e-14 0)
(-1.4962073e-14 2.4322329e-14 0)
(-1.816333e-14 -4.5067592e-15 0)
(0 -4.1153961e-15 0)
(-2.9656677e-17 -6.1018613e-15 0)
(8.2495678e-13 -2.2600068e-12 0)
(-3.7890349e-14 7.1760447e-14 0)
(-1.6551637e-17 1.6998532e-14 0)
(-2.7187711e-15 -2.3947156e-14 0)
(4.6787188e-14 -4.4687162e-14 0)
(-5.4994006e-15 -1.3927718e-15 0)
(-9.0862081e-18 9.0862081e-18 0)
(0 8.1573101e-15 0)
(2.2227688e-14 -7.4067581e-15 0)
(-3.1272237e-13 1.6843311e-12 0)
(-3.8744307e-14 -1.5381073e-13 0)
(-6.6156894e-14 5.8659003e-14 0)
(2.7434912e-14 1.3731187e-17 0)
(-2.2056174e-15 -2.5892541e-14 0)
(4.0922958e-14 -6.1343474e-14 0)
(-3.9252438e-15 3.9252438e-15 0)
(0 -1.1007056e-14 0)
(7.4141664e-18 1.4817212e-14 0)
(-1.1177606e-12 1.2581654e-12 0)
(1.2129468e-13 -9.8673002e-14 0)
(0 -6.4220297e-15 0)
(-2.7448604e-14 5.4897207e-14 0)
(-4.4581574e-14 7.2679697e-14 0)
(0 2.0461457e-14 0)
(5.8515152e-15 8.3774799e-15 0)
(0 2.7338e-14 0)
(-1.3360338e-14 1.3360338e-14 0)
(4.0941694e-13 -1.1903473e-12 0)
(-2.1892665e-14 8.9362067e-14 0)
(0 -2.2179213e-15 0)
(-2.7366256e-14 2.7366256e-14 0)
(2.3440551e-14 -2.3428819e-14 0)
(0 -4.0922958e-14 0)
(-2.008053e-14 3.8252955e-14 0)
(-1.6322786e-14 -1.6347282e-14 0)
(-1.6281522e-14 3.8520332e-14 0)
(-6.256133e-14 5.4135777e-13 0)
(-1.0435967e-14 -5.4387842e-14 0)
(0 0 0)
(-1.3731167e-17 1.0737773e-14 0)
(0 2.342879e-14 0)
(0 -2.0410252e-14 0)
(0 -3.6344815e-14 0)
(1.6322772e-14 1.6339103e-14 0)
(0 7.4141664e-15 0)
(-2.6521846e-13 1.8426798e-12 0)
(8.1071421e-14 -4.9263595e-14 0)
(0 -1.3572331e-15 0)
(2.7379948e-14 -2.7379948e-14 0)
(-2.3440537e-14 2.3452269e-14 0)
(-3.5587407e-14 6.6064566e-14 0)
(-4.0887956e-15 1.453794e-14 0)
(0 -1.6330951e-14 0)
(0 -1.4828344e-14 0)
(7.7550792e-14 -2.0957925e-13 0)
(-6.16155e-15 0 0)
(9.1742046e-15 -5.5049818e-14 0)
(-8.6468797e-16 2.7794967e-14 0)
(-6.3420766e-15 -6.4836162e-14 0)
(2.3329e-15 0 0)
(2.5059043e-15 1.6026563e-14 0)
(1.7516047e-15 0 0)
(-6.2521208e-15 2.4983462e-14 0)
(-5.002411e-14 -4.3778777e-14 0)
(-1.3976571e-15 1.0834299e-13 0)
(1.1464887e-14 0 0)
(-1.6126669e-14 -2.7781084e-14 0)
(-9.3371501e-15 -2.0536847e-15 0)
(1.7482754e-14 0 0)
(-6.7575736e-15 8.0092731e-15 0)
(-3.0780456e-15 0 0)
(1.5638121e-17 -8.7504669e-14 0)
(4.6385582e-14 -1.6124666e-13 0)
(-1.715137e-14 1.895528e-13 0)
(-4.5813641e-15 0 0)
(-3.4708999e-15 0 0)
(-6.9674591e-15 1.1152399e-13 0)
(2.330567e-15 0 0)
(-1.5543522e-15 0 0)
(-1.1820257e-14 0 0)
(1.2544901e-14 0 0)
(-6.0545119e-14 -2.0181706e-13 0)
(3.4865191e-14 -1.8930884e-13 0)
(-1.3767046e-14 3.6687639e-14 0)
(5.674922e-15 0 0)
(-1.3428475e-14 3.3461667e-14 0)
(4.1992201e-16 0 0)
(9.9213967e-16 -7.9130655e-15 0)
(-8.7808629e-15 1.4040948e-14 0)
(-1.8728214e-14 2.37174e-13 0)